<LesHouchesEvents version="3.0">
<header>
<!--
#*********************************************************************
#                                                                    *
#                        MadGraph5_aMC@NLO                           *
#                                                                    *
#                           Going Beyond                             *
#                                                                    *
#                   http://madgraph.hep.uiuc.edu                     *
#                   http://madgraph.phys.ucl.ac.be                   *
#                   http://amcatnlo.cern.ch                          *
#                                                                    *
#                     The MadGraph5_aMC@NLO team                     *
#                                                                    *
#....................................................................*
#                                                                    *
# This file contains all the information necessary to reproduce      *
# the events generated:                                              *
#                                                                    *
# 1. software version                                                *
# 2. proc_card          : code generation info including model       *
# 3. param_card         : model primary parameters in the LH format  *
# 4. run_card           : running parameters (collider and cuts)     *
# 5. pythia_card        : present only if pythia has been run        *
# 6. pgs_card           : present only if pgs has been run           *
# 7. delphes_cards      : present only if delphes has been run       *
#                                                                    *
#                                                                    *
#*********************************************************************
-->
<MGVersion>
#5.2.2.3
</MGVersion>
<MG5ProcCard>
#************************************************************
#*                     MadGraph5_aMC@NLO                    *
#*                                                          *
#*                *                       *                 *
#*                  *        * *        *                   *
#*                    * * * * 5 * * * *                     *
#*                  *        * *        *                   *
#*                *                       *                 *
#*                                                          *
#*                                                          *
#*         VERSION 2.2.3                 2015-02-10         *
#*                                                          *
#*    The MadGraph5_aMC@NLO Development Team - Find us at   *
#*    https://server06.fynu.ucl.ac.be/projects/madgraph     *
#*                                                          *
#************************************************************
#*                                                          *
#*               Command File for MadGraph5_aMC@NLO         *
#*                                                          *
#*     run as ./bin/mg5_aMC  filename                       *
#*                                                          *
#************************************************************
set group_subprocesses Auto
set ignore_six_quark_processes False
set loop_optimized_output True
set gauge unitary
set complex_mass_scheme False
import model sm
define p = g u c d s u~ c~ d~ s~
define j = g u c d s u~ c~ d~ s~
define l+ = e+ mu+
define l- = e- mu-
define vl = ve vm vt
define vl~ = ve~ vm~ vt~
import model Zprime_UFO
generate p p > zph, zph > j j
add process p p > zph, zph > b b~
output Dijet_signal
</MG5ProcCard>
<MGProcCard>
#*********************************************************************
#                        MadGraph/MadEvent                           *
#                   http://madgraph.hep.uiuc.edu                     *
#                                                                    *
#                          proc_card.dat                             *
#*********************************************************************
#                                                                    *
#            This Files is generated by MADGRAPH 5                   *
#                                                                    *
# WARNING: This Files is generated for MADEVENT (compatibility issue)*
#          This files is NOT a valid MG4 proc_card.dat               *
#          Running this in MG4 will NEVER reproduce the result of MG5*
#                                                                    *
#*********************************************************************
#*********************************************************************
# Process(es) requested : mg2 input                                  *
#*********************************************************************
# Begin PROCESS # This is TAG. Do not modify this line
p p > zph , zph > j j           #Process
# Be carefull the coupling are here in MG5 convention
          
end_coup           # End the couplings input

done               # this tells MG there are no more procs
# End PROCESS  # This is TAG. Do not modify this line
#*********************************************************************
# Model information                                                  *
#*********************************************************************
# Begin MODEL  # This is TAG. Do not modify this line
Zprime_UFO
# End   MODEL  # This is TAG. Do not modify this line
#*********************************************************************
# Start multiparticle definitions                                    *
#*********************************************************************
# Begin MULTIPARTICLES # This is TAG. Do not modify this line

# End  MULTIPARTICLES # This is TAG. Do not modify this line
</MGProcCard>
<MGRunCard>
#*********************************************************************
#                       MadGraph5_aMC@NLO                            *
#                                                                    *
#                     run_card.dat MadEvent                          *
#                                                                    *
#  This file is used to set the parameters of the run.               *
#                                                                    *
#  Some notation/conventions:                                        *
#                                                                    *
#   Lines starting with a '# ' are info or comments                  *
#                                                                    *
#   mind the format:   value    = variable     ! comment             *
#*********************************************************************
#
#*******************                                                 
# Running parameters
#*******************                                                 
#                                                                    
#*********************************************************************
# Tag name for the run (one word)                                    *
#*********************************************************************
  tag_1     = run_tag ! name of the run 
#*********************************************************************
# Run to generate the grid pack                                      *
#*********************************************************************
  .false.     = gridpack  !True = setting up the grid pack
#*********************************************************************
# Number of events and rnd seed                                      *
# Warning: Do not generate more than 1M events in a single run       *
# If you want to run Pythia, avoid more than 50k events in a run.    *
#*********************************************************************
  2000 = nevents ! Number of unweighted events requested 
 1164 = iseed   ! rnd seed (0=assigned automatically=default))
#*********************************************************************
# Collider type and energy                                           *
# lpp: 0=No PDF, 1=proton, -1=antiproton, 2=photon from proton,      *
#                                         3=photon from electron     *
#*********************************************************************
        1     = lpp1    ! beam 1 type 
        1     = lpp2    ! beam 2 type
     4000     = ebeam1  ! beam 1 total energy in GeV
     4000     = ebeam2  ! beam 2 total energy in GeV
#*********************************************************************
# Beam polarization from -100 (left-handed) to 100 (right-handed)    *
#*********************************************************************
        0     = polbeam1 ! beam polarization for beam 1
        0     = polbeam2 ! beam polarization for beam 2
#*********************************************************************
# PDF CHOICE: this automatically fixes also alpha_s and its evol.    *
#*********************************************************************
 'nn23lo1'    = pdlabel     ! PDF set                                     
 230000    = lhaid     ! if pdlabel=lhapdf, this is the lhapdf number
#*********************************************************************
# Renormalization and factorization scales                           *
#*********************************************************************
 F        = fixed_ren_scale  ! if .true. use fixed ren scale
 F        = fixed_fac_scale  ! if .true. use fixed fac scale
 91.1880  = scale            ! fixed ren scale
 91.1880  = dsqrt_q2fact1    ! fixed fact scale for pdf1
 91.1880  = dsqrt_q2fact2    ! fixed fact scale for pdf2
 1        = scalefact        ! scale factor for event-by-event scales
#*********************************************************************
# Matching - Warning! ickkw > 1 is still beta
#*********************************************************************
 0        = ickkw            ! 0 no matching, 1 MLM, 2 CKKW matching
 1        = highestmult      ! for ickkw=2, highest mult group
 1        = ktscheme         ! for ickkw=1, 1 Durham kT, 2 Pythia pTE
 1        = alpsfact         ! scale factor for QCD emission vx
 F        = chcluster        ! cluster only according to channel diag
 T        = pdfwgt           ! for ickkw=1, perform pdf reweighting
 5        = asrwgtflavor     ! highest quark flavor for a_s reweight
 T        = clusinfo         ! include clustering tag in output
 3.0      = lhe_version       ! Change the way clustering information pass to shower.        
#*********************************************************************
#**********************************************************
#
#**********************************************************
# Automatic ptj and mjj cuts if xqcut > 0
# (turn off for VBF and single top processes)
#**********************************************************
   T  = auto_ptj_mjj  ! Automatic setting of ptj and mjj
#**********************************************************
#                                                                    
#**********************************
# BW cutoff (M+/-bwcutoff*Gamma)
#**********************************
  15  = bwcutoff      ! (M+/-bwcutoff*Gamma)
#**********************************************************
# Apply pt/E/eta/dr/mij cuts on decay products or not
# (note that etmiss/ptll/ptheavy/ht/sorted cuts always apply)
#**********************************************************
   T  = cut_decays    ! Cut decay products 
#*************************************************************
# Number of helicities to sum per event (0 = all helicities)
# 0 gives more stable result, but longer run time (needed for
# long decay chains e.g.).
# Use >=2 if most helicities contribute, e.g. pure QCD.
#*************************************************************
   0  = nhel          ! Number of helicities used per event
#*******************                                                 
# Standard Cuts
#*******************                                                 
#                                                                    
#*********************************************************************
# Minimum and maximum pt's (for max, -1 means no cut)                *
#*********************************************************************
 20  = ptj       ! minimum pt for the jets 
  0  = ptb       ! minimum pt for the b 
 10  = pta       ! minimum pt for the photons 
 10  = ptl       ! minimum pt for the charged leptons 
  0  = misset    ! minimum missing Et (sum of neutrino's momenta)
  0  = ptheavy   ! minimum pt for one heavy final state
 1.0 = ptonium   ! minimum pt for the quarkonium states
 -1  = ptjmax    ! maximum pt for the jets
 -1  = ptbmax    ! maximum pt for the b
 -1  = ptamax    ! maximum pt for the photons
 -1  = ptlmax    ! maximum pt for the charged leptons
 -1  = missetmax ! maximum missing Et (sum of neutrino's momenta)
#*********************************************************************
# Minimum and maximum E's (in the center of mass frame)              *
#*********************************************************************
  0  = ej     ! minimum E for the jets 
  0  = eb     ! minimum E for the b 
  0  = ea     ! minimum E for the photons 
  0  = el     ! minimum E for the charged leptons 
 -1   = ejmax ! maximum E for the jets
 -1   = ebmax ! maximum E for the b
 -1   = eamax ! maximum E for the photons
 -1   = elmax ! maximum E for the charged leptons
#*********************************************************************
# Maximum and minimum absolute rapidity (for max, -1 means no cut)   *
#*********************************************************************
   5  = etaj    ! max rap for the jets 
  -1  = etab    ! max rap for the b
 2.5  = etaa    ! max rap for the photons 
 2.5  = etal    ! max rap for the charged leptons 
 0.6  = etaonium ! max rap for the quarkonium states
   0  = etajmin ! min rap for the jets
   0  = etabmin ! min rap for the b
   0  = etaamin ! min rap for the photons
   0  = etalmin ! main rap for the charged leptons
#*********************************************************************
# Minimum and maximum DeltaR distance                                *
#*********************************************************************
 0.4 = drjj    ! min distance between jets 
 0   = drbb    ! min distance between b's 
 0.4 = drll    ! min distance between leptons 
 0.4 = draa    ! min distance between gammas 
 0   = drbj    ! min distance between b and jet 
 0.4 = draj    ! min distance between gamma and jet 
 0.4 = drjl    ! min distance between jet and lepton 
 0   = drab    ! min distance between gamma and b 
 0   = drbl    ! min distance between b and lepton 
 0.4 = dral    ! min distance between gamma and lepton 
 -1  = drjjmax ! max distance between jets
 -1  = drbbmax ! max distance between b's
 -1  = drllmax ! max distance between leptons
 -1  = draamax ! max distance between gammas
 -1  = drbjmax ! max distance between b and jet
 -1  = drajmax ! max distance between gamma and jet
 -1  = drjlmax ! max distance between jet and lepton
 -1  = drabmax ! max distance between gamma and b
 -1  = drblmax ! max distance between b and lepton
 -1  = dralmax ! maxdistance between gamma and lepton
#*********************************************************************
# Minimum and maximum invariant mass for pairs                       *
# WARNING: for four lepton final state mmll cut require to have      *
#          different lepton masses for each flavor!                  *           
#*********************************************************************
 0   = mmjj    ! min invariant mass of a jet pair 
 0   = mmbb    ! min invariant mass of a b pair 
 0   = mmaa    ! min invariant mass of gamma gamma pair
 0   = mmll    ! min invariant mass of l+l- (same flavour) lepton pair
 -1  = mmjjmax ! max invariant mass of a jet pair
 -1  = mmbbmax ! max invariant mass of a b pair
 -1  = mmaamax ! max invariant mass of gamma gamma pair
 -1  = mmllmax ! max invariant mass of l+l- (same flavour) lepton pair
#*********************************************************************
# Minimum and maximum invariant mass for all letpons                 *
#*********************************************************************
 0   = mmnl    ! min invariant mass for all letpons (l+- and vl) 
 -1  = mmnlmax ! max invariant mass for all letpons (l+- and vl) 
#*********************************************************************
# Minimum and maximum pt for 4-momenta sum of leptons                *
#*********************************************************************
 0   = ptllmin  ! Minimum pt for 4-momenta sum of leptons(l and vl)
 -1  = ptllmax  ! Maximum pt for 4-momenta sum of leptons(l and vl)
#*********************************************************************
# Inclusive cuts                                                     *
#*********************************************************************
 0  = xptj ! minimum pt for at least one jet  
 0  = xptb ! minimum pt for at least one b 
 0  = xpta ! minimum pt for at least one photon 
 0  = xptl ! minimum pt for at least one charged lepton 
#*********************************************************************
# Control the pt's of the jets sorted by pt                          *
#*********************************************************************
 0   = ptj1min ! minimum pt for the leading jet in pt
 0   = ptj2min ! minimum pt for the second jet in pt
 0   = ptj3min ! minimum pt for the third jet in pt
 0   = ptj4min ! minimum pt for the fourth jet in pt
 -1  = ptj1max ! maximum pt for the leading jet in pt 
 -1  = ptj2max ! maximum pt for the second jet in pt
 -1  = ptj3max ! maximum pt for the third jet in pt
 -1  = ptj4max ! maximum pt for the fourth jet in pt
 0   = cutuse  ! reject event if fails any (0) / all (1) jet pt cuts
#*********************************************************************
# Control the pt's of leptons sorted by pt                           *
#*********************************************************************
 0   = ptl1min ! minimum pt for the leading lepton in pt
 0   = ptl2min ! minimum pt for the second lepton in pt
 0   = ptl3min ! minimum pt for the third lepton in pt
 0   = ptl4min ! minimum pt for the fourth lepton in pt
 -1  = ptl1max ! maximum pt for the leading lepton in pt 
 -1  = ptl2max ! maximum pt for the second lepton in pt
 -1  = ptl3max ! maximum pt for the third lepton in pt
 -1  = ptl4max ! maximum pt for the fourth lepton in pt
#*********************************************************************
# Control the Ht(k)=Sum of k leading jets                            *
#*********************************************************************
 0   = htjmin ! minimum jet HT=Sum(jet pt)
 -1  = htjmax ! maximum jet HT=Sum(jet pt)
 0   = ihtmin  !inclusive Ht for all partons (including b)
 -1  = ihtmax  !inclusive Ht for all partons (including b)
 0   = ht2min ! minimum Ht for the two leading jets
 0   = ht3min ! minimum Ht for the three leading jets
 0   = ht4min ! minimum Ht for the four leading jets
 -1  = ht2max ! maximum Ht for the two leading jets
 -1  = ht3max ! maximum Ht for the three leading jets
 -1  = ht4max ! maximum Ht for the four leading jets
#***********************************************************************
# Photon-isolation cuts, according to hep-ph/9801442                   *
# When ptgmin=0, all the other parameters are ignored                  *
# When ptgmin>0, pta and draj are not going to be used                 *
#***********************************************************************
   0 = ptgmin ! Min photon transverse momentum
 0.4 = R0gamma ! Radius of isolation code
 1.0 = xn ! n parameter of eq.(3.4) in hep-ph/9801442
 1.0 = epsgamma ! epsilon_gamma parameter of eq.(3.4) in hep-ph/9801442
 .true. = isoEM ! isolate photons from EM energy (photons and leptons)
#*********************************************************************
# WBF cuts                                                           *
#*********************************************************************
 0   = xetamin ! minimum rapidity for two jets in the WBF case  
 0   = deltaeta ! minimum rapidity for two jets in the WBF case 
#*********************************************************************
# KT DURHAM CUT                                                      *
#*********************************************************************
 -1    =  ktdurham        
 0.4  =  dparameter 
#*********************************************************************
# maximal pdg code for quark to be considered as a light jet         *
# (otherwise b cuts are applied)                                     *
#*********************************************************************
 4 = maxjetflavor    ! Maximum jet pdg code
#*********************************************************************
# Jet measure cuts                                                   *
#*********************************************************************
 0   = xqcut   ! minimum kt jet measure between partons
#*********************************************************************
#
#*********************************************************************
# Store info for systematics studies                                 *
# WARNING: If use_syst is T, matched Pythia output is                *
#          meaningful ONLY if plotted taking matchscale              *
#          reweighting into account!                                 *
#*********************************************************************
   F  = use_syst      ! Enable systematics studies
#
#**************************************
# Parameter of the systematics study
#  will be used by SysCalc (if installed)
#**************************************                                  
#
0.5 1 2 = sys_scalefact  # factorization/renormalization scale factor
0.5 1 2 = sys_alpsfact  # \alpha_s emission scale factors
30 50 = sys_matchscale # variation of merging scale
# PDF sets and number of members (0 or none for all members).
CT10nlo.LHgrid = sys_pdf # matching scales
# MSTW2008nlo68cl.LHgrid 1  = sys_pdf
</MGRunCard>
<slha>
######################################################################
## PARAM_CARD AUTOMATICALY GENERATED BY MG5 FOLLOWING UFO MODEL   ####
######################################################################
##                                                                  ##
##  Width set on Auto will be computed following the information    ##
##        present in the decay.py files of the model.               ##
##        See  arXiv:1402.1178 for more details.                    ##
##                                                                  ##
######################################################################

###################################
## INFORMATION FOR CKMBLOCK
###################################
Block ckmblock 
    1 2.277360e-01 # cabi 

###################################
## INFORMATION FOR FRBLOCK
###################################
Block frblock 
    1 6.000000e-01 # gz 

###################################
## INFORMATION FOR MASS
###################################
Block mass 
    1 5.040000e-03 # MD 
    2 2.550000e-03 # MU 
    3 1.010000e-01 # MS 
    4 1.270000e+00 # MC 
    5 4.700000e+00 # MB 
    6 1.720000e+02 # MT 
   11 5.110000e-04 # Me 
   13 1.056600e-01 # MM 
   15 1.777000e+00 # MTA 
   23 9.118760e+01 # MZ 
   25 1.200000e+02 # MH 
  10030 7.000000e+02 # MZph 
  10031 3.000000e+02 # MZpl 
## Dependent parameters, given by model restrictions.
## Those values should be edited following the 
## analytical expression. MG5 ignores those values 
## but they are important for interfacing the output of MG5
## to external program such as Pythia.
  12 0.000000 # ve : 0.0 
  14 0.000000 # vm : 0.0 
  16 0.000000 # vt : 0.0 
  21 0.000000 # g : 0.0 
  22 0.000000 # a : 0.0 
  24 79.824360 # w+ : cmath.sqrt(MZ__exp__2/2. + cmath.sqrt(MZ__exp__4/4. - (aEW*cmath.pi*MZ__exp__2)/(Gf*sqrt__2))) 

###################################
## INFORMATION FOR SMINPUTS
###################################
Block sminputs 
    1 1.279000e+02 # aEWM1 
    2 1.166370e-05 # Gf 
    3 1.184000e-01 # aS 

###################################
## INFORMATION FOR YUKAWA
###################################
Block yukawa 
    1 5.040000e-03 # ymdo 
    2 2.550000e-03 # ymup 
    3 1.010000e-01 # yms 
    4 1.270000e+00 # ymc 
    5 4.700000e+00 # ymb 
    6 1.720000e+02 # ymt 
   11 5.110000e-04 # yme 
   13 1.056600e-01 # ymm 
   15 1.777000e+00 # ymtau 

###################################
## INFORMATION FOR DECAY
###################################
DECAY   6 1.508336e+00 # WT 
DECAY  23 2.495200e+00 # WZ 
DECAY  24 2.085000e+00 # WW 
DECAY  25 5.753088e-03 # WH 
## Dependent parameters, given by model restrictions.
## Those values should be edited following the 
## analytical expression. MG5 ignores those values 
## but they are important for interfacing the output of MG5
## to external program such as Pythia.
DECAY  1 0.000000 # d : 0.0 
DECAY  2 0.000000 # u : 0.0 
DECAY  3 0.000000 # s : 0.0 
DECAY  4 0.000000 # c : 0.0 
DECAY  5 0.000000 # b : 0.0 
DECAY  11 0.000000 # e- : 0.0 
DECAY  12 0.000000 # ve : 0.0 
DECAY  13 0.000000 # mu- : 0.0 
DECAY  14 0.000000 # vm : 0.0 
DECAY  15 0.000000 # ta- : 0.0 
DECAY  16 0.000000 # vt : 0.0 
DECAY  21 0.000000 # g : 0.0 
DECAY  22 0.000000 # a : 0.0 
DECAY  10030 0.308725 # zph : (gz__exp__2*MZph*(5 + cmath.sqrt(1 - (4*MT__exp__2)/MZph__exp__2)))/(144.*cmath.pi) 
DECAY  10031 0.132629 # zpl : (5*gz__exp__2*MZpl)/(144.*cmath.pi) 
#===========================================================
# QUANTUM NUMBERS OF NEW STATE(S) (NON SM PDG CODE)
#===========================================================

Block QNUMBERS 10030  # zph 
        1 0  # 3 times electric charge
        2 3  # number of spin states (2S+1)
        3 1  # colour rep (1: singlet, 3: triplet, 8: octet)
        4 0  # Particle/Antiparticle distinction (0=own anti)
Block QNUMBERS 10031  # zpl 
        1 0  # 3 times electric charge
        2 3  # number of spin states (2S+1)
        3 1  # colour rep (1: singlet, 3: triplet, 8: octet)
        4 0  # Particle/Antiparticle distinction (0=own anti)
</slha>
## END BANNER##
<MGGenerationInfo>
#  Number of Events        :         4166
#  Integrated weight (pb)  :  0.35524E+01
#  Max wgt                 :  0.11198E-02
#  Average wgt             :  0.85271E-03
</MGGenerationInfo>
</header>
<init>
     2212     2212  0.40000000000E+04  0.40000000000E+04 0 0  247000  247000 2   1
  0.35465064189E+01  0.79627674803E-02  0.11197860000E-02   0
</init>
<event>
 5   0  0.1109788E-02  0.7000705E+03  0.7818609E-02  0.9717112E-01
       -2   -1    0    0    0  501  0.00000000000E+00  0.00000000000E+00  0.78355424535E+02  0.78355424577E+02  0.25500000920E-02 0.  1.
        2   -1    0    0  501    0  0.00000000000E+00  0.00000000000E+00 -0.15637038222E+04  0.15637038222E+04  0.25500000920E-02 0. -1.
    10030    2    1    2    0    0  0.00000000000E+00  0.00000000000E+00 -0.14853483977E+04  0.16420592468E+04  0.70007050180E+03 0.  0.
        1    1    3    3  502    0 -0.29844689670E+03  0.97044442553E+02 -0.37902495837E+03  0.49208545302E+03  0.50400001928E-02 0.  1.
       -1    1    3    3    0  502  0.29844689670E+03 -0.97044442553E+02 -0.11063234393E+04  0.11499737938E+04  0.50400001928E-02 0. -1.
</event>
<event>
 5   0  0.4440500E-03  0.7011601E+03  0.7818609E-02  0.9715250E-01
        3   -1    0    0  501    0  0.00000000000E+00  0.00000000000E+00  0.58017111328E+03  0.58017112207E+03  0.10100000352E+00 0. -1.
       -3   -1    0    0    0  501  0.00000000000E+00  0.00000000000E+00 -0.21184502377E+03  0.21184504785E+03  0.10100000352E+00 0.  1.
    10030    2    1    2    0    0  0.00000000000E+00  0.00000000000E+00  0.36832608951E+03  0.79201616991E+03  0.70116011381E+03 0.  0.
        1    1    3    3  502    0  0.11465659578E+03  0.32800544380E+03  0.13151118152E+03  0.37152240445E+03  0.50400001928E-02 0. -1.
       -1    1    3    3    0  502 -0.11465659578E+03 -0.32800544380E+03  0.23681490799E+03  0.42049376546E+03  0.50400001928E-02 0.  1.
</event>
<event>
 5   0  0.1109788E-02  0.7011632E+03  0.7818609E-02  0.9715245E-01
        2   -1    0    0  501    0  0.00000000000E+00  0.00000000000E+00  0.66933648903E+03  0.66933648904E+03  0.25500000920E-02 0. -1.
       -2   -1    0    0    0  501  0.00000000000E+00  0.00000000000E+00 -0.18362580344E+03  0.18362580346E+03  0.25500000920E-02 0.  1.
    10030    2    1    2    0    0  0.00000000000E+00  0.00000000000E+00  0.48571068559E+03  0.85296229249E+03  0.70116317810E+03 0.  0.
        1    1    3    3  502    0  0.10586400062E+03  0.58107766029E+02  0.64323552935E+03  0.65447356352E+03  0.50400001928E-02 0. -1.
       -1    1    3    3    0  502 -0.10586400062E+03 -0.58107766029E+02 -0.15752484376E+03  0.19848872897E+03  0.50400001928E-02 0.  1.
</event>
<event>
 5   0  0.1119786E-02  0.6993587E+03  0.7818609E-02  0.9718329E-01
       -2   -1    0    0    0  501  0.00000000000E+00  0.00000000000E+00  0.14955507453E+03  0.14955507455E+03  0.25500000920E-02 0.  1.
        2   -1    0    0  501    0  0.00000000000E+00  0.00000000000E+00 -0.81759619643E+03  0.81759619643E+03  0.25500000920E-02 0. -1.
    10030    2    1    2    0    0  0.00000000000E+00  0.00000000000E+00 -0.66804112190E+03  0.96715127098E+03  0.69935873514E+03 0.  0.
        3    1    3    3  502    0  0.32326151164E+02 -0.41917896814E+01 -0.81549050372E+03  0.81614172973E+03  0.10100000352E+00 0. -1.
       -3    1    3    3    0  502 -0.32326151164E+02  0.41917896814E+01  0.14744938182E+03  0.15100954126E+03  0.10100000352E+00 0.  1.
</event>
<event>
 5   0  0.1109788E-02  0.7010212E+03  0.7818609E-02  0.9715487E-01
        2   -1    0    0  501    0  0.00000000000E+00  0.00000000000E+00  0.70051675873E+03  0.70051675874E+03  0.25500000920E-02 0. -1.
       -2   -1    0    0    0  501  0.00000000000E+00  0.00000000000E+00 -0.17538151826E+03  0.17538151828E+03  0.25500000920E-02 0.  1.
    10030    2    1    2    0    0  0.00000000000E+00  0.00000000000E+00  0.52513524047E+03  0.87589827702E+03  0.70102123427E+03 0.  0.
        1    1    3    3  502    0 -0.10838714654E+03  0.86062362861E+02  0.66493109911E+03  0.67918176538E+03  0.50400001928E-02 0. -1.
       -1    1    3    3    0  502  0.10838714654E+03 -0.86062362861E+02 -0.13979585863E+03  0.19671651164E+03  0.50400001928E-02 0.  1.
</event>
<event>
 5   0  0.1119786E-02  0.7037768E+03  0.7818609E-02  0.9710795E-01
       -2   -1    0    0    0  501  0.00000000000E+00  0.00000000000E+00  0.11154669687E+03  0.11154669690E+03  0.25500000920E-02 0. -1.
        2   -1    0    0  501    0  0.00000000000E+00  0.00000000000E+00 -0.11100771329E+04  0.11100771329E+04  0.25500000920E-02 0.  1.
    10030    2    1    2    0    0  0.00000000000E+00  0.00000000000E+00 -0.99853043601E+03  0.12216238298E+04  0.70377677557E+03 0.  0.
        3    1    3    3  502    0  0.13256104512E+03 -0.26801018731E+03 -0.17721002625E+03  0.34757056088E+03  0.10100000352E+00 0. -1.
       -3    1    3    3    0  502 -0.13256104512E+03  0.26801018731E+03 -0.82132040976E+03  0.87405326889E+03  0.10100000352E+00 0.  1.
</event>
<event>
 5   0  0.6689415E-03  0.6879524E+03  0.7818609E-02  0.9738060E-01
        1   -1    0    0  501    0  0.00000000000E+00  0.00000000000E+00  0.82803991700E+03  0.82803991702E+03  0.50400001928E-02 0. -1.
       -1   -1    0    0    0  501  0.00000000000E+00  0.00000000000E+00 -0.14289121237E+03  0.14289121246E+03  0.50400001928E-02 0.  1.
    10030    2    1    2    0    0  0.00000000000E+00  0.00000000000E+00  0.68514870463E+03  0.97093112948E+03  0.68795240441E+03 0.  0.
        1    1    3    3  502    0 -0.11368632147E+03 -0.75261223979E+02  0.78827644739E+03  0.79998036792E+03  0.50400001928E-02 0. -1.
       -1    1    3    3    0  502  0.11368632147E+03  0.75261223979E+02 -0.10312774276E+03  0.17095076155E+03  0.50400001928E-02 0.  1.
</event>
<event>
 5   0  0.6785252E-03  0.6979844E+03  0.7818609E-02  0.9720685E-01
        1   -1    0    0  501    0  0.00000000000E+00  0.00000000000E+00  0.22616874311E+03  0.22616874317E+03  0.50400001928E-02 0. -1.
       -1   -1    0    0    0  501  0.00000000000E+00  0.00000000000E+00 -0.53851635506E+03  0.53851635508E+03  0.50400001928E-02 0.  1.
    10030    2    1    2    0    0  0.00000000000E+00  0.00000000000E+00 -0.31234761195E+03  0.76468509825E+03  0.69798443306E+03 0.  0.
        3    1    3    3  502    0  0.93176141457E+02 -0.15852371329E+02 -0.52422790409E+03  0.53268001337E+03  0.10100000352E+00 0.  1.
       -3    1    3    3    0  502 -0.93176141457E+02  0.15852371329E+02  0.21188029214E+03  0.23200508488E+03  0.10100000352E+00 0. -1.
</event>
<event>
 5   0  0.1109788E-02  0.6978429E+03  0.7818609E-02  0.9720928E-01
       -2   -1    0    0    0  501  0.00000000000E+00  0.00000000000E+00  0.20227040109E+03  0.20227040110E+03  0.25500000920E-02 0.  1.
        2   -1    0    0  501    0  0.00000000000E+00  0.00000000000E+00 -0.60189818120E+03  0.60189818121E+03  0.25500000920E-02 0. -1.
    10030    2    1    2    0    0  0.00000000000E+00  0.00000000000E+00 -0.39962778011E+03  0.80416858231E+03  0.69784292368E+03 0.  0.
        1    1    3    3  502    0  0.29918382227E+02 -0.31875642909E+03 -0.39949007699E+02  0.32264019267E+03  0.50400001928E-02 0.  1.
       -1    1    3    3    0  502 -0.29918382227E+02  0.31875642909E+03 -0.35967877241E+03  0.48152838964E+03  0.50400001928E-02 0. -1.
</event>
<event>
 5   0  0.4440500E-03  0.7007299E+03  0.7818609E-02  0.9715985E-01
        4   -1    0    0  501    0  0.00000000000E+00  0.00000000000E+00  0.37710125981E+03  0.37710339836E+03  0.12699999809E+01 0. -1.
       -4   -1    0    0    0  501  0.00000000000E+00  0.00000000000E+00 -0.32551992706E+03  0.32552240447E+03  0.12699999809E+01 0.  1.
    10030    2    1    2    0    0  0.00000000000E+00  0.00000000000E+00  0.51581332753E+02  0.70262580283E+03  0.70072989440E+03 0.  0.
        1    1    3    3  502    0  0.27877838730E+03 -0.13941676875E+03  0.18622723650E+03  0.36309090910E+03  0.50400001928E-02 0. -1.
       -1    1    3    3    0  502 -0.27877838730E+03  0.13941676875E+03 -0.13464590375E+03  0.33953489372E+03  0.50400001928E-02 0.  1.
</event>
<event>
 5   0  0.1109788E-02  0.6996193E+03  0.7818609E-02  0.9717883E-01
        2   -1    0    0  501    0  0.00000000000E+00  0.00000000000E+00  0.45144709832E+03  0.45144709833E+03  0.25500000920E-02 0.  1.
       -2   -1    0    0    0  501  0.00000000000E+00  0.00000000000E+00 -0.27105458732E+03  0.27105458733E+03  0.25500000920E-02 0. -1.
    10030    2    1    2    0    0  0.00000000000E+00  0.00000000000E+00  0.18039251100E+03  0.72250168566E+03  0.69961934490E+03 0.  0.
        1    1    3    3  502    0 -0.17255548594E+03  0.24800746406E+03  0.27226838519E+03  0.40671018128E+03  0.50400001928E-02 0.  1.
       -1    1    3    3    0  502  0.17255548594E+03 -0.24800746406E+03 -0.91875874186E+02  0.31579150438E+03  0.50400001928E-02 0. -1.
</event>
<event>
 5   0  0.1099980E-02  0.7003475E+03  0.7818609E-02  0.9716638E-01
        2   -1    0    0  501    0  0.00000000000E+00  0.00000000000E+00  0.50137475533E+03  0.50137475534E+03  0.25500000920E-02 0. -1.
       -2   -1    0    0    0  501  0.00000000000E+00  0.00000000000E+00 -0.24457084221E+03  0.24457084222E+03  0.25500000920E-02 0.  1.
    10030    2    1    2    0    0  0.00000000000E+00  0.00000000000E+00  0.25680391312E+03  0.74594559756E+03  0.70034747428E+03 0.  0.
        5    1    3    3  502    0 -0.37698090227E+02  0.33871875021E+03  0.42874270274E+02  0.34352850071E+03  0.46999998093E+01 0.  1.
       -5    1    3    3    0  502  0.37698090227E+02 -0.33871875021E+03  0.21392964285E+03  0.40241709685E+03  0.46999998093E+01 0. -1.
</event>
<event>
 5   0  0.1099980E-02  0.6808706E+03  0.7818609E-02  0.9750517E-01
       -2   -1    0    0    0  501  0.00000000000E+00  0.00000000000E+00  0.18149549750E+03  0.18149549752E+03  0.25500000920E-02 0.  1.
        2   -1    0    0  501    0  0.00000000000E+00  0.00000000000E+00 -0.63856228803E+03  0.63856228803E+03  0.25500000920E-02 0. -1.
    10030    2    1    2    0    0  0.00000000000E+00  0.00000000000E+00 -0.45706679052E+03  0.82005778555E+03  0.68087056086E+03 0.  0.
        5    1    3    3  502    0 -0.19501439090E+03  0.14022915797E+03 -0.51904534338E+03  0.57194841366E+03  0.46999998093E+01 0. -1.
       -5    1    3    3    0  502  0.19501439090E+03 -0.14022915797E+03  0.61978552861E+02  0.24810937189E+03  0.46999998093E+01 0.  1.
</event>
<event>
 5   0  0.6990118E-03  0.6989199E+03  0.7818609E-02  0.9719081E-01
       -1   -1    0    0    0  501  0.00000000000E+00  0.00000000000E+00  0.15679485574E+03  0.15679485582E+03  0.50400001928E-02 0.  1.
        1   -1    0    0  501    0  0.00000000000E+00  0.00000000000E+00 -0.77886640661E+03  0.77886640663E+03  0.50400001928E-02 0. -1.
    10030    2    1    2    0    0  0.00000000000E+00  0.00000000000E+00 -0.62207155088E+03  0.93566126244E+03  0.69891986925E+03 0.  0.
        5    1    3    3  502    0  0.54776682353E+00 -0.50678062947E+02 -0.77387761434E+03  0.77554962322E+03  0.46999998093E+01 0. -1.
       -5    1    3    3    0  502 -0.54776682353E+00  0.50678062947E+02  0.15180606346E+03  0.16011163922E+03  0.46999998093E+01 0.  1.
</event>
<event>
 5   0  0.6990118E-03  0.7022233E+03  0.7818609E-02  0.9713438E-01
       -1   -1    0    0    0  501  0.00000000000E+00  0.00000000000E+00  0.44456149898E+03  0.44456149901E+03  0.50400001928E-02 0. -1.
        1   -1    0    0  501    0  0.00000000000E+00  0.00000000000E+00 -0.27730557410E+03  0.27730557415E+03  0.50400001928E-02 0.  1.
    10030    2    1    2    0    0  0.00000000000E+00  0.00000000000E+00  0.16725592488E+03  0.72186707316E+03  0.70222327425E+03 0.  0.
        5    1    3    3  502    0  0.12369920475E+03 -0.22500437749E+03  0.32976022673E+03  0.41796215173E+03  0.46999998093E+01 0. -1.
       -5    1    3    3    0  502 -0.12369920475E+03  0.22500437749E+03 -0.16250430186E+03  0.30390492142E+03  0.46999998093E+01 0.  1.
</event>
<event>
 5   0  0.4440500E-03  0.7003637E+03  0.7818609E-02  0.9716610E-01
       -3   -1    0    0    0  501  0.00000000000E+00  0.00000000000E+00  0.73854367654E+03  0.73854368344E+03  0.10100000352E+00 0.  1.
        3   -1    0    0  501    0  0.00000000000E+00  0.00000000000E+00 -0.16603934529E+03  0.16603937601E+03  0.10100000352E+00 0. -1.
    10030    2    1    2    0    0  0.00000000000E+00  0.00000000000E+00  0.57250433125E+03  0.90458305945E+03  0.70036369277E+03 0.  0.
        5    1    3    3  502    0  0.53748834699E+02  0.18264807612E+02 -0.16001559732E+03  0.16985176423E+03  0.46999998093E+01 0. -1.
       -5    1    3    3    0  502 -0.53748834699E+02 -0.18264807612E+02  0.73251992857E+03  0.73473129522E+03  0.46999998093E+01 0.  1.
</event>
<event>
 5   0  0.6689415E-03  0.7009642E+03  0.7818609E-02  0.9715585E-01
        1   -1    0    0  501    0  0.00000000000E+00  0.00000000000E+00  0.29314045985E+03  0.29314045989E+03  0.50400001928E-02 0. -1.
       -1   -1    0    0    0  501  0.00000000000E+00  0.00000000000E+00 -0.41904038744E+03  0.41904038747E+03  0.50400001928E-02 0.  1.
    10030    2    1    2    0    0  0.00000000000E+00  0.00000000000E+00 -0.12589992759E+03  0.71218084736E+03  0.70096416997E+03 0.  0.
        1    1    3    3  502    0 -0.34682421069E+03 -0.42535801228E+02 -0.90613667478E+02  0.36098083642E+03  0.50400001928E-02 0.  1.
       -1    1    3    3    0  502  0.34682421069E+03  0.42535801228E+02 -0.35286260115E+02  0.35120001094E+03  0.50400001928E-02 0. -1.
</event>
<event>
 5   0  0.6785252E-03  0.7216374E+03  0.7818609E-02  0.9680928E-01
        1   -1    0    0  501    0  0.00000000000E+00  0.00000000000E+00  0.63955978553E+03  0.63955978555E+03  0.50400001928E-02 0. -1.
       -1   -1    0    0    0  501  0.00000000000E+00  0.00000000000E+00 -0.20356212801E+03  0.20356212807E+03  0.50400001928E-02 0.  1.
    10030    2    1    2    0    0  0.00000000000E+00  0.00000000000E+00  0.43599765753E+03  0.84312191362E+03  0.72163744627E+03 0.  0.
        3    1    3    3  502    0  0.11423278009E+03  0.75300770052E+02 -0.17207955849E+03  0.21984248604E+03  0.10100000352E+00 0.  1.
       -3    1    3    3    0  502 -0.11423278009E+03 -0.75300770052E+02  0.60807721601E+03  0.62327942759E+03  0.10100000352E+00 0. -1.
</event>
<event>
 5   0  0.6785252E-03  0.6995169E+03  0.7818609E-02  0.9718059E-01
        1   -1    0    0  501    0  0.00000000000E+00  0.00000000000E+00  0.52344521941E+03  0.52344521943E+03  0.50400001928E-02 0. -1.
       -1   -1    0    0    0  501  0.00000000000E+00  0.00000000000E+00 -0.23370350277E+03  0.23370350282E+03  0.50400001928E-02 0.  1.
    10030    2    1    2    0    0  0.00000000000E+00  0.00000000000E+00  0.28974171664E+03  0.75714872225E+03  0.69951692277E+03 0.  0.
        3    1    3    3  502    0 -0.26175582742E+03  0.59299298316E+02 -0.97879720586E+02  0.28567983806E+03  0.10100000352E+00 0.  1.
       -3    1    3    3    0  502  0.26175582742E+03 -0.59299298316E+02  0.38762143722E+03  0.47146888420E+03  0.10100000352E+00 0. -1.
</event>
<event>
 5   0  0.1109788E-02  0.6979392E+03  0.7818609E-02  0.9720763E-01
       -2   -1    0    0    0  501  0.00000000000E+00  0.00000000000E+00  0.93311051865E+02  0.93311051900E+02  0.25500000920E-02 0.  1.
        2   -1    0    0  501    0  0.00000000000E+00  0.00000000000E+00 -0.13050950276E+04  0.13050950276E+04  0.25500000920E-02 0. -1.
    10030    2    1    2    0    0  0.00000000000E+00  0.00000000000E+00 -0.12117839758E+04  0.13984060795E+04  0.69793922325E+03 0.  0.
        1    1    3    3  502    0 -0.41168521063E+02  0.20378643853E+03 -0.44319967230E+02  0.21257473786E+03  0.50400001928E-02 0.  1.
       -1    1    3    3    0  502  0.41168521063E+02 -0.20378643853E+03 -0.11674640085E+04  0.11858313417E+04  0.50400001928E-02 0. -1.
</event>
<event>
 5   0  0.6246998E-03  0.7002606E+03  0.7818609E-02  0.9716787E-01
        1   -1    0    0  501    0  0.00000000000E+00  0.00000000000E+00  0.52866410086E+03  0.52866410089E+03  0.50400001928E-02 0. -1.
       -1   -1    0    0    0  501  0.00000000000E+00  0.00000000000E+00 -0.23188866683E+03  0.23188866689E+03  0.50400001928E-02 0.  1.
    10030    2    1    2    0    0  0.00000000000E+00  0.00000000000E+00  0.29677543403E+03  0.76055276777E+03  0.70026056173E+03 0.  0.
        4    1    3    3  502    0  0.22471084945E+03  0.21623601805E+03 -0.24491989413E+02  0.31281696215E+03  0.12699999809E+01 0. -1.
       -4    1    3    3    0  502 -0.22471084945E+03 -0.21623601805E+03  0.32126742344E+03  0.44773580562E+03  0.12699999809E+01 0.  1.
</event>
<event>
 5   0  0.6689415E-03  0.6797817E+03  0.7818609E-02  0.9752447E-01
       -1   -1    0    0    0  501  0.00000000000E+00  0.00000000000E+00  0.50215411482E+03  0.50215411484E+03  0.50400001928E-02 0. -1.
        1   -1    0    0  501    0  0.00000000000E+00  0.00000000000E+00 -0.23006043036E+03  0.23006043041E+03  0.50400001928E-02 0.  1.
    10030    2    1    2    0    0  0.00000000000E+00  0.00000000000E+00  0.27209368446E+03  0.73221454526E+03  0.67978170552E+03 0.  0.
        1    1    3    3  502    0 -0.52193871519E+02  0.98932093022E+02 -0.20966724233E+03  0.23763861594E+03  0.50400001928E-02 0.  1.
       -1    1    3    3    0  502  0.52193871519E+02 -0.98932093022E+02  0.48176092679E+03  0.49457592932E+03  0.50400001928E-02 0. -1.
</event>
<event>
 5   0  0.1079446E-02  0.7145262E+03  0.7818609E-02  0.9692708E-01
        2   -1    0    0  501    0  0.00000000000E+00  0.00000000000E+00  0.67673666427E+03  0.67673666428E+03  0.25500000920E-02 0.  1.
       -2   -1    0    0    0  501  0.00000000000E+00  0.00000000000E+00 -0.18860648479E+03  0.18860648481E+03  0.25500000920E-02 0. -1.
    10030    2    1    2    0    0  0.00000000000E+00  0.00000000000E+00  0.48813017948E+03  0.86534314909E+03  0.71452620214E+03 0.  0.
        2    1    3    3  502    0  0.64423420362E+02  0.13929547182E+03  0.63478070117E+03  0.65306978505E+03  0.25500000920E-02 0.  1.
       -2    1    3    3    0  502 -0.64423420362E+02 -0.13929547182E+03 -0.14665052169E+03  0.21227336403E+03  0.25500000920E-02 0. -1.
</event>
<event>
 5   0  0.6785252E-03  0.7009640E+03  0.7818609E-02  0.9715585E-01
       -1   -1    0    0    0  501  0.00000000000E+00  0.00000000000E+00  0.51783829918E+03  0.51783829920E+03  0.50400001928E-02 0.  1.
        1   -1    0    0  501    0  0.00000000000E+00  0.00000000000E+00 -0.23721234834E+03  0.23721234839E+03  0.50400001928E-02 0. -1.
    10030    2    1    2    0    0  0.00000000000E+00  0.00000000000E+00  0.28062595084E+03  0.75505064760E+03  0.70096401916E+03 0.  0.
        3    1    3    3  502    0 -0.78522642238E+02  0.34148855787E+03  0.13215293727E+03  0.37449252266E+03  0.10100000352E+00 0.  1.
       -3    1    3    3    0  502  0.78522642238E+02 -0.34148855787E+03  0.14847301357E+03  0.38055812494E+03  0.10100000352E+00 0. -1.
</event>
<event>
 5   0  0.4440500E-03  0.7002891E+03  0.7818609E-02  0.9716738E-01
        3   -1    0    0  501    0  0.00000000000E+00  0.00000000000E+00  0.28602273701E+03  0.28602275484E+03  0.10100000352E+00 0. -1.
       -3   -1    0    0    0  501  0.00000000000E+00  0.00000000000E+00 -0.42864145924E+03  0.42864147114E+03  0.10100000352E+00 0.  1.
    10030    2    1    2    0    0  0.00000000000E+00  0.00000000000E+00 -0.14261872223E+03  0.71466422599E+03  0.70028912313E+03 0.  0.
        2    1    3    3  502    0 -0.21717142990E+02 -0.27864434878E+03  0.14393945235E+03  0.31437696060E+03  0.25500000920E-02 0. -1.
       -2    1    3    3    0  502  0.21717142990E+02  0.27864434878E+03 -0.28655817458E+03  0.40028726539E+03  0.25500000920E-02 0.  1.
</event>
<event>
 5   0  0.1119786E-02  0.6994881E+03  0.7818609E-02  0.9718108E-01
       -2   -1    0    0    0  501  0.00000000000E+00  0.00000000000E+00  0.12301150194E+03  0.12301150196E+03  0.25500000920E-02 0. -1.
        2   -1    0    0  501    0  0.00000000000E+00  0.00000000000E+00 -0.99438576312E+03  0.99438576312E+03  0.25500000920E-02 0.  1.
    10030    2    1    2    0    0  0.00000000000E+00  0.00000000000E+00 -0.87137426118E+03  0.11173972651E+04  0.69948805921E+03 0.  0.
        3    1    3    3  502    0 -0.24981251476E+03  0.18363236645E+03 -0.69422611258E+03  0.76031378004E+03  0.10100000352E+00 0.  1.
       -3    1    3    3    0  502  0.24981251476E+03 -0.18363236645E+03 -0.17714814861E+03  0.35708348505E+03  0.10100000352E+00 0. -1.
</event>
<event>
 5   0  0.6246998E-03  0.6971624E+03  0.7818609E-02  0.9722097E-01
       -1   -1    0    0    0  501  0.00000000000E+00  0.00000000000E+00  0.56492839274E+02  0.56492839499E+02  0.50400001928E-02 0.  1.
        1   -1    0    0  501    0  0.00000000000E+00  0.00000000000E+00 -0.21508716513E+04  0.21508716513E+04  0.50400001928E-02 0. -1.
    10030    2    1    2    0    0  0.00000000000E+00  0.00000000000E+00 -0.20943788120E+04  0.22073644908E+04  0.69716238209E+03 0.  0.
        4    1    3    3  502    0 -0.13344286225E+03  0.29394628031E+03 -0.14635893798E+04  0.14987684607E+04  0.12699999809E+01 0. -1.
       -4    1    3    3    0  502  0.13344286225E+03 -0.29394628031E+03 -0.63078943225E+03  0.70859603014E+03  0.12699999809E+01 0.  1.
</event>
<event>
 5   0  0.1079446E-02  0.7057109E+03  0.7818609E-02  0.9707515E-01
       -2   -1    0    0    0  501  0.00000000000E+00  0.00000000000E+00  0.94843707875E+02  0.94843707909E+02  0.25500000920E-02 0. -1.
        2   -1    0    0  501    0  0.00000000000E+00  0.00000000000E+00 -0.13127595803E+04  0.13127595803E+04  0.25500000920E-02 0.  1.
    10030    2    1    2    0    0  0.00000000000E+00  0.00000000000E+00 -0.12179158725E+04  0.14076032882E+04  0.70571094982E+03 0.  0.
        2    1    3    3  502    0 -0.18625478545E+03 -0.23279094539E+02 -0.12998829367E+02  0.18815347702E+03  0.25500000920E-02 0. -1.
       -2    1    3    3    0  502  0.18625478545E+03  0.23279094539E+02 -0.12049170431E+04  0.12194498112E+04  0.25500000920E-02 0.  1.
</event>
<event>
 5   0  0.6609285E-03  0.6984191E+03  0.7818609E-02  0.9719940E-01
        1   -1    0    0  501    0  0.00000000000E+00  0.00000000000E+00  0.32946360590E+03  0.32946360594E+03  0.50400001928E-02 0. -1.
       -1   -1    0    0    0  501  0.00000000000E+00  0.00000000000E+00 -0.37013896272E+03  0.37013896276E+03  0.50400001928E-02 0.  1.
    10030    2    1    2    0    0  0.00000000000E+00  0.00000000000E+00 -0.40675356824E+02  0.69960256869E+03  0.69841912164E+03 0.  0.
        2    1    3    3  502    0 -0.33993672862E+02 -0.28670815991E+03 -0.21711437636E+03  0.36124201193E+03  0.25500000920E-02 0.  1.
       -2    1    3    3    0  502  0.33993672862E+02  0.28670815991E+03  0.17643901954E+03  0.33836055676E+03  0.25500000920E-02 0. -1.
</event>
<event>
 5   0  0.1119786E-02  0.7006070E+03  0.7818609E-02  0.9716195E-01
       -2   -1    0    0    0  501  0.00000000000E+00  0.00000000000E+00  0.26061184367E+03  0.26061184368E+03  0.25500000920E-02 0. -1.
        2   -1    0    0  501    0  0.00000000000E+00  0.00000000000E+00 -0.47086328894E+03  0.47086328895E+03  0.25500000920E-02 0.  1.
    10030    2    1    2    0    0  0.00000000000E+00  0.00000000000E+00 -0.21025144528E+03  0.73147513263E+03  0.70060702210E+03 0.  0.
        3    1    3    3  502    0  0.15218280311E+02  0.33191803460E+03  0.10719500250E+02  0.33243961201E+03  0.10100000352E+00 0. -1.
       -3    1    3    3    0  502 -0.15218280311E+02 -0.33191803460E+03 -0.22097094553E+03  0.39903552062E+03  0.10100000352E+00 0.  1.
</event>
<event>
 5   0  0.1099980E-02  0.7064449E+03  0.7818609E-02  0.9706274E-01
       -2   -1    0    0    0  501  0.00000000000E+00  0.00000000000E+00  0.11712838985E+03  0.11712838988E+03  0.25500000920E-02 0. -1.
        2   -1    0    0  501    0  0.00000000000E+00  0.00000000000E+00 -0.10652081535E+04  0.10652081535E+04  0.25500000920E-02 0.  1.
    10030    2    1    2    0    0  0.00000000000E+00  0.00000000000E+00 -0.94807976365E+03  0.11823365434E+04  0.70644494731E+03 0.  0.
        5    1    3    3  502    0  0.12999081373E+03  0.14119191808E+03  0.22192422758E+02  0.19325465845E+03  0.46999998093E+01 0. -1.
       -5    1    3    3    0  502 -0.12999081373E+03 -0.14119191808E+03 -0.97027218641E+03  0.98908188494E+03  0.46999998093E+01 0.  1.
</event>
<event>
 5   0  0.6609285E-03  0.7022850E+03  0.7818609E-02  0.9713332E-01
        1   -1    0    0  501    0  0.00000000000E+00  0.00000000000E+00  0.33987039204E+03  0.33987039208E+03  0.50400001928E-02 0.  1.
       -1   -1    0    0    0  501  0.00000000000E+00  0.00000000000E+00 -0.36278848604E+03  0.36278848608E+03  0.50400001928E-02 0. -1.
    10030    2    1    2    0    0  0.00000000000E+00  0.00000000000E+00 -0.22918093999E+02  0.70265887816E+03  0.70228502762E+03 0.  0.
        2    1    3    3  502    0 -0.42625701818E+02  0.44748023888E+02 -0.35730434659E+03  0.36260961404E+03  0.25500000920E-02 0. -1.
       -2    1    3    3    0  502  0.42625701818E+02 -0.44748023888E+02  0.33438625259E+03  0.34004926412E+03  0.25500000920E-02 0.  1.
</event>
<event>
 5   0  0.1119786E-02  0.6997210E+03  0.7818609E-02  0.9717709E-01
        2   -1    0    0  501    0  0.00000000000E+00  0.00000000000E+00  0.86639371179E+03  0.86639371179E+03  0.25500000920E-02 0. -1.
       -2   -1    0    0    0  501  0.00000000000E+00  0.00000000000E+00 -0.14127801722E+03  0.14127801724E+03  0.25500000920E-02 0.  1.
    10030    2    1    2    0    0  0.00000000000E+00  0.00000000000E+00  0.72511569457E+03  0.10076717290E+04  0.69972104654E+03 0.  0.
        3    1    3    3  502    0 -0.25569004206E+03 -0.13818441039E+02  0.19238436837E+02  0.25678487996E+03  0.10100000352E+00 0.  1.
       -3    1    3    3    0  502  0.25569004206E+03  0.13818441039E+02  0.70587725774E+03  0.75088684907E+03  0.10100000352E+00 0. -1.
</event>
<event>
 5   0  0.1109788E-02  0.6986938E+03  0.7818609E-02  0.9719469E-01
        2   -1    0    0  501    0  0.00000000000E+00  0.00000000000E+00  0.58401733001E+03  0.58401733001E+03  0.25500000920E-02 0.  1.
       -2   -1    0    0    0  501  0.00000000000E+00  0.00000000000E+00 -0.20897198187E+03  0.20897198188E+03  0.25500000920E-02 0. -1.
    10030    2    1    2    0    0  0.00000000000E+00  0.00000000000E+00  0.37504534814E+03  0.79298931189E+03  0.69869380677E+03 0.  0.
        1    1    3    3  502    0  0.30265030628E+03 -0.12949581898E+03  0.32025417932E+03  0.45927019762E+03  0.50400001928E-02 0.  1.
       -1    1    3    3    0  502 -0.30265030628E+03  0.12949581898E+03  0.54791168814E+02  0.33371911427E+03  0.50400001928E-02 0. -1.
</event>
<event>
 5   0  0.6785252E-03  0.7072308E+03  0.7818609E-02  0.9704946E-01
       -1   -1    0    0    0  501  0.00000000000E+00  0.00000000000E+00  0.68861471392E+03  0.68861471394E+03  0.50400001928E-02 0.  1.
        1   -1    0    0  501    0  0.00000000000E+00  0.00000000000E+00 -0.18158755099E+03  0.18158755106E+03  0.50400001928E-02 0. -1.
    10030    2    1    2    0    0  0.00000000000E+00  0.00000000000E+00  0.50702716293E+03  0.87020226501E+03  0.70723082376E+03 0.  0.
        3    1    3    3  502    0 -0.29261908769E+03 -0.16887707521E+03  0.12506141225E+03  0.36025791323E+03  0.10100000352E+00 0. -1.
       -3    1    3    3    0  502  0.29261908769E+03  0.16887707521E+03  0.38196575068E+03  0.50994435177E+03  0.10100000352E+00 0.  1.
</event>
<event>
 5   0  0.1119786E-02  0.7005898E+03  0.7818609E-02  0.9716224E-01
       -2   -1    0    0    0  501  0.00000000000E+00  0.00000000000E+00  0.20245391198E+03  0.20245391199E+03  0.25500000920E-02 0.  1.
        2   -1    0    0  501    0  0.00000000000E+00  0.00000000000E+00 -0.60609602713E+03  0.60609602713E+03  0.25500000920E-02 0. -1.
    10030    2    1    2    0    0  0.00000000000E+00  0.00000000000E+00 -0.40364211515E+03  0.80854993913E+03  0.70058978507E+03 0.  0.
        3    1    3    3  502    0 -0.21901790578E+03 -0.51111781182E+02  0.10812541389E+03  0.24954432985E+03  0.10100000352E+00 0.  1.
       -3    1    3    3    0  502  0.21901790578E+03  0.51111781182E+02 -0.51176752904E+03  0.55900560928E+03  0.10100000352E+00 0. -1.
</event>
<event>
 5   0  0.6246998E-03  0.7034540E+03  0.7818609E-02  0.9711344E-01
       -1   -1    0    0    0  501  0.00000000000E+00  0.00000000000E+00  0.96768811791E+02  0.96768811922E+02  0.50400001928E-02 0. -1.
        1   -1    0    0  501    0  0.00000000000E+00  0.00000000000E+00 -0.12784271744E+04  0.12784271745E+04  0.50400001928E-02 0.  1.
    10030    2    1    2    0    0  0.00000000000E+00  0.00000000000E+00 -0.11816583627E+04  0.13751959864E+04  0.70345398919E+03 0.  0.
        4    1    3    3  502    0  0.26734743761E+03  0.12227525605E+03 -0.21335058263E+03  0.36324368493E+03  0.12699999809E+01 0. -1.
       -4    1    3    3    0  502 -0.26734743761E+03 -0.12227525605E+03 -0.96830778002E+03  0.10119523014E+04  0.12699999809E+01 0.  1.
</event>
<event>
 5   0  0.6246998E-03  0.6913812E+03  0.7818609E-02  0.9732086E-01
       -1   -1    0    0    0  501  0.00000000000E+00  0.00000000000E+00  0.16000745859E+03  0.16000745867E+03  0.50400001928E-02 0.  1.
        1   -1    0    0  501    0  0.00000000000E+00  0.00000000000E+00 -0.74685258625E+03  0.74685258627E+03  0.50400001928E-02 0. -1.
    10030    2    1    2    0    0  0.00000000000E+00  0.00000000000E+00 -0.58684512766E+03  0.90686004494E+03  0.69138118086E+03 0.  0.
        4    1    3    3  502    0  0.96756690525E+02 -0.26094279736E+03 -0.24459814158E+02  0.27937948397E+03  0.12699999809E+01 0.  1.
       -4    1    3    3    0  502 -0.96756690525E+02  0.26094279736E+03 -0.56238531350E+03  0.62748056097E+03  0.12699999809E+01 0. -1.
</event>
<event>
 5   0  0.6785252E-03  0.7023086E+03  0.7818609E-02  0.9713292E-01
       -1   -1    0    0    0  501  0.00000000000E+00  0.00000000000E+00  0.67484900616E+03  0.67484900618E+03  0.50400001928E-02 0. -1.
        1   -1    0    0  501    0  0.00000000000E+00  0.00000000000E+00 -0.18272135735E+03  0.18272135742E+03  0.50400001928E-02 0.  1.
    10030    2    1    2    0    0  0.00000000000E+00  0.00000000000E+00  0.49212764881E+03  0.85757036360E+03  0.70230855456E+03 0.  0.
        3    1    3    3  502    0  0.12386055772E+03 -0.29908135212E+03  0.41222955599E+03  0.52414149805E+03  0.10100000352E+00 0. -1.
       -3    1    3    3    0  502 -0.12386055772E+03  0.29908135212E+03  0.79898092819E+02  0.33342886555E+03  0.10100000352E+00 0.  1.
</event>
<event>
 5   0  0.1100119E-02  0.7099337E+03  0.7818609E-02  0.9700393E-01
        2   -1    0    0  501    0  0.00000000000E+00  0.00000000000E+00  0.13022202670E+04  0.13022202670E+04  0.25500000920E-02 0. -1.
       -2   -1    0    0    0  501  0.00000000000E+00  0.00000000000E+00 -0.96758948248E+02  0.96758948282E+02  0.25500000920E-02 0.  1.
    10030    2    1    2    0    0  0.00000000000E+00  0.00000000000E+00  0.12054613187E+04  0.13989792153E+04  0.70993369675E+03 0.  0.
        4    1    3    3  502    0 -0.28229624133E+03  0.11500987396E+03  0.96114509083E+03  0.10083253133E+04  0.12699999809E+01 0. -1.
       -4    1    3    3    0  502  0.28229624133E+03 -0.11500987396E+03  0.24431622790E+03  0.39065390193E+03  0.12699999809E+01 0.  1.
</event>
<event>
 5   0  0.1100119E-02  0.6958747E+03  0.7818609E-02  0.9724313E-01
        2   -1    0    0  501    0  0.00000000000E+00  0.00000000000E+00  0.96756044447E+03  0.96756044447E+03  0.25500000920E-02 0.  1.
       -2   -1    0    0    0  501  0.00000000000E+00  0.00000000000E+00 -0.12511921187E+03  0.12511921190E+03  0.25500000920E-02 0. -1.
    10030    2    1    2    0    0  0.00000000000E+00  0.00000000000E+00  0.84244123260E+03  0.10926796564E+04  0.69587470213E+03 0.  0.
        4    1    3    3  502    0  0.11285256236E+03 -0.30120518841E+03  0.62952571219E+03  0.70694023903E+03  0.12699999809E+01 0.  1.
       -4    1    3    3    0  502 -0.11285256236E+03  0.30120518841E+03  0.21291552040E+03  0.38573941733E+03  0.12699999809E+01 0. -1.
</event>
<event>
 5   0  0.4440500E-03  0.6992814E+03  0.7818609E-02  0.9718462E-01
       -4   -1    0    0    0  501  0.00000000000E+00  0.00000000000E+00  0.22510101977E+03  0.22510460235E+03  0.12699999809E+01 0.  1.
        4   -1    0    0  501    0  0.00000000000E+00  0.00000000000E+00 -0.54307466931E+03  0.54307615427E+03  0.12699999809E+01 0. -1.
    10030    2    1    2    0    0  0.00000000000E+00  0.00000000000E+00 -0.31797364954E+03  0.76818075663E+03  0.69928136901E+03 0.  0.
        2    1    3    3  502    0  0.34422725020E+03 -0.59409282154E+02 -0.14244509339E+03  0.37724324676E+03  0.25500000920E-02 0.  1.
       -2    1    3    3    0  502 -0.34422725020E+03  0.59409282154E+02 -0.17552855615E+03  0.39093750987E+03  0.25500000920E-02 0. -1.
</event>
<event>
 5   0  0.6785252E-03  0.6991964E+03  0.7818609E-02  0.9718607E-01
        1   -1    0    0  501    0  0.00000000000E+00  0.00000000000E+00  0.13867609460E+04  0.13867609460E+04  0.50400001928E-02 0. -1.
       -1   -1    0    0    0  501  0.00000000000E+00  0.00000000000E+00 -0.88132633985E+02  0.88132634129E+02  0.50400001928E-02 0.  1.
    10030    2    1    2    0    0  0.00000000000E+00  0.00000000000E+00  0.12986283120E+04  0.14748935802E+04  0.69919638155E+03 0.  0.
        3    1    3    3  502    0  0.29196310022E+03 -0.12834114194E+03  0.95137277501E+03  0.10034062327E+04  0.10100000352E+00 0. -1.
       -3    1    3    3    0  502 -0.29196310022E+03  0.12834114194E+03  0.34725553701E+03  0.47148734744E+03  0.10100000352E+00 0.  1.
</event>
<event>
 5   0  0.6785252E-03  0.6965122E+03  0.7818609E-02  0.9723215E-01
       -1   -1    0    0    0  501  0.00000000000E+00  0.00000000000E+00  0.21555179574E+03  0.21555179580E+03  0.50400001928E-02 0. -1.
        1   -1    0    0  501    0  0.00000000000E+00  0.00000000000E+00 -0.56265974635E+03  0.56265974638E+03  0.50400001928E-02 0.  1.
    10030    2    1    2    0    0  0.00000000000E+00  0.00000000000E+00 -0.34710795061E+03  0.77821154217E+03  0.69651222171E+03 0.  0.
        3    1    3    3  502    0  0.23442573169E+02 -0.20255474245E+03 -0.48898897950E+03  0.52980016062E+03  0.10100000352E+00 0.  1.
       -3    1    3    3    0  502 -0.23442573169E+02  0.20255474245E+03  0.14188102889E+03  0.24841138155E+03  0.10100000352E+00 0. -1.
</event>
<event>
 5   0  0.1079446E-02  0.7010925E+03  0.7818609E-02  0.9715366E-01
        2   -1    0    0  501    0  0.00000000000E+00  0.00000000000E+00  0.12241857244E+04  0.12241857244E+04  0.25500000920E-02 0. -1.
       -2   -1    0    0    0  501  0.00000000000E+00  0.00000000000E+00 -0.10037910253E+03  0.10037910257E+03  0.25500000920E-02 0.  1.
    10030    2    1    2    0    0  0.00000000000E+00  0.00000000000E+00  0.11238066218E+04  0.13245648269E+04  0.70109247427E+03 0.  0.
        2    1    3    3  502    0  0.15431427597E+03 -0.97596334939E+02  0.11272539848E+04  0.11419454833E+04  0.25500000920E-02 0. -1.
       -2    1    3    3    0  502 -0.15431427597E+03  0.97596334939E+02 -0.34473630308E+01  0.18261934367E+03  0.25500000920E-02 0.  1.
</event>
<event>
 5   0  0.1119786E-02  0.7006324E+03  0.7818609E-02  0.9716151E-01
        2   -1    0    0  501    0  0.00000000000E+00  0.00000000000E+00  0.47550401457E+03  0.47550401458E+03  0.25500000920E-02 0. -1.
       -2   -1    0    0    0  501  0.00000000000E+00  0.00000000000E+00 -0.25808704057E+03  0.25808704058E+03  0.25500000920E-02 0.  1.
    10030    2    1    2    0    0  0.00000000000E+00  0.00000000000E+00  0.21741697400E+03  0.73359105516E+03  0.70063235411E+03 0.  0.
        3    1    3    3  502    0  0.24471233364E+03  0.25639311913E+02 -0.15238070507E+03  0.28941560087E+03  0.10100000352E+00 0.  1.
       -3    1    3    3    0  502 -0.24471233364E+03 -0.25639311913E+02  0.36979767907E+03  0.44417545429E+03  0.10100000352E+00 0. -1.
</event>
<event>
 5   0  0.1109788E-02  0.6762617E+03  0.7818609E-02  0.9758712E-01
       -2   -1    0    0    0  501  0.00000000000E+00  0.00000000000E+00  0.13612836470E+03  0.13612836472E+03  0.25500000920E-02 0.  1.
        2   -1    0    0  501    0  0.00000000000E+00  0.00000000000E+00 -0.83988712599E+03  0.83988712599E+03  0.25500000920E-02 0. -1.
    10030    2    1    2    0    0  0.00000000000E+00  0.00000000000E+00 -0.70375876129E+03  0.97601549071E+03  0.67626166830E+03 0.  0.
        1    1    3    3  502    0  0.25804113001E+03  0.20200848915E+03 -0.23164861296E+03  0.40131500642E+03  0.50400001928E-02 0.  1.
       -1    1    3    3    0  502 -0.25804113001E+03 -0.20200848915E+03 -0.47211014834E+03  0.57470048430E+03  0.50400001928E-02 0. -1.
</event>
<event>
 5   0  0.1079446E-02  0.6993129E+03  0.7818609E-02  0.9718408E-01
       -2   -1    0    0    0  501  0.00000000000E+00  0.00000000000E+00  0.27803108487E+03  0.27803108488E+03  0.25500000920E-02 0.  1.
        2   -1    0    0  501    0  0.00000000000E+00  0.00000000000E+00 -0.43973363454E+03  0.43973363455E+03  0.25500000920E-02 0. -1.
    10030    2    1    2    0    0  0.00000000000E+00  0.00000000000E+00 -0.16170254968E+03  0.71776471943E+03  0.69931286123E+03 0.  0.
        2    1    3    3  502    0 -0.25620965313E+03  0.17379048667E+03  0.85958032322E+02  0.32130251001E+03  0.25500000920E-02 0. -1.
       -2    1    3    3    0  502  0.25620965313E+03 -0.17379048667E+03 -0.24766058200E+03  0.39646220942E+03  0.25500000920E-02 0.  1.
</event>
<event>
 5   0  0.1119786E-02  0.7007647E+03  0.7818609E-02  0.9715925E-01
        2   -1    0    0  501    0  0.00000000000E+00  0.00000000000E+00  0.10512826169E+04  0.10512826169E+04  0.25500000920E-02 0.  1.
       -2   -1    0    0    0  501  0.00000000000E+00  0.00000000000E+00 -0.11677905728E+03  0.11677905731E+03  0.25500000920E-02 0. -1.
    10030    2    1    2    0    0  0.00000000000E+00  0.00000000000E+00  0.93450355961E+03  0.11680616742E+04  0.70076470504E+03 0.  0.
        3    1    3    3  502    0  0.27850462889E+03 -0.97770202223E+02  0.78194429867E+03  0.83579945991E+03  0.10100000352E+00 0.  1.
       -3    1    3    3    0  502 -0.27850462889E+03  0.97770202223E+02  0.15255926094E+03  0.33226221430E+03  0.10100000352E+00 0. -1.
</event>
<event>
 5   0  0.6785252E-03  0.6989793E+03  0.7818609E-02  0.9718979E-01
       -1   -1    0    0    0  501  0.00000000000E+00  0.00000000000E+00  0.19061169617E+03  0.19061169623E+03  0.50400001928E-02 0. -1.
        1   -1    0    0  501    0  0.00000000000E+00  0.00000000000E+00 -0.64079497423E+03  0.64079497425E+03  0.50400001928E-02 0.  1.
    10030    2    1    2    0    0  0.00000000000E+00  0.00000000000E+00 -0.45018327807E+03  0.83140667048E+03  0.69897930432E+03 0.  0.
        3    1    3    3  502    0  0.27239303412E+03  0.37895327004E+02 -0.48160950755E+03  0.55460053084E+03  0.10100000352E+00 0.  1.
       -3    1    3    3    0  502 -0.27239303412E+03 -0.37895327004E+02  0.31426229481E+02  0.27680613964E+03  0.10100000352E+00 0. -1.
</event>
<event>
 5   0  0.1099980E-02  0.6972990E+03  0.7818609E-02  0.9721862E-01
       -2   -1    0    0    0  501  0.00000000000E+00  0.00000000000E+00  0.11766095376E+03  0.11766095379E+03  0.25500000920E-02 0. -1.
        2   -1    0    0  501    0  0.00000000000E+00  0.00000000000E+00 -0.10331079920E+04  0.10331079920E+04  0.25500000920E-02 0.  1.
    10030    2    1    2    0    0  0.00000000000E+00  0.00000000000E+00 -0.91544703821E+03  0.11507689458E+04  0.69729899379E+03 0.  0.
        5    1    3    3  502    0 -0.23288222589E+03 -0.39717236883E+02 -0.34639037272E+02  0.23881696536E+03  0.46999998093E+01 0. -1.
       -5    1    3    3    0  502  0.23288222589E+03  0.39717236883E+02 -0.88080800094E+03  0.91195198040E+03  0.46999998093E+01 0.  1.
</event>
<event>
 5   0  0.6990118E-03  0.7373130E+03  0.7818609E-02  0.9655467E-01
       -1   -1    0    0    0  501  0.00000000000E+00  0.00000000000E+00  0.15147182959E+03  0.15147182968E+03  0.50400001928E-02 0. -1.
        1   -1    0    0  501    0  0.00000000000E+00  0.00000000000E+00 -0.89724681567E+03  0.89724681568E+03  0.50400001928E-02 0.  1.
    10030    2    1    2    0    0  0.00000000000E+00  0.00000000000E+00 -0.74577498607E+03  0.10487186454E+04  0.73731300495E+03 0.  0.
        5    1    3    3  502    0  0.17459410158E+03 -0.30859111578E+03 -0.22942053502E+03  0.42233570644E+03  0.46999998093E+01 0. -1.
       -5    1    3    3    0  502 -0.17459410158E+03  0.30859111578E+03 -0.51635445105E+03  0.62638293892E+03  0.46999998093E+01 0.  1.
</event>
<event>
 5   0  0.6785252E-03  0.7005476E+03  0.7818609E-02  0.9716296E-01
       -1   -1    0    0    0  501  0.00000000000E+00  0.00000000000E+00  0.88519241733E+02  0.88519241876E+02  0.50400001928E-02 0.  1.
        1   -1    0    0  501    0  0.00000000000E+00  0.00000000000E+00 -0.13860460351E+04  0.13860460351E+04  0.50400001928E-02 0. -1.
    10030    2    1    2    0    0  0.00000000000E+00  0.00000000000E+00 -0.12975267934E+04  0.14745652770E+04  0.70054762621E+03 0.  0.
        3    1    3    3  502    0 -0.18509739405E+03  0.25620460846E+03 -0.33100471462E+03  0.45767453281E+03  0.10100000352E+00 0.  1.
       -3    1    3    3    0  502  0.18509739405E+03 -0.25620460846E+03 -0.96652207877E+03  0.10168907442E+04  0.10100000352E+00 0. -1.
</event>
<event>
 5   0  0.4440500E-03  0.7019122E+03  0.7818609E-02  0.9713968E-01
       -3   -1    0    0    0  501  0.00000000000E+00  0.00000000000E+00  0.59474875716E+03  0.59474876573E+03  0.10100000352E+00 0.  1.
        3   -1    0    0  501    0  0.00000000000E+00  0.00000000000E+00 -0.20709612478E+03  0.20709614941E+03  0.10100000352E+00 0. -1.
    10030    2    1    2    0    0  0.00000000000E+00  0.00000000000E+00  0.38765263238E+03  0.80184491515E+03  0.70191217724E+03 0.  0.
        3    1    3    3  502    0 -0.14344447762E+03  0.30821682108E+03  0.29339136532E+03  0.44905726850E+03  0.10100000352E+00 0. -1.
       -3    1    3    3    0  502  0.14344447762E+03 -0.30821682108E+03  0.94261267061E+02  0.35278764664E+03  0.10100000352E+00 0.  1.
</event>
<event>
 5   0  0.1119786E-02  0.7053824E+03  0.7818609E-02  0.9708072E-01
        2   -1    0    0  501    0  0.00000000000E+00  0.00000000000E+00  0.90522829848E+03  0.90522829848E+03  0.25500000920E-02 0. -1.
       -2   -1    0    0    0  501  0.00000000000E+00  0.00000000000E+00 -0.13741404995E+03  0.13741404998E+03  0.25500000920E-02 0.  1.
    10030    2    1    2    0    0  0.00000000000E+00  0.00000000000E+00  0.76781424852E+03  0.10426423485E+04  0.70538241158E+03 0.  0.
        3    1    3    3  502    0  0.26155222353E+03 -0.37674069563E+01  0.73359291039E+03  0.77883395365E+03  0.10100000352E+00 0. -1.
       -3    1    3    3    0  502 -0.26155222353E+03  0.37674069563E+01  0.34221338137E+02  0.26380839481E+03  0.10100000352E+00 0.  1.
</event>
<event>
 5   0  0.6689415E-03  0.6999362E+03  0.7818609E-02  0.9717341E-01
       -1   -1    0    0    0  501  0.00000000000E+00  0.00000000000E+00  0.45209236978E+03  0.45209236981E+03  0.50400001928E-02 0. -1.
        1   -1    0    0  501    0  0.00000000000E+00  0.00000000000E+00 -0.27091290580E+03  0.27091290585E+03  0.50400001928E-02 0.  1.
    10030    2    1    2    0    0  0.00000000000E+00  0.00000000000E+00  0.18117946398E+03  0.72300527566E+03  0.69993616170E+03 0.  0.
        1    1    3    3  502    0 -0.19777913625E+03  0.19346599055E+03  0.31197087458E+03  0.41697901968E+03  0.50400001928E-02 0. -1.
       -1    1    3    3    0  502  0.19777913625E+03 -0.19346599055E+03 -0.13079141061E+03  0.30602625598E+03  0.50400001928E-02 0.  1.
</event>
<event>
 5   0  0.6785252E-03  0.7001626E+03  0.7818609E-02  0.9716954E-01
        1   -1    0    0  501    0  0.00000000000E+00  0.00000000000E+00  0.15990196348E+04  0.15990196348E+04  0.50400001928E-02 0. -1.
       -1   -1    0    0    0  501  0.00000000000E+00  0.00000000000E+00 -0.76645040115E+02  0.76645040280E+02  0.50400001928E-02 0.  1.
    10030    2    1    2    0    0  0.00000000000E+00  0.00000000000E+00  0.15223745947E+04  0.16756646751E+04  0.70016262167E+03 0.  0.
        3    1    3    3  502    0 -0.29524682533E+03  0.12021790761E+03  0.11074558613E+04  0.11524241962E+04  0.10100000352E+00 0. -1.
       -3    1    3    3    0  502  0.29524682533E+03 -0.12021790761E+03  0.41491873339E+03  0.52324047884E+03  0.10100000352E+00 0.  1.
</event>
<event>
 5   0  0.6609285E-03  0.7026486E+03  0.7818609E-02  0.9712713E-01
       -1   -1    0    0    0  501  0.00000000000E+00  0.00000000000E+00  0.20948217702E+03  0.20948217708E+03  0.50400001928E-02 0.  1.
        1   -1    0    0  501    0  0.00000000000E+00  0.00000000000E+00 -0.58920893666E+03  0.58920893668E+03  0.50400001928E-02 0. -1.
    10030    2    1    2    0    0  0.00000000000E+00  0.00000000000E+00 -0.37972675965E+03  0.79869111376E+03  0.70264862002E+03 0.  0.
        2    1    3    3  502    0  0.18964410754E+03 -0.12410989647E+03  0.11526994595E+03  0.25427409301E+03  0.25500000920E-02 0.  1.
       -2    1    3    3    0  502 -0.18964410754E+03  0.12410989647E+03 -0.49499670560E+03  0.54441702076E+03  0.25500000920E-02 0. -1.
</event>
<event>
 5   0  0.6785252E-03  0.7000465E+03  0.7818609E-02  0.9717153E-01
        1   -1    0    0  501    0  0.00000000000E+00  0.00000000000E+00  0.80742353869E+03  0.80742353870E+03  0.50400001928E-02 0.  1.
       -1   -1    0    0    0  501  0.00000000000E+00  0.00000000000E+00 -0.15173728899E+03  0.15173728907E+03  0.50400001928E-02 0. -1.
    10030    2    1    2    0    0  0.00000000000E+00  0.00000000000E+00  0.65568624970E+03  0.95916082778E+03  0.70004645239E+03 0.  0.
        3    1    3    3  502    0  0.12206011688E+03 -0.87451582697E+02  0.76105363082E+03  0.77572488077E+03  0.10100000352E+00 0.  1.
       -3    1    3    3    0  502 -0.12206011688E+03  0.87451582697E+02 -0.10536738113E+03  0.18343594701E+03  0.10100000352E+00 0. -1.
</event>
<event>
 5   0  0.1100119E-02  0.7002486E+03  0.7818609E-02  0.9716807E-01
        2   -1    0    0  501    0  0.00000000000E+00  0.00000000000E+00  0.99096511806E+03  0.99096511807E+03  0.25500000920E-02 0.  1.
       -2   -1    0    0    0  501  0.00000000000E+00  0.00000000000E+00 -0.12370469911E+03  0.12370469913E+03  0.25500000920E-02 0. -1.
    10030    2    1    2    0    0  0.00000000000E+00  0.00000000000E+00  0.86726041895E+03  0.11146698172E+04  0.70024864662E+03 0.  0.
        4    1    3    3  502    0 -0.28510056475E+03 -0.14858272399E+03  0.65435011065E+03  0.72906435799E+03  0.12699999809E+01 0. -1.
       -4    1    3    3    0  502  0.28510056475E+03  0.14858272399E+03  0.21291030831E+03  0.38560545921E+03  0.12699999809E+01 0.  1.
</event>
<event>
 5   0  0.1109788E-02  0.6984948E+03  0.7818609E-02  0.9719810E-01
       -2   -1    0    0    0  501  0.00000000000E+00  0.00000000000E+00  0.14368330435E+03  0.14368330437E+03  0.25500000920E-02 0. -1.
        2   -1    0    0  501    0  0.00000000000E+00  0.00000000000E+00 -0.84890682290E+03  0.84890682291E+03  0.25500000920E-02 0.  1.
    10030    2    1    2    0    0  0.00000000000E+00  0.00000000000E+00 -0.70522351856E+03  0.99259012727E+03  0.69849477424E+03 0.  0.
        1    1    3    3  502    0  0.10292530062E+03 -0.19610369107E+03  0.31131208304E+02  0.22365023433E+03  0.50400001928E-02 0. -1.
       -1    1    3    3    0  502 -0.10292530062E+03  0.19610369107E+03 -0.73635472686E+03  0.76893989294E+03  0.50400001928E-02 0.  1.
</event>
<event>
 5   0  0.6246998E-03  0.7018307E+03  0.7818609E-02  0.9714107E-01
       -1   -1    0    0    0  501  0.00000000000E+00  0.00000000000E+00  0.16341925830E+03  0.16341925838E+03  0.50400001928E-02 0.  1.
        1   -1    0    0  501    0  0.00000000000E+00  0.00000000000E+00 -0.75353157352E+03  0.75353157353E+03  0.50400001928E-02 0. -1.
    10030    2    1    2    0    0  0.00000000000E+00  0.00000000000E+00 -0.59011231521E+03  0.91695083191E+03  0.70183066589E+03 0.  0.
        4    1    3    3  502    0 -0.90781052634E+02  0.58495771429E+02  0.14116462348E+03  0.17774143752E+03  0.12699999809E+01 0.  1.
       -4    1    3    3    0  502  0.90781052634E+02 -0.58495771429E+02 -0.73127693869E+03  0.73920939439E+03  0.12699999809E+01 0. -1.
</event>
<event>
 5   0  0.1079446E-02  0.7007919E+03  0.7818609E-02  0.9715879E-01
        2   -1    0    0  501    0  0.00000000000E+00  0.00000000000E+00  0.68249244385E+03  0.68249244385E+03  0.25500000920E-02 0.  1.
       -2   -1    0    0    0  501  0.00000000000E+00  0.00000000000E+00 -0.17989547839E+03  0.17989547841E+03  0.25500000920E-02 0. -1.
    10030    2    1    2    0    0  0.00000000000E+00  0.00000000000E+00  0.50259696546E+03  0.86238792226E+03  0.70079185125E+03 0.  0.
        2    1    3    3  502    0 -0.15835353041E+03  0.29421634670E+03  0.38117218893E+03  0.50688394814E+03  0.25500000920E-02 0.  1.
       -2    1    3    3    0  502  0.15835353041E+03 -0.29421634670E+03  0.12142477653E+03  0.35550397413E+03  0.25500000920E-02 0. -1.
</event>
<event>
 5   0  0.6785252E-03  0.6843619E+03  0.7818609E-02  0.9744355E-01
        1   -1    0    0  501    0  0.00000000000E+00  0.00000000000E+00  0.92439164902E+03  0.92439164903E+03  0.50400001928E-02 0. -1.
       -1   -1    0    0    0  501  0.00000000000E+00  0.00000000000E+00 -0.12666472552E+03  0.12666472562E+03  0.50400001928E-02 0.  1.
    10030    2    1    2    0    0  0.00000000000E+00  0.00000000000E+00  0.79772692349E+03  0.10510563747E+04  0.68436193511E+03 0.  0.
        3    1    3    3  502    0  0.26829748104E+03  0.21862331496E+02  0.74422539653E+02  0.27928520276E+03  0.10100000352E+00 0.  1.
       -3    1    3    3    0  502 -0.26829748104E+03 -0.21862331496E+02  0.72330438384E+03  0.77177117189E+03  0.10100000352E+00 0. -1.
</event>
<event>
 5   0  0.1079446E-02  0.6956272E+03  0.7818609E-02  0.9724740E-01
        2   -1    0    0  501    0  0.00000000000E+00  0.00000000000E+00  0.55002271141E+03  0.55002271142E+03  0.25500000920E-02 0.  1.
       -2   -1    0    0    0  501  0.00000000000E+00  0.00000000000E+00 -0.21994419608E+03  0.21994419610E+03  0.25500000920E-02 0. -1.
    10030    2    1    2    0    0  0.00000000000E+00  0.00000000000E+00  0.33007851533E+03  0.76996690751E+03  0.69562720791E+03 0.  0.
        2    1    3    3  502    0 -0.67384717517E+02 -0.10642634256E+03  0.52388797283E+03  0.53881896275E+03  0.25500000920E-02 0.  1.
       -2    1    3    3    0  502  0.67384717517E+02  0.10642634256E+03 -0.19380945750E+03  0.23114794476E+03  0.25500000920E-02 0. -1.
</event>
<event>
 5   0  0.6609285E-03  0.6998190E+03  0.7818609E-02  0.9717542E-01
       -1   -1    0    0    0  501  0.00000000000E+00  0.00000000000E+00  0.12819641784E+03  0.12819641794E+03  0.50400001928E-02 0. -1.
        1   -1    0    0  501    0  0.00000000000E+00  0.00000000000E+00 -0.95507092798E+03  0.95507092799E+03  0.50400001928E-02 0.  1.
    10030    2    1    2    0    0  0.00000000000E+00  0.00000000000E+00 -0.82687451013E+03  0.10832673459E+04  0.69981903893E+03 0.  0.
        2    1    3    3  502    0  0.10733419400E+03 -0.16862355340E+03 -0.85799671698E+03  0.88097270010E+03  0.25500000920E-02 0.  1.
       -2    1    3    3    0  502 -0.10733419400E+03  0.16862355340E+03  0.31122206850E+02  0.20229464583E+03  0.25500000920E-02 0. -1.
</event>
<event>
 5   0  0.6609285E-03  0.6998101E+03  0.7818609E-02  0.9717557E-01
       -1   -1    0    0    0  501  0.00000000000E+00  0.00000000000E+00  0.12736686995E+03  0.12736687005E+03  0.50400001928E-02 0.  1.
        1   -1    0    0  501    0  0.00000000000E+00  0.00000000000E+00 -0.96126681172E+03  0.96126681174E+03  0.50400001928E-02 0. -1.
    10030    2    1    2    0    0  0.00000000000E+00  0.00000000000E+00 -0.83389994178E+03  0.10886336818E+04  0.69981010297E+03 0.  0.
        2    1    3    3  502    0 -0.21879088151E+03 -0.62631221423E+02 -0.83040786257E+03  0.86102807036E+03  0.25500000920E-02 0. -1.
       -2    1    3    3    0  502  0.21879088151E+03  0.62631221423E+02 -0.34920792102E+01  0.22760561142E+03  0.25500000920E-02 0.  1.
</event>
<event>
 5   0  0.6609285E-03  0.7003688E+03  0.7818609E-02  0.9716602E-01
       -1   -1    0    0    0  501  0.00000000000E+00  0.00000000000E+00  0.20643106602E+03  0.20643106608E+03  0.50400001928E-02 0.  1.
        1   -1    0    0  501    0  0.00000000000E+00  0.00000000000E+00 -0.59404397567E+03  0.59404397569E+03  0.50400001928E-02 0. -1.
    10030    2    1    2    0    0  0.00000000000E+00  0.00000000000E+00 -0.38761290965E+03  0.80047504177E+03  0.70036884909E+03 0.  0.
        2    1    3    3  502    0 -0.41182527253E+02 -0.13090699233E+03 -0.56203063839E+03  0.57854220216E+03  0.25500000920E-02 0. -1.
       -2    1    3    3    0  502  0.41182527253E+02  0.13090699233E+03  0.17441772874E+03  0.22193283961E+03  0.25500000920E-02 0.  1.
</event>
<event>
 5   0  0.1079446E-02  0.7250581E+03  0.7818609E-02  0.9675314E-01
        2   -1    0    0  501    0  0.00000000000E+00  0.00000000000E+00  0.43958335406E+03  0.43958335407E+03  0.25500000920E-02 0.  1.
       -2   -1    0    0    0  501  0.00000000000E+00  0.00000000000E+00 -0.29898153537E+03  0.29898153538E+03  0.25500000920E-02 0. -1.
    10030    2    1    2    0    0  0.00000000000E+00  0.00000000000E+00  0.14060181870E+03  0.73856488945E+03  0.72505808354E+03 0.  0.
        2    1    3    3  502    0  0.28428704835E+03  0.19305458385E+03 -0.47341245967E+02  0.34688671318E+03  0.25500000920E-02 0. -1.
       -2    1    3    3    0  502 -0.28428704835E+03 -0.19305458385E+03  0.18794306466E+03  0.39167817627E+03  0.25500000920E-02 0.  1.
</event>
<event>
 5   0  0.6990118E-03  0.6986389E+03  0.7818609E-02  0.9719563E-01
        1   -1    0    0  501    0  0.00000000000E+00  0.00000000000E+00  0.24936116428E+03  0.24936116433E+03  0.50400001928E-02 0. -1.
       -1   -1    0    0    0  501  0.00000000000E+00  0.00000000000E+00 -0.48934675263E+03  0.48934675265E+03  0.50400001928E-02 0.  1.
    10030    2    1    2    0    0  0.00000000000E+00  0.00000000000E+00 -0.23998558834E+03  0.73870791699E+03  0.69863889386E+03 0.  0.
        5    1    3    3  502    0 -0.23824700429E+03  0.94985974590E+02 -0.37069476599E+03  0.45080003322E+03  0.46999998093E+01 0.  1.
       -5    1    3    3    0  502  0.23824700429E+03 -0.94985974590E+02  0.13070917764E+03  0.28790788377E+03  0.46999998093E+01 0. -1.
</event>
<event>
 5   0  0.1099980E-02  0.6989566E+03  0.7818609E-02  0.9719018E-01
       -2   -1    0    0    0  501  0.00000000000E+00  0.00000000000E+00  0.22895187285E+03  0.22895187287E+03  0.25500000920E-02 0.  1.
        2   -1    0    0  501    0  0.00000000000E+00  0.00000000000E+00 -0.53345307984E+03  0.53345307984E+03  0.25500000920E-02 0. -1.
    10030    2    1    2    0    0  0.00000000000E+00  0.00000000000E+00 -0.30450120698E+03  0.76240495271E+03  0.69895659869E+03 0.  0.
        5    1    3    3  502    0  0.10031736629E+03 -0.22667821994E+03  0.11641348536E+03  0.27389921312E+03  0.46999998093E+01 0.  1.
       -5    1    3    3    0  502 -0.10031736629E+03  0.22667821994E+03 -0.42091469235E+03  0.48850573959E+03  0.46999998093E+01 0. -1.
</event>
<event>
 5   0  0.1099980E-02  0.7001887E+03  0.7818609E-02  0.9716910E-01
        2   -1    0    0  501    0  0.00000000000E+00  0.00000000000E+00  0.47594393969E+03  0.47594393969E+03  0.25500000920E-02 0.  1.
       -2   -1    0    0    0  501  0.00000000000E+00  0.00000000000E+00 -0.25752204748E+03  0.25752204749E+03  0.25500000920E-02 0. -1.
    10030    2    1    2    0    0  0.00000000000E+00  0.00000000000E+00  0.21842189221E+03  0.73346598718E+03  0.70018871125E+03 0.  0.
        5    1    3    3  502    0  0.66335543456E+01  0.11155955680E+03 -0.23830011877E+03  0.26324622573E+03  0.46999998093E+01 0. -1.
       -5    1    3    3    0  502 -0.66335543456E+01 -0.11155955680E+03  0.45672201098E+03  0.47021976146E+03  0.46999998093E+01 0.  1.
</event>
<event>
 5   0  0.1100119E-02  0.6581784E+03  0.7818609E-02  0.9791553E-01
       -2   -1    0    0    0  501  0.00000000000E+00  0.00000000000E+00  0.17891915500E+03  0.17891915502E+03  0.25500000920E-02 0.  1.
        2   -1    0    0  501    0  0.00000000000E+00  0.00000000000E+00 -0.60529957769E+03  0.60529957769E+03  0.25500000920E-02 0. -1.
    10030    2    1    2    0    0  0.00000000000E+00  0.00000000000E+00 -0.42638042269E+03  0.78421873271E+03  0.65817836176E+03 0.  0.
        4    1    3    3  502    0  0.24786970416E+01  0.21882822530E+03  0.79652321177E+02  0.23289062089E+03  0.12699999809E+01 0.  1.
       -4    1    3    3    0  502 -0.24786970416E+01 -0.21882822530E+03 -0.50603274386E+03  0.55132811183E+03  0.12699999809E+01 0. -1.
</event>
<event>
 5   0  0.6246998E-03  0.6954167E+03  0.7818609E-02  0.9725103E-01
        1   -1    0    0  501    0  0.00000000000E+00  0.00000000000E+00  0.85186439747E+03  0.85186439749E+03  0.50400001928E-02 0. -1.
       -1   -1    0    0    0  501  0.00000000000E+00  0.00000000000E+00 -0.14192528131E+03  0.14192528140E+03  0.50400001928E-02 0.  1.
    10030    2    1    2    0    0  0.00000000000E+00  0.00000000000E+00  0.70993911617E+03  0.99378967888E+03  0.69541669321E+03 0.  0.
        4    1    3    3  502    0  0.28630243594E+03 -0.91854230186E+02  0.60451569434E+03  0.67516451479E+03  0.12699999809E+01 0. -1.
       -4    1    3    3    0  502 -0.28630243594E+03  0.91854230186E+02  0.10542342183E+03  0.31862516410E+03  0.12699999809E+01 0.  1.
</event>
<event>
 5   0  0.4440500E-03  0.7183667E+03  0.7818609E-02  0.9686328E-01
       -4   -1    0    0    0  501  0.00000000000E+00  0.00000000000E+00  0.20758656379E+03  0.20759044864E+03  0.12699999809E+01 0.  1.
        4   -1    0    0  501    0  0.00000000000E+00  0.00000000000E+00 -0.62147831469E+03  0.62147961232E+03  0.12699999809E+01 0. -1.
    10030    2    1    2    0    0  0.00000000000E+00  0.00000000000E+00 -0.41389175090E+03  0.82907006096E+03  0.71836674792E+03 0.  0.
        3    1    3    3  502    0 -0.17281294877E+03 -0.12943561473E+03  0.12433387681E+03  0.24915219595E+03  0.10100000352E+00 0.  1.
       -3    1    3    3    0  502  0.17281294877E+03  0.12943561473E+03 -0.53822562771E+03  0.57991786501E+03  0.10100000352E+00 0. -1.
</event>
<event>
 5   0  0.4440500E-03  0.7015318E+03  0.7818609E-02  0.9714616E-01
       -3   -1    0    0    0  501  0.00000000000E+00  0.00000000000E+00  0.34031876036E+03  0.34031877534E+03  0.10100000352E+00 0.  1.
        3   -1    0    0  501    0  0.00000000000E+00  0.00000000000E+00 -0.36153368935E+03  0.36153370346E+03  0.10100000352E+00 0. -1.
    10030    2    1    2    0    0  0.00000000000E+00  0.00000000000E+00 -0.21214928997E+02  0.70185247880E+03  0.70153177319E+03 0.  0.
        4    1    3    3  502    0 -0.12919009177E+03  0.63103660615E+02 -0.33069581861E+03  0.36060156564E+03  0.12699999809E+01 0. -1.
       -4    1    3    3    0  502  0.12919009177E+03 -0.63103660615E+02  0.30948088962E+03  0.34125091316E+03  0.12699999809E+01 0.  1.
</event>
<event>
 5   0  0.1079446E-02  0.7015260E+03  0.7818609E-02  0.9714626E-01
        2   -1    0    0  501    0  0.00000000000E+00  0.00000000000E+00  0.79837224336E+03  0.79837224337E+03  0.25500000920E-02 0. -1.
       -2   -1    0    0    0  501  0.00000000000E+00  0.00000000000E+00 -0.15410690407E+03  0.15410690409E+03  0.25500000920E-02 0.  1.
    10030    2    1    2    0    0  0.00000000000E+00  0.00000000000E+00  0.64426533930E+03  0.95247914746E+03  0.70152597880E+03 0.  0.
        2    1    3    3  502    0 -0.46586934599E+02 -0.29898986622E+03  0.56298779656E+03  0.63915611681E+03  0.25500000920E-02 0. -1.
       -2    1    3    3    0  502  0.46586934599E+02  0.29898986622E+03  0.81277542740E+02  0.31332303065E+03  0.25500000920E-02 0.  1.
</event>
<event>
 5   0  0.6609285E-03  0.7000864E+03  0.7818609E-02  0.9717085E-01
       -1   -1    0    0    0  501  0.00000000000E+00  0.00000000000E+00  0.66640911438E+02  0.66640911628E+02  0.50400001928E-02 0.  1.
        1   -1    0    0  501    0  0.00000000000E+00  0.00000000000E+00 -0.18386637227E+04  0.18386637228E+04  0.50400001928E-02 0. -1.
    10030    2    1    2    0    0  0.00000000000E+00  0.00000000000E+00 -0.17720228113E+04  0.19053046344E+04  0.70008635610E+03 0.  0.
        2    1    3    3  502    0 -0.61229546230E+02  0.33767364647E+03 -0.10737313067E+04  0.11272406432E+04  0.25500000920E-02 0. -1.
       -2    1    3    3    0  502  0.61229546230E+02 -0.33767364647E+03 -0.69829150464E+03  0.77806399114E+03  0.25500000920E-02 0.  1.
</event>
<event>
 5   0  0.1119786E-02  0.6991862E+03  0.7818609E-02  0.9718625E-01
        2   -1    0    0  501    0  0.00000000000E+00  0.00000000000E+00  0.15661805267E+04  0.15661805267E+04  0.25500000920E-02 0. -1.
       -2   -1    0    0    0  501  0.00000000000E+00  0.00000000000E+00 -0.78033996960E+02  0.78033997002E+02  0.25500000920E-02 0.  1.
    10030    2    1    2    0    0  0.00000000000E+00  0.00000000000E+00  0.14881465298E+04  0.16442145237E+04  0.69918617405E+03 0.  0.
        3    1    3    3  502    0 -0.13698006665E+03  0.16509850332E+03  0.13931959417E+04  0.14096155492E+04  0.10100000352E+00 0. -1.
       -3    1    3    3    0  502  0.13698006665E+03 -0.16509850332E+03  0.94950588041E+02  0.23459897448E+03  0.10100000352E+00 0.  1.
</event>
<event>
 5   0  0.1099980E-02  0.7008646E+03  0.7818609E-02  0.9715755E-01
        2   -1    0    0  501    0  0.00000000000E+00  0.00000000000E+00  0.44386143789E+03  0.44386143790E+03  0.25500000920E-02 0. -1.
       -2   -1    0    0    0  501  0.00000000000E+00  0.00000000000E+00 -0.27666918867E+03  0.27666918868E+03  0.25500000920E-02 0.  1.
    10030    2    1    2    0    0  0.00000000000E+00  0.00000000000E+00  0.16719224922E+03  0.72053062658E+03  0.70086456298E+03 0.  0.
        5    1    3    3  502    0  0.57487383824E+02  0.29956523860E+03  0.26087775000E+03  0.40140182102E+03  0.46999998093E+01 0. -1.
       -5    1    3    3    0  502 -0.57487383824E+02 -0.29956523860E+03 -0.93685500781E+02  0.31912880555E+03  0.46999998093E+01 0.  1.
</event>
<event>
 5   0  0.6990118E-03  0.6991325E+03  0.7818609E-02  0.9718717E-01
        1   -1    0    0  501    0  0.00000000000E+00  0.00000000000E+00  0.37514905177E+03  0.37514905180E+03  0.50400001928E-02 0.  1.
       -1   -1    0    0    0  501  0.00000000000E+00  0.00000000000E+00 -0.32572806165E+03  0.32572806169E+03  0.50400001928E-02 0. -1.
    10030    2    1    2    0    0  0.00000000000E+00  0.00000000000E+00  0.49420990117E+02  0.70087711349E+03  0.69913252960E+03 0.  0.
        5    1    3    3  502    0 -0.27839192525E+03  0.70928227073E+02  0.22430932434E+03  0.36451288101E+03  0.46999998093E+01 0.  1.
       -5    1    3    3    0  502  0.27839192525E+03 -0.70928227073E+02 -0.17488833422E+03  0.33636423247E+03  0.46999998093E+01 0. -1.
</event>
<event>
 5   0  0.6785252E-03  0.6996832E+03  0.7818609E-02  0.9717774E-01
        1   -1    0    0  501    0  0.00000000000E+00  0.00000000000E+00  0.22934768940E+04  0.22934768940E+04  0.50400001928E-02 0. -1.
       -1   -1    0    0    0  501  0.00000000000E+00  0.00000000000E+00 -0.53364016026E+02  0.53364016264E+02  0.50400001928E-02 0.  1.
    10030    2    1    2    0    0  0.00000000000E+00  0.00000000000E+00  0.22401128780E+04  0.23468409103E+04  0.69968317977E+03 0.  0.
        3    1    3    3  502    0  0.76556451319E+00 -0.16538263425E+03  0.86036617931E+02  0.18642508315E+03  0.10100000352E+00 0.  1.
       -3    1    3    3    0  502 -0.76556451319E+00  0.16538263425E+03  0.21540762601E+04  0.21604158271E+04  0.10100000352E+00 0. -1.
</event>
<event>
 5   0  0.1119786E-02  0.7023331E+03  0.7818609E-02  0.9713251E-01
        2   -1    0    0  501    0  0.00000000000E+00  0.00000000000E+00  0.23946801586E+03  0.23946801587E+03  0.25500000920E-02 0.  1.
       -2   -1    0    0    0  501  0.00000000000E+00  0.00000000000E+00 -0.51496618589E+03  0.51496618589E+03  0.25500000920E-02 0. -1.
    10030    2    1    2    0    0  0.00000000000E+00  0.00000000000E+00 -0.27549817003E+03  0.75443420177E+03  0.70233305711E+03 0.  0.
        3    1    3    3  502    0  0.21500557343E+03  0.65089177450E+01  0.16041778657E+03  0.26833493821E+03  0.10100000352E+00 0.  1.
       -3    1    3    3    0  502 -0.21500557343E+03 -0.65089177450E+01 -0.43591595660E+03  0.48609926356E+03  0.10100000352E+00 0. -1.
</event>
<event>
 5   0  0.1100119E-02  0.6951504E+03  0.7818609E-02  0.9725562E-01
       -2   -1    0    0    0  501  0.00000000000E+00  0.00000000000E+00  0.10827785211E+03  0.10827785214E+03  0.25500000920E-02 0.  1.
        2   -1    0    0  501    0  0.00000000000E+00  0.00000000000E+00 -0.11157268272E+04  0.11157268272E+04  0.25500000920E-02 0. -1.
    10030    2    1    2    0    0  0.00000000000E+00  0.00000000000E+00 -0.10074489751E+04  0.12240046794E+04  0.69515035614E+03 0.  0.
        4    1    3    3  502    0  0.19144693460E+03 -0.12946446864E+03 -0.96082811585E+03  0.98823340286E+03  0.12699999809E+01 0. -1.
       -4    1    3    3    0  502 -0.19144693460E+03  0.12946446864E+03 -0.46620859265E+02  0.23577127651E+03  0.12699999809E+01 0.  1.
</event>
<event>
 5   0  0.1109788E-02  0.6992473E+03  0.7818609E-02  0.9718520E-01
        2   -1    0    0  501    0  0.00000000000E+00  0.00000000000E+00  0.25379566526E+03  0.25379566528E+03  0.25500000920E-02 0.  1.
       -2   -1    0    0    0  501  0.00000000000E+00  0.00000000000E+00 -0.48163431832E+03  0.48163431833E+03  0.25500000920E-02 0. -1.
    10030    2    1    2    0    0  0.00000000000E+00  0.00000000000E+00 -0.22783865306E+03  0.73542998360E+03  0.69924731602E+03 0.  0.
        1    1    3    3  502    0  0.19899009443E+03  0.10599721963E+03  0.16712350106E+03  0.28064698979E+03  0.50400001928E-02 0.  1.
       -1    1    3    3    0  502 -0.19899009443E+03 -0.10599721963E+03 -0.39496215411E+03  0.45478299381E+03  0.50400001928E-02 0. -1.
</event>
<event>
 5   0  0.1079446E-02  0.6989712E+03  0.7818609E-02  0.9718993E-01
       -2   -1    0    0    0  501  0.00000000000E+00  0.00000000000E+00  0.14917396984E+03  0.14917396986E+03  0.25500000920E-02 0. -1.
        2   -1    0    0  501    0  0.00000000000E+00  0.00000000000E+00 -0.81877689042E+03  0.81877689043E+03  0.25500000920E-02 0.  1.
    10030    2    1    2    0    0  0.00000000000E+00  0.00000000000E+00 -0.66960292058E+03  0.96795086029E+03  0.69897124167E+03 0.  0.
        2    1    3    3  502    0 -0.33164216458E+03  0.92191688918E+02 -0.25108708460E+03  0.42606402910E+03  0.25500000920E-02 0. -1.
       -2    1    3    3    0  502  0.33164216458E+03 -0.92191688918E+02 -0.41851583599E+03  0.54188683119E+03  0.25500000920E-02 0.  1.
</event>
<event>
 5   0  0.6246998E-03  0.7030229E+03  0.7818609E-02  0.9712077E-01
       -1   -1    0    0    0  501  0.00000000000E+00  0.00000000000E+00  0.14017892134E+03  0.14017892143E+03  0.50400001928E-02 0.  1.
        1   -1    0    0  501    0  0.00000000000E+00  0.00000000000E+00 -0.88144697447E+03  0.88144697449E+03  0.50400001928E-02 0. -1.
    10030    2    1    2    0    0  0.00000000000E+00  0.00000000000E+00 -0.74126805313E+03  0.10216258959E+04  0.70302286209E+03 0.  0.
        4    1    3    3  502    0 -0.30328490237E+03  0.40289167923E+02 -0.11912831173E+03  0.32832623503E+03  0.12699999809E+01 0.  1.
       -4    1    3    3    0  502  0.30328490237E+03 -0.40289167923E+02 -0.62213974140E+03  0.69329966089E+03  0.12699999809E+01 0. -1.
</event>
<event>
 5   0  0.1109788E-02  0.6979081E+03  0.7818609E-02  0.9720816E-01
       -2   -1    0    0    0  501  0.00000000000E+00  0.00000000000E+00  0.40290557935E+03  0.40290557936E+03  0.25500000920E-02 0.  1.
        2   -1    0    0  501    0  0.00000000000E+00  0.00000000000E+00 -0.30222699170E+03  0.30222699171E+03  0.25500000920E-02 0. -1.
    10030    2    1    2    0    0  0.00000000000E+00  0.00000000000E+00  0.10067858765E+03  0.70513257107E+03  0.69790813491E+03 0.  0.
        1    1    3    3  502    0 -0.11054356992E+03  0.32694130634E+03 -0.17545199627E+01  0.34512834860E+03  0.50400001928E-02 0. -1.
       -1    1    3    3    0  502  0.11054356992E+03 -0.32694130634E+03  0.10243310762E+03  0.36000422248E+03  0.50400001928E-02 0.  1.
</event>
<event>
 5   0  0.1100119E-02  0.6643295E+03  0.7818609E-02  0.9780256E-01
        2   -1    0    0  501    0  0.00000000000E+00  0.00000000000E+00  0.15288482150E+04  0.15288482150E+04  0.25500000920E-02 0.  1.
       -2   -1    0    0    0  501  0.00000000000E+00  0.00000000000E+00 -0.72167679593E+02  0.72167679638E+02  0.25500000920E-02 0. -1.
    10030    2    1    2    0    0  0.00000000000E+00  0.00000000000E+00  0.14566805354E+04  0.16010158947E+04  0.66432952114E+03 0.  0.
        4    1    3    3  502    0 -0.23149277406E+03 -0.12163646288E+03  0.12219287743E+04  0.12495982859E+04  0.12699999809E+01 0.  1.
       -4    1    3    3    0  502  0.23149277406E+03  0.12163646288E+03  0.23475176108E+03  0.35141760880E+03  0.12699999809E+01 0. -1.
</event>
<event>
 5   0  0.1119786E-02  0.7000026E+03  0.7818609E-02  0.9717228E-01
       -2   -1    0    0    0  501  0.00000000000E+00  0.00000000000E+00  0.28370759590E+03  0.28370759591E+03  0.25500000920E-02 0.  1.
        2   -1    0    0  501    0  0.00000000000E+00  0.00000000000E+00 -0.43178575232E+03  0.43178575233E+03  0.25500000920E-02 0. -1.
    10030    2    1    2    0    0  0.00000000000E+00  0.00000000000E+00 -0.14807815642E+03  0.71549334824E+03  0.70000256497E+03 0.  0.
        3    1    3    3  502    0 -0.12685509254E+02  0.34938185105E+03 -0.90905379866E+02  0.36123731573E+03  0.10100000352E+00 0. -1.
       -3    1    3    3    0  502  0.12685509254E+02 -0.34938185105E+03 -0.57172776556E+02  0.35425603251E+03  0.10100000352E+00 0.  1.
</event>
<event>
 5   0  0.6785252E-03  0.7014152E+03  0.7818609E-02  0.9714815E-01
        1   -1    0    0  501    0  0.00000000000E+00  0.00000000000E+00  0.10965284219E+03  0.10965284230E+03  0.50400001928E-02 0.  1.
       -1   -1    0    0    0  501  0.00000000000E+00  0.00000000000E+00 -0.11216838762E+04  0.11216838762E+04  0.50400001928E-02 0. -1.
    10030    2    1    2    0    0  0.00000000000E+00  0.00000000000E+00 -0.10120310340E+04  0.12313367185E+04  0.70141521266E+03 0.  0.
        3    1    3    3  502    0 -0.20615874170E+03 -0.28274346805E+03 -0.46482587890E+03  0.58181475007E+03  0.10100000352E+00 0. -1.
       -3    1    3    3    0  502  0.20615874170E+03  0.28274346805E+03 -0.54720515510E+03  0.64952196843E+03  0.10100000352E+00 0.  1.
</event>
<event>
 5   0  0.4440500E-03  0.7060066E+03  0.7818609E-02  0.9707015E-01
        4   -1    0    0  501    0  0.00000000000E+00  0.00000000000E+00  0.54532318281E+03  0.54532466165E+03  0.12699999809E+01 0. -1.
       -4   -1    0    0    0  501  0.00000000000E+00  0.00000000000E+00 -0.22850557375E+03  0.22850910296E+03  0.12699999809E+01 0.  1.
    10030    2    1    2    0    0  0.00000000000E+00  0.00000000000E+00  0.31681760905E+03  0.77383376461E+03  0.70600658485E+03 0.  0.
        4    1    3    3  502    0  0.20709584011E+03 -0.11902726350E+03 -0.12647185366E+03  0.27028303519E+03  0.12699999809E+01 0.  1.
       -4    1    3    3    0  502 -0.20709584011E+03  0.11902726350E+03  0.44328946272E+03  0.50355072942E+03  0.12699999809E+01 0. -1.
</event>
<event>
 5   0  0.1109788E-02  0.7001757E+03  0.7818609E-02  0.9716932E-01
        2   -1    0    0  501    0  0.00000000000E+00  0.00000000000E+00  0.18162882162E+04  0.18162882162E+04  0.25500000920E-02 0. -1.
       -2   -1    0    0    0  501  0.00000000000E+00  0.00000000000E+00 -0.67479104782E+02  0.67479104830E+02  0.25500000920E-02 0.  1.
    10030    2    1    2    0    0  0.00000000000E+00  0.00000000000E+00  0.17488091115E+04  0.18837673211E+04  0.70017570053E+03 0.  0.
        1    1    3    3  502    0 -0.20545564075E+02 -0.26445639039E+03  0.14891065587E+04  0.15125467417E+04  0.50400001928E-02 0. -1.
       -1    1    3    3    0  502  0.20545564075E+02  0.26445639039E+03  0.25970255276E+03  0.37122057938E+03  0.50400001928E-02 0.  1.
</event>
<event>
 5   0  0.1100119E-02  0.6985090E+03  0.7818609E-02  0.9719785E-01
        2   -1    0    0  501    0  0.00000000000E+00  0.00000000000E+00  0.98666656351E+03  0.98666656351E+03  0.25500000920E-02 0.  1.
       -2   -1    0    0    0  501  0.00000000000E+00  0.00000000000E+00 -0.12362709674E+03  0.12362709677E+03  0.25500000920E-02 0. -1.
    10030    2    1    2    0    0  0.00000000000E+00  0.00000000000E+00  0.86303946677E+03  0.11102936603E+04  0.69850904852E+03 0.  0.
        4    1    3    3  502    0 -0.24662454790E+03  0.29569438870E+02  0.41264110602E+02  0.25179825072E+03  0.12699999809E+01 0. -1.
       -4    1    3    3    0  502  0.24662454790E+03 -0.29569438870E+02  0.82177535617E+03  0.85849540956E+03  0.12699999809E+01 0.  1.
</event>
<event>
 5   0  0.1119786E-02  0.6995916E+03  0.7818609E-02  0.9717931E-01
       -2   -1    0    0    0  501  0.00000000000E+00  0.00000000000E+00  0.85879532889E+02  0.85879532927E+02  0.25500000920E-02 0.  1.
        2   -1    0    0  501    0  0.00000000000E+00  0.00000000000E+00 -0.14247526602E+04  0.14247526602E+04  0.25500000920E-02 0. -1.
    10030    2    1    2    0    0  0.00000000000E+00  0.00000000000E+00 -0.13388731273E+04  0.15106321931E+04  0.69959157505E+03 0.  0.
        3    1    3    3  502    0 -0.17762934388E+03  0.29800043815E+03 -0.57285407265E+03  0.66971504664E+03  0.10100000352E+00 0.  1.
       -3    1    3    3    0  502  0.17762934388E+03 -0.29800043815E+03 -0.76601905465E+03  0.84091714647E+03  0.10100000352E+00 0. -1.
</event>
<event>
 5   0  0.6689415E-03  0.7063096E+03  0.7818609E-02  0.9706502E-01
        1   -1    0    0  501    0  0.00000000000E+00  0.00000000000E+00  0.34299995573E+03  0.34299995577E+03  0.50400001928E-02 0.  1.
       -1   -1    0    0    0  501  0.00000000000E+00  0.00000000000E+00 -0.36361029488E+03  0.36361029491E+03  0.50400001928E-02 0. -1.
    10030    2    1    2    0    0  0.00000000000E+00  0.00000000000E+00 -0.20610339146E+02  0.70661025069E+03  0.70630960654E+03 0.  0.
        1    1    3    3  502    0 -0.29335882242E+03 -0.29278936244E+02 -0.20481441877E+03  0.35897855223E+03  0.50400001928E-02 0. -1.
       -1    1    3    3    0  502  0.29335882242E+03  0.29278936244E+02  0.18420407963E+03  0.34763169846E+03  0.50400001928E-02 0.  1.
</event>
<event>
 5   0  0.1079446E-02  0.7017889E+03  0.7818609E-02  0.9714178E-01
        2   -1    0    0  501    0  0.00000000000E+00  0.00000000000E+00  0.10846716250E+04  0.10846716250E+04  0.25500000920E-02 0. -1.
       -2   -1    0    0    0  501  0.00000000000E+00  0.00000000000E+00 -0.11351539405E+03  0.11351539408E+03  0.25500000920E-02 0.  1.
    10030    2    1    2    0    0  0.00000000000E+00  0.00000000000E+00  0.97115623098E+03  0.11981870191E+04  0.70178893394E+03 0.  0.
        2    1    3    3  502    0 -0.32871077752E+03 -0.12268272735E+03  0.49413185060E+03  0.60602649499E+03  0.25500000920E-02 0. -1.
       -2    1    3    3    0  502  0.32871077752E+03  0.12268272735E+03  0.47702438038E+03  0.59216052413E+03  0.25500000920E-02 0.  1.
</event>
<event>
 5   0  0.6246998E-03  0.7159147E+03  0.7818609E-02  0.9690396E-01
        1   -1    0    0  501    0  0.00000000000E+00  0.00000000000E+00  0.57743927486E+03  0.57743927488E+03  0.50400001928E-02 0.  1.
       -1   -1    0    0    0  501  0.00000000000E+00  0.00000000000E+00 -0.22189945026E+03  0.22189945032E+03  0.50400001928E-02 0. -1.
    10030    2    1    2    0    0  0.00000000000E+00  0.00000000000E+00  0.35553982459E+03  0.79933872520E+03  0.71591468119E+03 0.  0.
        4    1    3    3  502    0  0.29663972677E+03 -0.16387324117E+03  0.30644837677E+03  0.45690457121E+03  0.12699999809E+01 0.  1.
       -4    1    3    3    0  502 -0.29663972677E+03  0.16387324117E+03  0.49091447821E+02  0.34243415399E+03  0.12699999809E+01 0. -1.
</event>
<event>
 5   0  0.6609285E-03  0.7048173E+03  0.7818609E-02  0.9709029E-01
        1   -1    0    0  501    0  0.00000000000E+00  0.00000000000E+00  0.13834298534E+03  0.13834298543E+03  0.50400001928E-02 0.  1.
       -1   -1    0    0    0  501  0.00000000000E+00  0.00000000000E+00 -0.89770975953E+03  0.89770975955E+03  0.50400001928E-02 0. -1.
    10030    2    1    2    0    0  0.00000000000E+00  0.00000000000E+00 -0.75936677420E+03  0.10360527450E+04  0.70481727605E+03 0.  0.
        2    1    3    3  502    0 -0.14127761463E+03  0.18056669666E+03  0.13728245945E+02  0.22967838619E+03  0.25500000920E-02 0.  1.
       -2    1    3    3    0  502  0.14127761463E+03 -0.18056669666E+03 -0.77309502014E+03  0.80637435879E+03  0.25500000920E-02 0. -1.
</event>
<event>
 5   0  0.1099980E-02  0.7015206E+03  0.7818609E-02  0.9714635E-01
       -2   -1    0    0    0  501  0.00000000000E+00  0.00000000000E+00  0.17950225439E+03  0.17950225440E+03  0.25500000920E-02 0.  1.
        2   -1    0    0  501    0  0.00000000000E+00  0.00000000000E+00 -0.68541084290E+03  0.68541084290E+03  0.25500000920E-02 0. -1.
    10030    2    1    2    0    0  0.00000000000E+00  0.00000000000E+00 -0.50590858851E+03  0.86491309731E+03  0.70152060979E+03 0.  0.
        5    1    3    3  502    0  0.27629618586E+03 -0.21587058002E+03 -0.26334386153E+03  0.43853365782E+03  0.46999998093E+01 0. -1.
       -5    1    3    3    0  502 -0.27629618586E+03  0.21587058002E+03 -0.24256472699E+03  0.42637943949E+03  0.46999998093E+01 0.  1.
</event>
<event>
 5   0  0.6689415E-03  0.6978353E+03  0.7818609E-02  0.9720941E-01
       -1   -1    0    0    0  501  0.00000000000E+00  0.00000000000E+00  0.26370747066E+03  0.26370747071E+03  0.50400001928E-02 0. -1.
        1   -1    0    0  501    0  0.00000000000E+00  0.00000000000E+00 -0.46166130194E+03  0.46166130197E+03  0.50400001928E-02 0.  1.
    10030    2    1    2    0    0  0.00000000000E+00  0.00000000000E+00 -0.19795383129E+03  0.72536877268E+03  0.69783532230E+03 0.  0.
        1    1    3    3  502    0 -0.31189911642E+03 -0.15634639813E+03 -0.94532807852E+02  0.36147158508E+03  0.50400001928E-02 0. -1.
       -1    1    3    3    0  502  0.31189911642E+03  0.15634639813E+03 -0.10342102344E+03  0.36389718760E+03  0.50400001928E-02 0.  1.
</event>
<event>
 5   0  0.1100119E-02  0.6989829E+03  0.7818609E-02  0.9718973E-01
        2   -1    0    0  501    0  0.00000000000E+00  0.00000000000E+00  0.99948676401E+03  0.99948676402E+03  0.25500000920E-02 0. -1.
       -2   -1    0    0    0  501  0.00000000000E+00  0.00000000000E+00 -0.12220699620E+03  0.12220699623E+03  0.25500000920E-02 0.  1.
    10030    2    1    2    0    0  0.00000000000E+00  0.00000000000E+00  0.87727976781E+03  0.11216937602E+04  0.69898290448E+03 0.  0.
        4    1    3    3  502    0 -0.23761087676E+03  0.23327685020E+03  0.60896777723E+03  0.69406079287E+03  0.12699999809E+01 0. -1.
       -4    1    3    3    0  502  0.23761087676E+03 -0.23327685020E+03  0.26831199058E+03  0.42763296737E+03  0.12699999809E+01 0.  1.
</event>
<event>
 5   0  0.6990118E-03  0.6893435E+03  0.7818609E-02  0.9735632E-01
        1   -1    0    0  501    0  0.00000000000E+00  0.00000000000E+00  0.15555665117E+04  0.15555665117E+04  0.50400001928E-02 0. -1.
       -1   -1    0    0    0  501  0.00000000000E+00  0.00000000000E+00 -0.76369997669E+02  0.76369997835E+02  0.50400001928E-02 0.  1.
    10030    2    1    2    0    0  0.00000000000E+00  0.00000000000E+00  0.14791965140E+04  0.16319365095E+04  0.68934348772E+03 0.  0.
        5    1    3    3  502    0  0.15332125166E+03  0.15069126757E+03  0.10189302636E+03  0.23794861452E+03  0.46999998093E+01 0.  1.
       -5    1    3    3    0  502 -0.15332125166E+03 -0.15069126757E+03  0.13773034877E+04  0.13939878950E+04  0.46999998093E+01 0. -1.
</event>
<event>
 5   0  0.1119786E-02  0.6867230E+03  0.7818609E-02  0.9740211E-01
       -2   -1    0    0    0  501  0.00000000000E+00  0.00000000000E+00  0.95275176954E+02  0.95275176988E+02  0.25500000920E-02 0. -1.
        2   -1    0    0  501    0  0.00000000000E+00  0.00000000000E+00 -0.12374379191E+04  0.12374379191E+04  0.25500000920E-02 0.  1.
    10030    2    1    2    0    0  0.00000000000E+00  0.00000000000E+00 -0.11421627421E+04  0.13327130961E+04  0.68672299142E+03 0.  0.
        3    1    3    3  502    0 -0.17217574058E+03 -0.26930914233E+03 -0.32771909437E+03  0.45779003353E+03  0.10100000352E+00 0. -1.
       -3    1    3    3    0  502  0.17217574058E+03  0.26930914233E+03 -0.81444364776E+03  0.87492306254E+03  0.10100000352E+00 0.  1.
</event>
<event>
 5   0  0.1119786E-02  0.6882015E+03  0.7818609E-02  0.9737625E-01
       -2   -1    0    0    0  501  0.00000000000E+00  0.00000000000E+00  0.11407222537E+03  0.11407222540E+03  0.25500000920E-02 0. -1.
        2   -1    0    0  501    0  0.00000000000E+00  0.00000000000E+00 -0.10379857174E+04  0.10379857174E+04  0.25500000920E-02 0.  1.
    10030    2    1    2    0    0  0.00000000000E+00  0.00000000000E+00 -0.92391349200E+03  0.11520579428E+04  0.68820154229E+03 0.  0.
        3    1    3    3  502    0 -0.25438588584E+03 -0.90083984131E+02 -0.10457164486E+03  0.28941759141E+03  0.10100000352E+00 0. -1.
       -3    1    3    3    0  502  0.25438588584E+03  0.90083984131E+02 -0.81934184715E+03  0.86264035137E+03  0.10100000352E+00 0.  1.
</event>
<event>
 5   0  0.6785252E-03  0.6978041E+03  0.7818609E-02  0.9720995E-01
       -1   -1    0    0    0  501  0.00000000000E+00  0.00000000000E+00  0.39213099509E+03  0.39213099512E+03  0.50400001928E-02 0.  1.
        1   -1    0    0  501    0  0.00000000000E+00  0.00000000000E+00 -0.31043874375E+03  0.31043874379E+03  0.50400001928E-02 0. -1.
    10030    2    1    2    0    0  0.00000000000E+00  0.00000000000E+00  0.81692251340E+02  0.70256973892E+03  0.69780413736E+03 0.  0.
        3    1    3    3  502    0 -0.16797334913E+03  0.11586067163E+03 -0.24409532176E+03  0.31815291536E+03  0.10100000352E+00 0. -1.
       -3    1    3    3    0  502  0.16797334913E+03 -0.11586067163E+03  0.32578757310E+03  0.38441682356E+03  0.10100000352E+00 0.  1.
</event>
<event>
 5   0  0.1079446E-02  0.7012211E+03  0.7818609E-02  0.9715146E-01
       -2   -1    0    0    0  501  0.00000000000E+00  0.00000000000E+00  0.22453111665E+03  0.22453111666E+03  0.25500000920E-02 0. -1.
        2   -1    0    0  501    0  0.00000000000E+00  0.00000000000E+00 -0.54748647919E+03  0.54748647919E+03  0.25500000920E-02 0.  1.
    10030    2    1    2    0    0  0.00000000000E+00  0.00000000000E+00 -0.32295536254E+03  0.77201759585E+03  0.70122107934E+03 0.  0.
        2    1    3    3  502    0 -0.83505321565E+02 -0.17697347077E+03  0.15881516699E+03  0.25202183508E+03  0.25500000920E-02 0. -1.
       -2    1    3    3    0  502  0.83505321565E+02  0.17697347077E+03 -0.48177052953E+03  0.51999576077E+03  0.25500000920E-02 0.  1.
</event>
<event>
 5   0  0.1100119E-02  0.6992801E+03  0.7818609E-02  0.9718464E-01
       -2   -1    0    0    0  501  0.00000000000E+00  0.00000000000E+00  0.13102932340E+03  0.13102932343E+03  0.25500000920E-02 0. -1.
        2   -1    0    0  501    0  0.00000000000E+00  0.00000000000E+00 -0.93298317387E+03  0.93298317387E+03  0.25500000920E-02 0.  1.
    10030    2    1    2    0    0  0.00000000000E+00  0.00000000000E+00 -0.80195385047E+03  0.10640124973E+04  0.69928006988E+03 0.  0.
        4    1    3    3  502    0 -0.46316385826E+02 -0.11764200466E+03  0.95025662572E+02  0.15816554082E+03  0.12699999809E+01 0. -1.
       -4    1    3    3    0  502  0.46316385826E+02  0.11764200466E+03 -0.89697951304E+03  0.90584695648E+03  0.12699999809E+01 0.  1.
</event>
<event>
 5   0  0.1100119E-02  0.7050757E+03  0.7818609E-02  0.9708591E-01
       -2   -1    0    0    0  501  0.00000000000E+00  0.00000000000E+00  0.12659138642E+03  0.12659138644E+03  0.25500000920E-02 0.  1.
        2   -1    0    0  501    0  0.00000000000E+00  0.00000000000E+00 -0.98176447039E+03  0.98176447039E+03  0.25500000920E-02 0. -1.
    10030    2    1    2    0    0  0.00000000000E+00  0.00000000000E+00 -0.85517308397E+03  0.11083558568E+04  0.70507567099E+03 0.  0.
        4    1    3    3  502    0 -0.26333463364E+03 -0.95150126198E+02 -0.90867501584E+02  0.29437593573E+03  0.12699999809E+01 0.  1.
       -4    1    3    3    0  502  0.26333463364E+03  0.95150126198E+02 -0.76430558239E+03  0.81397992110E+03  0.12699999809E+01 0. -1.
</event>
<event>
 5   0  0.6609285E-03  0.7006020E+03  0.7818609E-02  0.9716203E-01
       -1   -1    0    0    0  501  0.00000000000E+00  0.00000000000E+00  0.19555151036E+03  0.19555151043E+03  0.50400001928E-02 0.  1.
        1   -1    0    0  501    0  0.00000000000E+00  0.00000000000E+00 -0.62751134349E+03  0.62751134351E+03  0.50400001928E-02 0. -1.
    10030    2    1    2    0    0  0.00000000000E+00  0.00000000000E+00 -0.43195983313E+03  0.82306285394E+03  0.70060200121E+03 0.  0.
        2    1    3    3  502    0  0.31368375429E+03  0.14849790705E+03 -0.16011029129E+03  0.38220993118E+03  0.25500000920E-02 0. -1.
       -2    1    3    3    0  502 -0.31368375429E+03 -0.14849790705E+03 -0.27184954184E+03  0.44085292276E+03  0.25500000920E-02 0.  1.
</event>
<event>
 5   0  0.6785252E-03  0.6998435E+03  0.7818609E-02  0.9717500E-01
        1   -1    0    0  501    0  0.00000000000E+00  0.00000000000E+00  0.32421178647E+03  0.32421178651E+03  0.50400001928E-02 0. -1.
       -1   -1    0    0    0  501  0.00000000000E+00  0.00000000000E+00 -0.37767049530E+03  0.37767049534E+03  0.50400001928E-02 0.  1.
    10030    2    1    2    0    0  0.00000000000E+00  0.00000000000E+00 -0.53458708834E+02  0.70188228185E+03  0.69984348537E+03 0.  0.
        3    1    3    3  502    0  0.68263752503E+02  0.41590380606E+02 -0.36839101610E+03  0.37696372586E+03  0.10100000352E+00 0.  1.
       -3    1    3    3    0  502 -0.68263752503E+02 -0.41590380606E+02  0.31493230727E+03  0.32491855599E+03  0.10100000352E+00 0. -1.
</event>
<event>
 5   0  0.6246998E-03  0.7015007E+03  0.7818609E-02  0.9714669E-01
       -1   -1    0    0    0  501  0.00000000000E+00  0.00000000000E+00  0.20728223238E+03  0.20728223244E+03  0.50400001928E-02 0.  1.
        1   -1    0    0  501    0  0.00000000000E+00  0.00000000000E+00 -0.59351840186E+03  0.59351840189E+03  0.50400001928E-02 0. -1.
    10030    2    1    2    0    0  0.00000000000E+00  0.00000000000E+00 -0.38623616949E+03  0.80080063432E+03  0.70150073223E+03 0.  0.
        4    1    3    3  502    0 -0.32423713382E+03 -0.10538621641E+02 -0.34534939412E+03  0.47382338314E+03  0.12699999809E+01 0.  1.
       -4    1    3    3    0  502  0.32423713382E+03  0.10538621641E+02 -0.40886775372E+02  0.32697725119E+03  0.12699999809E+01 0. -1.
</event>
<event>
 5   0  0.6609285E-03  0.6992209E+03  0.7818609E-02  0.9718565E-01
       -1   -1    0    0    0  501  0.00000000000E+00  0.00000000000E+00  0.31709495571E+03  0.31709495575E+03  0.50400001928E-02 0.  1.
        1   -1    0    0  501    0  0.00000000000E+00  0.00000000000E+00 -0.38546019052E+03  0.38546019056E+03  0.50400001928E-02 0. -1.
    10030    2    1    2    0    0  0.00000000000E+00  0.00000000000E+00 -0.68365234808E+02  0.70255514631E+03  0.69922094382E+03 0.  0.
        2    1    3    3  502    0  0.34028031523E+03 -0.28210674369E+02  0.41281761172E+02  0.34393417814E+03  0.25500000920E-02 0. -1.
       -2    1    3    3    0  502 -0.34028031523E+03  0.28210674369E+02 -0.10964699598E+03  0.35862096817E+03  0.25500000920E-02 0.  1.
</event>
<event>
 5   0  0.6689415E-03  0.6993537E+03  0.7818609E-02  0.9718338E-01
        1   -1    0    0  501    0  0.00000000000E+00  0.00000000000E+00  0.10746103168E+04  0.10746103168E+04  0.50400001928E-02 0. -1.
       -1   -1    0    0    0  501  0.00000000000E+00  0.00000000000E+00 -0.11378439896E+03  0.11378439907E+03  0.50400001928E-02 0.  1.
    10030    2    1    2    0    0  0.00000000000E+00  0.00000000000E+00  0.96082591779E+03  0.11883947158E+04  0.69935367041E+03 0.  0.
        1    1    3    3  502    0 -0.99780204834E+02 -0.20695648712E+03  0.92834801024E+03  0.95635616011E+03  0.50400001928E-02 0. -1.
       -1    1    3    3    0  502  0.99780204834E+02  0.20695648712E+03  0.32477907552E+02  0.23203855572E+03  0.50400001928E-02 0.  1.
</event>
<event>
 5   0  0.1079446E-02  0.6994251E+03  0.7818609E-02  0.9718216E-01
       -2   -1    0    0    0  501  0.00000000000E+00  0.00000000000E+00  0.13896220679E+03  0.13896220681E+03  0.25500000920E-02 0.  1.
        2   -1    0    0  501    0  0.00000000000E+00  0.00000000000E+00 -0.88008713825E+03  0.88008713825E+03  0.25500000920E-02 0. -1.
    10030    2    1    2    0    0  0.00000000000E+00  0.00000000000E+00 -0.74112493146E+03  0.10190493451E+04  0.69942505220E+03 0.  0.
        2    1    3    3  502    0  0.10928950275E+03 -0.26391547261E+02  0.11191215266E+03  0.15863492395E+03  0.25500000920E-02 0.  1.
       -2    1    3    3    0  502 -0.10928950275E+03  0.26391547261E+02 -0.85303708411E+03  0.86041442111E+03  0.25500000920E-02 0. -1.
</event>
<event>
 5   0  0.6609285E-03  0.7000509E+03  0.7818609E-02  0.9717145E-01
        1   -1    0    0  501    0  0.00000000000E+00  0.00000000000E+00  0.36828059097E+03  0.36828059101E+03  0.50400001928E-02 0.  1.
       -1   -1    0    0    0  501  0.00000000000E+00  0.00000000000E+00 -0.33267518177E+03  0.33267518181E+03  0.50400001928E-02 0. -1.
    10030    2    1    2    0    0  0.00000000000E+00  0.00000000000E+00  0.35605409200E+02  0.70095577282E+03  0.70005089121E+03 0.  0.
        2    1    3    3  502    0 -0.99706698593E+02  0.28035838665E+03  0.20236557151E+03  0.35985285221E+03  0.25500000920E-02 0.  1.
       -2    1    3    3    0  502  0.99706698593E+02 -0.28035838665E+03 -0.16676016231E+03  0.34110292061E+03  0.25500000920E-02 0. -1.
</event>
<event>
 5   0  0.1079446E-02  0.7012253E+03  0.7818609E-02  0.9715139E-01
        2   -1    0    0  501    0  0.00000000000E+00  0.00000000000E+00  0.74086616865E+03  0.74086616865E+03  0.25500000920E-02 0.  1.
       -2   -1    0    0    0  501  0.00000000000E+00  0.00000000000E+00 -0.16592635938E+03  0.16592635940E+03  0.25500000920E-02 0. -1.
    10030    2    1    2    0    0  0.00000000000E+00  0.00000000000E+00  0.57493980927E+03  0.90679252805E+03  0.70122528808E+03 0.  0.
        2    1    3    3  502    0 -0.14605064122E+03 -0.14320686338E+03 -0.80773206575E+02  0.21991658971E+03  0.25500000920E-02 0. -1.
       -2    1    3    3    0  502  0.14605064122E+03  0.14320686338E+03  0.65571301585E+03  0.68687593835E+03  0.25500000920E-02 0.  1.
</event>
<event>
 5   0  0.6246998E-03  0.6985128E+03  0.7818609E-02  0.9719779E-01
       -1   -1    0    0    0  501  0.00000000000E+00  0.00000000000E+00  0.25923564121E+03  0.25923564126E+03  0.50400001928E-02 0. -1.
        1   -1    0    0  501    0  0.00000000000E+00  0.00000000000E+00 -0.47053722201E+03  0.47053722204E+03  0.50400001928E-02 0.  1.
    10030    2    1    2    0    0  0.00000000000E+00  0.00000000000E+00 -0.21130158080E+03  0.72977286329E+03  0.69851275862E+03 0.  0.
        4    1    3    3  502    0  0.25841271089E+03 -0.19265659781E+03  0.34846892714E+02  0.32420612681E+03  0.12699999809E+01 0. -1.
       -4    1    3    3    0  502 -0.25841271089E+03  0.19265659781E+03 -0.24614847352E+03  0.40556673649E+03  0.12699999809E+01 0.  1.
</event>
<event>
 5   0  0.6785252E-03  0.7001899E+03  0.7818609E-02  0.9716908E-01
       -1   -1    0    0    0  501  0.00000000000E+00  0.00000000000E+00  0.49738434778E+03  0.49738434780E+03  0.50400001928E-02 0.  1.
        1   -1    0    0  501    0  0.00000000000E+00  0.00000000000E+00 -0.24642205188E+03  0.24642205193E+03  0.50400001928E-02 0. -1.
    10030    2    1    2    0    0  0.00000000000E+00  0.00000000000E+00  0.25096229590E+03  0.74380639973E+03  0.70018989304E+03 0.  0.
        3    1    3    3  502    0  0.40603804706E+02 -0.16092089089E+03 -0.20197771481E+03  0.26141769175E+03  0.10100000352E+00 0. -1.
       -3    1    3    3    0  502 -0.40603804706E+02  0.16092089089E+03  0.45294001071E+03  0.48238870798E+03  0.10100000352E+00 0.  1.
</event>
<event>
 5   0  0.1079446E-02  0.7089629E+03  0.7818609E-02  0.9702026E-01
       -2   -1    0    0    0  501  0.00000000000E+00  0.00000000000E+00  0.10649448769E+03  0.10649448772E+03  0.25500000920E-02 0.  1.
        2   -1    0    0  501    0  0.00000000000E+00  0.00000000000E+00 -0.11799399669E+04  0.11799399669E+04  0.25500000920E-02 0. -1.
    10030    2    1    2    0    0  0.00000000000E+00  0.00000000000E+00 -0.10734454792E+04  0.12864344546E+04  0.70896291101E+03 0.  0.
        2    1    3    3  502    0  0.15010063896E+03 -0.68487869033E+01  0.45851585759E+02  0.15709702614E+03  0.25500000920E-02 0.  1.
       -2    1    3    3    0  502 -0.15010063896E+03  0.68487869033E+01 -0.11192970650E+04  0.11293374285E+04  0.25500000920E-02 0. -1.
</event>
<event>
 5   0  0.1109788E-02  0.7021452E+03  0.7818609E-02  0.9713571E-01
       -2   -1    0    0    0  501  0.00000000000E+00  0.00000000000E+00  0.65702064020E+03  0.65702064020E+03  0.25500000920E-02 0. -1.
        2   -1    0    0  501    0  0.00000000000E+00  0.00000000000E+00 -0.18759226046E+03  0.18759226048E+03  0.25500000920E-02 0.  1.
    10030    2    1    2    0    0  0.00000000000E+00  0.00000000000E+00  0.46942837974E+03  0.84461290068E+03  0.70214524729E+03 0.  0.
        1    1    3    3  502    0  0.26070857761E+02  0.60836288194E+02  0.64944772434E+03  0.65281168055E+03  0.50400001928E-02 0. -1.
       -1    1    3    3    0  502 -0.26070857761E+02 -0.60836288194E+02 -0.18001934460E+03  0.19180122013E+03  0.50400001928E-02 0.  1.
</event>
<event>
 5   0  0.1099980E-02  0.6983561E+03  0.7818609E-02  0.9720048E-01
       -2   -1    0    0    0  501  0.00000000000E+00  0.00000000000E+00  0.11022694578E+04  0.11022694578E+04  0.25500000920E-02 0.  1.
        2   -1    0    0  501    0  0.00000000000E+00  0.00000000000E+00 -0.11061298394E+03  0.11061298397E+03  0.25500000920E-02 0. -1.
    10030    2    1    2    0    0  0.00000000000E+00  0.00000000000E+00  0.99165647382E+03  0.12128824417E+04  0.69835610931E+03 0.  0.
        5    1    3    3  502    0  0.73206225618E+02  0.29806981101E+03  0.78487598165E+03  0.84276756005E+03  0.46999998093E+01 0.  1.
       -5    1    3    3    0  502 -0.73206225618E+02 -0.29806981101E+03  0.20678049217E+03  0.37011488169E+03  0.46999998093E+01 0. -1.
</event>
<event>
 5   0  0.6246998E-03  0.7007569E+03  0.7818609E-02  0.9715939E-01
       -1   -1    0    0    0  501  0.00000000000E+00  0.00000000000E+00  0.45748470716E+03  0.45748470719E+03  0.50400001928E-02 0.  1.
        1   -1    0    0  501    0  0.00000000000E+00  0.00000000000E+00 -0.26834793248E+03  0.26834793252E+03  0.50400001928E-02 0. -1.
    10030    2    1    2    0    0  0.00000000000E+00  0.00000000000E+00  0.18913677469E+03  0.72583263972E+03  0.70075694883E+03 0.  0.
        4    1    3    3  502    0 -0.12875862620E+02 -0.21421610272E+03 -0.19230656209E+03  0.28816272005E+03  0.12699999809E+01 0. -1.
       -4    1    3    3    0  502  0.12875862620E+02  0.21421610272E+03  0.38144333678E+03  0.43766991966E+03  0.12699999809E+01 0.  1.
</event>
<event>
 5   0  0.6689415E-03  0.7004642E+03  0.7818609E-02  0.9716439E-01
       -1   -1    0    0    0  501  0.00000000000E+00  0.00000000000E+00  0.12779738993E+03  0.12779739003E+03  0.50400001928E-02 0. -1.
        1   -1    0    0  501    0  0.00000000000E+00  0.00000000000E+00 -0.95982021539E+03  0.95982021540E+03  0.50400001928E-02 0.  1.
    10030    2    1    2    0    0  0.00000000000E+00  0.00000000000E+00 -0.83202282545E+03  0.10876176054E+04  0.70046418436E+03 0.  0.
        1    1    3    3  502    0  0.17928523335E+03 -0.96748923234E+02 -0.85835379888E+03  0.88219883990E+03  0.50400001928E-02 0.  1.
       -1    1    3    3    0  502 -0.17928523335E+03  0.96748923234E+02  0.26330973431E+02  0.20541876553E+03  0.50400001928E-02 0. -1.
</event>
<event>
 5   0  0.6785252E-03  0.7001855E+03  0.7818609E-02  0.9716915E-01
        1   -1    0    0  501    0  0.00000000000E+00  0.00000000000E+00  0.30432104697E+03  0.30432104701E+03  0.50400001928E-02 0. -1.
       -1   -1    0    0    0  501  0.00000000000E+00  0.00000000000E+00 -0.40274874656E+03  0.40274874659E+03  0.50400001928E-02 0.  1.
    10030    2    1    2    0    0  0.00000000000E+00  0.00000000000E+00 -0.98427699586E+02  0.70706979360E+03  0.70018546184E+03 0.  0.
        3    1    3    3  502    0 -0.14423299850E+03  0.15513639205E+03  0.23226398346E+03  0.31435175553E+03  0.10100000352E+00 0. -1.
       -3    1    3    3    0  502  0.14423299850E+03 -0.15513639205E+03 -0.33069168304E+03  0.39271803807E+03  0.10100000352E+00 0.  1.
</event>
<event>
 5   0  0.1119786E-02  0.7009322E+03  0.7818609E-02  0.9715639E-01
       -2   -1    0    0    0  501  0.00000000000E+00  0.00000000000E+00  0.71966143087E+02  0.71966143132E+02  0.25500000920E-02 0.  1.
        2   -1    0    0  501    0  0.00000000000E+00  0.00000000000E+00 -0.17067257987E+04  0.17067257987E+04  0.25500000920E-02 0. -1.
    10030    2    1    2    0    0  0.00000000000E+00  0.00000000000E+00 -0.16347596556E+04  0.17786919418E+04  0.70093215957E+03 0.  0.
        3    1    3    3  502    0 -0.12933054123E+03  0.56551733809E+02 -0.16314026988E+04  0.16374978667E+04  0.10100000352E+00 0. -1.
       -3    1    3    3    0  502  0.12933054123E+03 -0.56551733809E+02 -0.33569567763E+01  0.14119407513E+03  0.10100000352E+00 0.  1.
</event>
<event>
 5   0  0.1079446E-02  0.7241567E+03  0.7818609E-02  0.9676790E-01
        2   -1    0    0  501    0  0.00000000000E+00  0.00000000000E+00  0.15731606782E+04  0.15731606782E+04  0.25500000920E-02 0. -1.
       -2   -1    0    0    0  501  0.00000000000E+00  0.00000000000E+00 -0.83335873563E+02  0.83335873602E+02  0.25500000920E-02 0.  1.
    10030    2    1    2    0    0  0.00000000000E+00  0.00000000000E+00  0.14898248046E+04  0.16564965518E+04  0.72415666649E+03 0.  0.
        2    1    3    3  502    0 -0.25981548011E+03 -0.23996755219E+03  0.92228031659E+03  0.98776995914E+03  0.25500000920E-02 0.  1.
       -2    1    3    3    0  502  0.25981548011E+03  0.23996755219E+03  0.56754448802E+03  0.66872659263E+03  0.25500000920E-02 0. -1.
</event>
<event>
 5   0  0.4440500E-03  0.6996969E+03  0.7818609E-02  0.9717751E-01
       -4   -1    0    0    0  501  0.00000000000E+00  0.00000000000E+00  0.26411279893E+03  0.26411585234E+03  0.12699999809E+01 0.  1.
        4   -1    0    0  501    0  0.00000000000E+00  0.00000000000E+00 -0.46340884942E+03  0.46341058967E+03  0.12699999809E+01 0. -1.
    10030    2    1    2    0    0  0.00000000000E+00  0.00000000000E+00 -0.19929605049E+03  0.72752644201E+03  0.69969694017E+03 0.  0.
        4    1    3    3  502    0 -0.16372727233E+02 -0.22276109561E+03 -0.37961906098E+03  0.44045750791E+03  0.12699999809E+01 0. -1.
       -4    1    3    3    0  502  0.16372727233E+02  0.22276109561E+03  0.18032301049E+03  0.28706893410E+03  0.12699999809E+01 0.  1.
</event>
<event>
 5   0  0.4440500E-03  0.6990212E+03  0.7818609E-02  0.9718907E-01
       -4   -1    0    0    0  501  0.00000000000E+00  0.00000000000E+00  0.39484043403E+03  0.39484247650E+03  0.12699999809E+01 0.  1.
        4   -1    0    0  501    0  0.00000000000E+00  0.00000000000E+00 -0.30938075659E+03  0.30938336324E+03  0.12699999809E+01 0. -1.
    10030    2    1    2    0    0  0.00000000000E+00  0.00000000000E+00  0.85459677438E+02  0.70422583974E+03  0.69902122778E+03 0.  0.
        5    1    3    3  502    0 -0.29352585558E+03  0.15317624930E+03  0.15543408536E+03  0.36578987976E+03  0.46999998093E+01 0.  1.
       -5    1    3    3    0  502  0.29352585558E+03 -0.15317624930E+03 -0.69974407924E+02  0.33843595998E+03  0.46999998093E+01 0. -1.
</event>
<event>
 5   0  0.1100119E-02  0.7009186E+03  0.7818609E-02  0.9715662E-01
        2   -1    0    0  501    0  0.00000000000E+00  0.00000000000E+00  0.45623627994E+03  0.45623627995E+03  0.25500000920E-02 0.  1.
       -2   -1    0    0    0  501  0.00000000000E+00  0.00000000000E+00 -0.26920642488E+03  0.26920642490E+03  0.25500000920E-02 0. -1.
    10030    2    1    2    0    0  0.00000000000E+00  0.00000000000E+00  0.18702985506E+03  0.72544270484E+03  0.70091864815E+03 0.  0.
        4    1    3    3  502    0  0.25893081710E+03  0.21655634731E+03  0.19103646539E+03  0.38786384675E+03  0.12699999809E+01 0.  1.
       -4    1    3    3    0  502 -0.25893081710E+03 -0.21655634731E+03 -0.40066103344E+01  0.33757885809E+03  0.12699999809E+01 0. -1.
</event>
<event>
 5   0  0.6689415E-03  0.6988307E+03  0.7818609E-02  0.9719234E-01
       -1   -1    0    0    0  501  0.00000000000E+00  0.00000000000E+00  0.23463744304E+03  0.23463744309E+03  0.50400001928E-02 0.  1.
        1   -1    0    0  501    0  0.00000000000E+00  0.00000000000E+00 -0.52033934635E+03  0.52033934637E+03  0.50400001928E-02 0. -1.
    10030    2    1    2    0    0  0.00000000000E+00  0.00000000000E+00 -0.28570190331E+03  0.75497678946E+03  0.69883071990E+03 0.  0.
        1    1    3    3  502    0 -0.16424552362E+03 -0.24041347349E+03 -0.35154418128E+03  0.45646307812E+03  0.50400001928E-02 0. -1.
       -1    1    3    3    0  502  0.16424552362E+03  0.24041347349E+03  0.65842277970E+02  0.29851371134E+03  0.50400001928E-02 0.  1.
</event>
<event>
 5   0  0.1109788E-02  0.6945439E+03  0.7818609E-02  0.9726609E-01
       -2   -1    0    0    0  501  0.00000000000E+00  0.00000000000E+00  0.21040541238E+03  0.21040541239E+03  0.25500000920E-02 0.  1.
        2   -1    0    0  501    0  0.00000000000E+00  0.00000000000E+00 -0.57316872197E+03  0.57316872198E+03  0.25500000920E-02 0. -1.
    10030    2    1    2    0    0  0.00000000000E+00  0.00000000000E+00 -0.36276330960E+03  0.78357413437E+03  0.69454388289E+03 0.  0.
        1    1    3    3  502    0 -0.40368684485E+02  0.14952492588E+03  0.16928340252E+03  0.22944324906E+03  0.50400001928E-02 0.  1.
       -1    1    3    3    0  502  0.40368684485E+02 -0.14952492588E+03 -0.53204671212E+03  0.55413088531E+03  0.50400001928E-02 0. -1.
</event>
<event>
 5   0  0.4440500E-03  0.7048953E+03  0.7818609E-02  0.9708897E-01
       -4   -1    0    0    0  501  0.00000000000E+00  0.00000000000E+00  0.80979782985E+03  0.80979882571E+03  0.12699999809E+01 0.  1.
        4   -1    0    0  501    0  0.00000000000E+00  0.00000000000E+00 -0.15339179309E+03  0.15339705045E+03  0.12699999809E+01 0. -1.
    10030    2    1    2    0    0  0.00000000000E+00  0.00000000000E+00  0.65640603676E+03  0.96319587616E+03  0.70489531901E+03 0.  0.
        4    1    3    3  502    0  0.95394667743E+02 -0.32917470028E+03  0.21584212843E+03  0.40502538593E+03  0.12699999809E+01 0.  1.
       -4    1    3    3    0  502 -0.95394667743E+02  0.32917470028E+03  0.44056390833E+03  0.55817049023E+03  0.12699999809E+01 0. -1.
</event>
<event>
 5   0  0.6609285E-03  0.7013009E+03  0.7818609E-02  0.9715010E-01
        1   -1    0    0  501    0  0.00000000000E+00  0.00000000000E+00  0.16837154577E+04  0.16837154577E+04  0.50400001928E-02 0.  1.
       -1   -1    0    0    0  501  0.00000000000E+00  0.00000000000E+00 -0.73026425747E+02  0.73026425921E+02  0.50400001928E-02 0. -1.
    10030    2    1    2    0    0  0.00000000000E+00  0.00000000000E+00  0.16106890320E+04  0.17567418836E+04  0.70130085416E+03 0.  0.
        2    1    3    3  502    0  0.48482986094E+02 -0.27986036104E+03  0.13204403377E+04  0.13506424794E+04  0.25500000920E-02 0. -1.
       -2    1    3    3    0  502 -0.48482986094E+02  0.27986036104E+03  0.29024869425E+03  0.40609940427E+03  0.25500000920E-02 0.  1.
</event>
<event>
 5   0  0.1100119E-02  0.6989327E+03  0.7818609E-02  0.9719059E-01
       -2   -1    0    0    0  501  0.00000000000E+00  0.00000000000E+00  0.12906349607E+03  0.12906349609E+03  0.25500000920E-02 0. -1.
        2   -1    0    0  501    0  0.00000000000E+00  0.00000000000E+00 -0.94625294243E+03  0.94625294244E+03  0.25500000920E-02 0.  1.
    10030    2    1    2    0    0  0.00000000000E+00  0.00000000000E+00 -0.81718944637E+03  0.10753164385E+04  0.69893265177E+03 0.  0.
        4    1    3    3  502    0 -0.28140236484E+03 -0.20574538485E+03 -0.44648855462E+03  0.56645573228E+03  0.12699999809E+01 0.  1.
       -4    1    3    3    0  502  0.28140236484E+03  0.20574538485E+03 -0.37070089174E+03  0.50886070625E+03  0.12699999809E+01 0. -1.
</event>
<event>
 5   0  0.1079446E-02  0.6996532E+03  0.7818609E-02  0.9717825E-01
        2   -1    0    0  501    0  0.00000000000E+00  0.00000000000E+00  0.34773858937E+03  0.34773858938E+03  0.25500000920E-02 0. -1.
       -2   -1    0    0    0  501  0.00000000000E+00  0.00000000000E+00 -0.35192717876E+03  0.35192717877E+03  0.25500000920E-02 0.  1.
    10030    2    1    2    0    0  0.00000000000E+00  0.00000000000E+00 -0.41885893926E+01  0.69966576815E+03  0.69965323042E+03 0.  0.
        2    1    3    3  502    0 -0.28029136632E+02 -0.29561150338E+03 -0.18704859514E+03  0.35094012364E+03  0.25500000920E-02 0.  1.
       -2    1    3    3    0  502  0.28029136632E+02  0.29561150338E+03  0.18286000575E+03  0.34872564451E+03  0.25500000920E-02 0. -1.
</event>
<event>
 5   0  0.6990118E-03  0.7014775E+03  0.7818609E-02  0.9714709E-01
        1   -1    0    0  501    0  0.00000000000E+00  0.00000000000E+00  0.43738234009E+03  0.43738234012E+03  0.50400001928E-02 0. -1.
       -1   -1    0    0    0  501  0.00000000000E+00  0.00000000000E+00 -0.28125888759E+03  0.28125888763E+03  0.50400001928E-02 0.  1.
    10030    2    1    2    0    0  0.00000000000E+00  0.00000000000E+00  0.15612345250E+03  0.71864122775E+03  0.70147749914E+03 0.  0.
        5    1    3    3  502    0 -0.19826247338E+03  0.19753747977E+02  0.37373631830E+03  0.42355536182E+03  0.46999998093E+01 0. -1.
       -5    1    3    3    0  502  0.19826247338E+03 -0.19753747977E+02 -0.21761286580E+03  0.29508586593E+03  0.46999998093E+01 0.  1.
</event>
<event>
 5   0  0.1099980E-02  0.6964962E+03  0.7818609E-02  0.9723243E-01
       -2   -1    0    0    0  501  0.00000000000E+00  0.00000000000E+00  0.31768179011E+03  0.31768179012E+03  0.25500000920E-02 0.  1.
        2   -1    0    0  501    0  0.00000000000E+00  0.00000000000E+00 -0.38175537326E+03  0.38175537327E+03  0.25500000920E-02 0. -1.
    10030    2    1    2    0    0  0.00000000000E+00  0.00000000000E+00 -0.64073583147E+02  0.69943716339E+03  0.69649617478E+03 0.  0.
        5    1    3    3  502    0 -0.10823835318E+03 -0.72577301491E+02  0.29223790328E+03  0.32001263710E+03  0.46999998093E+01 0.  1.
       -5    1    3    3    0  502  0.10823835318E+03  0.72577301491E+02 -0.35631148643E+03  0.37942452629E+03  0.46999998093E+01 0. -1.
</event>
<event>
 5   0  0.1079446E-02  0.7012032E+03  0.7818609E-02  0.9715177E-01
       -2   -1    0    0    0  501  0.00000000000E+00  0.00000000000E+00  0.52937484220E+02  0.52937484281E+02  0.25500000920E-02 0.  1.
        2   -1    0    0  501    0  0.00000000000E+00  0.00000000000E+00 -0.23220122100E+04  0.23220122100E+04  0.25500000920E-02 0. -1.
    10030    2    1    2    0    0  0.00000000000E+00  0.00000000000E+00 -0.22690747258E+04  0.23749496943E+04  0.70120320821E+03 0.  0.
        2    1    3    3  502    0  0.58239259427E+02 -0.15972187293E+02  0.35189428069E+02  0.69894334247E+02  0.25500000920E-02 0.  1.
       -2    1    3    3    0  502 -0.58239259427E+02  0.15972187293E+02 -0.23042641539E+04  0.23050553600E+04  0.25500000920E-02 0. -1.
</event>
<event>
 5   0  0.1099980E-02  0.7019228E+03  0.7818609E-02  0.9713950E-01
        2   -1    0    0  501    0  0.00000000000E+00  0.00000000000E+00  0.87811347297E+03  0.87811347297E+03  0.25500000920E-02 0.  1.
       -2   -1    0    0    0  501  0.00000000000E+00  0.00000000000E+00 -0.14027105872E+03  0.14027105874E+03  0.25500000920E-02 0. -1.
    10030    2    1    2    0    0  0.00000000000E+00  0.00000000000E+00  0.73784241425E+03  0.10183845317E+04  0.70192280642E+03 0.  0.
        5    1    3    3  502    0  0.21655288349E+01 -0.22440324312E+03  0.76035582350E+03  0.79279541710E+03  0.46999998093E+01 0.  1.
       -5    1    3    3    0  502 -0.21655288349E+01  0.22440324312E+03 -0.22513409253E+02  0.22558911462E+03  0.46999998093E+01 0. -1.
</event>
<event>
 5   0  0.6785252E-03  0.6987648E+03  0.7818609E-02  0.9719347E-01
       -1   -1    0    0    0  501  0.00000000000E+00  0.00000000000E+00  0.24956618109E+03  0.24956618114E+03  0.50400001928E-02 0. -1.
        1   -1    0    0  501    0  0.00000000000E+00  0.00000000000E+00 -0.48912099872E+03  0.48912099874E+03  0.50400001928E-02 0.  1.
    10030    2    1    2    0    0  0.00000000000E+00  0.00000000000E+00 -0.23955481763E+03  0.73868717988E+03  0.69876479524E+03 0.  0.
        3    1    3    3  502    0  0.28488900439E+03  0.19980217326E+03 -0.15296188828E+03  0.38010525217E+03  0.10100000352E+00 0. -1.
       -3    1    3    3    0  502 -0.28488900439E+03 -0.19980217326E+03 -0.86592929353E+02  0.35858192771E+03  0.10100000352E+00 0.  1.
</event>
<event>
 5   0  0.1109788E-02  0.6996843E+03  0.7818609E-02  0.9717772E-01
        2   -1    0    0  501    0  0.00000000000E+00  0.00000000000E+00  0.33131236257E+03  0.33131236258E+03  0.25500000920E-02 0.  1.
       -2   -1    0    0    0  501  0.00000000000E+00  0.00000000000E+00 -0.36940822763E+03  0.36940822764E+03  0.25500000920E-02 0. -1.
    10030    2    1    2    0    0  0.00000000000E+00  0.00000000000E+00 -0.38095865062E+02  0.70072059022E+03  0.69968425066E+03 0.  0.
        1    1    3    3  502    0  0.18092536188E+03  0.13149681101E+03  0.25035629569E+03  0.33571367666E+03  0.50400001928E-02 0.  1.
       -1    1    3    3    0  502 -0.18092536188E+03 -0.13149681101E+03 -0.28845216075E+03  0.36500691356E+03  0.50400001928E-02 0. -1.
</event>
<event>
 5   0  0.6785252E-03  0.7002752E+03  0.7818609E-02  0.9716762E-01
       -1   -1    0    0    0  501  0.00000000000E+00  0.00000000000E+00  0.39804951172E+03  0.39804951175E+03  0.50400001928E-02 0.  1.
        1   -1    0    0  501    0  0.00000000000E+00  0.00000000000E+00 -0.30799268303E+03  0.30799268307E+03  0.50400001928E-02 0. -1.
    10030    2    1    2    0    0  0.00000000000E+00  0.00000000000E+00  0.90056828689E+02  0.70604219482E+03  0.70027519482E+03 0.  0.
        3    1    3    3  502    0 -0.30762203317E+03 -0.14730056683E+03 -0.34791448569E+02  0.34283994426E+03  0.10100000352E+00 0. -1.
       -3    1    3    3    0  502  0.30762203317E+03  0.14730056683E+03  0.12484827726E+03  0.36320225057E+03  0.10100000352E+00 0.  1.
</event>
<event>
 5   0  0.1079446E-02  0.7031255E+03  0.7818609E-02  0.9711902E-01
        2   -1    0    0  501    0  0.00000000000E+00  0.00000000000E+00  0.48864017531E+03  0.48864017532E+03  0.25500000920E-02 0.  1.
       -2   -1    0    0    0  501  0.00000000000E+00  0.00000000000E+00 -0.25293940692E+03  0.25293940694E+03  0.25500000920E-02 0. -1.
    10030    2    1    2    0    0  0.00000000000E+00  0.00000000000E+00  0.23570076839E+03  0.74157958226E+03  0.70312546861E+03 0.  0.
        2    1    3    3  502    0  0.50379304329E+02 -0.21928468495E+03 -0.16705756950E+03  0.28023575591E+03  0.25500000920E-02 0. -1.
       -2    1    3    3    0  502 -0.50379304329E+02  0.21928468495E+03  0.40275833789E+03  0.46134382634E+03  0.25500000920E-02 0.  1.
</event>
<event>
 5   0  0.1119786E-02  0.6985018E+03  0.7818609E-02  0.9719798E-01
       -2   -1    0    0    0  501  0.00000000000E+00  0.00000000000E+00  0.93332987696E+02  0.93332987731E+02  0.25500000920E-02 0. -1.
        2   -1    0    0  501    0  0.00000000000E+00  0.00000000000E+00 -0.13068926965E+04  0.13068926966E+04  0.25500000920E-02 0.  1.
    10030    2    1    2    0    0  0.00000000000E+00  0.00000000000E+00 -0.12135597089E+04  0.14002256843E+04  0.69850182532E+03 0.  0.
        3    1    3    3  502    0 -0.28498158372E+03 -0.41422411623E+02 -0.10028919000E+04  0.10434186564E+04  0.10100000352E+00 0. -1.
       -3    1    3    3    0  502  0.28498158372E+03  0.41422411623E+02 -0.21066780881E+03  0.35680702784E+03  0.10100000352E+00 0.  1.
</event>
<event>
 5   0  0.1109788E-02  0.6961628E+03  0.7818609E-02  0.9723817E-01
       -2   -1    0    0    0  501  0.00000000000E+00  0.00000000000E+00  0.18508084233E+03  0.18508084234E+03  0.25500000920E-02 0.  1.
        2   -1    0    0  501    0  0.00000000000E+00  0.00000000000E+00 -0.65463636754E+03  0.65463636755E+03  0.25500000920E-02 0. -1.
    10030    2    1    2    0    0  0.00000000000E+00  0.00000000000E+00 -0.46955552521E+03  0.83971720989E+03  0.69616276928E+03 0.  0.
        1    1    3    3  502    0  0.30455223574E+03 -0.59725096272E+02 -0.44665049839E+02  0.31355082223E+03  0.50400001928E-02 0.  1.
       -1    1    3    3    0  502 -0.30455223574E+03  0.59725096272E+02 -0.42489047538E+03  0.52616638766E+03  0.50400001928E-02 0. -1.
</event>
<event>
 5   0  0.1099980E-02  0.7001844E+03  0.7818609E-02  0.9716917E-01
        2   -1    0    0  501    0  0.00000000000E+00  0.00000000000E+00  0.15020202901E+04  0.15020202901E+04  0.25500000920E-02 0. -1.
       -2   -1    0    0    0  501  0.00000000000E+00  0.00000000000E+00 -0.81599793200E+02  0.81599793240E+02  0.25500000920E-02 0.  1.
    10030    2    1    2    0    0  0.00000000000E+00  0.00000000000E+00  0.14204204969E+04  0.15836200833E+04  0.70018439024E+03 0.  0.
        5    1    3    3  502    0  0.26221309419E+03 -0.13897963711E+03  0.29028876627E+03  0.41516346675E+03  0.46999998093E+01 0.  1.
       -5    1    3    3    0  502 -0.26221309419E+03  0.13897963711E+03  0.11301317306E+04  0.11684566166E+04  0.46999998093E+01 0. -1.
</event>
<event>
 5   0  0.6609285E-03  0.6984296E+03  0.7818609E-02  0.9719922E-01
        1   -1    0    0  501    0  0.00000000000E+00  0.00000000000E+00  0.20107891721E+03  0.20107891728E+03  0.50400001928E-02 0. -1.
       -1   -1    0    0    0  501  0.00000000000E+00  0.00000000000E+00 -0.60648312791E+03  0.60648312793E+03  0.50400001928E-02 0.  1.
    10030    2    1    2    0    0  0.00000000000E+00  0.00000000000E+00 -0.40540421070E+03  0.80756204521E+03  0.69842958329E+03 0.  0.
        2    1    3    3  502    0 -0.26490277000E+03 -0.15960488636E+03 -0.15175755611E+02  0.30964092247E+03  0.25500000920E-02 0. -1.
       -2    1    3    3    0  502  0.26490277000E+03  0.15960488636E+03 -0.39022845509E+03  0.49792112274E+03  0.25500000920E-02 0.  1.
</event>
<event>
 5   0  0.6785252E-03  0.7001119E+03  0.7818609E-02  0.9717041E-01
       -1   -1    0    0    0  501  0.00000000000E+00  0.00000000000E+00  0.14050741330E+03  0.14050741339E+03  0.50400001928E-02 0.  1.
        1   -1    0    0  501    0  0.00000000000E+00  0.00000000000E+00 -0.87211885683E+03  0.87211885685E+03  0.50400001928E-02 0. -1.
    10030    2    1    2    0    0  0.00000000000E+00  0.00000000000E+00 -0.73161144353E+03  0.10126262702E+04  0.70011189025E+03 0.  0.
        3    1    3    3  502    0  0.13206299299E+03  0.54749861908E+02  0.96358877990E+02  0.17240424897E+03  0.10100000352E+00 0.  1.
       -3    1    3    3    0  502 -0.13206299299E+03 -0.54749861908E+02 -0.82797032152E+03  0.84022202126E+03  0.10100000352E+00 0. -1.
</event>
<event>
 5   0  0.4440500E-03  0.6835392E+03  0.7818609E-02  0.9745804E-01
       -3   -1    0    0    0  501  0.00000000000E+00  0.00000000000E+00  0.16344312039E+03  0.16344315159E+03  0.10100000352E+00 0.  1.
        3   -1    0    0  501    0  0.00000000000E+00  0.00000000000E+00 -0.71466101669E+03  0.71466102383E+03  0.10100000352E+00 0. -1.
    10030    2    1    2    0    0  0.00000000000E+00  0.00000000000E+00 -0.55121789631E+03  0.87810417542E+03  0.68353915300E+03 0.  0.
        2    1    3    3  502    0 -0.54569773631E+01 -0.68545819734E+02  0.15446495947E+03  0.16907906942E+03  0.25500000920E-02 0.  1.
       -2    1    3    3    0  502  0.54569773631E+01  0.68545819734E+02 -0.70568285578E+03  0.70902510601E+03  0.25500000920E-02 0. -1.
</event>
<event>
 5   0  0.1100119E-02  0.7006194E+03  0.7818609E-02  0.9716174E-01
       -2   -1    0    0    0  501  0.00000000000E+00  0.00000000000E+00  0.16555758203E+03  0.16555758205E+03  0.25500000920E-02 0.  1.
        2   -1    0    0  501    0  0.00000000000E+00  0.00000000000E+00 -0.74123378386E+03  0.74123378387E+03  0.25500000920E-02 0. -1.
    10030    2    1    2    0    0  0.00000000000E+00  0.00000000000E+00 -0.57567620184E+03  0.90679136592E+03  0.70061936309E+03 0.  0.
        4    1    3    3  502    0  0.11749463266E+03  0.21748058222E+03 -0.60910023679E+03  0.65734884476E+03  0.12699999809E+01 0. -1.
       -4    1    3    3    0  502 -0.11749463266E+03 -0.21748058222E+03  0.33424034954E+02  0.24944252116E+03  0.12699999809E+01 0.  1.
</event>
<event>
 5   0  0.6246998E-03  0.6995213E+03  0.7818609E-02  0.9718051E-01
       -1   -1    0    0    0  501  0.00000000000E+00  0.00000000000E+00  0.10884574985E+03  0.10884574996E+03  0.50400001928E-02 0. -1.
        1   -1    0    0  501    0  0.00000000000E+00  0.00000000000E+00 -0.11239072006E+04  0.11239072006E+04  0.50400001928E-02 0.  1.
    10030    2    1    2    0    0  0.00000000000E+00  0.00000000000E+00 -0.10150614508E+04  0.12327529506E+04  0.69952132802E+03 0.  0.
        4    1    3    3  502    0  0.33811575742E+03  0.82820377570E+02 -0.44778372127E+03  0.56718017798E+03  0.12699999809E+01 0.  1.
       -4    1    3    3    0  502 -0.33811575742E+03 -0.82820377570E+02 -0.56727772951E+03  0.66557277262E+03  0.12699999809E+01 0. -1.
</event>
<event>
 5   0  0.4440500E-03  0.6954869E+03  0.7818609E-02  0.9724982E-01
        3   -1    0    0  501    0  0.00000000000E+00  0.00000000000E+00  0.10225414287E+04  0.10225414337E+04  0.10100000352E+00 0.  1.
       -3   -1    0    0    0  501  0.00000000000E+00  0.00000000000E+00 -0.11825972161E+03  0.11825976474E+03  0.10100000352E+00 0. -1.
    10030    2    1    2    0    0  0.00000000000E+00  0.00000000000E+00  0.90428170706E+03  0.11408011984E+04  0.69548685722E+03 0.  0.
        4    1    3    3  502    0 -0.25635191917E+03 -0.86684915207E+02  0.93920943918E+02  0.28644953760E+03  0.12699999809E+01 0. -1.
       -4    1    3    3    0  502  0.25635191917E+03  0.86684915207E+02  0.81036076314E+03  0.85435166081E+03  0.12699999809E+01 0.  1.
</event>
<event>
 5   0  0.6689415E-03  0.6971236E+03  0.7818609E-02  0.9722164E-01
        1   -1    0    0  501    0  0.00000000000E+00  0.00000000000E+00  0.87293803429E+03  0.87293803431E+03  0.50400001928E-02 0. -1.
       -1   -1    0    0    0  501  0.00000000000E+00  0.00000000000E+00 -0.13917976673E+03  0.13917976682E+03  0.50400001928E-02 0.  1.
    10030    2    1    2    0    0  0.00000000000E+00  0.00000000000E+00  0.73375826756E+03  0.10121178011E+04  0.69712355301E+03 0.  0.
        1    1    3    3  502    0 -0.25963400954E+03  0.14410132200E+03  0.10186088955E+03  0.31392777952E+03  0.50400001928E-02 0.  1.
       -1    1    3    3    0  502  0.25963400954E+03 -0.14410132200E+03  0.63189737801E+03  0.69819002161E+03  0.50400001928E-02 0. -1.
</event>
<event>
 5   0  0.1109788E-02  0.6970117E+03  0.7818609E-02  0.9722356E-01
        2   -1    0    0  501    0  0.00000000000E+00  0.00000000000E+00  0.11134932344E+04  0.11134932344E+04  0.25500000920E-02 0.  1.
       -2   -1    0    0    0  501  0.00000000000E+00  0.00000000000E+00 -0.10907683125E+03  0.10907683128E+03  0.25500000920E-02 0. -1.
    10030    2    1    2    0    0  0.00000000000E+00  0.00000000000E+00  0.10044164032E+04  0.12225700657E+04  0.69701166031E+03 0.  0.
        1    1    3    3  502    0 -0.15543586093E+03  0.22454458910E+03  0.88196692288E+03  0.92328014841E+03  0.50400001928E-02 0.  1.
       -1    1    3    3    0  502  0.15543586093E+03 -0.22454458910E+03  0.12244948031E+03  0.29928991732E+03  0.50400001928E-02 0. -1.
</event>
<event>
 5   0  0.6785252E-03  0.7029307E+03  0.7818609E-02  0.9712233E-01
        1   -1    0    0  501    0  0.00000000000E+00  0.00000000000E+00  0.26008649172E+03  0.26008649176E+03  0.50400001928E-02 0. -1.
       -1   -1    0    0    0  501  0.00000000000E+00  0.00000000000E+00 -0.47494926966E+03  0.47494926969E+03  0.50400001928E-02 0.  1.
    10030    2    1    2    0    0  0.00000000000E+00  0.00000000000E+00 -0.21486277795E+03  0.73503576146E+03  0.70293069166E+03 0.  0.
        3    1    3    3  502    0 -0.12807403082E+03 -0.29239490554E+03 -0.26122051821E+03  0.41247291728E+03  0.10100000352E+00 0.  1.
       -3    1    3    3    0  502  0.12807403082E+03  0.29239490554E+03  0.46357740257E+02  0.32256284417E+03  0.10100000352E+00 0. -1.
</event>
<event>
 5   0  0.1100119E-02  0.6970297E+03  0.7818609E-02  0.9722325E-01
        2   -1    0    0  501    0  0.00000000000E+00  0.00000000000E+00  0.23327225196E+03  0.23327225198E+03  0.25500000920E-02 0. -1.
       -2   -1    0    0    0  501  0.00000000000E+00  0.00000000000E+00 -0.52069030445E+03  0.52069030445E+03  0.25500000920E-02 0.  1.
    10030    2    1    2    0    0  0.00000000000E+00  0.00000000000E+00 -0.28741805249E+03  0.75396255643E+03  0.69702969779E+03 0.  0.
        4    1    3    3  502    0 -0.73926162813E+02  0.22235659045E+03  0.13534211492E+03  0.27060419774E+03  0.12699999809E+01 0. -1.
       -4    1    3    3    0  502  0.73926162813E+02 -0.22235659045E+03 -0.42276016741E+03  0.48335835869E+03  0.12699999809E+01 0.  1.
</event>
<event>
 5   0  0.1109788E-02  0.6977616E+03  0.7818609E-02  0.9721068E-01
        2   -1    0    0  501    0  0.00000000000E+00  0.00000000000E+00  0.16461424918E+04  0.16461424918E+04  0.25500000920E-02 0. -1.
       -2   -1    0    0    0  501  0.00000000000E+00  0.00000000000E+00 -0.73941235363E+02  0.73941235407E+02  0.25500000920E-02 0.  1.
    10030    2    1    2    0    0  0.00000000000E+00  0.00000000000E+00  0.15722012564E+04  0.17200837272E+04  0.69776159100E+03 0.  0.
        1    1    3    3  502    0  0.32733278561E+03 -0.51021478506E+01  0.48879730506E+03  0.58829889504E+03  0.50400001928E-02 0.  1.
       -1    1    3    3    0  502 -0.32733278561E+03  0.51021478506E+01  0.10834039514E+04  0.11317848322E+04  0.50400001928E-02 0. -1.
</event>
<event>
 5   0  0.1119786E-02  0.7010575E+03  0.7818609E-02  0.9715425E-01
       -2   -1    0    0    0  501  0.00000000000E+00  0.00000000000E+00  0.89139244843E+02  0.89139244880E+02  0.25500000920E-02 0.  1.
        2   -1    0    0  501    0  0.00000000000E+00  0.00000000000E+00 -0.13784096311E+04  0.13784096311E+04  0.25500000920E-02 0. -1.
    10030    2    1    2    0    0  0.00000000000E+00  0.00000000000E+00 -0.12892703863E+04  0.14675488760E+04  0.70105746877E+03 0.  0.
        3    1    3    3  502    0 -0.75382243385E+02 -0.25713286216E+03 -0.17156629126E+03  0.31817415659E+03  0.10100000352E+00 0.  1.
       -3    1    3    3    0  502  0.75382243385E+02  0.25713286216E+03 -0.11177040950E+04  0.11493747194E+04  0.10100000352E+00 0. -1.
</event>
<event>
 5   0  0.1079446E-02  0.6998704E+03  0.7818609E-02  0.9717454E-01
        2   -1    0    0  501    0  0.00000000000E+00  0.00000000000E+00  0.46678493504E+03  0.46678493505E+03  0.25500000920E-02 0. -1.
       -2   -1    0    0    0  501  0.00000000000E+00  0.00000000000E+00 -0.26233633377E+03  0.26233633378E+03  0.25500000920E-02 0.  1.
    10030    2    1    2    0    0  0.00000000000E+00  0.00000000000E+00  0.20444860127E+03  0.72912126883E+03  0.69987041236E+03 0.  0.
        2    1    3    3  502    0 -0.23167890169E+03 -0.23074675535E+03 -0.27626409966E+02  0.32814996133E+03  0.25500000920E-02 0.  1.
       -2    1    3    3    0  502  0.23167890169E+03  0.23074675535E+03  0.23207501123E+03  0.40097130750E+03  0.25500000920E-02 0. -1.
</event>
<event>
 5   0  0.1109788E-02  0.6947365E+03  0.7818609E-02  0.9726276E-01
        2   -1    0    0  501    0  0.00000000000E+00  0.00000000000E+00  0.94523411155E+03  0.94523411156E+03  0.25500000920E-02 0.  1.
       -2   -1    0    0    0  501  0.00000000000E+00  0.00000000000E+00 -0.12765588329E+03  0.12765588331E+03  0.25500000920E-02 0. -1.
    10030    2    1    2    0    0  0.00000000000E+00  0.00000000000E+00  0.81757822827E+03  0.10728899949E+04  0.69473648368E+03 0.  0.
        1    1    3    3  502    0  0.26406105208E+03 -0.82879112196E+02  0.84603051453E+02  0.28940432409E+03  0.50400001928E-02 0. -1.
       -1    1    3    3    0  502 -0.26406105208E+03  0.82879112196E+02  0.73297517681E+03  0.78348567078E+03  0.50400001928E-02 0.  1.
</event>
<event>
 5   0  0.1119786E-02  0.6893603E+03  0.7818609E-02  0.9735602E-01
       -2   -1    0    0    0  501  0.00000000000E+00  0.00000000000E+00  0.56727223397E+03  0.56727223397E+03  0.25500000920E-02 0. -1.
        2   -1    0    0  501    0  0.00000000000E+00  0.00000000000E+00 -0.20943103641E+03  0.20943103643E+03  0.25500000920E-02 0.  1.
    10030    2    1    2    0    0  0.00000000000E+00  0.00000000000E+00  0.35784119756E+03  0.77670327040E+03  0.68936031767E+03 0.  0.
        3    1    3    3  502    0 -0.23952180411E+03 -0.13683123862E+03 -0.53930511326E+02  0.28107293139E+03  0.10100000352E+00 0.  1.
       -3    1    3    3    0  502  0.23952180411E+03  0.13683123862E+03  0.41177170888E+03  0.49563033901E+03  0.10100000352E+00 0. -1.
</event>
<event>
 5   0  0.4440500E-03  0.7010109E+03  0.7818609E-02  0.9715505E-01
        3   -1    0    0  501    0  0.00000000000E+00  0.00000000000E+00  0.60112435258E+03  0.60112436107E+03  0.10100000352E+00 0.  1.
       -3   -1    0    0    0  501  0.00000000000E+00  0.00000000000E+00 -0.20437378389E+03  0.20437380884E+03  0.10100000352E+00 0. -1.
    10030    2    1    2    0    0  0.00000000000E+00  0.00000000000E+00  0.39675056870E+03  0.80549816991E+03  0.70101090432E+03 0.  0.
        3    1    3    3  502    0  0.41964117204E+02 -0.20663903099E+03  0.52009634718E+03  0.56121377104E+03  0.10100000352E+00 0.  1.
       -3    1    3    3    0  502 -0.41964117204E+02  0.20663903099E+03 -0.12334577848E+03  0.24428439887E+03  0.10100000352E+00 0. -1.
</event>
<event>
 5   0  0.1079446E-02  0.6555026E+03  0.7818609E-02  0.9796508E-01
        2   -1    0    0  501    0  0.00000000000E+00  0.00000000000E+00  0.94661141184E+03  0.94661141184E+03  0.25500000920E-02 0. -1.
       -2   -1    0    0    0  501  0.00000000000E+00  0.00000000000E+00 -0.11347942872E+03  0.11347942874E+03  0.25500000920E-02 0.  1.
    10030    2    1    2    0    0  0.00000000000E+00  0.00000000000E+00  0.83313198313E+03  0.10600908406E+04  0.65550262318E+03 0.  0.
        2    1    3    3  502    0 -0.16247857966E+03 -0.28463674519E+03  0.41351605263E+03  0.52764845432E+03  0.25500000920E-02 0. -1.
       -2    1    3    3    0  502  0.16247857966E+03  0.28463674519E+03  0.41961593050E+03  0.53244238626E+03  0.25500000920E-02 0.  1.
</event>
<event>
 5   0  0.6785252E-03  0.7007808E+03  0.7818609E-02  0.9715898E-01
       -1   -1    0    0    0  501  0.00000000000E+00  0.00000000000E+00  0.70268835909E+02  0.70268836089E+02  0.50400001928E-02 0.  1.
        1   -1    0    0  501    0  0.00000000000E+00  0.00000000000E+00 -0.17471961573E+04  0.17471961573E+04  0.50400001928E-02 0. -1.
    10030    2    1    2    0    0  0.00000000000E+00  0.00000000000E+00 -0.16769273214E+04  0.18174649934E+04  0.70078082236E+03 0.  0.
        3    1    3    3  502    0 -0.99234014779E+02 -0.20213576103E+03 -0.14223388359E+03  0.26633952658E+03  0.10100000352E+00 0.  1.
       -3    1    3    3    0  502  0.99234014779E+02  0.20213576103E+03 -0.15346934378E+04  0.15511254668E+04  0.10100000352E+00 0. -1.
</event>
<event>
 5   0  0.6689415E-03  0.6991930E+03  0.7818609E-02  0.9718613E-01
       -1   -1    0    0    0  501  0.00000000000E+00  0.00000000000E+00  0.44858378311E+03  0.44858378314E+03  0.50400001928E-02 0. -1.
        1   -1    0    0  501    0  0.00000000000E+00  0.00000000000E+00 -0.27245233881E+03  0.27245233885E+03  0.50400001928E-02 0.  1.
    10030    2    1    2    0    0  0.00000000000E+00  0.00000000000E+00  0.17613144430E+03  0.72103612199E+03  0.69919296589E+03 0.  0.
        1    1    3    3  502    0  0.25482855634E+03 -0.18831399005E+03  0.24038922975E+03  0.39772695883E+03  0.50400001928E-02 0.  1.
       -1    1    3    3    0  502 -0.25482855634E+03  0.18831399005E+03 -0.64257785447E+02  0.32330916317E+03  0.50400001928E-02 0. -1.
</event>
<event>
 5   0  0.1079446E-02  0.7004246E+03  0.7818609E-02  0.9716506E-01
       -2   -1    0    0    0  501  0.00000000000E+00  0.00000000000E+00  0.40759969883E+03  0.40759969883E+03  0.25500000920E-02 0. -1.
        2   -1    0    0  501    0  0.00000000000E+00  0.00000000000E+00 -0.30090464238E+03  0.30090464239E+03  0.25500000920E-02 0.  1.
    10030    2    1    2    0    0  0.00000000000E+00  0.00000000000E+00  0.10669505645E+03  0.70850434122E+03  0.70042456158E+03 0.  0.
        2    1    3    3  502    0 -0.25631841937E+03 -0.16946813579E+03  0.22330374407E+03  0.37984621004E+03  0.25500000920E-02 0. -1.
       -2    1    3    3    0  502  0.25631841937E+03  0.16946813579E+03 -0.11660868763E+03  0.32865813118E+03  0.25500000920E-02 0.  1.
</event>
<event>
 5   0  0.1099980E-02  0.7008709E+03  0.7818609E-02  0.9715744E-01
        2   -1    0    0  501    0  0.00000000000E+00  0.00000000000E+00  0.92571954021E+03  0.92571954021E+03  0.25500000920E-02 0.  1.
       -2   -1    0    0    0  501  0.00000000000E+00  0.00000000000E+00 -0.13265896262E+03  0.13265896265E+03  0.25500000920E-02 0. -1.
    10030    2    1    2    0    0  0.00000000000E+00  0.00000000000E+00  0.79306057758E+03  0.10583785029E+04  0.70087086941E+03 0.  0.
        5    1    3    3  502    0  0.30864749222E+03 -0.15652377911E+03  0.31354485444E+03  0.46700688820E+03  0.46999998093E+01 0. -1.
       -5    1    3    3    0  502 -0.30864749222E+03  0.15652377911E+03  0.47951572315E+03  0.59137161466E+03  0.46999998093E+01 0.  1.
</event>
<event>
 5   0  0.1099980E-02  0.6984495E+03  0.7818609E-02  0.9719887E-01
        2   -1    0    0  501    0  0.00000000000E+00  0.00000000000E+00  0.31822278587E+03  0.31822278588E+03  0.25500000920E-02 0. -1.
       -2   -1    0    0    0  501  0.00000000000E+00  0.00000000000E+00 -0.38324702236E+03  0.38324702236E+03  0.25500000920E-02 0.  1.
    10030    2    1    2    0    0  0.00000000000E+00  0.00000000000E+00 -0.65024236483E+02  0.70146980825E+03  0.69844952613E+03 0.  0.
        5    1    3    3  502    0  0.83077053829E+02 -0.32005764758E+03 -0.14523448928E+03  0.36118394416E+03  0.46999998093E+01 0.  1.
       -5    1    3    3    0  502 -0.83077053829E+02  0.32005764758E+03  0.80210252796E+02  0.34028586409E+03  0.46999998093E+01 0. -1.
</event>
<event>
 5   0  0.6609285E-03  0.6996242E+03  0.7818609E-02  0.9717875E-01
       -1   -1    0    0    0  501  0.00000000000E+00  0.00000000000E+00  0.14882732325E+03  0.14882732333E+03  0.50400001928E-02 0.  1.
        1   -1    0    0  501    0  0.00000000000E+00  0.00000000000E+00 -0.82221803967E+03  0.82221803969E+03  0.50400001928E-02 0. -1.
    10030    2    1    2    0    0  0.00000000000E+00  0.00000000000E+00 -0.67339071642E+03  0.97104536302E+03  0.69962421347E+03 0.  0.
        2    1    3    3  502    0 -0.84269316828E+02 -0.96517126256E+02 -0.78847694015E+03  0.79881960328E+03  0.25500000920E-02 0. -1.
       -2    1    3    3    0  502  0.84269316828E+02  0.96517126256E+02  0.11508622373E+03  0.17222575974E+03  0.25500000920E-02 0.  1.
</event>
<event>
 5   0  0.6990118E-03  0.6975075E+03  0.7818609E-02  0.9721504E-01
       -1   -1    0    0    0  501  0.00000000000E+00  0.00000000000E+00  0.23091990355E+03  0.23091990361E+03  0.50400001928E-02 0.  1.
        1   -1    0    0  501    0  0.00000000000E+00  0.00000000000E+00 -0.52671588135E+03  0.52671588138E+03  0.50400001928E-02 0. -1.
    10030    2    1    2    0    0  0.00000000000E+00  0.00000000000E+00 -0.29579597780E+03  0.75763578499E+03  0.69750750692E+03 0.  0.
        5    1    3    3  502    0  0.52205199504E+02 -0.28635522087E+02 -0.52111904394E+03  0.52453076548E+03  0.46999998093E+01 0. -1.
       -5    1    3    3    0  502 -0.52205199504E+02  0.28635522087E+02  0.22532306615E+03  0.23310501950E+03  0.46999998093E+01 0.  1.
</event>
<event>
 5   0  0.1109788E-02  0.7009378E+03  0.7818609E-02  0.9715630E-01
        2   -1    0    0  501    0  0.00000000000E+00  0.00000000000E+00  0.14414778400E+04  0.14414778400E+04  0.25500000920E-02 0. -1.
       -2   -1    0    0    0  501  0.00000000000E+00  0.00000000000E+00 -0.85210083159E+02  0.85210083197E+02  0.25500000920E-02 0.  1.
    10030    2    1    2    0    0  0.00000000000E+00  0.00000000000E+00  0.13562677568E+04  0.15266879232E+04  0.70093779081E+03 0.  0.
        1    1    3    3  502    0 -0.30478744903E+03  0.12019136570E+03  0.40707992258E+03  0.52254704752E+03  0.50400001928E-02 0.  1.
       -1    1    3    3    0  502  0.30478744903E+03 -0.12019136570E+03  0.94918783421E+03  0.10041408756E+04  0.50400001928E-02 0. -1.
</event>
<event>
 5   0  0.1100119E-02  0.6978202E+03  0.7818609E-02  0.9720967E-01
       -2   -1    0    0    0  501  0.00000000000E+00  0.00000000000E+00  0.66949131393E+02  0.66949131442E+02  0.25500000920E-02 0.  1.
        2   -1    0    0  501    0  0.00000000000E+00  0.00000000000E+00 -0.18183695851E+04  0.18183695851E+04  0.25500000920E-02 0. -1.
    10030    2    1    2    0    0  0.00000000000E+00  0.00000000000E+00 -0.17514204537E+04  0.18853187165E+04  0.69782021845E+03 0.  0.
        4    1    3    3  502    0  0.76639784268E+02  0.23087608824E+03 -0.19995888511E+03  0.31490092615E+03  0.12699999809E+01 0.  1.
       -4    1    3    3    0  502 -0.76639784268E+02 -0.23087608824E+03 -0.15514615686E+04  0.15704177904E+04  0.12699999809E+01 0. -1.
</event>
<event>
 5   0  0.1079446E-02  0.6997408E+03  0.7818609E-02  0.9717676E-01
        2   -1    0    0  501    0  0.00000000000E+00  0.00000000000E+00  0.43713390760E+03  0.43713390761E+03  0.25500000920E-02 0. -1.
       -2   -1    0    0    0  501  0.00000000000E+00  0.00000000000E+00 -0.28002696670E+03  0.28002696671E+03  0.25500000920E-02 0.  1.
    10030    2    1    2    0    0  0.00000000000E+00  0.00000000000E+00  0.15710694090E+03  0.71716087432E+03  0.69974075826E+03 0.  0.
        2    1    3    3  502    0 -0.12782082868E+03  0.47159803557E+01 -0.25520512157E+03  0.28546463669E+03  0.25500000920E-02 0.  1.
       -2    1    3    3    0  502  0.12782082868E+03 -0.47159803557E+01  0.41231206248E+03  0.43169623763E+03  0.25500000920E-02 0. -1.
</event>
<event>
 5   0  0.1079446E-02  0.7012515E+03  0.7818609E-02  0.9715094E-01
       -2   -1    0    0    0  501  0.00000000000E+00  0.00000000000E+00  0.11819826051E+03  0.11819826054E+03  0.25500000920E-02 0.  1.
        2   -1    0    0  501    0  0.00000000000E+00  0.00000000000E+00 -0.10401034356E+04  0.10401034356E+04  0.25500000920E-02 0. -1.
    10030    2    1    2    0    0  0.00000000000E+00  0.00000000000E+00 -0.92190517510E+03  0.11583016962E+04  0.70125150085E+03 0.  0.
        2    1    3    3  502    0  0.11592991259E+03 -0.32629384000E+03 -0.37001550558E+03  0.50677301529E+03  0.25500000920E-02 0.  1.
       -2    1    3    3    0  502 -0.11592991259E+03  0.32629384000E+03 -0.55188966952E+03  0.65152868086E+03  0.25500000920E-02 0. -1.
</event>
<event>
 5   0  0.4440500E-03  0.6997618E+03  0.7818609E-02  0.9717640E-01
       -4   -1    0    0    0  501  0.00000000000E+00  0.00000000000E+00  0.11669896193E+03  0.11670587224E+03  0.12699999809E+01 0.  1.
        4   -1    0    0  501    0  0.00000000000E+00  0.00000000000E+00 -0.10489569244E+04  0.10489576932E+04  0.12699999809E+01 0. -1.
    10030    2    1    2    0    0  0.00000000000E+00  0.00000000000E+00 -0.93225796251E+03  0.11656635655E+04  0.69976184467E+03 0.  0.
        2    1    3    3  502    0  0.10411456961E+03  0.25826437980E+03 -0.11324526976E+03  0.30060742607E+03  0.25500000920E-02 0. -1.
       -2    1    3    3    0  502 -0.10411456961E+03 -0.25826437980E+03 -0.81901269274E+03  0.86505613942E+03  0.25500000920E-02 0.  1.
</event>
<event>
 5   0  0.6689415E-03  0.6991875E+03  0.7818609E-02  0.9718623E-01
        1   -1    0    0  501    0  0.00000000000E+00  0.00000000000E+00  0.48323284794E+03  0.48323284796E+03  0.50400001928E-02 0. -1.
       -1   -1    0    0    0  501  0.00000000000E+00  0.00000000000E+00 -0.25291284035E+03  0.25291284040E+03  0.50400001928E-02 0.  1.
    10030    2    1    2    0    0  0.00000000000E+00  0.00000000000E+00  0.23032000759E+03  0.73614568836E+03  0.69918750603E+03 0.  0.
        1    1    3    3  502    0  0.21586435513E+03 -0.25402602895E+03  0.42886829370E+01  0.33338421683E+03  0.50400001928E-02 0.  1.
       -1    1    3    3    0  502 -0.21586435513E+03  0.25402602895E+03  0.22603132465E+03  0.40276147153E+03  0.50400001928E-02 0. -1.
</event>
<event>
 5   0  0.1099980E-02  0.7026150E+03  0.7818609E-02  0.9712771E-01
        2   -1    0    0  501    0  0.00000000000E+00  0.00000000000E+00  0.11659570239E+04  0.11659570239E+04  0.25500000920E-02 0. -1.
       -2   -1    0    0    0  501  0.00000000000E+00  0.00000000000E+00 -0.10585033863E+03  0.10585033866E+03  0.25500000920E-02 0.  1.
    10030    2    1    2    0    0  0.00000000000E+00  0.00000000000E+00  0.10601066852E+04  0.12718073625E+04  0.70261496093E+03 0.  0.
        5    1    3    3  502    0  0.23565655915E+02  0.65942173984E+02 -0.93031075214E+02  0.11653575160E+03  0.46999998093E+01 0.  1.
       -5    1    3    3    0  502 -0.23565655915E+02 -0.65942173984E+02  0.11531377605E+04  0.11552716109E+04  0.46999998093E+01 0. -1.
</event>
<event>
 5   0  0.1109788E-02  0.7108440E+03  0.7818609E-02  0.9698865E-01
        2   -1    0    0  501    0  0.00000000000E+00  0.00000000000E+00  0.90846153512E+03  0.90846153512E+03  0.25500000920E-02 0. -1.
       -2   -1    0    0    0  501  0.00000000000E+00  0.00000000000E+00 -0.13905355563E+03  0.13905355565E+03  0.25500000920E-02 0.  1.
    10030    2    1    2    0    0  0.00000000000E+00  0.00000000000E+00  0.76940797949E+03  0.10475150908E+04  0.71084402402E+03 0.  0.
        1    1    3    3  502    0  0.10130141184E+03 -0.28075364785E+02  0.88502966693E+03  0.89125064574E+03  0.50400001928E-02 0. -1.
       -1    1    3    3    0  502 -0.10130141184E+03  0.28075364785E+02 -0.11562168744E+03  0.15626444503E+03  0.50400001928E-02 0.  1.
</event>
<event>
 5   0  0.6246998E-03  0.7234961E+03  0.7818609E-02  0.9677873E-01
        1   -1    0    0  501    0  0.00000000000E+00  0.00000000000E+00  0.67263491797E+03  0.67263491799E+03  0.50400001928E-02 0.  1.
       -1   -1    0    0    0  501  0.00000000000E+00  0.00000000000E+00 -0.19455080956E+03  0.19455080962E+03  0.50400001928E-02 0. -1.
    10030    2    1    2    0    0  0.00000000000E+00  0.00000000000E+00  0.47808410841E+03  0.86718572762E+03  0.72349614475E+03 0.  0.
        4    1    3    3  502    0  0.25874460073E+03 -0.15467335771E+03  0.47872531001E+03  0.56573151877E+03  0.12699999809E+01 0.  1.
       -4    1    3    3    0  502 -0.25874460073E+03  0.15467335771E+03 -0.64120159164E+00  0.30145420884E+03  0.12699999809E+01 0. -1.
</event>
<event>
 5   0  0.6785252E-03  0.7007891E+03  0.7818609E-02  0.9715884E-01
       -1   -1    0    0    0  501  0.00000000000E+00  0.00000000000E+00  0.19396135611E+03  0.19396135617E+03  0.50400001928E-02 0. -1.
        1   -1    0    0  501    0  0.00000000000E+00  0.00000000000E+00 -0.63299384666E+03  0.63299384668E+03  0.50400001928E-02 0.  1.
    10030    2    1    2    0    0  0.00000000000E+00  0.00000000000E+00 -0.43903249056E+03  0.82695520286E+03  0.70078911219E+03 0.  0.
        3    1    3    3  502    0  0.83047064890E+02 -0.10843486265E+03  0.16125543308E+03  0.21132500875E+03  0.10100000352E+00 0. -1.
       -3    1    3    3    0  502 -0.83047064890E+02  0.10843486265E+03 -0.60028792364E+03  0.61563019410E+03  0.10100000352E+00 0.  1.
</event>
<event>
 5   0  0.1099980E-02  0.7019194E+03  0.7818609E-02  0.9713955E-01
       -2   -1    0    0    0  501  0.00000000000E+00  0.00000000000E+00  0.98988831869E+02  0.98988831902E+02  0.25500000920E-02 0. -1.
        2   -1    0    0  501    0  0.00000000000E+00  0.00000000000E+00 -0.12443093343E+04  0.12443093343E+04  0.25500000920E-02 0.  1.
    10030    2    1    2    0    0  0.00000000000E+00  0.00000000000E+00 -0.11453205024E+04  0.13432981662E+04  0.70191944698E+03 0.  0.
        5    1    3    3  502    0  0.21572649430E+03 -0.26863887605E+03 -0.70026404817E+03  0.78044640638E+03  0.46999998093E+01 0.  1.
       -5    1    3    3    0  502 -0.21572649430E+03  0.26863887605E+03 -0.44505645427E+03  0.56285175984E+03  0.46999998093E+01 0. -1.
</event>
<event>
 5   0  0.1099980E-02  0.7110783E+03  0.7818609E-02  0.9698472E-01
        2   -1    0    0  501    0  0.00000000000E+00  0.00000000000E+00  0.83449510138E+03  0.83449510139E+03  0.25500000920E-02 0. -1.
       -2   -1    0    0    0  501  0.00000000000E+00  0.00000000000E+00 -0.15147852108E+03  0.15147852110E+03  0.25500000920E-02 0.  1.
    10030    2    1    2    0    0  0.00000000000E+00  0.00000000000E+00  0.68301658031E+03  0.98597362248E+03  0.71107829053E+03 0.  0.
        5    1    3    3  502    0  0.15203660203E+03 -0.67082386439E+02 -0.94266601981E+02  0.19111111211E+03  0.46999998093E+01 0.  1.
       -5    1    3    3    0  502 -0.15203660203E+03  0.67082386439E+02  0.77728318229E+03  0.79486251037E+03  0.46999998093E+01 0. -1.
</event>
<event>
 5   0  0.1079446E-02  0.7000995E+03  0.7818609E-02  0.9717062E-01
       -2   -1    0    0    0  501  0.00000000000E+00  0.00000000000E+00  0.33919340508E+03  0.33919340509E+03  0.25500000920E-02 0.  1.
        2   -1    0    0  501    0  0.00000000000E+00  0.00000000000E+00 -0.36125360580E+03  0.36125360581E+03  0.25500000920E-02 0. -1.
    10030    2    1    2    0    0  0.00000000000E+00  0.00000000000E+00 -0.22060200717E+02  0.70044701090E+03  0.70009953766E+03 0.  0.
        2    1    3    3  502    0  0.34163378236E+02 -0.26859141594E+03  0.21095015029E+03  0.34323235722E+03  0.25500000920E-02 0.  1.
       -2    1    3    3    0  502 -0.34163378236E+02  0.26859141594E+03 -0.23301035101E+03  0.35721465369E+03  0.25500000920E-02 0. -1.
</event>
<event>
 5   0  0.1100119E-02  0.7014447E+03  0.7818609E-02  0.9714765E-01
        2   -1    0    0  501    0  0.00000000000E+00  0.00000000000E+00  0.77667999714E+03  0.77667999714E+03  0.25500000920E-02 0.  1.
       -2   -1    0    0    0  501  0.00000000000E+00  0.00000000000E+00 -0.15837434194E+03  0.15837434196E+03  0.25500000920E-02 0. -1.
    10030    2    1    2    0    0  0.00000000000E+00  0.00000000000E+00  0.61830565520E+03  0.93505433910E+03  0.70144474753E+03 0.  0.
        4    1    3    3  502    0 -0.16438842896E+03  0.18892113896E+03 -0.18161766382E+02  0.25109005352E+03  0.12699999809E+01 0. -1.
       -4    1    3    3    0  502  0.16438842896E+03 -0.18892113896E+03  0.63646742158E+03  0.68396428558E+03  0.12699999809E+01 0.  1.
</event>
<event>
 5   0  0.6689415E-03  0.6886983E+03  0.7818609E-02  0.9736757E-01
        1   -1    0    0  501    0  0.00000000000E+00  0.00000000000E+00  0.12456911701E+03  0.12456911711E+03  0.50400001928E-02 0.  1.
       -1   -1    0    0    0  501  0.00000000000E+00  0.00000000000E+00 -0.95189204928E+03  0.95189204929E+03  0.50400001928E-02 0. -1.
    10030    2    1    2    0    0  0.00000000000E+00  0.00000000000E+00 -0.82732293227E+03  0.10764611664E+04  0.68869834362E+03 0.  0.
        1    1    3    3  502    0 -0.32834853234E+03  0.24337476708E+02 -0.57129809811E+03  0.65938349115E+03  0.50400001928E-02 0. -1.
       -1    1    3    3    0  502  0.32834853234E+03 -0.24337476708E+02 -0.25602483416E+03  0.41707767526E+03  0.50400001928E-02 0.  1.
</event>
<event>
 5   0  0.6689415E-03  0.7039577E+03  0.7818609E-02  0.9710488E-01
        1   -1    0    0  501    0  0.00000000000E+00  0.00000000000E+00  0.49338649828E+03  0.49338649831E+03  0.50400001928E-02 0.  1.
       -1   -1    0    0    0  501  0.00000000000E+00  0.00000000000E+00 -0.25109955112E+03  0.25109955117E+03  0.50400001928E-02 0. -1.
    10030    2    1    2    0    0  0.00000000000E+00  0.00000000000E+00  0.24228694716E+03  0.74448604948E+03  0.70395774952E+03 0.  0.
        1    1    3    3  502    0 -0.82161890706E+01 -0.81367976333E+02  0.48319917996E+03  0.49007111818E+03  0.50400001928E-02 0.  1.
       -1    1    3    3    0  502  0.82161890706E+01  0.81367976333E+02 -0.24091223279E+03  0.25441493130E+03  0.50400001928E-02 0. -1.
</event>
<event>
 5   0  0.6785252E-03  0.6992531E+03  0.7818609E-02  0.9718510E-01
       -1   -1    0    0    0  501  0.00000000000E+00  0.00000000000E+00  0.20678354304E+03  0.20678354310E+03  0.50400001928E-02 0. -1.
        1   -1    0    0  501    0  0.00000000000E+00  0.00000000000E+00 -0.59114341370E+03  0.59114341372E+03  0.50400001928E-02 0.  1.
    10030    2    1    2    0    0  0.00000000000E+00  0.00000000000E+00 -0.38435987066E+03  0.79792695682E+03  0.69925311457E+03 0.  0.
        3    1    3    3  502    0 -0.20655067024E+03  0.27505592477E+03 -0.12073696934E+03  0.36454953997E+03  0.10100000352E+00 0. -1.
       -3    1    3    3    0  502  0.20655067024E+03 -0.27505592477E+03 -0.26362290132E+03  0.43337741685E+03  0.10100000352E+00 0.  1.
</event>
<event>
 5   0  0.1109788E-02  0.7011467E+03  0.7818609E-02  0.9715273E-01
       -2   -1    0    0    0  501  0.00000000000E+00  0.00000000000E+00  0.34926343836E+03  0.34926343837E+03  0.25500000920E-02 0. -1.
        2   -1    0    0  501    0  0.00000000000E+00  0.00000000000E+00 -0.35188820515E+03  0.35188820515E+03  0.25500000920E-02 0.  1.
    10030    2    1    2    0    0  0.00000000000E+00  0.00000000000E+00 -0.26247667814E+01  0.70115164353E+03  0.70114673059E+03 0.  0.
        1    1    3    3  502    0 -0.37865908032E+02 -0.86145346208E+02  0.33639819539E+03  0.34931159951E+03  0.50400001928E-02 0. -1.
       -1    1    3    3    0  502  0.37865908032E+02  0.86145346208E+02 -0.33902296218E+03  0.35184004401E+03  0.50400001928E-02 0.  1.
</event>
<event>
 5   0  0.6990118E-03  0.7053793E+03  0.7818609E-02  0.9708077E-01
        1   -1    0    0  501    0  0.00000000000E+00  0.00000000000E+00  0.33727263281E+03  0.33727263285E+03  0.50400001928E-02 0.  1.
       -1   -1    0    0    0  501  0.00000000000E+00  0.00000000000E+00 -0.36881139891E+03  0.36881139894E+03  0.50400001928E-02 0. -1.
    10030    2    1    2    0    0  0.00000000000E+00  0.00000000000E+00 -0.31538766102E+02  0.70608403179E+03  0.70537930660E+03 0.  0.
        5    1    3    3  502    0 -0.17617997446E+03  0.30437275964E+03  0.10443442620E+02  0.35187116350E+03  0.46999998093E+01 0.  1.
       -5    1    3    3    0  502  0.17617997446E+03 -0.30437275964E+03 -0.41982208722E+02  0.35421286829E+03  0.46999998093E+01 0. -1.
</event>
<event>
 5   0  0.1079446E-02  0.6993474E+03  0.7818609E-02  0.9718349E-01
       -2   -1    0    0    0  501  0.00000000000E+00  0.00000000000E+00  0.18708092207E+03  0.18708092209E+03  0.25500000920E-02 0.  1.
        2   -1    0    0  501    0  0.00000000000E+00  0.00000000000E+00 -0.65357655837E+03  0.65357655837E+03  0.25500000920E-02 0. -1.
    10030    2    1    2    0    0  0.00000000000E+00  0.00000000000E+00 -0.46649563630E+03  0.84065748046E+03  0.69934742494E+03 0.  0.
        2    1    3    3  502    0 -0.69613563151E+02 -0.57834866523E+02 -0.63925372555E+03  0.64562856628E+03  0.25500000920E-02 0. -1.
       -2    1    3    3    0  502  0.69613563151E+02  0.57834866523E+02  0.17275808925E+03  0.19502891419E+03  0.25500000920E-02 0.  1.
</event>
<event>
 5   0  0.6246998E-03  0.7005263E+03  0.7818609E-02  0.9716333E-01
       -1   -1    0    0    0  501  0.00000000000E+00  0.00000000000E+00  0.34515023193E+03  0.34515023197E+03  0.50400001928E-02 0. -1.
        1   -1    0    0  501    0  0.00000000000E+00  0.00000000000E+00 -0.35545183105E+03  0.35545183108E+03  0.50400001928E-02 0.  1.
    10030    2    1    2    0    0  0.00000000000E+00  0.00000000000E+00 -0.10301599114E+02  0.70060206305E+03  0.70052632199E+03 0.  0.
        4    1    3    3  502    0 -0.10346888832E+03  0.29164011016E+03  0.15894894598E+03  0.34788812143E+03  0.12699999809E+01 0. -1.
       -4    1    3    3    0  502  0.10346888832E+03 -0.29164011016E+03 -0.16925054509E+03  0.35271394162E+03  0.12699999809E+01 0.  1.
</event>
<event>
 5   0  0.6990118E-03  0.7004692E+03  0.7818609E-02  0.9716430E-01
        1   -1    0    0  501    0  0.00000000000E+00  0.00000000000E+00  0.13881621922E+04  0.13881621922E+04  0.50400001928E-02 0. -1.
       -1   -1    0    0    0  501  0.00000000000E+00  0.00000000000E+00 -0.88364509589E+02  0.88364509732E+02  0.50400001928E-02 0.  1.
    10030    2    1    2    0    0  0.00000000000E+00  0.00000000000E+00  0.12997976826E+04  0.14765267019E+04  0.70046918978E+03 0.  0.
        5    1    3    3  502    0  0.21508958468E+02  0.14742215603E+03 -0.18166805976E+02  0.15016008198E+03  0.46999998093E+01 0.  1.
       -5    1    3    3    0  502 -0.21508958468E+02 -0.14742215603E+03  0.13179644886E+04  0.13263666200E+04  0.46999998093E+01 0. -1.
</event>
<event>
 5   0  0.1109788E-02  0.6969967E+03  0.7818609E-02  0.9722382E-01
       -2   -1    0    0    0  501  0.00000000000E+00  0.00000000000E+00  0.14339315329E+03  0.14339315332E+03  0.25500000920E-02 0.  1.
        2   -1    0    0  501    0  0.00000000000E+00  0.00000000000E+00 -0.84697983287E+03  0.84697983287E+03  0.25500000920E-02 0. -1.
    10030    2    1    2    0    0  0.00000000000E+00  0.00000000000E+00 -0.70358667957E+03  0.99037298619E+03  0.69699672603E+03 0.  0.
        1    1    3    3  502    0 -0.97484784602E+02  0.24531845766E+03 -0.67508403458E+03  0.72486059534E+03  0.50400001928E-02 0. -1.
       -1    1    3    3    0  502  0.97484784602E+02 -0.24531845766E+03 -0.28502644988E+02  0.26551239085E+03  0.50400001928E-02 0.  1.
</event>
<event>
 5   0  0.6785252E-03  0.6999813E+03  0.7818609E-02  0.9717264E-01
       -1   -1    0    0    0  501  0.00000000000E+00  0.00000000000E+00  0.12953019255E+03  0.12953019265E+03  0.50400001928E-02 0.  1.
        1   -1    0    0  501    0  0.00000000000E+00  0.00000000000E+00 -0.94567480274E+03  0.94567480275E+03  0.50400001928E-02 0. -1.
    10030    2    1    2    0    0  0.00000000000E+00  0.00000000000E+00 -0.81614461019E+03  0.10752049954E+04  0.69998125503E+03 0.  0.
        3    1    3    3  502    0  0.77955328833E+02  0.20123844874E+03  0.15162605344E+02  0.21634200088E+03  0.10100000352E+00 0.  1.
       -3    1    3    3    0  502 -0.77955328833E+02 -0.20123844874E+03 -0.83130721554E+03  0.85886299452E+03  0.10100000352E+00 0. -1.
</event>
<event>
 5   0  0.1079446E-02  0.6694608E+03  0.7818609E-02  0.9770932E-01
       -2   -1    0    0    0  501  0.00000000000E+00  0.00000000000E+00  0.15400080972E+03  0.15400080974E+03  0.25500000920E-02 0. -1.
        2   -1    0    0  501    0  0.00000000000E+00  0.00000000000E+00 -0.72755757902E+03  0.72755757902E+03  0.25500000920E-02 0.  1.
    10030    2    1    2    0    0  0.00000000000E+00  0.00000000000E+00 -0.57355676930E+03  0.88155838876E+03  0.66946084664E+03 0.  0.
        2    1    3    3  502    0 -0.18039157549E+03 -0.28170033972E+03 -0.27074483552E+03  0.43034749665E+03  0.25500000920E-02 0.  1.
       -2    1    3    3    0  502  0.18039157549E+03  0.28170033972E+03 -0.30281193378E+03  0.45121089211E+03  0.25500000920E-02 0. -1.
</event>
<event>
 5   0  0.1079446E-02  0.6998112E+03  0.7818609E-02  0.9717555E-01
        2   -1    0    0  501    0  0.00000000000E+00  0.00000000000E+00  0.95021402862E+03  0.95021402863E+03  0.25500000920E-02 0.  1.
       -2   -1    0    0    0  501  0.00000000000E+00  0.00000000000E+00 -0.12884879112E+03  0.12884879114E+03  0.25500000920E-02 0. -1.
    10030    2    1    2    0    0  0.00000000000E+00  0.00000000000E+00  0.82136523751E+03  0.10790628198E+04  0.69981119998E+03 0.  0.
        2    1    3    3  502    0  0.16269413485E+02  0.50003666827E+02  0.94408682011E+03  0.94555009620E+03  0.25500000920E-02 0.  1.
       -2    1    3    3    0  502 -0.16269413485E+02 -0.50003666827E+02 -0.12272158260E+03  0.13351272357E+03  0.25500000920E-02 0. -1.
</event>
<event>
 5   0  0.1100119E-02  0.7017535E+03  0.7818609E-02  0.9714238E-01
        2   -1    0    0  501    0  0.00000000000E+00  0.00000000000E+00  0.54291447428E+03  0.54291447428E+03  0.25500000920E-02 0.  1.
       -2   -1    0    0    0  501  0.00000000000E+00  0.00000000000E+00 -0.22676589352E+03  0.22676589353E+03  0.25500000920E-02 0. -1.
    10030    2    1    2    0    0  0.00000000000E+00  0.00000000000E+00  0.31614858076E+03  0.76968036782E+03  0.70175347772E+03 0.  0.
        4    1    3    3  502    0  0.42252689553E+02  0.33902028494E+03  0.24576879918E+03  0.42086097339E+03  0.12699999809E+01 0. -1.
       -4    1    3    3    0  502 -0.42252689553E+02 -0.33902028494E+03  0.70379781574E+02  0.34881939442E+03  0.12699999809E+01 0.  1.
</event>
<event>
 5   0  0.1119786E-02  0.6988712E+03  0.7818609E-02  0.9719165E-01
        2   -1    0    0  501    0  0.00000000000E+00  0.00000000000E+00  0.43529697170E+03  0.43529697171E+03  0.25500000920E-02 0. -1.
       -2   -1    0    0    0  501  0.00000000000E+00  0.00000000000E+00 -0.28051016960E+03  0.28051016961E+03  0.25500000920E-02 0.  1.
    10030    2    1    2    0    0  0.00000000000E+00  0.00000000000E+00  0.15478680211E+03  0.71580714132E+03  0.69887116800E+03 0.  0.
        3    1    3    3  502    0  0.32803717068E+03  0.97326569273E+02  0.14999392272E+03  0.37360277500E+03  0.10100000352E+00 0. -1.
       -3    1    3    3    0  502 -0.32803717068E+03 -0.97326569273E+02  0.47928793828E+01  0.34220436632E+03  0.10100000352E+00 0.  1.
</event>
<event>
 5   0  0.1109788E-02  0.7003973E+03  0.7818609E-02  0.9716553E-01
       -2   -1    0    0    0  501  0.00000000000E+00  0.00000000000E+00  0.31677316079E+03  0.31677316080E+03  0.25500000920E-02 0. -1.
        2   -1    0    0  501    0  0.00000000000E+00  0.00000000000E+00 -0.38715116522E+03  0.38715116523E+03  0.25500000920E-02 0.  1.
    10030    2    1    2    0    0  0.00000000000E+00  0.00000000000E+00 -0.70378004434E+02  0.70392432603E+03  0.70039731101E+03 0.  0.
        1    1    3    3  502    0 -0.15924328844E+03  0.18388127070E+03  0.21800890594E+03  0.32664756194E+03  0.50400001928E-02 0. -1.
       -1    1    3    3    0  502  0.15924328844E+03 -0.18388127070E+03 -0.28838691037E+03  0.37727676409E+03  0.50400001928E-02 0.  1.
</event>
<event>
 5   0  0.1099980E-02  0.7025758E+03  0.7818609E-02  0.9712837E-01
       -2   -1    0    0    0  501  0.00000000000E+00  0.00000000000E+00  0.26140687327E+03  0.26140687328E+03  0.25500000920E-02 0. -1.
        2   -1    0    0  501    0  0.00000000000E+00  0.00000000000E+00 -0.47207321103E+03  0.47207321104E+03  0.25500000920E-02 0.  1.
    10030    2    1    2    0    0  0.00000000000E+00  0.00000000000E+00 -0.21066633777E+03  0.73348008432E+03  0.70257578113E+03 0.  0.
        5    1    3    3  502    0  0.28580784779E+02  0.18097343445E+03  0.20753716281E+03  0.27687905154E+03  0.46999998093E+01 0. -1.
       -5    1    3    3    0  502 -0.28580784779E+02 -0.18097343445E+03 -0.41820350058E+03  0.45660103278E+03  0.46999998093E+01 0.  1.
</event>
<event>
 5   0  0.6609285E-03  0.6994942E+03  0.7818609E-02  0.9718097E-01
       -1   -1    0    0    0  501  0.00000000000E+00  0.00000000000E+00  0.25607284482E+03  0.25607284487E+03  0.50400001928E-02 0. -1.
        1   -1    0    0  501    0  0.00000000000E+00  0.00000000000E+00 -0.47768848502E+03  0.47768848505E+03  0.50400001928E-02 0.  1.
    10030    2    1    2    0    0  0.00000000000E+00  0.00000000000E+00 -0.22161564020E+03  0.73376132992E+03  0.69949424393E+03 0.  0.
        2    1    3    3  502    0 -0.23491986668E+03 -0.16172233598E+02  0.16046098815E+03  0.28495019499E+03  0.25500000920E-02 0. -1.
       -2    1    3    3    0  502  0.23491986668E+03  0.16172233598E+02 -0.38207662835E+03  0.44881113493E+03  0.25500000920E-02 0.  1.
</event>
<event>
 5   0  0.6785252E-03  0.7000193E+03  0.7818609E-02  0.9717199E-01
       -1   -1    0    0    0  501  0.00000000000E+00  0.00000000000E+00  0.73438870065E+02  0.73438870238E+02  0.50400001928E-02 0. -1.
        1   -1    0    0  501    0  0.00000000000E+00  0.00000000000E+00 -0.16681461414E+04  0.16681461414E+04  0.50400001928E-02 0.  1.
    10030    2    1    2    0    0  0.00000000000E+00  0.00000000000E+00 -0.15947072713E+04  0.17415850117E+04  0.70001933655E+03 0.  0.
        3    1    3    3  502    0 -0.28136333513E+03 -0.53409779236E+01 -0.13151312852E+04  0.13449030299E+04  0.10100000352E+00 0.  1.
       -3    1    3    3    0  502  0.28136333513E+03  0.53409779236E+01 -0.27957598616E+03  0.39668198175E+03  0.10100000352E+00 0. -1.
</event>
<event>
 5   0  0.1100119E-02  0.7006474E+03  0.7818609E-02  0.9716126E-01
        2   -1    0    0  501    0  0.00000000000E+00  0.00000000000E+00  0.20058846462E+04  0.20058846462E+04  0.25500000920E-02 0. -1.
       -2   -1    0    0    0  501  0.00000000000E+00  0.00000000000E+00 -0.61183329607E+02  0.61183329660E+02  0.25500000920E-02 0.  1.
    10030    2    1    2    0    0  0.00000000000E+00  0.00000000000E+00  0.19447013166E+04  0.20670679759E+04  0.70064741923E+03 0.  0.
        4    1    3    3  502    0  0.14980715149E+03  0.21479362069E+03  0.28585016479E+03  0.38767307327E+03  0.12699999809E+01 0.  1.
       -4    1    3    3    0  502 -0.14980715149E+03 -0.21479362069E+03  0.16588511518E+04  0.16793949026E+04  0.12699999809E+01 0. -1.
</event>
<event>
 5   0  0.1079446E-02  0.7014555E+03  0.7818609E-02  0.9714746E-01
       -2   -1    0    0    0  501  0.00000000000E+00  0.00000000000E+00  0.10666204263E+03  0.10666204266E+03  0.25500000920E-02 0. -1.
        2   -1    0    0  501    0  0.00000000000E+00  0.00000000000E+00 -0.11532683231E+04  0.11532683231E+04  0.25500000920E-02 0.  1.
    10030    2    1    2    0    0  0.00000000000E+00  0.00000000000E+00 -0.10466062804E+04  0.12599303657E+04  0.70145550123E+03 0.  0.
        2    1    3    3  502    0 -0.17155771546E+03 -0.18149590129E+03 -0.96560196283E+03  0.99737654000E+03  0.25500000920E-02 0.  1.
       -2    1    3    3    0  502  0.17155771546E+03  0.18149590129E+03 -0.81004317592E+02  0.26255382570E+03  0.25500000920E-02 0. -1.
</event>
<event>
 5   0  0.6990118E-03  0.6988899E+03  0.7818609E-02  0.9719132E-01
        1   -1    0    0  501    0  0.00000000000E+00  0.00000000000E+00  0.90858844194E+03  0.90858844196E+03  0.50400001928E-02 0.  1.
       -1   -1    0    0    0  501  0.00000000000E+00  0.00000000000E+00 -0.13439725080E+03  0.13439725090E+03  0.50400001928E-02 0. -1.
    10030    2    1    2    0    0  0.00000000000E+00  0.00000000000E+00  0.77419119114E+03  0.10429856929E+04  0.69888994488E+03 0.  0.
        5    1    3    3  502    0  0.18266190810E+03 -0.15793552690E+00 -0.57423940541E+02  0.19153327794E+03  0.46999998093E+01 0. -1.
       -5    1    3    3    0  502 -0.18266190810E+03  0.15793552690E+00  0.83161513168E+03  0.85145241491E+03  0.46999998093E+01 0.  1.
</event>
<event>
 5   0  0.6609285E-03  0.6959709E+03  0.7818609E-02  0.9724147E-01
        1   -1    0    0  501    0  0.00000000000E+00  0.00000000000E+00  0.23672762815E+03  0.23672762820E+03  0.50400001928E-02 0.  1.
       -1   -1    0    0    0  501  0.00000000000E+00  0.00000000000E+00 -0.51153255423E+03  0.51153255426E+03  0.50400001928E-02 0. -1.
    10030    2    1    2    0    0  0.00000000000E+00  0.00000000000E+00 -0.27480492609E+03  0.74826018246E+03  0.69597094282E+03 0.  0.
        2    1    3    3  502    0  0.16787997555E+02 -0.34119232757E+02  0.23448721215E+03  0.23755044006E+03  0.25500000920E-02 0.  1.
       -2    1    3    3    0  502 -0.16787997555E+02  0.34119232757E+02 -0.50929213823E+03  0.51070974240E+03  0.25500000920E-02 0. -1.
</event>
<event>
 5   0  0.1099980E-02  0.7064927E+03  0.7818609E-02  0.9706193E-01
       -2   -1    0    0    0  501  0.00000000000E+00  0.00000000000E+00  0.18232331962E+03  0.18232331963E+03  0.25500000920E-02 0.  1.
        2   -1    0    0  501    0  0.00000000000E+00  0.00000000000E+00 -0.68440500809E+03  0.68440500810E+03  0.25500000920E-02 0. -1.
    10030    2    1    2    0    0  0.00000000000E+00  0.00000000000E+00 -0.50208168848E+03  0.86672832773E+03  0.70649272621E+03 0.  0.
        5    1    3    3  502    0 -0.47162116754E+02 -0.57445562275E+02  0.17258277892E+03  0.18796585717E+03  0.46999998093E+01 0.  1.
       -5    1    3    3    0  502  0.47162116754E+02  0.57445562275E+02 -0.67466446740E+03  0.67876247056E+03  0.46999998093E+01 0. -1.
</event>
<event>
 5   0  0.6609285E-03  0.7058552E+03  0.7818609E-02  0.9707271E-01
       -1   -1    0    0    0  501  0.00000000000E+00  0.00000000000E+00  0.78879351783E+03  0.78879351785E+03  0.50400001928E-02 0.  1.
        1   -1    0    0  501    0  0.00000000000E+00  0.00000000000E+00 -0.15790939065E+03  0.15790939073E+03  0.50400001928E-02 0. -1.
    10030    2    1    2    0    0  0.00000000000E+00  0.00000000000E+00  0.63088412718E+03  0.94670290858E+03  0.70585523671E+03 0.  0.
        2    1    3    3  502    0 -0.11339449699E+03 -0.15433089767E+03  0.71304260181E+03  0.73831300268E+03  0.25500000920E-02 0.  1.
       -2    1    3    3    0  502  0.11339449699E+03  0.15433089767E+03 -0.82158474632E+02  0.20838990590E+03  0.25500000920E-02 0. -1.
</event>
<event>
 5   0  0.6689415E-03  0.6966360E+03  0.7818609E-02  0.9723003E-01
        1   -1    0    0  501    0  0.00000000000E+00  0.00000000000E+00  0.31454409610E+03  0.31454409614E+03  0.50400001928E-02 0.  1.
       -1   -1    0    0    0  501  0.00000000000E+00  0.00000000000E+00 -0.38571830032E+03  0.38571830035E+03  0.50400001928E-02 0. -1.
    10030    2    1    2    0    0  0.00000000000E+00  0.00000000000E+00 -0.71174204222E+02  0.70026239650E+03  0.69663595701E+03 0.  0.
        1    1    3    3  502    0  0.52688934228E+02 -0.33694089618E+03 -0.10680876178E+03  0.35737012037E+03  0.50400001928E-02 0.  1.
       -1    1    3    3    0  502 -0.52688934228E+02  0.33694089618E+03  0.35634557556E+02  0.34289227613E+03  0.50400001928E-02 0. -1.
</event>
<event>
 5   0  0.6246998E-03  0.6994594E+03  0.7818609E-02  0.9718157E-01
       -1   -1    0    0    0  501  0.00000000000E+00  0.00000000000E+00  0.17619760267E+03  0.17619760274E+03  0.50400001928E-02 0. -1.
        1   -1    0    0  501    0  0.00000000000E+00  0.00000000000E+00 -0.69416861369E+03  0.69416861371E+03  0.50400001928E-02 0.  1.
    10030    2    1    2    0    0  0.00000000000E+00  0.00000000000E+00 -0.51797101102E+03  0.87036621645E+03  0.69945935013E+03 0.  0.
        4    1    3    3  502    0 -0.22227587285E+03  0.15492512950E+03  0.16182447424E+02  0.27142557710E+03  0.12699999809E+01 0. -1.
       -4    1    3    3    0  502  0.22227587285E+03 -0.15492512950E+03 -0.53415345844E+03  0.59894063935E+03  0.12699999809E+01 0.  1.
</event>
<event>
 5   0  0.1109788E-02  0.6974587E+03  0.7818609E-02  0.9721588E-01
       -2   -1    0    0    0  501  0.00000000000E+00  0.00000000000E+00  0.10967079695E+03  0.10967079698E+03  0.25500000920E-02 0. -1.
        2   -1    0    0  501    0  0.00000000000E+00  0.00000000000E+00 -0.11088835517E+04  0.11088835517E+04  0.25500000920E-02 0.  1.
    10030    2    1    2    0    0  0.00000000000E+00  0.00000000000E+00 -0.99921275476E+03  0.12185543487E+04  0.69745865214E+03 0.  0.
        1    1    3    3  502    0  0.32699603019E+03  0.20944990818E+02 -0.70814613176E+03  0.78027946298E+03  0.50400001928E-02 0.  1.
       -1    1    3    3    0  502 -0.32699603019E+03 -0.20944990818E+02 -0.29106662299E+03  0.43827488571E+03  0.50400001928E-02 0. -1.
</event>
<event>
 5   0  0.6990118E-03  0.7004148E+03  0.7818609E-02  0.9716523E-01
        1   -1    0    0  501    0  0.00000000000E+00  0.00000000000E+00  0.29416099343E+03  0.29416099347E+03  0.50400001928E-02 0. -1.
       -1   -1    0    0    0  501  0.00000000000E+00  0.00000000000E+00 -0.41693229652E+03  0.41693229655E+03  0.50400001928E-02 0.  1.
    10030    2    1    2    0    0  0.00000000000E+00  0.00000000000E+00 -0.12277130309E+03  0.71109329002E+03  0.70041478729E+03 0.  0.
        5    1    3    3  502    0 -0.15633812390E+03 -0.14132478407E+03 -0.34530772288E+03  0.40456620850E+03  0.46999998093E+01 0.  1.
       -5    1    3    3    0  502  0.15633812390E+03  0.14132478407E+03  0.22253641979E+03  0.30652708153E+03  0.46999998093E+01 0. -1.
</event>
<event>
 5   0  0.1119786E-02  0.6749788E+03  0.7818609E-02  0.9761005E-01
       -2   -1    0    0    0  501  0.00000000000E+00  0.00000000000E+00  0.47803559479E+02  0.47803559547E+02  0.25500000920E-02 0.  1.
        2   -1    0    0  501    0  0.00000000000E+00  0.00000000000E+00 -0.23826486242E+04  0.23826486242E+04  0.25500000920E-02 0. -1.
    10030    2    1    2    0    0  0.00000000000E+00  0.00000000000E+00 -0.23348450648E+04  0.24304521838E+04  0.67497877096E+03 0.  0.
        3    1    3    3  502    0  0.71949657011E+02  0.26149829220E+03 -0.44420306208E+03  0.52045603131E+03  0.10100000352E+00 0.  1.
       -3    1    3    3    0  502 -0.71949657011E+02 -0.26149829220E+03 -0.18906420027E+04  0.19099961525E+04  0.10100000352E+00 0. -1.
</event>
<event>
 5   0  0.1099980E-02  0.7006681E+03  0.7818609E-02  0.9716090E-01
        2   -1    0    0  501    0  0.00000000000E+00  0.00000000000E+00  0.11297875665E+04  0.11297875666E+04  0.25500000920E-02 0.  1.
       -2   -1    0    0    0  501  0.00000000000E+00  0.00000000000E+00 -0.10863452124E+03  0.10863452127E+03  0.25500000920E-02 0. -1.
    10030    2    1    2    0    0  0.00000000000E+00  0.00000000000E+00  0.10211530453E+04  0.12384220878E+04  0.70066805668E+03 0.  0.
        5    1    3    3  502    0  0.99820295261E+02 -0.22944395583E+03  0.77260004375E+02  0.26191567057E+03  0.46999998093E+01 0. -1.
       -5    1    3    3    0  502 -0.99820295261E+02  0.22944395583E+03  0.94389304094E+03  0.97650641725E+03  0.46999998093E+01 0.  1.
</event>
<event>
 5   0  0.1100119E-02  0.6982097E+03  0.7818609E-02  0.9720299E-01
        2   -1    0    0  501    0  0.00000000000E+00  0.00000000000E+00  0.18579557523E+04  0.18579557523E+04  0.25500000920E-02 0.  1.
       -2   -1    0    0    0  501  0.00000000000E+00  0.00000000000E+00 -0.65595851444E+02  0.65595851494E+02  0.25500000920E-02 0. -1.
    10030    2    1    2    0    0  0.00000000000E+00  0.00000000000E+00  0.17923599009E+04  0.19235516038E+04  0.69820968073E+03 0.  0.
        4    1    3    3  502    0 -0.54957633612E+02 -0.22577544442E+03  0.16139436380E+04  0.16305859598E+04  0.12699999809E+01 0.  1.
       -4    1    3    3    0  502  0.54957633612E+02  0.22577544442E+03  0.17841626283E+03  0.29296564396E+03  0.12699999809E+01 0. -1.
</event>
<event>
 5   0  0.1109788E-02  0.6966270E+03  0.7818609E-02  0.9723018E-01
        2   -1    0    0  501    0  0.00000000000E+00  0.00000000000E+00  0.23914338893E+03  0.23914338894E+03  0.25500000920E-02 0. -1.
       -2   -1    0    0    0  501  0.00000000000E+00  0.00000000000E+00 -0.50732028415E+03  0.50732028415E+03  0.25500000920E-02 0.  1.
    10030    2    1    2    0    0  0.00000000000E+00  0.00000000000E+00 -0.26817689522E+03  0.74646367309E+03  0.69662699353E+03 0.  0.
        1    1    3    3  502    0  0.21583485766E+03 -0.28410839273E+02  0.15726488895E+03  0.26855931727E+03  0.50400001928E-02 0. -1.
       -1    1    3    3    0  502 -0.21583485766E+03  0.28410839273E+02 -0.42544178417E+03  0.47790435582E+03  0.50400001928E-02 0.  1.
</event>
<event>
 5   0  0.6609285E-03  0.7018835E+03  0.7818609E-02  0.9714017E-01
        1   -1    0    0  501    0  0.00000000000E+00  0.00000000000E+00  0.11800954787E+03  0.11800954798E+03  0.50400001928E-02 0. -1.
       -1   -1    0    0    0  501  0.00000000000E+00  0.00000000000E+00 -0.10436451876E+04  0.10436451876E+04  0.50400001928E-02 0.  1.
    10030    2    1    2    0    0  0.00000000000E+00  0.00000000000E+00 -0.92563563970E+03  0.11616547356E+04  0.70188345697E+03 0.  0.
        2    1    3    3  502    0  0.40208007861E+02 -0.34792173538E+03 -0.49959871661E+03  0.61013530916E+03  0.25500000920E-02 0.  1.
       -2    1    3    3    0  502 -0.40208007861E+02  0.34792173538E+03 -0.42603692309E+03  0.55151942640E+03  0.25500000920E-02 0. -1.
</event>
<event>
 5   0  0.6785252E-03  0.6903545E+03  0.7818609E-02  0.9733871E-01
        1   -1    0    0  501    0  0.00000000000E+00  0.00000000000E+00  0.96864369817E+03  0.96864369818E+03  0.50400001928E-02 0. -1.
       -1   -1    0    0    0  501  0.00000000000E+00  0.00000000000E+00 -0.12300429618E+03  0.12300429628E+03  0.50400001928E-02 0.  1.
    10030    2    1    2    0    0  0.00000000000E+00  0.00000000000E+00  0.84563940199E+03  0.10916479945E+04  0.69035450720E+03 0.  0.
        3    1    3    3  502    0  0.25293005672E+03 -0.23197647931E+03  0.36449133837E+03  0.50064023659E+03  0.10100000352E+00 0. -1.
       -3    1    3    3    0  502 -0.25293005672E+03  0.23197647931E+03  0.48114806362E+03  0.59100775788E+03  0.10100000352E+00 0.  1.
</event>
<event>
 5   0  0.4440500E-03  0.7026603E+03  0.7818609E-02  0.9712694E-01
       -3   -1    0    0    0  501  0.00000000000E+00  0.00000000000E+00  0.47639471370E+03  0.47639472441E+03  0.10100000352E+00 0. -1.
        3   -1    0    0  501    0  0.00000000000E+00  0.00000000000E+00 -0.25909788021E+03  0.25909789989E+03  0.10100000352E+00 0.  1.
    10030    2    1    2    0    0  0.00000000000E+00  0.00000000000E+00  0.21729683350E+03  0.73549262430E+03  0.70266029243E+03 0.  0.
        4    1    3    3  502    0 -0.25971447055E+03 -0.23584998547E+03  0.88942240479E+02  0.36192424193E+03  0.12699999809E+01 0. -1.
       -4    1    3    3    0  502  0.25971447055E+03  0.23584998547E+03  0.12835459302E+03  0.37356838237E+03  0.12699999809E+01 0.  1.
</event>
<event>
 5   0  0.1119786E-02  0.7003445E+03  0.7818609E-02  0.9716643E-01
       -2   -1    0    0    0  501  0.00000000000E+00  0.00000000000E+00  0.39175277833E+03  0.39175277834E+03  0.25500000920E-02 0. -1.
        2   -1    0    0  501    0  0.00000000000E+00  0.00000000000E+00 -0.31300507650E+03  0.31300507652E+03  0.25500000920E-02 0.  1.
    10030    2    1    2    0    0  0.00000000000E+00  0.00000000000E+00  0.78747701828E+02  0.70475785486E+03  0.70034451054E+03 0.  0.
        3    1    3    3  502    0 -0.79932752201E+02 -0.31290215907E+02  0.38100145154E+03  0.39055145469E+03  0.10100000352E+00 0. -1.
       -3    1    3    3    0  502  0.79932752201E+02  0.31290215907E+02 -0.30225374971E+03  0.31420640016E+03  0.10100000352E+00 0.  1.
</event>
<event>
 5   0  0.1119786E-02  0.6990777E+03  0.7818609E-02  0.9718811E-01
       -2   -1    0    0    0  501  0.00000000000E+00  0.00000000000E+00  0.13109126865E+03  0.13109126867E+03  0.25500000920E-02 0. -1.
        2   -1    0    0  501    0  0.00000000000E+00  0.00000000000E+00 -0.93200255616E+03  0.93200255616E+03  0.25500000920E-02 0.  1.
    10030    2    1    2    0    0  0.00000000000E+00  0.00000000000E+00 -0.80091128751E+03  0.10630938248E+04  0.69907767090E+03 0.  0.
        3    1    3    3  502    0 -0.27603292193E+02 -0.20654812816E+03  0.26301294188E+02  0.21003770915E+03  0.10100000352E+00 0. -1.
       -3    1    3    3    0  502  0.27603292193E+02  0.20654812816E+03 -0.82721258170E+03  0.85305611569E+03  0.10100000352E+00 0.  1.
</event>
<event>
 5   0  0.6609285E-03  0.7030789E+03  0.7818609E-02  0.9711981E-01
       -1   -1    0    0    0  501  0.00000000000E+00  0.00000000000E+00  0.68073622482E+03  0.68073622483E+03  0.50400001928E-02 0. -1.
        1   -1    0    0  501    0  0.00000000000E+00  0.00000000000E+00 -0.18153872594E+03  0.18153872601E+03  0.50400001928E-02 0.  1.
    10030    2    1    2    0    0  0.00000000000E+00  0.00000000000E+00  0.49919749888E+03  0.86227495084E+03  0.70307890593E+03 0.  0.
        2    1    3    3  502    0  0.31601745388E+03 -0.10756812412E+03  0.38473995558E+03  0.50937487758E+03  0.25500000920E-02 0. -1.
       -2    1    3    3    0  502 -0.31601745388E+03  0.10756812412E+03  0.11445754329E+03  0.35290007326E+03  0.25500000920E-02 0.  1.
</event>
<event>
 5   0  0.6689415E-03  0.7017053E+03  0.7818609E-02  0.9714320E-01
        1   -1    0    0  501    0  0.00000000000E+00  0.00000000000E+00  0.43393690371E+03  0.43393690374E+03  0.50400001928E-02 0.  1.
       -1   -1    0    0    0  501  0.00000000000E+00  0.00000000000E+00 -0.28367620944E+03  0.28367620948E+03  0.50400001928E-02 0. -1.
    10030    2    1    2    0    0  0.00000000000E+00  0.00000000000E+00  0.15026069427E+03  0.71761311322E+03  0.70170528288E+03 0.  0.
        1    1    3    3  502    0  0.41165263535E+02 -0.17898457539E+03 -0.23059079276E+03  0.29479174154E+03  0.50400001928E-02 0. -1.
       -1    1    3    3    0  502 -0.41165263535E+02  0.17898457539E+03  0.38085148703E+03  0.42282137168E+03  0.50400001928E-02 0.  1.
</event>
<event>
 5   0  0.1099980E-02  0.7013843E+03  0.7818609E-02  0.9714868E-01
       -2   -1    0    0    0  501  0.00000000000E+00  0.00000000000E+00  0.12067648287E+03  0.12067648289E+03  0.25500000920E-02 0.  1.
        2   -1    0    0  501    0  0.00000000000E+00  0.00000000000E+00 -0.10191296475E+04  0.10191296475E+04  0.25500000920E-02 0. -1.
    10030    2    1    2    0    0  0.00000000000E+00  0.00000000000E+00 -0.89845316464E+03  0.11398061304E+04  0.70138429256E+03 0.  0.
        5    1    3    3  502    0  0.60589290537E+02 -0.17748300547E+03 -0.93073231801E+03  0.94945037635E+03  0.46999998093E+01 0. -1.
       -5    1    3    3    0  502 -0.60589290537E+02  0.17748300547E+03  0.32279153376E+02  0.19035575405E+03  0.46999998093E+01 0.  1.
</event>
<event>
 5   0  0.4440500E-03  0.6988586E+03  0.7818609E-02  0.9719186E-01
       -3   -1    0    0    0  501  0.00000000000E+00  0.00000000000E+00  0.77700668605E+03  0.77700669261E+03  0.10100000352E+00 0.  1.
        3   -1    0    0  501    0  0.00000000000E+00  0.00000000000E+00 -0.15714256544E+03  0.15714259790E+03  0.10100000352E+00 0. -1.
    10030    2    1    2    0    0  0.00000000000E+00  0.00000000000E+00  0.61986412060E+03  0.93414929051E+03  0.69885861871E+03 0.  0.
        5    1    3    3  502    0  0.32242715867E+03 -0.17791684471E+02  0.48828192026E+03  0.58542048165E+03  0.46999998093E+01 0.  1.
       -5    1    3    3    0  502 -0.32242715867E+03  0.17791684471E+02  0.13158220034E+03  0.34872880886E+03  0.46999998093E+01 0. -1.
</event>
<event>
 5   0  0.6246998E-03  0.6963634E+03  0.7818609E-02  0.9723471E-01
       -1   -1    0    0    0  501  0.00000000000E+00  0.00000000000E+00  0.94681169454E+03  0.94681169455E+03  0.50400001928E-02 0. -1.
        1   -1    0    0  501    0  0.00000000000E+00  0.00000000000E+00 -0.12804078583E+03  0.12804078593E+03  0.50400001928E-02 0.  1.
    10030    2    1    2    0    0  0.00000000000E+00  0.00000000000E+00  0.81877090871E+03  0.10748524805E+04  0.69636344953E+03 0.  0.
        4    1    3    3  502    0  0.14132033013E+03 -0.28977884630E+03  0.20645081058E+03  0.38284039176E+03  0.12699999809E+01 0. -1.
       -4    1    3    3    0  502 -0.14132033013E+03  0.28977884630E+03  0.61232009813E+03  0.69201208873E+03  0.12699999809E+01 0.  1.
</event>
<event>
 5   0  0.6246998E-03  0.7037815E+03  0.7818609E-02  0.9710787E-01
        1   -1    0    0  501    0  0.00000000000E+00  0.00000000000E+00  0.14044455148E+04  0.14044455148E+04  0.50400001928E-02 0. -1.
       -1   -1    0    0    0  501  0.00000000000E+00  0.00000000000E+00 -0.88167967528E+02  0.88167967672E+02  0.50400001928E-02 0.  1.
    10030    2    1    2    0    0  0.00000000000E+00  0.00000000000E+00  0.13162775473E+04  0.14926134825E+04  0.70378151910E+03 0.  0.
        4    1    3    3  502    0 -0.29729429459E+03  0.18695476117E+03  0.70506242621E+03  0.78768687819E+03  0.12699999809E+01 0. -1.
       -4    1    3    3    0  502  0.29729429459E+03 -0.18695476117E+03  0.61121512104E+03  0.70492660427E+03  0.12699999809E+01 0.  1.
</event>
<event>
 5   0  0.1100119E-02  0.7008662E+03  0.7818609E-02  0.9715752E-01
       -2   -1    0    0    0  501  0.00000000000E+00  0.00000000000E+00  0.27975170886E+03  0.27975170887E+03  0.25500000920E-02 0.  1.
        2   -1    0    0  501    0  0.00000000000E+00  0.00000000000E+00 -0.43897269383E+03  0.43897269384E+03  0.25500000920E-02 0. -1.
    10030    2    1    2    0    0  0.00000000000E+00  0.00000000000E+00 -0.15922098498E+03  0.71872440271E+03  0.70086621048E+03 0.  0.
        4    1    3    3  502    0 -0.12652539549E+03 -0.22541804281E+03 -0.32223957517E+03  0.41311248642E+03  0.12699999809E+01 0. -1.
       -4    1    3    3    0  502  0.12652539549E+03  0.22541804281E+03  0.16301859020E+03  0.30561191629E+03  0.12699999809E+01 0.  1.
</event>
<event>
 5   0  0.6689415E-03  0.7028049E+03  0.7818609E-02  0.9712447E-01
        1   -1    0    0  501    0  0.00000000000E+00  0.00000000000E+00  0.12502317636E+04  0.12502317636E+04  0.50400001928E-02 0.  1.
       -1   -1    0    0    0  501  0.00000000000E+00  0.00000000000E+00 -0.98768623436E+02  0.98768623564E+02  0.50400001928E-02 0. -1.
    10030    2    1    2    0    0  0.00000000000E+00  0.00000000000E+00  0.11514631402E+04  0.13490003872E+04  0.70280486726E+03 0.  0.
        1    1    3    3  502    0  0.98018390966E+02  0.83849772315E+02 -0.51683558852E+02  0.13895891323E+03  0.50400001928E-02 0. -1.
       -1    1    3    3    0  502 -0.98018390966E+02 -0.83849772315E+02  0.12031466990E+04  0.12100414740E+04  0.50400001928E-02 0.  1.
</event>
<event>
 5   0  0.6689415E-03  0.7010988E+03  0.7818609E-02  0.9715355E-01
        1   -1    0    0  501    0  0.00000000000E+00  0.00000000000E+00  0.22096675393E+03  0.22096675399E+03  0.50400001928E-02 0.  1.
       -1   -1    0    0    0  501  0.00000000000E+00  0.00000000000E+00 -0.55612383480E+03  0.55612383482E+03  0.50400001928E-02 0. -1.
    10030    2    1    2    0    0  0.00000000000E+00  0.00000000000E+00 -0.33515708087E+03  0.77709058881E+03  0.70109879073E+03 0.  0.
        1    1    3    3  502    0  0.17249953566E+03 -0.28281708690E+03 -0.40508145582E+02  0.33374017488E+03  0.50400001928E-02 0. -1.
       -1    1    3    3    0  502 -0.17249953566E+03  0.28281708690E+03 -0.29464893529E+03  0.44335041393E+03  0.50400001928E-02 0.  1.
</event>
<event>
 5   0  0.6689415E-03  0.6998549E+03  0.7818609E-02  0.9717480E-01
        1   -1    0    0  501    0  0.00000000000E+00  0.00000000000E+00  0.39439076666E+03  0.39439076669E+03  0.50400001928E-02 0. -1.
       -1   -1    0    0    0  501  0.00000000000E+00  0.00000000000E+00 -0.31047689728E+03  0.31047689733E+03  0.50400001928E-02 0.  1.
    10030    2    1    2    0    0  0.00000000000E+00  0.00000000000E+00  0.83913869376E+02  0.70486766402E+03  0.69985490375E+03 0.  0.
        1    1    3    3  502    0 -0.26444699442E+03  0.21779927155E+03  0.11374499307E+03  0.36098013660E+03  0.50400001928E-02 0.  1.
       -1    1    3    3    0  502  0.26444699442E+03 -0.21779927155E+03 -0.29831123696E+02  0.34388752742E+03  0.50400001928E-02 0. -1.
</event>
<event>
 5   0  0.6990118E-03  0.7047465E+03  0.7818609E-02  0.9709149E-01
       -1   -1    0    0    0  501  0.00000000000E+00  0.00000000000E+00  0.99117516310E+02  0.99117516438E+02  0.50400001928E-02 0.  1.
        1   -1    0    0  501    0  0.00000000000E+00  0.00000000000E+00 -0.12527240914E+04  0.12527240914E+04  0.50400001928E-02 0. -1.
    10030    2    1    2    0    0  0.00000000000E+00  0.00000000000E+00 -0.11536065751E+04  0.13518416078E+04  0.70474648109E+03 0.  0.
        5    1    3    3  502    0 -0.95279645092E+01 -0.20492653700E+02 -0.12512722876E+04  0.12514851812E+04  0.46999998093E+01 0. -1.
       -5    1    3    3    0  502  0.95279645092E+01  0.20492653700E+02  0.97665712548E+02  0.10035642665E+03  0.46999998093E+01 0.  1.
</event>
<event>
 5   0  0.6785252E-03  0.6908967E+03  0.7818609E-02  0.9732928E-01
       -1   -1    0    0    0  501  0.00000000000E+00  0.00000000000E+00  0.41377444457E+03  0.41377444460E+03  0.50400001928E-02 0.  1.
        1   -1    0    0  501    0  0.00000000000E+00  0.00000000000E+00 -0.28840484629E+03  0.28840484634E+03  0.50400001928E-02 0. -1.
    10030    2    1    2    0    0  0.00000000000E+00  0.00000000000E+00  0.12536959827E+03  0.70217929093E+03  0.69089667856E+03 0.  0.
        3    1    3    3  502    0  0.25682983871E+03  0.33762014397E+02 -0.16959307074E+03  0.30961792505E+03  0.10100000352E+00 0. -1.
       -3    1    3    3    0  502 -0.25682983871E+03 -0.33762014397E+02  0.29496266902E+03  0.39256136588E+03  0.10100000352E+00 0.  1.
</event>
<event>
 5   0  0.6609285E-03  0.7019303E+03  0.7818609E-02  0.9713937E-01
        1   -1    0    0  501    0  0.00000000000E+00  0.00000000000E+00  0.13324442483E+04  0.13324442483E+04  0.50400001928E-02 0.  1.
       -1   -1    0    0    0  501  0.00000000000E+00  0.00000000000E+00 -0.92444045154E+02  0.92444045291E+02  0.50400001928E-02 0. -1.
    10030    2    1    2    0    0  0.00000000000E+00  0.00000000000E+00  0.12400002031E+04  0.14248882936E+04  0.70193029955E+03 0.  0.
        2    1    3    3  502    0  0.88251422988E+02  0.15372786578E+03  0.51008212919E+01  0.17733186053E+03  0.25500000920E-02 0. -1.
       -2    1    3    3    0  502 -0.88251422988E+02 -0.15372786578E+03  0.12348993818E+04  0.12475564330E+04  0.25500000920E-02 0.  1.
</event>
<event>
 5   0  0.6609285E-03  0.6997149E+03  0.7818609E-02  0.9717720E-01
       -1   -1    0    0    0  501  0.00000000000E+00  0.00000000000E+00  0.12335211566E+03  0.12335211576E+03  0.50400001928E-02 0. -1.
        1   -1    0    0  501    0  0.00000000000E+00  0.00000000000E+00 -0.99228333024E+03  0.99228333025E+03  0.50400001928E-02 0.  1.
    10030    2    1    2    0    0  0.00000000000E+00  0.00000000000E+00 -0.86893121458E+03  0.11156354460E+04  0.69971493677E+03 0.  0.
        2    1    3    3  502    0  0.19100259889E+03 -0.29038097699E+03 -0.37074599244E+03  0.50818864164E+03  0.25500000920E-02 0.  1.
       -2    1    3    3    0  502 -0.19100259889E+03  0.29038097699E+03 -0.49818522214E+03  0.60744680438E+03  0.25500000920E-02 0. -1.
</event>
<event>
 5   0  0.6609285E-03  0.6995792E+03  0.7818609E-02  0.9717952E-01
        1   -1    0    0  501    0  0.00000000000E+00  0.00000000000E+00  0.20172758156E+03  0.20172758162E+03  0.50400001928E-02 0. -1.
       -1   -1    0    0    0  501  0.00000000000E+00  0.00000000000E+00 -0.60652465056E+03  0.60652465058E+03  0.50400001928E-02 0.  1.
    10030    2    1    2    0    0  0.00000000000E+00  0.00000000000E+00 -0.40479706900E+03  0.80825223220E+03  0.69957916192E+03 0.  0.
        2    1    3    3  502    0  0.11740427588E+03 -0.12146900748E+02 -0.58282229379E+03  0.59465379620E+03  0.25500000920E-02 0.  1.
       -2    1    3    3    0  502 -0.11740427588E+03  0.12146900748E+02  0.17802522479E+03  0.21359843600E+03  0.25500000920E-02 0. -1.
</event>
<event>
 5   0  0.1099980E-02  0.7001248E+03  0.7818609E-02  0.9717019E-01
       -2   -1    0    0    0  501  0.00000000000E+00  0.00000000000E+00  0.66325169251E+03  0.66325169251E+03  0.25500000920E-02 0. -1.
        2   -1    0    0  501    0  0.00000000000E+00  0.00000000000E+00 -0.18476198448E+03  0.18476198449E+03  0.25500000920E-02 0.  1.
    10030    2    1    2    0    0  0.00000000000E+00  0.00000000000E+00  0.47848970803E+03  0.84801367701E+03  0.70012484294E+03 0.  0.
        5    1    3    3  502    0  0.39744380996E+02 -0.27317428307E+03 -0.21431326881E+02  0.27692092106E+03  0.46999998093E+01 0.  1.
       -5    1    3    3    0  502 -0.39744380996E+02  0.27317428307E+03  0.49992103491E+03  0.57109275595E+03  0.46999998093E+01 0. -1.
</event>
<event>
 5   0  0.6689415E-03  0.7015904E+03  0.7818609E-02  0.9714516E-01
        1   -1    0    0  501    0  0.00000000000E+00  0.00000000000E+00  0.33743166601E+03  0.33743166605E+03  0.50400001928E-02 0. -1.
       -1   -1    0    0    0  501  0.00000000000E+00  0.00000000000E+00 -0.36468794010E+03  0.36468794014E+03  0.50400001928E-02 0.  1.
    10030    2    1    2    0    0  0.00000000000E+00  0.00000000000E+00 -0.27256274095E+02  0.70211960619E+03  0.70159036261E+03 0.  0.
        1    1    3    3  502    0 -0.33958130895E+02 -0.89873388577E+02 -0.35126503313E+03  0.36416686306E+03  0.50400001928E-02 0.  1.
       -1    1    3    3    0  502  0.33958130895E+02  0.89873388577E+02  0.32400875903E+03  0.33795274312E+03  0.50400001928E-02 0. -1.
</event>
<event>
 5   0  0.6990118E-03  0.7088285E+03  0.7818609E-02  0.9702252E-01
       -1   -1    0    0    0  501  0.00000000000E+00  0.00000000000E+00  0.24780903401E+03  0.24780903406E+03  0.50400001928E-02 0.  1.
        1   -1    0    0  501    0  0.00000000000E+00  0.00000000000E+00 -0.50688008269E+03  0.50688008271E+03  0.50400001928E-02 0. -1.
    10030    2    1    2    0    0  0.00000000000E+00  0.00000000000E+00 -0.25907104868E+03  0.75468911678E+03  0.70882850868E+03 0.  0.
        5    1    3    3  502    0  0.26699219765E+02  0.30127472306E+03 -0.32616809725E+03  0.44484494462E+03  0.46999998093E+01 0. -1.
       -5    1    3    3    0  502 -0.26699219765E+02 -0.30127472306E+03  0.67097048575E+02  0.30984417215E+03  0.46999998093E+01 0.  1.
</event>
<event>
 5   0  0.1119786E-02  0.6989764E+03  0.7818609E-02  0.9718984E-01
       -2   -1    0    0    0  501  0.00000000000E+00  0.00000000000E+00  0.15099138796E+03  0.15099138798E+03  0.25500000920E-02 0.  1.
        2   -1    0    0  501    0  0.00000000000E+00  0.00000000000E+00 -0.80893347364E+03  0.80893347364E+03  0.25500000920E-02 0. -1.
    10030    2    1    2    0    0  0.00000000000E+00  0.00000000000E+00 -0.65794208568E+03  0.95992486162E+03  0.69897636000E+03 0.  0.
        3    1    3    3  502    0 -0.50960074805E+01 -0.16918725665E+03 -0.74888589489E+03  0.76777626355E+03  0.10100000352E+00 0. -1.
       -3    1    3    3    0  502  0.50960074805E+01  0.16918725665E+03  0.90943809208E+02  0.19214859807E+03  0.10100000352E+00 0.  1.
</event>
<event>
 5   0  0.6246998E-03  0.6972238E+03  0.7818609E-02  0.9721992E-01
       -1   -1    0    0    0  501  0.00000000000E+00  0.00000000000E+00  0.24928039075E+03  0.24928039080E+03  0.50400001928E-02 0. -1.
        1   -1    0    0  501    0  0.00000000000E+00  0.00000000000E+00 -0.48752439177E+03  0.48752439179E+03  0.50400001928E-02 0.  1.
    10030    2    1    2    0    0  0.00000000000E+00  0.00000000000E+00 -0.23824400102E+03  0.73680478259E+03  0.69722384040E+03 0.  0.
        4    1    3    3  502    0  0.22477273154E+03 -0.70605214010E+00  0.16247357799E+03  0.27734915864E+03  0.12699999809E+01 0. -1.
       -4    1    3    3    0  502 -0.22477273154E+03  0.70605214010E+00 -0.40071757901E+03  0.45945562395E+03  0.12699999809E+01 0.  1.
</event>
<event>
 5   0  0.1100119E-02  0.7021597E+03  0.7818609E-02  0.9713546E-01
       -2   -1    0    0    0  501  0.00000000000E+00  0.00000000000E+00  0.73309496466E+02  0.73309496510E+02  0.25500000920E-02 0. -1.
        2   -1    0    0  501    0  0.00000000000E+00  0.00000000000E+00 -0.16813245516E+04  0.16813245516E+04  0.25500000920E-02 0.  1.
    10030    2    1    2    0    0  0.00000000000E+00  0.00000000000E+00 -0.16080150552E+04  0.17546340481E+04  0.70215968644E+03 0.  0.
        4    1    3    3  502    0  0.23248531333E+03  0.24397875026E+03 -0.55814228868E+03  0.65199653282E+03  0.12699999809E+01 0. -1.
       -4    1    3    3    0  502 -0.23248531333E+03 -0.24397875026E+03 -0.10498727665E+04  0.11026375153E+04  0.12699999809E+01 0.  1.
</event>
<event>
 5   0  0.1109788E-02  0.6971158E+03  0.7818609E-02  0.9722177E-01
       -2   -1    0    0    0  501  0.00000000000E+00  0.00000000000E+00  0.19666150256E+03  0.19666150257E+03  0.25500000920E-02 0.  1.
        2   -1    0    0  501    0  0.00000000000E+00  0.00000000000E+00 -0.61777529483E+03  0.61777529483E+03  0.25500000920E-02 0. -1.
    10030    2    1    2    0    0  0.00000000000E+00  0.00000000000E+00 -0.42111379227E+03  0.81443679740E+03  0.69711582318E+03 0.  0.
        1    1    3    3  502    0 -0.24595568960E+02  0.97478150424E+02 -0.60046937861E+03  0.60882707438E+03  0.50400001928E-02 0. -1.
       -1    1    3    3    0  502  0.24595568960E+02 -0.97478150424E+02  0.17935558634E+03  0.20560972302E+03  0.50400001928E-02 0.  1.
</event>
<event>
 5   0  0.6689415E-03  0.7009185E+03  0.7818609E-02  0.9715663E-01
        1   -1    0    0  501    0  0.00000000000E+00  0.00000000000E+00  0.17675220044E+04  0.17675220044E+04  0.50400001928E-02 0. -1.
       -1   -1    0    0    0  501  0.00000000000E+00  0.00000000000E+00 -0.69488072825E+02  0.69488073008E+02  0.50400001928E-02 0.  1.
    10030    2    1    2    0    0  0.00000000000E+00  0.00000000000E+00  0.16980339316E+04  0.18370100774E+04  0.70091853431E+03 0.  0.
        1    1    3    3  502    0  0.26395196387E+03 -0.30405719763E+02  0.14479657218E+04  0.14721412564E+04  0.50400001928E-02 0. -1.
       -1    1    3    3    0  502 -0.26395196387E+03  0.30405719763E+02  0.25006820971E+03  0.36486882103E+03  0.50400001928E-02 0.  1.
</event>
<event>
 5   0  0.1119786E-02  0.6974899E+03  0.7818609E-02  0.9721534E-01
        2   -1    0    0  501    0  0.00000000000E+00  0.00000000000E+00  0.37383701754E+03  0.37383701754E+03  0.25500000920E-02 0.  1.
       -2   -1    0    0    0  501  0.00000000000E+00  0.00000000000E+00 -0.32533705111E+03  0.32533705112E+03  0.25500000920E-02 0. -1.
    10030    2    1    2    0    0  0.00000000000E+00  0.00000000000E+00  0.48499966421E+02  0.69917406867E+03  0.69748987918E+03 0.  0.
        3    1    3    3  502    0 -0.21230423359E+03  0.22478679430E+03  0.18594922868E+03  0.36080370888E+03  0.10100000352E+00 0.  1.
       -3    1    3    3    0  502  0.21230423359E+03 -0.22478679430E+03 -0.13744926226E+03  0.33837035979E+03  0.10100000352E+00 0. -1.
</event>
<event>
 5   0  0.6246998E-03  0.6927561E+03  0.7818609E-02  0.9729701E-01
        1   -1    0    0  501    0  0.00000000000E+00  0.00000000000E+00  0.11727601848E+03  0.11727601859E+03  0.50400001928E-02 0.  1.
       -1   -1    0    0    0  501  0.00000000000E+00  0.00000000000E+00 -0.10230374264E+04  0.10230374264E+04  0.50400001928E-02 0. -1.
    10030    2    1    2    0    0  0.00000000000E+00  0.00000000000E+00 -0.90576140794E+03  0.11403134450E+04  0.69275610771E+03 0.  0.
        4    1    3    3  502    0  0.77310461215E+02  0.43683730649E+02 -0.10039791552E+04  0.10078992671E+04  0.12699999809E+01 0. -1.
       -4    1    3    3    0  502 -0.77310461215E+02 -0.43683730649E+02  0.98217747232E+02  0.13241417790E+03  0.12699999809E+01 0.  1.
</event>
<event>
 5   0  0.1079446E-02  0.7022663E+03  0.7818609E-02  0.9713364E-01
        2   -1    0    0  501    0  0.00000000000E+00  0.00000000000E+00  0.60583442032E+03  0.60583442032E+03  0.25500000920E-02 0. -1.
       -2   -1    0    0    0  501  0.00000000000E+00  0.00000000000E+00 -0.20351183786E+03  0.20351183788E+03  0.25500000920E-02 0.  1.
    10030    2    1    2    0    0  0.00000000000E+00  0.00000000000E+00  0.40232258246E+03  0.80934625820E+03  0.70226626383E+03 0.  0.
        2    1    3    3  502    0 -0.21219020719E+03 -0.19057395485E+03  0.43721214730E+03  0.52201300563E+03  0.25500000920E-02 0.  1.
       -2    1    3    3    0  502  0.21219020719E+03  0.19057395485E+03 -0.34889564844E+02  0.28733325257E+03  0.25500000920E-02 0. -1.
</event>
<event>
 5   0  0.6246998E-03  0.7027817E+03  0.7818609E-02  0.9712487E-01
        1   -1    0    0  501    0  0.00000000000E+00  0.00000000000E+00  0.21219674534E+03  0.21219674540E+03  0.50400001928E-02 0.  1.
       -1   -1    0    0    0  501  0.00000000000E+00  0.00000000000E+00 -0.58189176269E+03  0.58189176271E+03  0.50400001928E-02 0. -1.
    10030    2    1    2    0    0  0.00000000000E+00  0.00000000000E+00 -0.36969501735E+03  0.79408850812E+03  0.70278172491E+03 0.  0.
        4    1    3    3  502    0 -0.23632519110E+03 -0.25958445138E+03 -0.20236100655E+03  0.40519781986E+03  0.12699999809E+01 0.  1.
       -4    1    3    3    0  502  0.23632519110E+03  0.25958445138E+03 -0.16733401079E+03  0.38889068826E+03  0.12699999809E+01 0. -1.
</event>
<event>
 5   0  0.6246998E-03  0.6984967E+03  0.7818609E-02  0.9719807E-01
        1   -1    0    0  501    0  0.00000000000E+00  0.00000000000E+00  0.11665085441E+04  0.11665085441E+04  0.50400001928E-02 0. -1.
       -1   -1    0    0    0  501  0.00000000000E+00  0.00000000000E+00 -0.10456365674E+03  0.10456365687E+03  0.50400001928E-02 0.  1.
    10030    2    1    2    0    0  0.00000000000E+00  0.00000000000E+00  0.10619448873E+04  0.12710722010E+04  0.69849666879E+03 0.  0.
        4    1    3    3  502    0  0.23983097247E+03 -0.11567235614E+03  0.11972335018E+03  0.29194910997E+03  0.12699999809E+01 0.  1.
       -4    1    3    3    0  502 -0.23983097247E+03  0.11567235614E+03  0.94222153715E+03  0.97912309099E+03  0.12699999809E+01 0. -1.
</event>
<event>
 5   0  0.6609285E-03  0.7002582E+03  0.7818609E-02  0.9716791E-01
       -1   -1    0    0    0  501  0.00000000000E+00  0.00000000000E+00  0.18557316202E+03  0.18557316209E+03  0.50400001928E-02 0. -1.
        1   -1    0    0  501    0  0.00000000000E+00  0.00000000000E+00 -0.66060403979E+03  0.66060403981E+03  0.50400001928E-02 0.  1.
    10030    2    1    2    0    0  0.00000000000E+00  0.00000000000E+00 -0.47503087777E+03  0.84617720190E+03  0.70025818251E+03 0.  0.
        2    1    3    3  502    0  0.22505025731E+03 -0.97029573722E+01 -0.56141646799E+03  0.60492166123E+03  0.25500000920E-02 0.  1.
       -2    1    3    3    0  502 -0.22505025731E+03  0.97029573722E+01  0.86385590214E+02  0.24125554066E+03  0.25500000920E-02 0. -1.
</event>
<event>
 5   0  0.1079446E-02  0.6995530E+03  0.7818609E-02  0.9717997E-01
        2   -1    0    0  501    0  0.00000000000E+00  0.00000000000E+00  0.61484814339E+03  0.61484814340E+03  0.25500000920E-02 0.  1.
       -2   -1    0    0    0  501  0.00000000000E+00  0.00000000000E+00 -0.19898184244E+03  0.19898184246E+03  0.25500000920E-02 0. -1.
    10030    2    1    2    0    0  0.00000000000E+00  0.00000000000E+00  0.41586630095E+03  0.81382998585E+03  0.69955304703E+03 0.  0.
        2    1    3    3  502    0  0.23353961072E+03  0.13971272316E+03 -0.47696458032E+02  0.27628852112E+03  0.25500000920E-02 0.  1.
       -2    1    3    3    0  502 -0.23353961072E+03 -0.13971272316E+03  0.46356275899E+03  0.53754146474E+03  0.25500000920E-02 0. -1.
</event>
<event>
 5   0  0.1109788E-02  0.6734897E+03  0.7818609E-02  0.9763674E-01
       -2   -1    0    0    0  501  0.00000000000E+00  0.00000000000E+00  0.34167751251E+03  0.34167751252E+03  0.25500000920E-02 0.  1.
        2   -1    0    0  501    0  0.00000000000E+00  0.00000000000E+00 -0.33188344744E+03  0.33188344744E+03  0.25500000920E-02 0. -1.
    10030    2    1    2    0    0  0.00000000000E+00  0.00000000000E+00  0.97940650778E+01  0.67356095997E+03  0.67348974980E+03 0.  0.
        1    1    3    3  502    0  0.22139506669E+03 -0.13783908388E+03 -0.20815535387E+03  0.33368254370E+03  0.50400001928E-02 0. -1.
       -1    1    3    3    0  502 -0.22139506669E+03  0.13783908388E+03  0.21794941895E+03  0.33987841627E+03  0.50400001928E-02 0.  1.
</event>
<event>
 5   0  0.1099980E-02  0.7010804E+03  0.7818609E-02  0.9715386E-01
        2   -1    0    0  501    0  0.00000000000E+00  0.00000000000E+00  0.17706792162E+04  0.17706792162E+04  0.25500000920E-02 0.  1.
       -2   -1    0    0    0  501  0.00000000000E+00  0.00000000000E+00 -0.69396218783E+02  0.69396218830E+02  0.25500000920E-02 0. -1.
    10030    2    1    2    0    0  0.00000000000E+00  0.00000000000E+00  0.17012829974E+04  0.18400754350E+04  0.70108042999E+03 0.  0.
        5    1    3    3  502    0  0.16908807568E+03  0.11391944476E+03  0.10233273919E+03  0.22817207704E+03  0.46999998093E+01 0. -1.
       -5    1    3    3    0  502 -0.16908807568E+03 -0.11391944476E+03  0.15989502582E+04  0.16119033580E+04  0.46999998093E+01 0.  1.
</event>
<event>
 5   0  0.1109788E-02  0.7021420E+03  0.7818609E-02  0.9713576E-01
        2   -1    0    0  501    0  0.00000000000E+00  0.00000000000E+00  0.22528265806E+04  0.22528265806E+04  0.25500000920E-02 0. -1.
       -2   -1    0    0    0  501  0.00000000000E+00  0.00000000000E+00 -0.54709428704E+02  0.54709428764E+02  0.25500000920E-02 0.  1.
    10030    2    1    2    0    0  0.00000000000E+00  0.00000000000E+00  0.21981171519E+04  0.23075360094E+04  0.70214202343E+03 0.  0.
        1    1    3    3  502    0 -0.18909182344E+03 -0.27859737208E+03  0.77241649024E+03  0.84261464967E+03  0.50400001928E-02 0.  1.
       -1    1    3    3    0  502  0.18909182344E+03  0.27859737208E+03  0.14257006617E+04  0.14649213597E+04  0.50400001928E-02 0. -1.
</event>
<event>
 5   0  0.6689415E-03  0.7018025E+03  0.7818609E-02  0.9714155E-01
       -1   -1    0    0    0  501  0.00000000000E+00  0.00000000000E+00  0.27557591563E+03  0.27557591568E+03  0.50400001928E-02 0. -1.
        1   -1    0    0  501    0  0.00000000000E+00  0.00000000000E+00 -0.44681584257E+03  0.44681584260E+03  0.50400001928E-02 0.  1.
    10030    2    1    2    0    0  0.00000000000E+00  0.00000000000E+00 -0.17123992694E+03  0.72239175828E+03  0.70180249348E+03 0.  0.
        1    1    3    3  502    0  0.27325532004E+03 -0.18884615531E+03  0.30837870114E+02  0.33359003967E+03  0.50400001928E-02 0.  1.
       -1    1    3    3    0  502 -0.27325532004E+03  0.18884615531E+03 -0.20207779706E+03  0.38880171861E+03  0.50400001928E-02 0. -1.
</event>
<event>
 5   0  0.1099980E-02  0.6940740E+03  0.7818609E-02  0.9727420E-01
        2   -1    0    0  501    0  0.00000000000E+00  0.00000000000E+00  0.55233049685E+03  0.55233049685E+03  0.25500000920E-02 0. -1.
       -2   -1    0    0    0  501  0.00000000000E+00  0.00000000000E+00 -0.21804821673E+03  0.21804821674E+03  0.25500000920E-02 0.  1.
    10030    2    1    2    0    0  0.00000000000E+00  0.00000000000E+00  0.33428228012E+03  0.77037871359E+03  0.69407400150E+03 0.  0.
        5    1    3    3  502    0 -0.20461211546E+03  0.19626116895E+03  0.38920637930E+03  0.48154777532E+03  0.46999998093E+01 0. -1.
       -5    1    3    3    0  502  0.20461211546E+03 -0.19626116895E+03 -0.54924099184E+02  0.28883093827E+03  0.46999998093E+01 0.  1.
</event>
<event>
 5   0  0.6990118E-03  0.7001914E+03  0.7818609E-02  0.9716905E-01
        1   -1    0    0  501    0  0.00000000000E+00  0.00000000000E+00  0.33091000195E+03  0.33091000199E+03  0.50400001928E-02 0. -1.
       -1   -1    0    0    0  501  0.00000000000E+00  0.00000000000E+00 -0.37039372798E+03  0.37039372802E+03  0.50400001928E-02 0.  1.
    10030    2    1    2    0    0  0.00000000000E+00  0.00000000000E+00 -0.39483726038E+02  0.70130373000E+03  0.70019137177E+03 0.  0.
        5    1    3    3  502    0  0.43992820002E+02  0.29013103706E+03 -0.21092074383E+03  0.36141532487E+03  0.46999998093E+01 0.  1.
       -5    1    3    3    0  502 -0.43992820002E+02 -0.29013103706E+03  0.17143701779E+03  0.33988840513E+03  0.46999998093E+01 0. -1.
</event>
<event>
 5   0  0.1100119E-02  0.7001374E+03  0.7818609E-02  0.9716997E-01
       -2   -1    0    0    0  501  0.00000000000E+00  0.00000000000E+00  0.22774444053E+03  0.22774444054E+03  0.25500000920E-02 0. -1.
        2   -1    0    0  501    0  0.00000000000E+00  0.00000000000E+00 -0.53809476283E+03  0.53809476283E+03  0.25500000920E-02 0.  1.
    10030    2    1    2    0    0  0.00000000000E+00  0.00000000000E+00 -0.31035032230E+03  0.76583920338E+03  0.70013738858E+03 0.  0.
        4    1    3    3  502    0 -0.19152241160E+03 -0.29134341052E+03 -0.12085118012E+03  0.36901007795E+03  0.12699999809E+01 0. -1.
       -4    1    3    3    0  502  0.19152241160E+03  0.29134341052E+03 -0.18949914218E+03  0.39682912542E+03  0.12699999809E+01 0.  1.
</event>
<event>
 5   0  0.1100119E-02  0.7026925E+03  0.7818609E-02  0.9712639E-01
        2   -1    0    0  501    0  0.00000000000E+00  0.00000000000E+00  0.13514670475E+04  0.13514670475E+04  0.25500000920E-02 0. -1.
       -2   -1    0    0    0  501  0.00000000000E+00  0.00000000000E+00 -0.91340883214E+02  0.91340883249E+02  0.25500000920E-02 0.  1.
    10030    2    1    2    0    0  0.00000000000E+00  0.00000000000E+00  0.12601261643E+04  0.14428079307E+04  0.70269251818E+03 0.  0.
        4    1    3    3  502    0  0.26916243415E+03 -0.88218362651E+02  0.20324403273E+03  0.34862679933E+03  0.12699999809E+01 0. -1.
       -4    1    3    3    0  502 -0.26916243415E+03  0.88218362651E+02  0.10568821315E+04  0.10941811314E+04  0.12699999809E+01 0.  1.
</event>
<event>
 5   0  0.4440500E-03  0.7009575E+03  0.7818609E-02  0.9715596E-01
        4   -1    0    0  501    0  0.00000000000E+00  0.00000000000E+00  0.73639021535E+03  0.73639131049E+03  0.12699999809E+01 0.  1.
       -4   -1    0    0    0  501  0.00000000000E+00  0.00000000000E+00 -0.16680379654E+03  0.16680863119E+03  0.12699999809E+01 0. -1.
    10030    2    1    2    0    0  0.00000000000E+00  0.00000000000E+00  0.56958641881E+03  0.90319994168E+03  0.70095752094E+03 0.  0.
        3    1    3    3  502    0 -0.15844701088E+03  0.35119149121E+02  0.68505863229E+03  0.70401999245E+03  0.10100000352E+00 0.  1.
       -3    1    3    3    0  502  0.15844701088E+03 -0.35119149121E+02 -0.11547221348E+03  0.19917994924E+03  0.10100000352E+00 0. -1.
</event>
<event>
 5   0  0.4440500E-03  0.6994631E+03  0.7818609E-02  0.9718151E-01
        3   -1    0    0  501    0  0.00000000000E+00  0.00000000000E+00  0.19809384816E+03  0.19809387390E+03  0.10100000352E+00 0.  1.
       -3   -1    0    0    0  501  0.00000000000E+00  0.00000000000E+00 -0.61744547928E+03  0.61744548754E+03  0.10100000352E+00 0. -1.
    10030    2    1    2    0    0  0.00000000000E+00  0.00000000000E+00 -0.41935163112E+03  0.81553936144E+03  0.69946312236E+03 0.  0.
        1    1    3    3  502    0 -0.21341085579E+03 -0.17483869189E+03 -0.46028575283E+03  0.53663370732E+03  0.50400001928E-02 0. -1.
       -1    1    3    3    0  502  0.21341085579E+03  0.17483869189E+03  0.40934121712E+02  0.27890565412E+03  0.50400001928E-02 0.  1.
</event>
<event>
 5   0  0.6689415E-03  0.7035697E+03  0.7818609E-02  0.9711147E-01
        1   -1    0    0  501    0  0.00000000000E+00  0.00000000000E+00  0.27127707102E+03  0.27127707107E+03  0.50400001928E-02 0. -1.
       -1   -1    0    0    0  501  0.00000000000E+00  0.00000000000E+00 -0.45618519699E+03  0.45618519702E+03  0.50400001928E-02 0.  1.
    10030    2    1    2    0    0  0.00000000000E+00  0.00000000000E+00 -0.18490812596E+03  0.72746226809E+03  0.70356970973E+03 0.  0.
        1    1    3    3  502    0 -0.17205639786E+03  0.15530878561E+03  0.18116120006E+03  0.29418294200E+03  0.50400001928E-02 0. -1.
       -1    1    3    3    0  502  0.17205639786E+03 -0.15530878561E+03 -0.36606932602E+03  0.43327932609E+03  0.50400001928E-02 0.  1.
</event>
<event>
 5   0  0.6990118E-03  0.6971051E+03  0.7818609E-02  0.9722196E-01
       -1   -1    0    0    0  501  0.00000000000E+00  0.00000000000E+00  0.28357785038E+03  0.28357785043E+03  0.50400001928E-02 0.  1.
        1   -1    0    0  501    0  0.00000000000E+00  0.00000000000E+00 -0.42841458677E+03  0.42841458680E+03  0.50400001928E-02 0. -1.
    10030    2    1    2    0    0  0.00000000000E+00  0.00000000000E+00 -0.14483673639E+03  0.71199243723E+03  0.69710512153E+03 0.  0.
        5    1    3    3  502    0  0.86297181003E+02 -0.22546291102E+02  0.27169106426E+03  0.28599591446E+03  0.46999998093E+01 0.  1.
       -5    1    3    3    0  502 -0.86297181003E+02  0.22546291102E+02 -0.41652780066E+03  0.42599652277E+03  0.46999998093E+01 0. -1.
</event>
<event>
 5   0  0.1100119E-02  0.7013313E+03  0.7818609E-02  0.9714958E-01
       -2   -1    0    0    0  501  0.00000000000E+00  0.00000000000E+00  0.11440721486E+03  0.11440721488E+03  0.25500000920E-02 0.  1.
        2   -1    0    0  501    0  0.00000000000E+00  0.00000000000E+00 -0.10748132382E+04  0.10748132382E+04  0.25500000920E-02 0. -1.
    10030    2    1    2    0    0  0.00000000000E+00  0.00000000000E+00 -0.96040602335E+03  0.11892204531E+04  0.70133127434E+03 0.  0.
        4    1    3    3  502    0  0.24338344807E+03  0.40096654295E+01 -0.90821295605E+03  0.94026802915E+03  0.12699999809E+01 0. -1.
       -4    1    3    3    0  502 -0.24338344807E+03 -0.40096654295E+01 -0.52193067301E+02  0.24895242394E+03  0.12699999809E+01 0.  1.
</event>
<event>
 5   0  0.1099980E-02  0.7153934E+03  0.7818609E-02  0.9691264E-01
        2   -1    0    0  501    0  0.00000000000E+00  0.00000000000E+00  0.63683058094E+03  0.63683058095E+03  0.25500000920E-02 0.  1.
       -2   -1    0    0    0  501  0.00000000000E+00  0.00000000000E+00 -0.20091206412E+03  0.20091206414E+03  0.25500000920E-02 0. -1.
    10030    2    1    2    0    0  0.00000000000E+00  0.00000000000E+00  0.43591851682E+03  0.83774264508E+03  0.71539344845E+03 0.  0.
        5    1    3    3  502    0 -0.16230351825E+03  0.31234639063E+03  0.29222613524E+03  0.45751601491E+03  0.46999998093E+01 0. -1.
       -5    1    3    3    0  502  0.16230351825E+03 -0.31234639063E+03  0.14369238158E+03  0.38022663018E+03  0.46999998093E+01 0.  1.
</event>
<event>
 5   0  0.1109788E-02  0.6982462E+03  0.7818609E-02  0.9720236E-01
        2   -1    0    0  501    0  0.00000000000E+00  0.00000000000E+00  0.14706954369E+04  0.14706954369E+04  0.25500000920E-02 0. -1.
       -2   -1    0    0    0  501  0.00000000000E+00  0.00000000000E+00 -0.82877074707E+02  0.82877074747E+02  0.25500000920E-02 0.  1.
    10030    2    1    2    0    0  0.00000000000E+00  0.00000000000E+00  0.13878183622E+04  0.15535725116E+04  0.69824619047E+03 0.  0.
        1    1    3    3  502    0  0.65853382855E+02  0.34181661567E+03  0.75326481149E+03  0.82980910035E+03  0.50400001928E-02 0. -1.
       -1    1    3    3    0  502 -0.65853382855E+02 -0.34181661567E+03  0.63455355067E+03  0.72376341126E+03  0.50400001928E-02 0.  1.
</event>
<event>
 5   0  0.1109788E-02  0.6958396E+03  0.7818609E-02  0.9724374E-01
       -2   -1    0    0    0  501  0.00000000000E+00  0.00000000000E+00  0.78478315739E+02  0.78478315780E+02  0.25500000920E-02 0. -1.
        2   -1    0    0  501    0  0.00000000000E+00  0.00000000000E+00 -0.15424413365E+04  0.15424413365E+04  0.25500000920E-02 0.  1.
    10030    2    1    2    0    0  0.00000000000E+00  0.00000000000E+00 -0.14639630208E+04  0.16209196523E+04  0.69583963167E+03 0.  0.
        1    1    3    3  502    0  0.22762879790E+03  0.61657796742E+02 -0.13611874784E+03  0.27229555096E+03  0.50400001928E-02 0. -1.
       -1    1    3    3    0  502 -0.22762879790E+03 -0.61657796742E+02 -0.13278442729E+04  0.13486241014E+04  0.50400001928E-02 0.  1.
</event>
<event>
 5   0  0.6990118E-03  0.7006466E+03  0.7818609E-02  0.9716127E-01
        1   -1    0    0  501    0  0.00000000000E+00  0.00000000000E+00  0.48902481027E+03  0.48902481029E+03  0.50400001928E-02 0.  1.
       -1   -1    0    0    0  501  0.00000000000E+00  0.00000000000E+00 -0.25096151563E+03  0.25096151568E+03  0.50400001928E-02 0. -1.
    10030    2    1    2    0    0  0.00000000000E+00  0.00000000000E+00  0.23806329464E+03  0.73998632598E+03  0.70064658022E+03 0.  0.
        5    1    3    3  502    0 -0.15643611255E+03 -0.31238341185E+03  0.92132737285E+02  0.36133943126E+03  0.46999998093E+01 0. -1.
       -5    1    3    3    0  502  0.15643611255E+03  0.31238341185E+03  0.14593055735E+03  0.37864689471E+03  0.46999998093E+01 0.  1.
</event>
<event>
 5   0  0.6990118E-03  0.6994635E+03  0.7818609E-02  0.9718150E-01
       -1   -1    0    0    0  501  0.00000000000E+00  0.00000000000E+00  0.50635068571E+03  0.50635068573E+03  0.50400001928E-02 0.  1.
        1   -1    0    0  501    0  0.00000000000E+00  0.00000000000E+00 -0.24155648963E+03  0.24155648968E+03  0.50400001928E-02 0. -1.
    10030    2    1    2    0    0  0.00000000000E+00  0.00000000000E+00  0.26479419608E+03  0.74790717541E+03  0.69946349208E+03 0.  0.
        5    1    3    3  502    0  0.33236048853E+03 -0.26343047572E+02  0.24521654033E+03  0.41389695836E+03  0.46999998093E+01 0. -1.
       -5    1    3    3    0  502 -0.33236048853E+03  0.26343047572E+02  0.19577655752E+02  0.33401021705E+03  0.46999998093E+01 0.  1.
</event>
<event>
 5   0  0.1100119E-02  0.7015334E+03  0.7818609E-02  0.9714613E-01
       -2   -1    0    0    0  501  0.00000000000E+00  0.00000000000E+00  0.16082072920E+03  0.16082072922E+03  0.25500000920E-02 0. -1.
        2   -1    0    0  501    0  0.00000000000E+00  0.00000000000E+00 -0.76505855206E+03  0.76505855207E+03  0.25500000920E-02 0.  1.
    10030    2    1    2    0    0  0.00000000000E+00  0.00000000000E+00 -0.60423782286E+03  0.92587928129E+03  0.70153338976E+03 0.  0.
        4    1    3    3  502    0  0.15274996575E+03 -0.21118430336E+02 -0.71792118251E+03  0.73429624630E+03  0.12699999809E+01 0.  1.
       -4    1    3    3    0  502 -0.15274996575E+03  0.21118430336E+02  0.11368335965E+03  0.19158303499E+03  0.12699999809E+01 0. -1.
</event>
<event>
 5   0  0.6246998E-03  0.6969479E+03  0.7818609E-02  0.9722466E-01
        1   -1    0    0  501    0  0.00000000000E+00  0.00000000000E+00  0.32731000030E+03  0.32731000034E+03  0.50400001928E-02 0. -1.
       -1   -1    0    0    0  501  0.00000000000E+00  0.00000000000E+00 -0.37100635281E+03  0.37100635284E+03  0.50400001928E-02 0.  1.
    10030    2    1    2    0    0  0.00000000000E+00  0.00000000000E+00 -0.43696352509E+02  0.69831635318E+03  0.69694788751E+03 0.  0.
        4    1    3    3  502    0  0.39824932241E+01 -0.15043985961E+03 -0.33676526823E+03  0.36886375588E+03  0.12699999809E+01 0.  1.
       -4    1    3    3    0  502 -0.39824932241E+01  0.15043985961E+03  0.29306891572E+03  0.32945259731E+03  0.12699999809E+01 0. -1.
</event>
<event>
 5   0  0.1100119E-02  0.6984858E+03  0.7818609E-02  0.9719825E-01
       -2   -1    0    0    0  501  0.00000000000E+00  0.00000000000E+00  0.16362037461E+03  0.16362037463E+03  0.25500000920E-02 0. -1.
        2   -1    0    0  501    0  0.00000000000E+00  0.00000000000E+00 -0.74544868353E+03  0.74544868354E+03  0.25500000920E-02 0.  1.
    10030    2    1    2    0    0  0.00000000000E+00  0.00000000000E+00 -0.58182830892E+03  0.90906905817E+03  0.69848577041E+03 0.  0.
        4    1    3    3  502    0 -0.29939170556E+03 -0.15086202082E+03 -0.16356636632E+03  0.37302856696E+03  0.12699999809E+01 0. -1.
       -4    1    3    3    0  502  0.29939170556E+03  0.15086202082E+03 -0.41826194261E+03  0.53604049121E+03  0.12699999809E+01 0.  1.
</event>
<event>
 5   0  0.6785252E-03  0.6999973E+03  0.7818609E-02  0.9717237E-01
       -1   -1    0    0    0  501  0.00000000000E+00  0.00000000000E+00  0.27755408660E+03  0.27755408664E+03  0.50400001928E-02 0.  1.
        1   -1    0    0  501    0  0.00000000000E+00  0.00000000000E+00 -0.44135197173E+03  0.44135197176E+03  0.50400001928E-02 0. -1.
    10030    2    1    2    0    0  0.00000000000E+00  0.00000000000E+00 -0.16379788514E+03  0.71890605841E+03  0.69999726688E+03 0.  0.
        3    1    3    3  502    0 -0.22586102743E+03 -0.17063291510E+03  0.12950167411E+03  0.31128682790E+03  0.10100000352E+00 0.  1.
       -3    1    3    3    0  502  0.22586102743E+03  0.17063291510E+03 -0.29329955924E+03  0.40761923051E+03  0.10100000352E+00 0. -1.
</event>
<event>
 5   0  0.6246998E-03  0.7002032E+03  0.7818609E-02  0.9716885E-01
       -1   -1    0    0    0  501  0.00000000000E+00  0.00000000000E+00  0.14885189327E+03  0.14885189336E+03  0.50400001928E-02 0.  1.
        1   -1    0    0  501    0  0.00000000000E+00  0.00000000000E+00 -0.82344346256E+03  0.82344346258E+03  0.50400001928E-02 0. -1.
    10030    2    1    2    0    0  0.00000000000E+00  0.00000000000E+00 -0.67459156929E+03  0.97229535593E+03  0.70020316610E+03 0.  0.
        4    1    3    3  502    0  0.92034048125E+02 -0.47260709623E+02 -0.80172822280E+03  0.80837713774E+03  0.12699999809E+01 0. -1.
       -4    1    3    3    0  502 -0.92034048125E+02  0.47260709623E+02  0.12713665351E+03  0.16391821819E+03  0.12699999809E+01 0.  1.
</event>
<event>
 5   0  0.6609285E-03  0.7020103E+03  0.7818609E-02  0.9713800E-01
       -1   -1    0    0    0  501  0.00000000000E+00  0.00000000000E+00  0.43297403349E+03  0.43297403352E+03  0.50400001928E-02 0. -1.
        1   -1    0    0  501    0  0.00000000000E+00  0.00000000000E+00 -0.28455428709E+03  0.28455428713E+03  0.50400001928E-02 0.  1.
    10030    2    1    2    0    0  0.00000000000E+00  0.00000000000E+00  0.14841974640E+03  0.71752832065E+03  0.70201030606E+03 0.  0.
        2    1    3    3  502    0  0.15924477073E+03 -0.25295798274E+03  0.26228271098E+03  0.39766676819E+03  0.25500000920E-02 0. -1.
       -2    1    3    3    0  502 -0.15924477073E+03  0.25295798274E+03 -0.11386296458E+03  0.31986155247E+03  0.25500000920E-02 0.  1.
</event>
<event>
 5   0  0.1109788E-02  0.7018996E+03  0.7818609E-02  0.9713989E-01
        2   -1    0    0  501    0  0.00000000000E+00  0.00000000000E+00  0.30974183040E+03  0.30974183041E+03  0.25500000920E-02 0.  1.
       -2   -1    0    0    0  501  0.00000000000E+00  0.00000000000E+00 -0.39764002787E+03  0.39764002788E+03  0.25500000920E-02 0. -1.
    10030    2    1    2    0    0  0.00000000000E+00  0.00000000000E+00 -0.87898197472E+02  0.70738185829E+03  0.70189956569E+03 0.  0.
        1    1    3    3  502    0 -0.32712672781E+03 -0.29484170889E+02  0.80647187358E+02  0.33820878349E+03  0.50400001928E-02 0.  1.
       -1    1    3    3    0  502  0.32712672781E+03  0.29484170889E+02 -0.16854538483E+03  0.36917307479E+03  0.50400001928E-02 0. -1.
</event>
<event>
 5   0  0.6689415E-03  0.7019930E+03  0.7818609E-02  0.9713830E-01
        1   -1    0    0  501    0  0.00000000000E+00  0.00000000000E+00  0.30921857637E+03  0.30921857641E+03  0.50400001928E-02 0.  1.
       -1   -1    0    0    0  501  0.00000000000E+00  0.00000000000E+00 -0.39841895114E+03  0.39841895117E+03  0.50400001928E-02 0. -1.
    10030    2    1    2    0    0  0.00000000000E+00  0.00000000000E+00 -0.89200374765E+02  0.70763752758E+03  0.70199299397E+03 0.  0.
        1    1    3    3  502    0  0.60029803298E+02 -0.10021124341E+03  0.28904860899E+03  0.31176107675E+03  0.50400001928E-02 0.  1.
       -1    1    3    3    0  502 -0.60029803298E+02  0.10021124341E+03 -0.37824898375E+03  0.39587645083E+03  0.50400001928E-02 0. -1.
</event>
<event>
 5   0  0.1109788E-02  0.7037654E+03  0.7818609E-02  0.9710814E-01
       -2   -1    0    0    0  501  0.00000000000E+00  0.00000000000E+00  0.97342240199E+02  0.97342240233E+02  0.25500000920E-02 0.  1.
        2   -1    0    0  501    0  0.00000000000E+00  0.00000000000E+00 -0.12720217055E+04  0.12720217055E+04  0.25500000920E-02 0. -1.
    10030    2    1    2    0    0  0.00000000000E+00  0.00000000000E+00 -0.11746794653E+04  0.13693639457E+04  0.70376542234E+03 0.  0.
        1    1    3    3  502    0 -0.25025470581E+03 -0.28467237244E+02 -0.10654748169E+04  0.10948398910E+04  0.50400001928E-02 0. -1.
       -1    1    3    3    0  502  0.25025470581E+03  0.28467237244E+02 -0.10920464836E+03  0.27452405473E+03  0.50400001928E-02 0.  1.
</event>
<event>
 5   0  0.1079446E-02  0.7092455E+03  0.7818609E-02  0.9701550E-01
       -2   -1    0    0    0  501  0.00000000000E+00  0.00000000000E+00  0.78768340424E+02  0.78768340466E+02  0.25500000920E-02 0. -1.
        2   -1    0    0  501    0  0.00000000000E+00  0.00000000000E+00 -0.15965462532E+04  0.15965462532E+04  0.25500000920E-02 0.  1.
    10030    2    1    2    0    0  0.00000000000E+00  0.00000000000E+00 -0.15177779128E+04  0.16753145937E+04  0.70924551127E+03 0.  0.
        2    1    3    3  502    0  0.63797645657E+02  0.30025658827E+03 -0.33943587599E+03  0.45764710455E+03  0.25500000920E-02 0.  1.
       -2    1    3    3    0  502 -0.63797645657E+02 -0.30025658827E+03 -0.11783420368E+04  0.12176674891E+04  0.25500000920E-02 0. -1.
</event>
<event>
 5   0  0.1100119E-02  0.6981795E+03  0.7818609E-02  0.9720351E-01
       -2   -1    0    0    0  501  0.00000000000E+00  0.00000000000E+00  0.91352155979E+03  0.91352155980E+03  0.25500000920E-02 0.  1.
        2   -1    0    0  501    0  0.00000000000E+00  0.00000000000E+00 -0.13339985313E+03  0.13339985316E+03  0.25500000920E-02 0. -1.
    10030    2    1    2    0    0  0.00000000000E+00  0.00000000000E+00  0.78012170666E+03  0.10469214130E+04  0.69817946669E+03 0.  0.
        4    1    3    3  502    0  0.33209280366E+03  0.22226305380E+02  0.23220389597E+03  0.40583235590E+03  0.12699999809E+01 0.  1.
       -4    1    3    3    0  502 -0.33209280366E+03 -0.22226305380E+02  0.54791781069E+03  0.64108905705E+03  0.12699999809E+01 0. -1.
</event>
<event>
 5   0  0.6609285E-03  0.7180872E+03  0.7818609E-02  0.9686791E-01
        1   -1    0    0  501    0  0.00000000000E+00  0.00000000000E+00  0.81334000914E+03  0.81334000916E+03  0.50400001928E-02 0. -1.
       -1   -1    0    0    0  501  0.00000000000E+00  0.00000000000E+00 -0.15849744794E+03  0.15849744802E+03  0.50400001928E-02 0.  1.
    10030    2    1    2    0    0  0.00000000000E+00  0.00000000000E+00  0.65484256120E+03  0.97183745718E+03  0.71808722536E+03 0.  0.
        2    1    3    3  502    0 -0.70021226789E+02  0.31267997499E+03  0.10818969647E+03  0.33819631783E+03  0.25500000920E-02 0.  1.
       -2    1    3    3    0  502  0.70021226789E+02 -0.31267997499E+03  0.54665286472E+03  0.63364113935E+03  0.25500000920E-02 0. -1.
</event>
<event>
 5   0  0.6689415E-03  0.6969656E+03  0.7818609E-02  0.9722435E-01
        1   -1    0    0  501    0  0.00000000000E+00  0.00000000000E+00  0.91089134976E+03  0.91089134978E+03  0.50400001928E-02 0. -1.
       -1   -1    0    0    0  501  0.00000000000E+00  0.00000000000E+00 -0.13332025647E+03  0.13332025656E+03  0.50400001928E-02 0.  1.
    10030    2    1    2    0    0  0.00000000000E+00  0.00000000000E+00  0.77757109330E+03  0.10442116063E+04  0.69696561872E+03 0.  0.
        1    1    3    3  502    0 -0.20542571608E+03  0.26126875898E+03  0.23179912258E+03  0.40520602476E+03  0.50400001928E-02 0.  1.
       -1    1    3    3    0  502  0.20542571608E+03 -0.26126875898E+03  0.54577197072E+03  0.63900558158E+03  0.50400001928E-02 0. -1.
</event>
<event>
 5   0  0.1100119E-02  0.6919368E+03  0.7818609E-02  0.9731122E-01
       -2   -1    0    0    0  501  0.00000000000E+00  0.00000000000E+00  0.51548066628E+03  0.51548066629E+03  0.25500000920E-02 0. -1.
        2   -1    0    0  501    0  0.00000000000E+00  0.00000000000E+00 -0.23219905516E+03  0.23219905517E+03  0.25500000920E-02 0.  1.
    10030    2    1    2    0    0  0.00000000000E+00  0.00000000000E+00  0.28328161113E+03  0.74767972146E+03  0.69193677073E+03 0.  0.
        4    1    3    3  502    0 -0.15780785011E+03 -0.15950815936E+03  0.42619236156E+03  0.48165102762E+03  0.12699999809E+01 0. -1.
       -4    1    3    3    0  502  0.15780785011E+03  0.15950815936E+03 -0.14291075043E+03  0.26602869384E+03  0.12699999809E+01 0.  1.
</event>
<event>
 5   0  0.1119786E-02  0.6973329E+03  0.7818609E-02  0.9721804E-01
        2   -1    0    0  501    0  0.00000000000E+00  0.00000000000E+00  0.22945360487E+03  0.22945360489E+03  0.25500000920E-02 0.  1.
       -2   -1    0    0    0  501  0.00000000000E+00  0.00000000000E+00 -0.52981638059E+03  0.52981638059E+03  0.25500000920E-02 0. -1.
    10030    2    1    2    0    0  0.00000000000E+00  0.00000000000E+00 -0.30036277571E+03  0.75926998548E+03  0.69733285726E+03 0.  0.
        3    1    3    3  502    0  0.17443072687E+03  0.20211498128E+03  0.93995393936E+02  0.28304008270E+03  0.10100000352E+00 0.  1.
       -3    1    3    3    0  502 -0.17443072687E+03 -0.20211498128E+03 -0.39435816965E+03  0.47622990278E+03  0.10100000352E+00 0. -1.
</event>
<event>
 5   0  0.4440500E-03  0.7089731E+03  0.7818609E-02  0.9702009E-01
        4   -1    0    0  501    0  0.00000000000E+00  0.00000000000E+00  0.13662497027E+04  0.13662502930E+04  0.12699999809E+01 0.  1.
       -4   -1    0    0    0  501  0.00000000000E+00  0.00000000000E+00 -0.91969926109E+02  0.91978694318E+02  0.12699999809E+01 0. -1.
    10030    2    1    2    0    0  0.00000000000E+00  0.00000000000E+00  0.12742797766E+04  0.14582289873E+04  0.70897308153E+03 0.  0.
        1    1    3    3  502    0  0.24275417764E+03 -0.14227664677E+03  0.19366542213E+03  0.34158239230E+03  0.50400001928E-02 0. -1.
       -1    1    3    3    0  502 -0.24275417764E+03  0.14227664677E+03  0.10806143545E+04  0.11166465950E+04  0.50400001928E-02 0.  1.
</event>
<event>
 5   0  0.6990118E-03  0.6997766E+03  0.7818609E-02  0.9717614E-01
       -1   -1    0    0    0  501  0.00000000000E+00  0.00000000000E+00  0.80799460059E+02  0.80799460217E+02  0.50400001928E-02 0. -1.
        1   -1    0    0  501    0  0.00000000000E+00  0.00000000000E+00 -0.15151317594E+04  0.15151317595E+04  0.50400001928E-02 0.  1.
    10030    2    1    2    0    0  0.00000000000E+00  0.00000000000E+00 -0.14343322994E+04  0.15959312197E+04  0.69977661640E+03 0.  0.
        5    1    3    3  502    0  0.30205607145E+03 -0.16977195834E+03 -0.82747296686E+03  0.89710310947E+03  0.46999998093E+01 0. -1.
       -5    1    3    3    0  502 -0.30205607145E+03  0.16977195834E+03 -0.60685933252E+03  0.69882811020E+03  0.46999998093E+01 0.  1.
</event>
<event>
 5   0  0.6785252E-03  0.7020143E+03  0.7818609E-02  0.9713794E-01
        1   -1    0    0  501    0  0.00000000000E+00  0.00000000000E+00  0.10636607179E+04  0.10636607179E+04  0.50400001928E-02 0.  1.
       -1   -1    0    0    0  501  0.00000000000E+00  0.00000000000E+00 -0.11583208140E+03  0.11583208151E+03  0.50400001928E-02 0. -1.
    10030    2    1    2    0    0  0.00000000000E+00  0.00000000000E+00  0.94782863647E+03  0.11794927994E+04  0.70201434436E+03 0.  0.
        3    1    3    3  502    0 -0.40497283693E+02  0.58843223630E+02 -0.10349080925E+03  0.12574940458E+03  0.10100000352E+00 0. -1.
       -3    1    3    3    0  502  0.40497283693E+02 -0.58843223630E+02  0.10513194457E+04  0.10537433948E+04  0.10100000352E+00 0.  1.
</event>
<event>
 5   0  0.1079446E-02  0.7009865E+03  0.7818609E-02  0.9715547E-01
        2   -1    0    0  501    0  0.00000000000E+00  0.00000000000E+00  0.17653327194E+04  0.17653327194E+04  0.25500000920E-02 0.  1.
       -2   -1    0    0    0  501  0.00000000000E+00  0.00000000000E+00 -0.69587745974E+02  0.69587746020E+02  0.25500000920E-02 0. -1.
    10030    2    1    2    0    0  0.00000000000E+00  0.00000000000E+00  0.16957449735E+04  0.18349204654E+04  0.70098651879E+03 0.  0.
        2    1    3    3  502    0 -0.29356383331E+02 -0.25562905288E+03  0.14708317867E+04  0.14931691648E+04  0.25500000920E-02 0.  1.
       -2    1    3    3    0  502  0.29356383331E+02  0.25562905288E+03  0.22491318675E+03  0.34175130065E+03  0.25500000920E-02 0. -1.
</event>
<event>
 5   0  0.1100119E-02  0.7001158E+03  0.7818609E-02  0.9717034E-01
        2   -1    0    0  501    0  0.00000000000E+00  0.00000000000E+00  0.18922208712E+03  0.18922208713E+03  0.25500000920E-02 0. -1.
       -2   -1    0    0    0  501  0.00000000000E+00  0.00000000000E+00 -0.64760160459E+03  0.64760160460E+03  0.25500000920E-02 0.  1.
    10030    2    1    2    0    0  0.00000000000E+00  0.00000000000E+00 -0.45837951748E+03  0.83682369173E+03  0.70011578257E+03 0.  0.
        4    1    3    3  502    0  0.16113519731E+03  0.15211915930E+03  0.94711815099E+02  0.24099114352E+03  0.12699999809E+01 0. -1.
       -4    1    3    3    0  502 -0.16113519731E+03 -0.15211915930E+03 -0.55309133258E+03  0.59583254821E+03  0.12699999809E+01 0.  1.
</event>
<event>
 5   0  0.6689415E-03  0.6982393E+03  0.7818609E-02  0.9720248E-01
       -1   -1    0    0    0  501  0.00000000000E+00  0.00000000000E+00  0.25447219652E+03  0.25447219657E+03  0.50400001928E-02 0.  1.
        1   -1    0    0  501    0  0.00000000000E+00  0.00000000000E+00 -0.47896994489E+03  0.47896994491E+03  0.50400001928E-02 0. -1.
    10030    2    1    2    0    0  0.00000000000E+00  0.00000000000E+00 -0.22449774836E+03  0.73344214149E+03  0.69823931133E+03 0.  0.
        1    1    3    3  502    0 -0.17657659754E+03  0.25551421142E+03  0.55218387118E+02  0.31546137218E+03  0.50400001928E-02 0.  1.
       -1    1    3    3    0  502  0.17657659754E+03 -0.25551421142E+03 -0.27971613548E+03  0.41798076931E+03  0.50400001928E-02 0. -1.
</event>
<event>
 5   0  0.6689415E-03  0.6996859E+03  0.7818609E-02  0.9717770E-01
       -1   -1    0    0    0  501  0.00000000000E+00  0.00000000000E+00  0.10266198467E+04  0.10266198467E+04  0.50400001928E-02 0.  1.
        1   -1    0    0  501    0  0.00000000000E+00  0.00000000000E+00 -0.11921656116E+03  0.11921656126E+03  0.50400001928E-02 0. -1.
    10030    2    1    2    0    0  0.00000000000E+00  0.00000000000E+00  0.90740328553E+03  0.11458364080E+04  0.69968589469E+03 0.  0.
        1    1    3    3  502    0  0.21511750177E+02 -0.31009821996E+03  0.71657501294E+03  0.78109116665E+03  0.50400001928E-02 0.  1.
       -1    1    3    3    0  502 -0.21511750177E+02  0.31009821996E+03  0.19082827259E+03  0.36474524132E+03  0.50400001928E-02 0. -1.
</event>
<event>
 5   0  0.1119786E-02  0.6986713E+03  0.7818609E-02  0.9719507E-01
        2   -1    0    0  501    0  0.00000000000E+00  0.00000000000E+00  0.95400938818E+03  0.95400938818E+03  0.25500000920E-02 0.  1.
       -2   -1    0    0    0  501  0.00000000000E+00  0.00000000000E+00 -0.12791844823E+03  0.12791844825E+03  0.25500000920E-02 0. -1.
    10030    2    1    2    0    0  0.00000000000E+00  0.00000000000E+00  0.82609093995E+03  0.10819278364E+04  0.69867131199E+03 0.  0.
        3    1    3    3  502    0  0.73291622535E+02 -0.13868828893E+03 -0.70313904138E+02  0.17190159609E+03  0.10100000352E+00 0. -1.
       -3    1    3    3    0  502 -0.73291622535E+02  0.13868828893E+03  0.89640484409E+03  0.91002624035E+03  0.10100000352E+00 0.  1.
</event>
<event>
 5   0  0.6246998E-03  0.7031926E+03  0.7818609E-02  0.9711788E-01
        1   -1    0    0  501    0  0.00000000000E+00  0.00000000000E+00  0.79248094483E+03  0.79248094485E+03  0.50400001928E-02 0. -1.
       -1   -1    0    0    0  501  0.00000000000E+00  0.00000000000E+00 -0.15599107435E+03  0.15599107443E+03  0.50400001928E-02 0.  1.
    10030    2    1    2    0    0  0.00000000000E+00  0.00000000000E+00  0.63648987048E+03  0.94847201927E+03  0.70319258821E+03 0.  0.
        4    1    3    3  502    0 -0.15985193728E+02  0.20685224978E+03 -0.64624142432E+02  0.21730456126E+03  0.12699999809E+01 0.  1.
       -4    1    3    3    0  502  0.15985193728E+02 -0.20685224978E+03  0.70111401292E+03  0.73116745802E+03  0.12699999809E+01 0. -1.
</event>
<event>
 5   0  0.6689415E-03  0.6997709E+03  0.7818609E-02  0.9717624E-01
       -1   -1    0    0    0  501  0.00000000000E+00  0.00000000000E+00  0.21230504523E+03  0.21230504529E+03  0.50400001928E-02 0.  1.
        1   -1    0    0  501    0  0.00000000000E+00  0.00000000000E+00 -0.57662237075E+03  0.57662237077E+03  0.50400001928E-02 0. -1.
    10030    2    1    2    0    0  0.00000000000E+00  0.00000000000E+00 -0.36431732552E+03  0.78892741607E+03  0.69977092977E+03 0.  0.
        1    1    3    3  502    0 -0.17800881859E+03 -0.12927636838E+03 -0.48888892761E+03  0.53610810709E+03  0.50400001928E-02 0.  1.
       -1    1    3    3    0  502  0.17800881859E+03  0.12927636838E+03  0.12457160210E+03  0.25281930898E+03  0.50400001928E-02 0. -1.
</event>
<event>
 5   0  0.4440500E-03  0.6989927E+03  0.7818609E-02  0.9718956E-01
        3   -1    0    0  501    0  0.00000000000E+00  0.00000000000E+00  0.58178316824E+03  0.58178317701E+03  0.10100000352E+00 0.  1.
       -3   -1    0    0    0  501  0.00000000000E+00  0.00000000000E+00 -0.20995399373E+03  0.20995401802E+03  0.10100000352E+00 0. -1.
    10030    2    1    2    0    0  0.00000000000E+00  0.00000000000E+00  0.37182917451E+03  0.79173719503E+03  0.69899274029E+03 0.  0.
        2    1    3    3  502    0 -0.67087841775E+02 -0.23125092818E+03  0.47284343072E+03  0.53062103264E+03  0.25500000920E-02 0.  1.
       -2    1    3    3    0  502  0.67087841775E+02  0.23125092818E+03 -0.10101425621E+03  0.26111616239E+03  0.25500000920E-02 0. -1.
</event>
<event>
 5   0  0.6689415E-03  0.6986907E+03  0.7818609E-02  0.9719474E-01
       -1   -1    0    0    0  501  0.00000000000E+00  0.00000000000E+00  0.31072477422E+03  0.31072477426E+03  0.50400001928E-02 0. -1.
        1   -1    0    0  501    0  0.00000000000E+00  0.00000000000E+00 -0.39276615494E+03  0.39276615497E+03  0.50400001928E-02 0.  1.
    10030    2    1    2    0    0  0.00000000000E+00  0.00000000000E+00 -0.82041380719E+02  0.70349092923E+03  0.69869070365E+03 0.  0.
        1    1    3    3  502    0  0.34229910754E+03  0.13154395609E+02 -0.11005160219E+03  0.35979587591E+03  0.50400001928E-02 0.  1.
       -1    1    3    3    0  502 -0.34229910754E+03 -0.13154395609E+02  0.28010221468E+02  0.34369505333E+03  0.50400001928E-02 0. -1.
</event>
<event>
 5   0  0.6689415E-03  0.7003560E+03  0.7818609E-02  0.9716624E-01
        1   -1    0    0  501    0  0.00000000000E+00  0.00000000000E+00  0.74269238972E+03  0.74269238974E+03  0.50400001928E-02 0.  1.
       -1   -1    0    0    0  501  0.00000000000E+00  0.00000000000E+00 -0.16510821722E+03  0.16510821730E+03  0.50400001928E-02 0. -1.
    10030    2    1    2    0    0  0.00000000000E+00  0.00000000000E+00  0.57758417250E+03  0.90780060704E+03  0.70035595651E+03 0.  0.
        1    1    3    3  502    0 -0.14707033006E+02  0.33381986813E+03  0.15301492710E+03  0.36751267885E+03  0.50400001928E-02 0. -1.
       -1    1    3    3    0  502  0.14707033006E+02 -0.33381986813E+03  0.42456924540E+03  0.54028792818E+03  0.50400001928E-02 0.  1.
</event>
<event>
 5   0  0.1099980E-02  0.7038953E+03  0.7818609E-02  0.9710594E-01
       -2   -1    0    0    0  501  0.00000000000E+00  0.00000000000E+00  0.12647245472E+03  0.12647245474E+03  0.25500000920E-02 0.  1.
        2   -1    0    0  501    0  0.00000000000E+00  0.00000000000E+00 -0.97940017348E+03  0.97940017349E+03  0.25500000920E-02 0. -1.
    10030    2    1    2    0    0  0.00000000000E+00  0.00000000000E+00 -0.85292771877E+03  0.11058726282E+04  0.70389528797E+03 0.  0.
        5    1    3    3  502    0 -0.32933081394E+03 -0.95985617491E+02 -0.54990111468E+03  0.64813991522E+03  0.46999998093E+01 0.  1.
       -5    1    3    3    0  502  0.32933081394E+03  0.95985617491E+02 -0.30302660409E+03  0.45773271301E+03  0.46999998093E+01 0. -1.
</event>
<event>
 5   0  0.6246998E-03  0.7037471E+03  0.7818609E-02  0.9710846E-01
       -1   -1    0    0    0  501  0.00000000000E+00  0.00000000000E+00  0.58678264506E+02  0.58678264723E+02  0.50400001928E-02 0.  1.
        1   -1    0    0  501    0  0.00000000000E+00  0.00000000000E+00 -0.21100656047E+04  0.21100656047E+04  0.50400001928E-02 0. -1.
    10030    2    1    2    0    0  0.00000000000E+00  0.00000000000E+00 -0.20513873402E+04  0.21687438694E+04  0.70374707934E+03 0.  0.
        4    1    3    3  502    0  0.19447595281E+03 -0.28795576504E+03 -0.85483363353E+03  0.92275759155E+03  0.12699999809E+01 0. -1.
       -4    1    3    3    0  502 -0.19447595281E+03  0.28795576504E+03 -0.11965537067E+04  0.12459862779E+04  0.12699999809E+01 0.  1.
</event>
<event>
 5   0  0.6689415E-03  0.7013096E+03  0.7818609E-02  0.9714995E-01
        1   -1    0    0  501    0  0.00000000000E+00  0.00000000000E+00  0.82438828015E+03  0.82438828016E+03  0.50400001928E-02 0.  1.
       -1   -1    0    0    0  501  0.00000000000E+00  0.00000000000E+00 -0.14915156596E+03  0.14915156605E+03  0.50400001928E-02 0. -1.
    10030    2    1    2    0    0  0.00000000000E+00  0.00000000000E+00  0.67523671419E+03  0.97353984621E+03  0.70130964059E+03 0.  0.
        1    1    3    3  502    0 -0.26844267707E+03  0.18090367255E+03  0.52474500907E+03  0.61655894624E+03  0.50400001928E-02 0.  1.
       -1    1    3    3    0  502  0.26844267707E+03 -0.18090367255E+03  0.15049170511E+03  0.35698089997E+03  0.50400001928E-02 0. -1.
</event>
<event>
 5   0  0.6689415E-03  0.7004978E+03  0.7818609E-02  0.9716381E-01
        1   -1    0    0  501    0  0.00000000000E+00  0.00000000000E+00  0.41217599033E+03  0.41217599036E+03  0.50400001928E-02 0.  1.
       -1   -1    0    0    0  501  0.00000000000E+00  0.00000000000E+00 -0.29762602524E+03  0.29762602528E+03  0.50400001928E-02 0. -1.
    10030    2    1    2    0    0  0.00000000000E+00  0.00000000000E+00  0.11454996509E+03  0.70980201563E+03  0.70049782790E+03 0.  0.
        1    1    3    3  502    0  0.31662854936E+03 -0.14489685129E+02 -0.93737094208E+02  0.33053022873E+03  0.50400001928E-02 0. -1.
       -1    1    3    3    0  502 -0.31662854936E+03  0.14489685129E+02  0.20828705930E+03  0.37927178691E+03  0.50400001928E-02 0.  1.
</event>
<event>
 5   0  0.1099980E-02  0.6997544E+03  0.7818609E-02  0.9717652E-01
       -2   -1    0    0    0  501  0.00000000000E+00  0.00000000000E+00  0.99523042579E+02  0.99523042611E+02  0.25500000920E-02 0. -1.
        2   -1    0    0  501    0  0.00000000000E+00  0.00000000000E+00 -0.12300071680E+04  0.12300071680E+04  0.25500000920E-02 0.  1.
    10030    2    1    2    0    0  0.00000000000E+00  0.00000000000E+00 -0.11304841255E+04  0.13295302106E+04  0.69975440200E+03 0.  0.
        5    1    3    3  502    0 -0.14688965832E+03  0.25822517811E+03 -0.91627954256E+03  0.96324820500E+03  0.46999998093E+01 0.  1.
       -5    1    3    3    0  502  0.14688965832E+03 -0.25822517811E+03 -0.21420458290E+03  0.36628200565E+03  0.46999998093E+01 0. -1.
</event>
<event>
 5   0  0.4440500E-03  0.6992947E+03  0.7818609E-02  0.9718439E-01
        3   -1    0    0  501    0  0.00000000000E+00  0.00000000000E+00  0.27561445418E+03  0.27561447268E+03  0.10100000352E+00 0.  1.
       -3   -1    0    0    0  501  0.00000000000E+00  0.00000000000E+00 -0.44356624311E+03  0.44356625461E+03  0.10100000352E+00 0. -1.
    10030    2    1    2    0    0  0.00000000000E+00  0.00000000000E+00 -0.16795178894E+03  0.71918072730E+03  0.69929472693E+03 0.  0.
        3    1    3    3  502    0  0.26373989598E+03  0.58284614493E+02  0.14436829706E+03  0.30626466400E+03  0.10100000352E+00 0.  1.
       -3    1    3    3    0  502 -0.26373989598E+03 -0.58284614493E+02 -0.31232008599E+03  0.41291606330E+03  0.10100000352E+00 0. -1.
</event>
<event>
 5   0  0.1100119E-02  0.6999018E+03  0.7818609E-02  0.9717400E-01
       -2   -1    0    0    0  501  0.00000000000E+00  0.00000000000E+00  0.13844694452E+03  0.13844694455E+03  0.25500000920E-02 0. -1.
        2   -1    0    0  501    0  0.00000000000E+00  0.00000000000E+00 -0.88456732817E+03  0.88456732817E+03  0.25500000920E-02 0.  1.
    10030    2    1    2    0    0  0.00000000000E+00  0.00000000000E+00 -0.74612038365E+03  0.10230142727E+04  0.69990183261E+03 0.  0.
        4    1    3    3  502    0  0.18006945394E+03 -0.11680456084E+03 -0.77705805545E+03  0.80615702448E+03  0.12699999809E+01 0.  1.
       -4    1    3    3    0  502 -0.18006945394E+03  0.11680456084E+03  0.30937671807E+02  0.21685724824E+03  0.12699999809E+01 0. -1.
</event>
<event>
 5   0  0.6990118E-03  0.7019833E+03  0.7818609E-02  0.9713847E-01
        1   -1    0    0  501    0  0.00000000000E+00  0.00000000000E+00  0.98397465678E+02  0.98397465807E+02  0.50400001928E-02 0. -1.
       -1   -1    0    0    0  501  0.00000000000E+00  0.00000000000E+00 -0.12520152270E+04  0.12520152270E+04  0.50400001928E-02 0.  1.
    10030    2    1    2    0    0  0.00000000000E+00  0.00000000000E+00 -0.11536177613E+04  0.13504126928E+04  0.70198326311E+03 0.  0.
        5    1    3    3  502    0  0.27691540307E+03  0.18856091604E+03 -0.37563918028E+03  0.50335300066E+03  0.46999998093E+01 0. -1.
       -5    1    3    3    0  502 -0.27691540307E+03 -0.18856091604E+03 -0.77797858107E+03  0.84705969218E+03  0.46999998093E+01 0.  1.
</event>
<event>
 5   0  0.1100119E-02  0.7065704E+03  0.7818609E-02  0.9706061E-01
        2   -1    0    0  501    0  0.00000000000E+00  0.00000000000E+00  0.23614646608E+03  0.23614646609E+03  0.25500000920E-02 0. -1.
       -2   -1    0    0    0  501  0.00000000000E+00  0.00000000000E+00 -0.52852971471E+03  0.52852971472E+03  0.25500000920E-02 0.  1.
    10030    2    1    2    0    0  0.00000000000E+00  0.00000000000E+00 -0.29238324863E+03  0.76467618081E+03  0.70657037683E+03 0.  0.
        4    1    3    3  502    0  0.39189974199E+02 -0.16953374772E+03 -0.47893534873E+03  0.50956670501E+03  0.12699999809E+01 0.  1.
       -4    1    3    3    0  502 -0.39189974199E+02  0.16953374772E+03  0.18655210010E+03  0.25510947580E+03  0.12699999809E+01 0. -1.
</event>
<event>
 5   0  0.6785252E-03  0.7007006E+03  0.7818609E-02  0.9716035E-01
       -1   -1    0    0    0  501  0.00000000000E+00  0.00000000000E+00  0.34900235695E+03  0.34900235698E+03  0.50400001928E-02 0.  1.
        1   -1    0    0  501    0  0.00000000000E+00  0.00000000000E+00 -0.35170346458E+03  0.35170346461E+03  0.50400001928E-02 0. -1.
    10030    2    1    2    0    0  0.00000000000E+00  0.00000000000E+00 -0.27011076279E+01  0.70070582160E+03  0.70070061541E+03 0.  0.
        3    1    3    3  502    0  0.25488549792E+03  0.23971308342E+03 -0.19136874423E+02  0.35042147419E+03  0.10100000352E+00 0. -1.
       -3    1    3    3    0  502 -0.25488549792E+03 -0.23971308342E+03  0.16435766796E+02  0.35028434741E+03  0.10100000352E+00 0.  1.
</event>
<event>
 5   0  0.1079446E-02  0.6959530E+03  0.7818609E-02  0.9724178E-01
       -2   -1    0    0    0  501  0.00000000000E+00  0.00000000000E+00  0.99558784228E+02  0.99558784260E+02  0.25500000920E-02 0.  1.
        2   -1    0    0  501    0  0.00000000000E+00  0.00000000000E+00 -0.12162428282E+04  0.12162428282E+04  0.25500000920E-02 0. -1.
    10030    2    1    2    0    0  0.00000000000E+00  0.00000000000E+00 -0.11166840440E+04  0.13158016124E+04  0.69595303670E+03 0.  0.
        2    1    3    3  502    0 -0.13515834159E+03  0.71200177177E+02 -0.11494540337E+04  0.11595610455E+04  0.25500000920E-02 0. -1.
       -2    1    3    3    0  502  0.13515834159E+03 -0.71200177177E+02  0.32769989770E+02  0.15624056697E+03  0.25500000920E-02 0.  1.
</event>
<event>
 5   0  0.1109788E-02  0.6996014E+03  0.7818609E-02  0.9717914E-01
       -2   -1    0    0    0  501  0.00000000000E+00  0.00000000000E+00  0.48107025037E+02  0.48107025104E+02  0.25500000920E-02 0.  1.
        2   -1    0    0  501    0  0.00000000000E+00  0.00000000000E+00 -0.25435065508E+04  0.25435065508E+04  0.25500000920E-02 0. -1.
    10030    2    1    2    0    0  0.00000000000E+00  0.00000000000E+00 -0.24953995258E+04  0.25916135760E+04  0.69960141055E+03 0.  0.
        1    1    3    3  502    0  0.23572941610E+03  0.16897105137E+03 -0.19721089685E+04  0.19933221911E+04  0.50400001928E-02 0.  1.
       -1    1    3    3    0  502 -0.23572941610E+03 -0.16897105137E+03 -0.52329055733E+03  0.59829138489E+03  0.50400001928E-02 0. -1.
</event>
<event>
 5   0  0.4440500E-03  0.7006514E+03  0.7818609E-02  0.9716119E-01
        3   -1    0    0  501    0  0.00000000000E+00  0.00000000000E+00  0.36345244590E+03  0.36345245994E+03  0.10100000352E+00 0.  1.
       -3   -1    0    0    0  501  0.00000000000E+00  0.00000000000E+00 -0.33767300439E+03  0.33767301950E+03  0.10100000352E+00 0. -1.
    10030    2    1    2    0    0  0.00000000000E+00  0.00000000000E+00  0.25779441508E+02  0.70112547943E+03  0.70065138144E+03 0.  0.
        3    1    3    3  502    0  0.17343682746E+02  0.41761614988E+02 -0.33474028402E+03  0.33778085168E+03  0.10100000352E+00 0. -1.
       -3    1    3    3    0  502 -0.17343682746E+02 -0.41761614988E+02  0.36051972553E+03  0.36334462775E+03  0.10100000352E+00 0.  1.
</event>
<event>
 5   0  0.6246998E-03  0.7063519E+03  0.7818609E-02  0.9706431E-01
       -1   -1    0    0    0  501  0.00000000000E+00  0.00000000000E+00  0.14330610910E+03  0.14330610919E+03  0.50400001928E-02 0.  1.
        1   -1    0    0  501    0  0.00000000000E+00  0.00000000000E+00 -0.87039741630E+03  0.87039741631E+03  0.50400001928E-02 0. -1.
    10030    2    1    2    0    0  0.00000000000E+00  0.00000000000E+00 -0.72709130720E+03  0.10137035255E+04  0.70635194387E+03 0.  0.
        4    1    3    3  502    0 -0.28144205637E+03 -0.18507050713E+03 -0.51590520986E+03  0.61613352624E+03  0.12699999809E+01 0. -1.
       -4    1    3    3    0  502  0.28144205637E+03  0.18507050713E+03 -0.21118609734E+03  0.39756999926E+03  0.12699999809E+01 0.  1.
</event>
<event>
 5   0  0.1109788E-02  0.7020413E+03  0.7818609E-02  0.9713748E-01
        2   -1    0    0  501    0  0.00000000000E+00  0.00000000000E+00  0.63543933609E+03  0.63543933610E+03  0.25500000920E-02 0. -1.
       -2   -1    0    0    0  501  0.00000000000E+00  0.00000000000E+00 -0.19390601258E+03  0.19390601260E+03  0.25500000920E-02 0.  1.
    10030    2    1    2    0    0  0.00000000000E+00  0.00000000000E+00  0.44153332351E+03  0.82934534869E+03  0.70204133185E+03 0.  0.
        1    1    3    3  502    0 -0.55438213972E+02 -0.20373846161E+03 -0.11049751119E+03  0.23831167893E+03  0.50400001928E-02 0.  1.
       -1    1    3    3    0  502  0.55438213972E+02  0.20373846161E+03  0.55203083470E+03  0.59103366977E+03  0.50400001928E-02 0. -1.
</event>
<event>
 5   0  0.4440500E-03  0.6993050E+03  0.7818609E-02  0.9718422E-01
       -4   -1    0    0    0  501  0.00000000000E+00  0.00000000000E+00  0.48780746359E+03  0.48780911681E+03  0.12699999809E+01 0. -1.
        4   -1    0    0  501    0  0.00000000000E+00  0.00000000000E+00 -0.25062154392E+03  0.25062476170E+03  0.12699999809E+01 0.  1.
    10030    2    1    2    0    0  0.00000000000E+00  0.00000000000E+00  0.23718591967E+03  0.73843387851E+03  0.69930496383E+03 0.  0.
        4    1    3    3  502    0  0.57113514158E+02 -0.20970599278E+03 -0.17062412634E+03  0.27632003600E+03  0.12699999809E+01 0.  1.
       -4    1    3    3    0  502 -0.57113514158E+02  0.20970599278E+03  0.40781004601E+03  0.46211384251E+03  0.12699999809E+01 0. -1.
</event>
<event>
 5   0  0.1100119E-02  0.7025025E+03  0.7818609E-02  0.9712962E-01
        2   -1    0    0  501    0  0.00000000000E+00  0.00000000000E+00  0.31659852745E+03  0.31659852746E+03  0.25500000920E-02 0. -1.
       -2   -1    0    0    0  501  0.00000000000E+00  0.00000000000E+00 -0.38969678311E+03  0.38969678312E+03  0.25500000920E-02 0.  1.
    10030    2    1    2    0    0  0.00000000000E+00  0.00000000000E+00 -0.73098255661E+02  0.70629531059E+03  0.70250246318E+03 0.  0.
        4    1    3    3  502    0  0.26284443735E+03  0.95804171118E+02 -0.25008740705E+03  0.37524786677E+03  0.12699999809E+01 0.  1.
       -4    1    3    3    0  502 -0.26284443735E+03 -0.95804171118E+02  0.17698915139E+03  0.33104744382E+03  0.12699999809E+01 0. -1.
</event>
<event>
 5   0  0.1119786E-02  0.7016090E+03  0.7818609E-02  0.9714485E-01
        2   -1    0    0  501    0  0.00000000000E+00  0.00000000000E+00  0.78484132198E+03  0.78484132198E+03  0.25500000920E-02 0.  1.
       -2   -1    0    0    0  501  0.00000000000E+00  0.00000000000E+00 -0.15680087472E+03  0.15680087474E+03  0.25500000920E-02 0. -1.
    10030    2    1    2    0    0  0.00000000000E+00  0.00000000000E+00  0.62804044726E+03  0.94164219672E+03  0.70160902449E+03 0.  0.
        3    1    3    3  502    0  0.17761355566E+03 -0.10787295014E+03  0.69334528120E+03  0.72381685370E+03  0.10100000352E+00 0.  1.
       -3    1    3    3    0  502 -0.17761355566E+03  0.10787295014E+03 -0.65304833945E+02  0.21782534302E+03  0.10100000352E+00 0. -1.
</event>
<event>
 5   0  0.6609285E-03  0.6987786E+03  0.7818609E-02  0.9719323E-01
        1   -1    0    0  501    0  0.00000000000E+00  0.00000000000E+00  0.13706761861E+03  0.13706761870E+03  0.50400001928E-02 0.  1.
       -1   -1    0    0    0  501  0.00000000000E+00  0.00000000000E+00 -0.89060326726E+03  0.89060326727E+03  0.50400001928E-02 0. -1.
    10030    2    1    2    0    0  0.00000000000E+00  0.00000000000E+00 -0.75353564865E+03  0.10276708860E+04  0.69877856012E+03 0.  0.
        2    1    3    3  502    0  0.24942203252E+03 -0.10158502741E+03 -0.49426184977E+02  0.27381346912E+03  0.25500000920E-02 0.  1.
       -2    1    3    3    0  502 -0.24942203252E+03  0.10158502741E+03 -0.70410946368E+03  0.75385741685E+03  0.25500000920E-02 0. -1.
</event>
<event>
 5   0  0.6246998E-03  0.7003617E+03  0.7818609E-02  0.9716614E-01
        1   -1    0    0  501    0  0.00000000000E+00  0.00000000000E+00  0.10943087219E+04  0.10943087219E+04  0.50400001928E-02 0.  1.
       -1   -1    0    0    0  501  0.00000000000E+00  0.00000000000E+00 -0.11205854055E+03  0.11205854067E+03  0.50400001928E-02 0. -1.
    10030    2    1    2    0    0  0.00000000000E+00  0.00000000000E+00  0.98225018133E+03  0.12063672626E+04  0.70036173043E+03 0.  0.
        4    1    3    3  502    0  0.20545637727E+03  0.72715755533E+02  0.96324218922E+03  0.98759153098E+03  0.12699999809E+01 0.  1.
       -4    1    3    3    0  502 -0.20545637727E+03 -0.72715755533E+02  0.19007992104E+02  0.21877573158E+03  0.12699999809E+01 0. -1.
</event>
<event>
 5   0  0.6785252E-03  0.6870737E+03  0.7818609E-02  0.9739597E-01
       -1   -1    0    0    0  501  0.00000000000E+00  0.00000000000E+00  0.45702828597E+03  0.45702828600E+03  0.50400001928E-02 0. -1.
        1   -1    0    0  501    0  0.00000000000E+00  0.00000000000E+00 -0.25822816322E+03  0.25822816326E+03  0.50400001928E-02 0.  1.
    10030    2    1    2    0    0  0.00000000000E+00  0.00000000000E+00  0.19880012276E+03  0.71525644926E+03  0.68707372196E+03 0.  0.
        3    1    3    3  502    0 -0.99667024823E+02  0.27021271441E+03 -0.95548927902E+02  0.30344362687E+03  0.10100000352E+00 0.  1.
       -3    1    3    3    0  502  0.99667024823E+02 -0.27021271441E+03  0.29434905066E+03  0.41181282239E+03  0.10100000352E+00 0. -1.
</event>
<event>
 5   0  0.6785252E-03  0.6946408E+03  0.7818609E-02  0.9726441E-01
        1   -1    0    0  501    0  0.00000000000E+00  0.00000000000E+00  0.78205480777E+03  0.78205480779E+03  0.50400001928E-02 0. -1.
       -1   -1    0    0    0  501  0.00000000000E+00  0.00000000000E+00 -0.15424938172E+03  0.15424938180E+03  0.50400001928E-02 0.  1.
    10030    2    1    2    0    0  0.00000000000E+00  0.00000000000E+00  0.62780542605E+03  0.93630418959E+03  0.69464082983E+03 0.  0.
        3    1    3    3  502    0 -0.20562557661E+03 -0.20976300821E+03  0.56371517956E+03  0.63565494668E+03  0.10100000352E+00 0. -1.
       -3    1    3    3    0  502  0.20562557661E+03  0.20976300821E+03  0.64090246491E+02  0.30064924291E+03  0.10100000352E+00 0.  1.
</event>
<event>
 5   0  0.1109788E-02  0.6919078E+03  0.7818609E-02  0.9731172E-01
        2   -1    0    0  501    0  0.00000000000E+00  0.00000000000E+00  0.16481066832E+04  0.16481066832E+04  0.25500000920E-02 0.  1.
       -2   -1    0    0    0  501  0.00000000000E+00  0.00000000000E+00 -0.72619137408E+02  0.72619137453E+02  0.25500000920E-02 0. -1.
    10030    2    1    2    0    0  0.00000000000E+00  0.00000000000E+00  0.15754875458E+04  0.17207258207E+04  0.69190775609E+03 0.  0.
        1    1    3    3  502    0 -0.24037929604E+03  0.45941060065E+02  0.17963331786E+03  0.30358016384E+03  0.50400001928E-02 0. -1.
       -1    1    3    3    0  502  0.24037929604E+03 -0.45941060065E+02  0.13958542280E+04  0.14171456568E+04  0.50400001928E-02 0.  1.
</event>
<event>
 5   0  0.1099980E-02  0.7012230E+03  0.7818609E-02  0.9715143E-01
       -2   -1    0    0    0  501  0.00000000000E+00  0.00000000000E+00  0.11040105429E+03  0.11040105432E+03  0.25500000920E-02 0. -1.
        2   -1    0    0  501    0  0.00000000000E+00  0.00000000000E+00 -0.11134714382E+04  0.11134714382E+04  0.25500000920E-02 0.  1.
    10030    2    1    2    0    0  0.00000000000E+00  0.00000000000E+00 -0.10030703839E+04  0.12238724926E+04  0.70122299086E+03 0.  0.
        5    1    3    3  502    0  0.15369228462E+03 -0.12644671148E+03  0.21889083953E+01  0.19909035766E+03  0.46999998093E+01 0. -1.
       -5    1    3    3    0  502 -0.15369228462E+03  0.12644671148E+03 -0.10052592923E+04  0.10247821349E+04  0.46999998093E+01 0.  1.
</event>
<event>
 5   0  0.1079446E-02  0.7027877E+03  0.7818609E-02  0.9712477E-01
        2   -1    0    0  501    0  0.00000000000E+00  0.00000000000E+00  0.59959942440E+03  0.59959942441E+03  0.25500000920E-02 0.  1.
       -2   -1    0    0    0  501  0.00000000000E+00  0.00000000000E+00 -0.20593352573E+03  0.20593352574E+03  0.25500000920E-02 0. -1.
    10030    2    1    2    0    0  0.00000000000E+00  0.00000000000E+00  0.39366589868E+03  0.80553295015E+03  0.70278765926E+03 0.  0.
        2    1    3    3  502    0 -0.24981561737E+02 -0.13168136169E+03 -0.17548444754E+03  0.22081406381E+03  0.25500000920E-02 0. -1.
       -2    1    3    3    0  502  0.24981561737E+02  0.13168136169E+03  0.56915034621E+03  0.58471888634E+03  0.25500000920E-02 0.  1.
</event>
<event>
 5   0  0.6689415E-03  0.7021503E+03  0.7818609E-02  0.9713562E-01
       -1   -1    0    0    0  501  0.00000000000E+00  0.00000000000E+00  0.22450719278E+03  0.22450719284E+03  0.50400001928E-02 0.  1.
        1   -1    0    0  501    0  0.00000000000E+00  0.00000000000E+00 -0.54899691203E+03  0.54899691205E+03  0.50400001928E-02 0. -1.
    10030    2    1    2    0    0  0.00000000000E+00  0.00000000000E+00 -0.32448971924E+03  0.77350410489E+03  0.70215028476E+03 0.  0.
        1    1    3    3  502    0 -0.33956161069E+03 -0.38216938866E+02 -0.25099985868E+03  0.42398531927E+03  0.50400001928E-02 0.  1.
       -1    1    3    3    0  502  0.33956161069E+03  0.38216938866E+02 -0.73489860562E+02  0.34951878562E+03  0.50400001928E-02 0. -1.
</event>
<event>
 5   0  0.1079446E-02  0.6990609E+03  0.7818609E-02  0.9718840E-01
       -2   -1    0    0    0  501  0.00000000000E+00  0.00000000000E+00  0.87724383154E+02  0.87724383191E+02  0.25500000920E-02 0. -1.
        2   -1    0    0  501    0  0.00000000000E+00  0.00000000000E+00 -0.13926747897E+04  0.13926747897E+04  0.25500000920E-02 0.  1.
    10030    2    1    2    0    0  0.00000000000E+00  0.00000000000E+00 -0.13049504065E+04  0.14803991729E+04  0.69906090403E+03 0.  0.
        2    1    3    3  502    0 -0.13657234781E+03 -0.23452270491E+02  0.27069712042E+02  0.14119059634E+03  0.25500000920E-02 0. -1.
       -2    1    3    3    0  502  0.13657234781E+03  0.23452270491E+02 -0.13320201186E+04  0.13392085765E+04  0.25500000920E-02 0.  1.
</event>
<event>
 5   0  0.6689415E-03  0.7025581E+03  0.7818609E-02  0.9712867E-01
        1   -1    0    0  501    0  0.00000000000E+00  0.00000000000E+00  0.15365782738E+03  0.15365782746E+03  0.50400001928E-02 0. -1.
       -1   -1    0    0    0  501  0.00000000000E+00  0.00000000000E+00 -0.80306337525E+03  0.80306337527E+03  0.50400001928E-02 0.  1.
    10030    2    1    2    0    0  0.00000000000E+00  0.00000000000E+00 -0.64940554787E+03  0.95672120273E+03  0.70255810731E+03 0.  0.
        1    1    3    3  502    0 -0.23439351791E+03  0.18083199556E+03 -0.58220458954E+03  0.65314831085E+03  0.50400001928E-02 0.  1.
       -1    1    3    3    0  502  0.23439351791E+03 -0.18083199556E+03 -0.67200958328E+02  0.30357289188E+03  0.50400001928E-02 0. -1.
</event>
<event>
 5   0  0.6990118E-03  0.6774973E+03  0.7818609E-02  0.9756508E-01
       -1   -1    0    0    0  501  0.00000000000E+00  0.00000000000E+00  0.61940784545E+02  0.61940784750E+02  0.50400001928E-02 0. -1.
        1   -1    0    0  501    0  0.00000000000E+00  0.00000000000E+00 -0.18525862127E+04  0.18525862127E+04  0.50400001928E-02 0.  1.
    10030    2    1    2    0    0  0.00000000000E+00  0.00000000000E+00 -0.17906454282E+04  0.19145269975E+04  0.67749728754E+03 0.  0.
        5    1    3    3  502    0 -0.18338758656E+02  0.15594516765E+03 -0.17434325258E+04  0.17504954349E+04  0.46999998093E+01 0.  1.
       -5    1    3    3    0  502  0.18338758656E+02 -0.15594516765E+03 -0.47212902330E+02  0.16403156259E+03  0.46999998093E+01 0. -1.
</event>
<event>
 5   0  0.1100119E-02  0.6517868E+03  0.7818609E-02  0.9803432E-01
       -2   -1    0    0    0  501  0.00000000000E+00  0.00000000000E+00  0.18921130070E+03  0.18921130072E+03  0.25500000920E-02 0. -1.
        2   -1    0    0  501    0  0.00000000000E+00  0.00000000000E+00 -0.56131166382E+03  0.56131166383E+03  0.25500000920E-02 0.  1.
    10030    2    1    2    0    0  0.00000000000E+00  0.00000000000E+00 -0.37210036312E+03  0.75052296455E+03  0.65178680570E+03 0.  0.
        4    1    3    3  502    0  0.13180293617E+03 -0.28545948091E+03 -0.87359301547E+02  0.32633171726E+03  0.12699999809E+01 0. -1.
       -4    1    3    3    0  502 -0.13180293617E+03  0.28545948091E+03 -0.28474106158E+03  0.42419124729E+03  0.12699999809E+01 0.  1.
</event>
<event>
 5   0  0.6689415E-03  0.6960775E+03  0.7818609E-02  0.9723964E-01
       -1   -1    0    0    0  501  0.00000000000E+00  0.00000000000E+00  0.44772411147E+03  0.44772411150E+03  0.50400001928E-02 0. -1.
        1   -1    0    0  501    0  0.00000000000E+00  0.00000000000E+00 -0.27054824714E+03  0.27054824718E+03  0.50400001928E-02 0.  1.
    10030    2    1    2    0    0  0.00000000000E+00  0.00000000000E+00  0.17717586433E+03  0.71827235868E+03  0.69607750599E+03 0.  0.
        1    1    3    3  502    0  0.14675487958E+03  0.21006323475E+03 -0.15443682758E+03  0.29918938988E+03  0.50400001928E-02 0.  1.
       -1    1    3    3    0  502 -0.14675487958E+03 -0.21006323475E+03  0.33161269192E+03  0.41908296880E+03  0.50400001928E-02 0. -1.
</event>
<event>
 5   0  0.6990118E-03  0.7014859E+03  0.7818609E-02  0.9714695E-01
        1   -1    0    0  501    0  0.00000000000E+00  0.00000000000E+00  0.21317284479E+04  0.21317284479E+04  0.50400001928E-02 0.  1.
       -1   -1    0    0    0  501  0.00000000000E+00  0.00000000000E+00 -0.57709325957E+02  0.57709326177E+02  0.50400001928E-02 0. -1.
    10030    2    1    2    0    0  0.00000000000E+00  0.00000000000E+00  0.20740191220E+04  0.21894377741E+04  0.70148588611E+03 0.  0.
        5    1    3    3  502    0 -0.20705019715E+03  0.17354688038E+03  0.17349896667E+04  0.17559041936E+04  0.46999998093E+01 0.  1.
       -5    1    3    3    0  502  0.20705019715E+03 -0.17354688038E+03  0.33902945532E+03  0.43353358048E+03  0.46999998093E+01 0. -1.
</event>
<event>
 5   0  0.6689415E-03  0.6976733E+03  0.7818609E-02  0.9721219E-01
        1   -1    0    0  501    0  0.00000000000E+00  0.00000000000E+00  0.52832918119E+03  0.52832918121E+03  0.50400001928E-02 0.  1.
       -1   -1    0    0    0  501  0.00000000000E+00  0.00000000000E+00 -0.23032421276E+03  0.23032421281E+03  0.50400001928E-02 0. -1.
    10030    2    1    2    0    0  0.00000000000E+00  0.00000000000E+00  0.29800496843E+03  0.75865339403E+03  0.69767328389E+03 0.  0.
        1    1    3    3  502    0  0.24526570407E+03  0.93534919663E+02  0.39882879011E+03  0.47746041788E+03  0.50400001928E-02 0.  1.
       -1    1    3    3    0  502 -0.24526570407E+03 -0.93534919663E+02 -0.10082382168E+03  0.28119297615E+03  0.50400001928E-02 0. -1.
</event>
<event>
 5   0  0.6609285E-03  0.6987376E+03  0.7818609E-02  0.9719393E-01
        1   -1    0    0  501    0  0.00000000000E+00  0.00000000000E+00  0.19012910481E+03  0.19012910488E+03  0.50400001928E-02 0.  1.
       -1   -1    0    0    0  501  0.00000000000E+00  0.00000000000E+00 -0.64197733292E+03  0.64197733294E+03  0.50400001928E-02 0. -1.
    10030    2    1    2    0    0  0.00000000000E+00  0.00000000000E+00 -0.45184822811E+03  0.83210643782E+03  0.69873764934E+03 0.  0.
        2    1    3    3  502    0  0.32771191069E+03 -0.38857645593E+02 -0.36250390256E+03  0.49021841296E+03  0.25500000920E-02 0.  1.
       -2    1    3    3    0  502 -0.32771191069E+03  0.38857645593E+02 -0.89344325556E+02  0.34188802486E+03  0.25500000920E-02 0. -1.
</event>
<event>
 5   0  0.6609285E-03  0.7017812E+03  0.7818609E-02  0.9714191E-01
       -1   -1    0    0    0  501  0.00000000000E+00  0.00000000000E+00  0.47026638316E+03  0.47026638319E+03  0.50400001928E-02 0. -1.
        1   -1    0    0  501    0  0.00000000000E+00  0.00000000000E+00 -0.26181800128E+03  0.26181800133E+03  0.50400001928E-02 0.  1.
    10030    2    1    2    0    0  0.00000000000E+00  0.00000000000E+00  0.20844838188E+03  0.73208438452E+03  0.70178117540E+03 0.  0.
        2    1    3    3  502    0  0.22319488563E+03 -0.10072591966E+03  0.36639794367E+03  0.44069163935E+03  0.25500000920E-02 0. -1.
       -2    1    3    3    0  502 -0.22319488563E+03  0.10072591966E+03 -0.15794956179E+03  0.29139274517E+03  0.25500000920E-02 0.  1.
</event>
<event>
 5   0  0.4440500E-03  0.7067678E+03  0.7818609E-02  0.9705728E-01
       -3   -1    0    0    0  501  0.00000000000E+00  0.00000000000E+00  0.38546867692E+03  0.38546869016E+03  0.10100000352E+00 0.  1.
        3   -1    0    0  501    0  0.00000000000E+00  0.00000000000E+00 -0.32396966926E+03  0.32396968500E+03  0.10100000352E+00 0. -1.
    10030    2    1    2    0    0  0.00000000000E+00  0.00000000000E+00  0.61499007665E+02  0.70943837516E+03  0.70676776964E+03 0.  0.
        3    1    3    3  502    0 -0.13026798467E+03  0.12665796372E+02  0.36024278177E+03  0.38328193571E+03  0.10100000352E+00 0.  1.
       -3    1    3    3    0  502  0.13026798467E+03 -0.12665796372E+02 -0.29874377410E+03  0.32615643945E+03  0.10100000352E+00 0. -1.
</event>
<event>
 5   0  0.4440500E-03  0.7006150E+03  0.7818609E-02  0.9716181E-01
        3   -1    0    0  501    0  0.00000000000E+00  0.00000000000E+00  0.59722515725E+03  0.59722516579E+03  0.10100000352E+00 0.  1.
       -3   -1    0    0    0  501  0.00000000000E+00  0.00000000000E+00 -0.20547583529E+03  0.20547586011E+03  0.10100000352E+00 0. -1.
    10030    2    1    2    0    0  0.00000000000E+00  0.00000000000E+00  0.39174932196E+03  0.80270102591E+03  0.70061501963E+03 0.  0.
        5    1    3    3  502    0 -0.86194907549E+02 -0.29961351889E+03  0.37881337372E+03  0.49063172023E+03  0.46999998093E+01 0.  1.
       -5    1    3    3    0  502  0.86194907549E+02  0.29961351889E+03  0.12935948240E+02  0.31206930568E+03  0.46999998093E+01 0. -1.
</event>
<event>
 5   0  0.6990118E-03  0.6994392E+03  0.7818609E-02  0.9718192E-01
       -1   -1    0    0    0  501  0.00000000000E+00  0.00000000000E+00  0.29589518349E+03  0.29589518353E+03  0.50400001928E-02 0.  1.
        1   -1    0    0  501    0  0.00000000000E+00  0.00000000000E+00 -0.41333485167E+03  0.41333485170E+03  0.50400001928E-02 0. -1.
    10030    2    1    2    0    0  0.00000000000E+00  0.00000000000E+00 -0.11743966818E+03  0.70923003522E+03  0.69943918049E+03 0.  0.
        5    1    3    3  502    0  0.26333824066E+03 -0.92908155476E+02 -0.27214837372E+03  0.38995612787E+03  0.46999998093E+01 0. -1.
       -5    1    3    3    0  502 -0.26333824066E+03  0.92908155476E+02  0.15470870554E+03  0.31927390735E+03  0.46999998093E+01 0.  1.
</event>
<event>
 5   0  0.1109788E-02  0.6983299E+03  0.7818609E-02  0.9720093E-01
       -2   -1    0    0    0  501  0.00000000000E+00  0.00000000000E+00  0.17759275782E+03  0.17759275784E+03  0.25500000920E-02 0.  1.
        2   -1    0    0  501    0  0.00000000000E+00  0.00000000000E+00 -0.68649283816E+03  0.68649283816E+03  0.25500000920E-02 0. -1.
    10030    2    1    2    0    0  0.00000000000E+00  0.00000000000E+00 -0.50890008034E+03  0.86408559600E+03  0.69832988297E+03 0.  0.
        1    1    3    3  502    0  0.18379638065E+03  0.13665618576E+03  0.71659832077E+02  0.23998157055E+03  0.50400001928E-02 0.  1.
       -1    1    3    3    0  502 -0.18379638065E+03 -0.13665618576E+03 -0.58055991242E+03  0.62410402545E+03  0.50400001928E-02 0. -1.
</event>
<event>
 5   0  0.6609285E-03  0.6986588E+03  0.7818609E-02  0.9719529E-01
       -1   -1    0    0    0  501  0.00000000000E+00  0.00000000000E+00  0.14803398070E+03  0.14803398079E+03  0.50400001928E-02 0. -1.
        1   -1    0    0  501    0  0.00000000000E+00  0.00000000000E+00 -0.82434460534E+03  0.82434460535E+03  0.50400001928E-02 0.  1.
    10030    2    1    2    0    0  0.00000000000E+00  0.00000000000E+00 -0.67631062463E+03  0.97237858614E+03  0.69865875346E+03 0.  0.
        2    1    3    3  502    0  0.68127429768E+02  0.31286003345E+03 -0.14376276161E+03  0.35098501228E+03  0.25500000920E-02 0.  1.
       -2    1    3    3    0  502 -0.68127429768E+02 -0.31286003345E+03 -0.53254786302E+03  0.62139357386E+03  0.25500000920E-02 0. -1.
</event>
<event>
 5   0  0.1119786E-02  0.7008072E+03  0.7818609E-02  0.9715853E-01
        2   -1    0    0  501    0  0.00000000000E+00  0.00000000000E+00  0.13044245473E+04  0.13044245473E+04  0.25500000920E-02 0. -1.
       -2   -1    0    0    0  501  0.00000000000E+00  0.00000000000E+00 -0.94127866868E+02  0.94127866902E+02  0.25500000920E-02 0.  1.
    10030    2    1    2    0    0  0.00000000000E+00  0.00000000000E+00  0.12102966804E+04  0.13985524142E+04  0.70080724926E+03 0.  0.
        3    1    3    3  502    0  0.11061556995E+03 -0.11009568749E+03  0.12312353515E+04  0.12410871708E+04  0.10100000352E+00 0. -1.
       -3    1    3    3    0  502 -0.11061556995E+03  0.11009568749E+03 -0.20938671039E+02  0.15746524336E+03  0.10100000352E+00 0.  1.
</event>
<event>
 5   0  0.6246998E-03  0.6992048E+03  0.7818609E-02  0.9718593E-01
       -1   -1    0    0    0  501  0.00000000000E+00  0.00000000000E+00  0.20604408795E+03  0.20604408802E+03  0.50400001928E-02 0.  1.
        1   -1    0    0  501    0  0.00000000000E+00  0.00000000000E+00 -0.59318301673E+03  0.59318301675E+03  0.50400001928E-02 0. -1.
    10030    2    1    2    0    0  0.00000000000E+00  0.00000000000E+00 -0.38713892878E+03  0.79922710477E+03  0.69920484468E+03 0.  0.
        4    1    3    3  502    0 -0.23302430596E+03 -0.25930683943E+03 -0.16376503300E+03  0.38517653496E+03  0.12699999809E+01 0. -1.
       -4    1    3    3    0  502  0.23302430596E+03  0.25930683943E+03 -0.22337389578E+03  0.41405056981E+03  0.12699999809E+01 0.  1.
</event>
<event>
 5   0  0.1109788E-02  0.7004212E+03  0.7818609E-02  0.9716512E-01
        2   -1    0    0  501    0  0.00000000000E+00  0.00000000000E+00  0.21336888590E+04  0.21336888590E+04  0.25500000920E-02 0.  1.
       -2   -1    0    0    0  501  0.00000000000E+00  0.00000000000E+00 -0.57481415297E+02  0.57481415354E+02  0.25500000920E-02 0. -1.
    10030    2    1    2    0    0  0.00000000000E+00  0.00000000000E+00  0.20762074437E+04  0.21911702744E+04  0.70042117468E+03 0.  0.
        1    1    3    3  502    0  0.23282832618E+01  0.34691143658E+03  0.88825262722E+03  0.95359619102E+03  0.50400001928E-02 0.  1.
       -1    1    3    3    0  502 -0.23282832618E+01 -0.34691143658E+03  0.11879548165E+04  0.12375740834E+04  0.50400001928E-02 0. -1.
</event>
<event>
 5   0  0.6689415E-03  0.6998048E+03  0.7818609E-02  0.9717566E-01
        1   -1    0    0  501    0  0.00000000000E+00  0.00000000000E+00  0.27312502956E+03  0.27312502961E+03  0.50400001928E-02 0.  1.
       -1   -1    0    0    0  501  0.00000000000E+00  0.00000000000E+00 -0.44826247421E+03  0.44826247423E+03  0.50400001928E-02 0. -1.
    10030    2    1    2    0    0  0.00000000000E+00  0.00000000000E+00 -0.17513744464E+03  0.72138750384E+03  0.69980483435E+03 0.  0.
        1    1    3    3  502    0 -0.29851517246E+03  0.95264632250E+01 -0.27548071317E+03  0.40631476105E+03  0.50400001928E-02 0. -1.
       -1    1    3    3    0  502  0.29851517246E+03 -0.95264632250E+01  0.10034326853E+03  0.31507274280E+03  0.50400001928E-02 0.  1.
</event>
<event>
 5   0  0.1100119E-02  0.6960900E+03  0.7818609E-02  0.9723942E-01
       -2   -1    0    0    0  501  0.00000000000E+00  0.00000000000E+00  0.83589569853E+02  0.83589569892E+02  0.25500000920E-02 0. -1.
        2   -1    0    0  501    0  0.00000000000E+00  0.00000000000E+00 -0.14491680114E+04  0.14491680114E+04  0.25500000920E-02 0.  1.
    10030    2    1    2    0    0  0.00000000000E+00  0.00000000000E+00 -0.13655784416E+04  0.15327575813E+04  0.69609002507E+03 0.  0.
        4    1    3    3  502    0  0.31246376978E+03 -0.48066314042E+02 -0.10033208384E+04  0.10519497591E+04  0.12699999809E+01 0.  1.
       -4    1    3    3    0  502 -0.31246376978E+03  0.48066314042E+02 -0.36225760318E+03  0.48080782224E+03  0.12699999809E+01 0. -1.
</event>
<event>
 5   0  0.6990118E-03  0.6983857E+03  0.7818609E-02  0.9719997E-01
       -1   -1    0    0    0  501  0.00000000000E+00  0.00000000000E+00  0.53397894481E+03  0.53397894483E+03  0.50400001928E-02 0. -1.
        1   -1    0    0  501    0  0.00000000000E+00  0.00000000000E+00 -0.22835292295E+03  0.22835292300E+03  0.50400001928E-02 0.  1.
    10030    2    1    2    0    0  0.00000000000E+00  0.00000000000E+00  0.30562602186E+03  0.76233186783E+03  0.69838571827E+03 0.  0.
        5    1    3    3  502    0 -0.10556070302E+03 -0.16416465268E+03  0.46883970290E+03  0.50786400957E+03  0.46999998093E+01 0. -1.
       -5    1    3    3    0  502  0.10556070302E+03  0.16416465268E+03 -0.16321368104E+03  0.25446785826E+03  0.46999998093E+01 0.  1.
</event>
<event>
 5   0  0.1079446E-02  0.7007522E+03  0.7818609E-02  0.9715947E-01
       -2   -1    0    0    0  501  0.00000000000E+00  0.00000000000E+00  0.24745970697E+03  0.24745970698E+03  0.25500000920E-02 0. -1.
        2   -1    0    0  501    0  0.00000000000E+00  0.00000000000E+00 -0.49609451047E+03  0.49609451047E+03  0.25500000920E-02 0.  1.
    10030    2    1    2    0    0  0.00000000000E+00  0.00000000000E+00 -0.24863480350E+03  0.74355421745E+03  0.70075217358E+03 0.  0.
        2    1    3    3  502    0  0.15424574660E+02 -0.23742966888E+03  0.14859405541E+03  0.28051908755E+03  0.25500000920E-02 0. -1.
       -2    1    3    3    0  502 -0.15424574660E+02  0.23742966888E+03 -0.39722885891E+03  0.46303512991E+03  0.25500000920E-02 0.  1.
</event>
<event>
 5   0  0.1099980E-02  0.7032091E+03  0.7818609E-02  0.9711760E-01
        2   -1    0    0  501    0  0.00000000000E+00  0.00000000000E+00  0.12192415264E+04  0.12192415264E+04  0.25500000920E-02 0.  1.
       -2   -1    0    0    0  501  0.00000000000E+00  0.00000000000E+00 -0.10139562667E+03  0.10139562670E+03  0.25500000920E-02 0. -1.
    10030    2    1    2    0    0  0.00000000000E+00  0.00000000000E+00  0.11178458997E+04  0.13206371531E+04  0.70320909737E+03 0.  0.
        5    1    3    3  502    0 -0.11371110099E+03  0.29332799095E+03  0.26417544529E+03  0.41083120702E+03  0.46999998093E+01 0. -1.
       -5    1    3    3    0  502  0.11371110099E+03 -0.29332799095E+03  0.85367045444E+03  0.90980594610E+03  0.46999998093E+01 0.  1.
</event>
<event>
 5   0  0.1079446E-02  0.6987618E+03  0.7818609E-02  0.9719352E-01
        2   -1    0    0  501    0  0.00000000000E+00  0.00000000000E+00  0.10445402206E+03  0.10445402209E+03  0.25500000920E-02 0.  1.
       -2   -1    0    0    0  501  0.00000000000E+00  0.00000000000E+00 -0.11686194682E+04  0.11686194682E+04  0.25500000920E-02 0. -1.
    10030    2    1    2    0    0  0.00000000000E+00  0.00000000000E+00 -0.10641654462E+04  0.12730734903E+04  0.69876177267E+03 0.  0.
        2    1    3    3  502    0 -0.52133125129E+02 -0.33416658430E+03 -0.69176503880E+03  0.77001560874E+03  0.25500000920E-02 0. -1.
       -2    1    3    3    0  502  0.52133125129E+02  0.33416658430E+03 -0.37240040735E+03  0.50305788156E+03  0.25500000920E-02 0.  1.
</event>
<event>
 5   0  0.1119786E-02  0.6989630E+03  0.7818609E-02  0.9719007E-01
       -2   -1    0    0    0  501  0.00000000000E+00  0.00000000000E+00  0.11928105256E+03  0.11928105259E+03  0.25500000920E-02 0.  1.
        2   -1    0    0  501    0  0.00000000000E+00  0.00000000000E+00 -0.10239457131E+04  0.10239457132E+04  0.25500000920E-02 0. -1.
    10030    2    1    2    0    0  0.00000000000E+00  0.00000000000E+00 -0.90466466059E+03  0.11432267657E+04  0.69896301033E+03 0.  0.
        3    1    3    3  502    0  0.26971237242E+03  0.24218685263E+02 -0.81367131080E+03  0.85755018557E+03  0.10100000352E+00 0. -1.
       -3    1    3    3    0  502 -0.26971237242E+03 -0.24218685263E+02 -0.90993349788E+02  0.28567658018E+03  0.10100000352E+00 0.  1.
</event>
<event>
 5   0  0.1119786E-02  0.7000224E+03  0.7818609E-02  0.9717194E-01
       -2   -1    0    0    0  501  0.00000000000E+00  0.00000000000E+00  0.13885372125E+03  0.13885372127E+03  0.25500000920E-02 0. -1.
        2   -1    0    0  501    0  0.00000000000E+00  0.00000000000E+00 -0.88227984854E+03  0.88227984855E+03  0.25500000920E-02 0.  1.
    10030    2    1    2    0    0  0.00000000000E+00  0.00000000000E+00 -0.74342612730E+03  0.10211335698E+04  0.70002240011E+03 0.  0.
        3    1    3    3  502    0  0.35673452270E+02  0.23825257421E+03 -0.13287061280E+01  0.24091214162E+03  0.10100000352E+00 0. -1.
       -3    1    3    3    0  502 -0.35673452270E+02 -0.23825257421E+03 -0.74209742117E+03  0.78022142820E+03  0.10100000352E+00 0.  1.
</event>
<event>
 5   0  0.1079446E-02  0.7014469E+03  0.7818609E-02  0.9714761E-01
        2   -1    0    0  501    0  0.00000000000E+00  0.00000000000E+00  0.10681386168E+03  0.10681386171E+03  0.25500000920E-02 0.  1.
       -2   -1    0    0    0  501  0.00000000000E+00  0.00000000000E+00 -0.11516008805E+04  0.11516008805E+04  0.25500000920E-02 0. -1.
    10030    2    1    2    0    0  0.00000000000E+00  0.00000000000E+00 -0.10447870188E+04  0.12584147422E+04  0.70144689656E+03 0.  0.
        2    1    3    3  502    0  0.92540185083E+02  0.32609102401E+02 -0.11264770876E+04  0.11307420874E+04  0.25500000920E-02 0. -1.
       -2    1    3    3    0  502 -0.92540185083E+02 -0.32609102401E+02  0.81690068821E+02  0.12767265473E+03  0.25500000920E-02 0.  1.
</event>
<event>
 5   0  0.6990118E-03  0.6963107E+03  0.7818609E-02  0.9723562E-01
        1   -1    0    0  501    0  0.00000000000E+00  0.00000000000E+00  0.61447132285E+03  0.61447132287E+03  0.50400001928E-02 0.  1.
       -1   -1    0    0    0  501  0.00000000000E+00  0.00000000000E+00 -0.19726249668E+03  0.19726249674E+03  0.50400001928E-02 0. -1.
    10030    2    1    2    0    0  0.00000000000E+00  0.00000000000E+00  0.41720882617E+03  0.81173381961E+03  0.69631069881E+03 0.  0.
        5    1    3    3  502    0  0.63773211216E+02  0.87938077585E+02 -0.17696204270E+03  0.20769637097E+03  0.46999998093E+01 0. -1.
       -5    1    3    3    0  502 -0.63773211216E+02 -0.87938077585E+02  0.59417086887E+03  0.60403744865E+03  0.46999998093E+01 0.  1.
</event>
<event>
 5   0  0.1099980E-02  0.6968451E+03  0.7818609E-02  0.9722643E-01
        2   -1    0    0  501    0  0.00000000000E+00  0.00000000000E+00  0.15601518084E+04  0.15601518084E+04  0.25500000920E-02 0.  1.
       -2   -1    0    0    0  501  0.00000000000E+00  0.00000000000E+00 -0.77811833285E+02  0.77811833327E+02  0.25500000920E-02 0. -1.
    10030    2    1    2    0    0  0.00000000000E+00  0.00000000000E+00  0.14823399751E+04  0.16379636417E+04  0.69684509742E+03 0.  0.
        5    1    3    3  502    0  0.17189883784E+03  0.68629774972E+02  0.14349459997E+04  0.14468418602E+04  0.46999998093E+01 0.  1.
       -5    1    3    3    0  502 -0.17189883784E+03 -0.68629774972E+02  0.47393975430E+02  0.19112178151E+03  0.46999998093E+01 0. -1.
</event>
<event>
 5   0  0.1119786E-02  0.6983317E+03  0.7818609E-02  0.9720089E-01
        2   -1    0    0  501    0  0.00000000000E+00  0.00000000000E+00  0.44230592458E+03  0.44230592459E+03  0.25500000920E-02 0.  1.
       -2   -1    0    0    0  501  0.00000000000E+00  0.00000000000E+00 -0.27563906045E+03  0.27563906046E+03  0.25500000920E-02 0. -1.
    10030    2    1    2    0    0  0.00000000000E+00  0.00000000000E+00  0.16666686413E+03  0.71794498505E+03  0.69833169623E+03 0.  0.
        3    1    3    3  502    0  0.12394271522E+03 -0.10940616519E+03 -0.23285150329E+03  0.28557194964E+03  0.10100000352E+00 0. -1.
       -3    1    3    3    0  502 -0.12394271522E+03  0.10940616519E+03  0.39951836742E+03  0.43237303540E+03  0.10100000352E+00 0.  1.
</event>
<event>
 5   0  0.6246998E-03  0.6964896E+03  0.7818609E-02  0.9723254E-01
       -1   -1    0    0    0  501  0.00000000000E+00  0.00000000000E+00  0.60628417403E+03  0.60628417405E+03  0.50400001928E-02 0. -1.
        1   -1    0    0  501    0  0.00000000000E+00  0.00000000000E+00 -0.20002905291E+03  0.20002905298E+03  0.50400001928E-02 0.  1.
    10030    2    1    2    0    0  0.00000000000E+00  0.00000000000E+00  0.40625512112E+03  0.80631322703E+03  0.69648962422E+03 0.  0.
        4    1    3    3  502    0 -0.24985757709E+03 -0.16746580205E+03  0.40629732675E+03  0.50552223918E+03  0.12699999809E+01 0. -1.
       -4    1    3    3    0  502  0.24985757709E+03  0.16746580205E+03 -0.42205628307E-01  0.30079098785E+03  0.12699999809E+01 0.  1.
</event>
<event>
 5   0  0.1109788E-02  0.6984782E+03  0.7818609E-02  0.9719838E-01
        2   -1    0    0  501    0  0.00000000000E+00  0.00000000000E+00  0.10141923946E+04  0.10141923946E+04  0.25500000920E-02 0.  1.
       -2   -1    0    0    0  501  0.00000000000E+00  0.00000000000E+00 -0.12026116687E+03  0.12026116689E+03  0.25500000920E-02 0. -1.
    10030    2    1    2    0    0  0.00000000000E+00  0.00000000000E+00  0.89393122774E+03  0.11344535615E+04  0.69847823393E+03 0.  0.
        1    1    3    3  502    0 -0.81983308114E+02  0.13449709084E+02  0.99790901109E+03  0.10013613493E+04  0.50400001928E-02 0.  1.
       -1    1    3    3    0  502  0.81983308114E+02 -0.13449709084E+02 -0.10397778336E+03  0.13309221217E+03  0.50400001928E-02 0. -1.
</event>
<event>
 5   0  0.1079446E-02  0.7084585E+03  0.7818609E-02  0.9702875E-01
        2   -1    0    0  501    0  0.00000000000E+00  0.00000000000E+00  0.36041625731E+03  0.36041625732E+03  0.25500000920E-02 0. -1.
       -2   -1    0    0    0  501  0.00000000000E+00  0.00000000000E+00 -0.34814843442E+03  0.34814843443E+03  0.25500000920E-02 0.  1.
    10030    2    1    2    0    0  0.00000000000E+00  0.00000000000E+00  0.12267822888E+02  0.70856469175E+03  0.70845848355E+03 0.  0.
        2    1    3    3  502    0 -0.34757520046E+03 -0.55794946579E+02 -0.33327797656E+02  0.35359912067E+03  0.25500000920E-02 0.  1.
       -2    1    3    3    0  502  0.34757520046E+03  0.55794946579E+02  0.45595620544E+02  0.35496557108E+03  0.25500000920E-02 0. -1.
</event>
<event>
 5   0  0.6609285E-03  0.6947125E+03  0.7818609E-02  0.9726317E-01
       -1   -1    0    0    0  501  0.00000000000E+00  0.00000000000E+00  0.38934686692E+03  0.38934686695E+03  0.50400001928E-02 0. -1.
        1   -1    0    0  501    0  0.00000000000E+00  0.00000000000E+00 -0.30989427074E+03  0.30989427078E+03  0.50400001928E-02 0.  1.
    10030    2    1    2    0    0  0.00000000000E+00  0.00000000000E+00  0.79452596180E+02  0.69924113773E+03  0.69471249712E+03 0.  0.
        2    1    3    3  502    0 -0.16196496594E+03 -0.18374341291E+03  0.28762855316E+03  0.37778893125E+03  0.25500000920E-02 0. -1.
       -2    1    3    3    0  502  0.16196496594E+03  0.18374341291E+03 -0.20817595698E+03  0.32145220648E+03  0.25500000920E-02 0.  1.
</event>
<event>
 5   0  0.1099980E-02  0.7001436E+03  0.7818609E-02  0.9716987E-01
       -2   -1    0    0    0  501  0.00000000000E+00  0.00000000000E+00  0.77232038642E+02  0.77232038684E+02  0.25500000920E-02 0. -1.
        2   -1    0    0  501    0  0.00000000000E+00  0.00000000000E+00 -0.15867801330E+04  0.15867801330E+04  0.25500000920E-02 0.  1.
    10030    2    1    2    0    0  0.00000000000E+00  0.00000000000E+00 -0.15095480943E+04  0.16640121717E+04  0.70014359836E+03 0.  0.
        5    1    3    3  502    0 -0.12252955837E+03 -0.75585041162E+02  0.35357081445E+01  0.14408741219E+03  0.46999998093E+01 0. -1.
       -5    1    3    3    0  502  0.12252955837E+03  0.75585041162E+02 -0.15130838025E+04  0.15199247595E+04  0.46999998093E+01 0.  1.
</event>
<event>
 5   0  0.6785252E-03  0.7013508E+03  0.7818609E-02  0.9714925E-01
        1   -1    0    0  501    0  0.00000000000E+00  0.00000000000E+00  0.10187212647E+04  0.10187212647E+04  0.50400001928E-02 0.  1.
       -1   -1    0    0    0  501  0.00000000000E+00  0.00000000000E+00 -0.12071332301E+03  0.12071332311E+03  0.50400001928E-02 0. -1.
    10030    2    1    2    0    0  0.00000000000E+00  0.00000000000E+00  0.89800794168E+03  0.11394345878E+04  0.70135077998E+03 0.  0.
        3    1    3    3  502    0 -0.78908085446E+02  0.57764172135E+02  0.99612052229E+03  0.10009092320E+04  0.10100000352E+00 0.  1.
       -3    1    3    3    0  502  0.78908085446E+02 -0.57764172135E+02 -0.98112580614E+02  0.13852535583E+03  0.10100000352E+00 0. -1.
</event>
<event>
 5   0  0.6785252E-03  0.7026181E+03  0.7818609E-02  0.9712765E-01
       -1   -1    0    0    0  501  0.00000000000E+00  0.00000000000E+00  0.17818416667E+03  0.17818416674E+03  0.50400001928E-02 0. -1.
        1   -1    0    0  501    0  0.00000000000E+00  0.00000000000E+00 -0.69264314999E+03  0.69264315000E+03  0.50400001928E-02 0.  1.
    10030    2    1    2    0    0  0.00000000000E+00  0.00000000000E+00 -0.51445898332E+03  0.87082731675E+03  0.70261808266E+03 0.  0.
        3    1    3    3  502    0  0.90624307897E+01  0.10068378534E+03 -0.67422694489E+03  0.68176340155E+03  0.10100000352E+00 0.  1.
       -3    1    3    3    0  502 -0.90624307897E+01 -0.10068378534E+03  0.15976796157E+03  0.18906391519E+03  0.10100000352E+00 0. -1.
</event>
<event>
 5   0  0.6609285E-03  0.6997787E+03  0.7818609E-02  0.9717611E-01
        1   -1    0    0  501    0  0.00000000000E+00  0.00000000000E+00  0.64595958588E+03  0.64595958590E+03  0.50400001928E-02 0. -1.
       -1   -1    0    0    0  501  0.00000000000E+00  0.00000000000E+00 -0.18952046609E+03  0.18952046615E+03  0.50400001928E-02 0.  1.
    10030    2    1    2    0    0  0.00000000000E+00  0.00000000000E+00  0.45643911979E+03  0.83548005205E+03  0.69977871309E+03 0.  0.
        2    1    3    3  502    0 -0.26182347210E+03 -0.23517913735E+02  0.50390386019E+03  0.56835176003E+03  0.25500000920E-02 0. -1.
       -2    1    3    3    0  502  0.26182347210E+03  0.23517913735E+02 -0.47464740395E+02  0.26712829202E+03  0.25500000920E-02 0.  1.
</event>
<event>
 5   0  0.1100119E-02  0.7074814E+03  0.7818609E-02  0.9704523E-01
       -2   -1    0    0    0  501  0.00000000000E+00  0.00000000000E+00  0.17240502603E+03  0.17240502604E+03  0.25500000920E-02 0.  1.
        2   -1    0    0  501    0  0.00000000000E+00  0.00000000000E+00 -0.72580527066E+03  0.72580527066E+03  0.25500000920E-02 0. -1.
    10030    2    1    2    0    0  0.00000000000E+00  0.00000000000E+00 -0.55340024463E+03  0.89821029671E+03  0.70748138233E+03 0.  0.
        4    1    3    3  502    0 -0.25854380182E+03 -0.21684807231E+03 -0.41143739046E+03  0.53211871146E+03  0.12699999809E+01 0. -1.
       -4    1    3    3    0  502  0.25854380182E+03  0.21684807231E+03 -0.14196285417E+03  0.36609158524E+03  0.12699999809E+01 0.  1.
</event>
<event>
 5   0  0.1079446E-02  0.6987246E+03  0.7818609E-02  0.9719416E-01
        2   -1    0    0  501    0  0.00000000000E+00  0.00000000000E+00  0.10438351992E+04  0.10438351992E+04  0.25500000920E-02 0.  1.
       -2   -1    0    0    0  501  0.00000000000E+00  0.00000000000E+00 -0.11692843992E+03  0.11692843995E+03  0.25500000920E-02 0. -1.
    10030    2    1    2    0    0  0.00000000000E+00  0.00000000000E+00  0.92690675931E+03  0.11607636392E+04  0.69872461356E+03 0.  0.
        2    1    3    3  502    0 -0.32972321405E+03  0.70916275461E+02  0.31203692650E+03  0.45947095612E+03  0.25500000920E-02 0. -1.
       -2    1    3    3    0  502  0.32972321405E+03 -0.70916275461E+02  0.61486983281E+03  0.70129268306E+03  0.25500000920E-02 0.  1.
</event>
<event>
 5   0  0.1100119E-02  0.6968878E+03  0.7818609E-02  0.9722569E-01
       -2   -1    0    0    0  501  0.00000000000E+00  0.00000000000E+00  0.26731942353E+03  0.26731942354E+03  0.25500000920E-02 0.  1.
        2   -1    0    0  501    0  0.00000000000E+00  0.00000000000E+00 -0.45418748037E+03  0.45418748037E+03  0.25500000920E-02 0. -1.
    10030    2    1    2    0    0  0.00000000000E+00  0.00000000000E+00 -0.18686805684E+03  0.72150690392E+03  0.69688775404E+03 0.  0.
        4    1    3    3  502    0  0.56658084727E+02  0.27715756712E+03 -0.30405397059E+03  0.41530336563E+03  0.12699999809E+01 0. -1.
       -4    1    3    3    0  502 -0.56658084727E+02 -0.27715756712E+03  0.11718591375E+03  0.30620353829E+03  0.12699999809E+01 0.  1.
</event>
<event>
 5   0  0.1109788E-02  0.6787911E+03  0.7818609E-02  0.9754206E-01
       -2   -1    0    0    0  501  0.00000000000E+00  0.00000000000E+00  0.69879541055E+03  0.69879541056E+03  0.25500000920E-02 0.  1.
        2   -1    0    0  501    0  0.00000000000E+00  0.00000000000E+00 -0.16483986187E+03  0.16483986189E+03  0.25500000920E-02 0. -1.
    10030    2    1    2    0    0  0.00000000000E+00  0.00000000000E+00  0.53395554868E+03  0.86363527245E+03  0.67879109882E+03 0.  0.
        1    1    3    3  502    0 -0.92113968518E+02 -0.25819845996E+03  0.52156108963E+03  0.58921761529E+03  0.50400001928E-02 0.  1.
       -1    1    3    3    0  502  0.92113968518E+02  0.25819845996E+03  0.12394459053E+02  0.27441765716E+03  0.50400001928E-02 0. -1.
</event>
<event>
 5   0  0.1119786E-02  0.6883177E+03  0.7818609E-02  0.9737422E-01
       -2   -1    0    0    0  501  0.00000000000E+00  0.00000000000E+00  0.58522100976E+03  0.58522100976E+03  0.25500000920E-02 0.  1.
        2   -1    0    0  501    0  0.00000000000E+00  0.00000000000E+00 -0.20239413292E+03  0.20239413293E+03  0.25500000920E-02 0. -1.
    10030    2    1    2    0    0  0.00000000000E+00  0.00000000000E+00  0.38282687684E+03  0.78761514270E+03  0.68831765586E+03 0.  0.
        3    1    3    3  502    0 -0.25135181660E+03 -0.11503462735E+02 -0.77269269360E+02  0.26321211133E+03  0.10100000352E+00 0. -1.
       -3    1    3    3    0  502  0.25135181660E+03  0.11503462735E+02  0.46009614620E+03  0.52440303137E+03  0.10100000352E+00 0.  1.
</event>
<event>
 5   0  0.6689415E-03  0.7020040E+03  0.7818609E-02  0.9713811E-01
        1   -1    0    0  501    0  0.00000000000E+00  0.00000000000E+00  0.63645860742E+03  0.63645860744E+03  0.50400001928E-02 0.  1.
       -1   -1    0    0    0  501  0.00000000000E+00  0.00000000000E+00 -0.19357489413E+03  0.19357489420E+03  0.50400001928E-02 0. -1.
    10030    2    1    2    0    0  0.00000000000E+00  0.00000000000E+00  0.44288371329E+03  0.83003350164E+03  0.70200401021E+03 0.  0.
        1    1    3    3  502    0 -0.21798742161E+03 -0.13531845429E+03 -0.61768466665E+02  0.26390328446E+03  0.50400001928E-02 0. -1.
       -1    1    3    3    0  502  0.21798742161E+03  0.13531845429E+03  0.50465217995E+03  0.56613021718E+03  0.50400001928E-02 0.  1.
</event>
<event>
 5   0  0.1079446E-02  0.7004067E+03  0.7818609E-02  0.9716537E-01
       -2   -1    0    0    0  501  0.00000000000E+00  0.00000000000E+00  0.11633196778E+03  0.11633196780E+03  0.25500000920E-02 0. -1.
        2   -1    0    0  501    0  0.00000000000E+00  0.00000000000E+00 -0.10542449798E+04  0.10542449798E+04  0.25500000920E-02 0.  1.
    10030    2    1    2    0    0  0.00000000000E+00  0.00000000000E+00 -0.93791301203E+03  0.11705769476E+04  0.70040671909E+03 0.  0.
        2    1    3    3  502    0  0.26812860640E+03  0.18262227810E+03 -0.24850851067E+03  0.40865673360E+03  0.25500000920E-02 0. -1.
       -2    1    3    3    0  502 -0.26812860640E+03 -0.18262227810E+03 -0.68940450136E+03  0.76192021402E+03  0.25500000920E-02 0.  1.
</event>
<event>
 5   0  0.6609285E-03  0.6960736E+03  0.7818609E-02  0.9723971E-01
       -1   -1    0    0    0  501  0.00000000000E+00  0.00000000000E+00  0.26252668761E+03  0.26252668766E+03  0.50400001928E-02 0. -1.
        1   -1    0    0  501    0  0.00000000000E+00  0.00000000000E+00 -0.46139922708E+03  0.46139922711E+03  0.50400001928E-02 0.  1.
    10030    2    1    2    0    0  0.00000000000E+00  0.00000000000E+00 -0.19887253947E+03  0.72392591477E+03  0.69607359030E+03 0.  0.
        2    1    3    3  502    0 -0.23220383552E+03 -0.76071615290E+02  0.15831948130E+03  0.29115385976E+03  0.25500000920E-02 0. -1.
       -2    1    3    3    0  502  0.23220383552E+03  0.76071615290E+02 -0.35719202078E+03  0.43277205501E+03  0.25500000920E-02 0.  1.
</event>
<event>
 5   0  0.1079446E-02  0.7198676E+03  0.7818609E-02  0.9683847E-01
        2   -1    0    0  501    0  0.00000000000E+00  0.00000000000E+00  0.31443702057E+03  0.31443702058E+03  0.25500000920E-02 0. -1.
       -2   -1    0    0    0  501  0.00000000000E+00  0.00000000000E+00 -0.41201358062E+03  0.41201358063E+03  0.25500000920E-02 0.  1.
    10030    2    1    2    0    0  0.00000000000E+00  0.00000000000E+00 -0.97576560054E+02  0.72645060121E+03  0.71986755096E+03 0.  0.
        2    1    3    3  502    0 -0.16830499817E+03 -0.31454331204E+02  0.27070826552E+03  0.32031064982E+03  0.25500000920E-02 0. -1.
       -2    1    3    3    0  502  0.16830499817E+03  0.31454331204E+02 -0.36828482557E+03  0.40613995139E+03  0.25500000920E-02 0.  1.
</event>
<event>
 5   0  0.1100119E-02  0.7010733E+03  0.7818609E-02  0.9715399E-01
       -2   -1    0    0    0  501  0.00000000000E+00  0.00000000000E+00  0.11696312927E+03  0.11696312929E+03  0.25500000920E-02 0.  1.
        2   -1    0    0  501    0  0.00000000000E+00  0.00000000000E+00 -0.10505526869E+04  0.10505526869E+04  0.25500000920E-02 0. -1.
    10030    2    1    2    0    0  0.00000000000E+00  0.00000000000E+00 -0.93358955763E+03  0.11675158162E+04  0.70107326218E+03 0.  0.
        4    1    3    3  502    0  0.19784627662E+03  0.21893494881E+03 -0.15170615118E+03  0.33180119076E+03  0.12699999809E+01 0. -1.
       -4    1    3    3    0  502 -0.19784627662E+03 -0.21893494881E+03 -0.78188340645E+03  0.83571462543E+03  0.12699999809E+01 0.  1.
</event>
<event>
 5   0  0.6246998E-03  0.6955544E+03  0.7818609E-02  0.9724865E-01
        1   -1    0    0  501    0  0.00000000000E+00  0.00000000000E+00  0.13872251153E+04  0.13872251153E+04  0.50400001928E-02 0.  1.
       -1   -1    0    0    0  501  0.00000000000E+00  0.00000000000E+00 -0.87187699218E+02  0.87187699364E+02  0.50400001928E-02 0. -1.
    10030    2    1    2    0    0  0.00000000000E+00  0.00000000000E+00  0.13000374161E+04  0.14744128147E+04  0.69555435796E+03 0.  0.
        4    1    3    3  502    0  0.10808196392E+03 -0.10054846758E+03 -0.17474344043E+02  0.14865621702E+03  0.12699999809E+01 0. -1.
       -4    1    3    3    0  502 -0.10808196392E+03  0.10054846758E+03  0.13175117602E+04  0.13257565977E+04  0.12699999809E+01 0.  1.
</event>
<event>
 5   0  0.6785252E-03  0.7050186E+03  0.7818609E-02  0.9708688E-01
       -1   -1    0    0    0  501  0.00000000000E+00  0.00000000000E+00  0.90047450951E+02  0.90047451092E+02  0.50400001928E-02 0.  1.
        1   -1    0    0  501    0  0.00000000000E+00  0.00000000000E+00 -0.13799701489E+04  0.13799701489E+04  0.50400001928E-02 0. -1.
    10030    2    1    2    0    0  0.00000000000E+00  0.00000000000E+00 -0.12899226980E+04  0.14700176000E+04  0.70501856545E+03 0.  0.
        3    1    3    3  502    0 -0.21020017995E+02 -0.34770244395E+03 -0.53221377298E+03  0.63607416316E+03  0.10100000352E+00 0.  1.
       -3    1    3    3    0  502  0.21020017995E+02  0.34770244395E+03 -0.75770892498E+03  0.83394343686E+03  0.10100000352E+00 0. -1.
</event>
<event>
 5   0  0.1119786E-02  0.7033293E+03  0.7818609E-02  0.9711555E-01
        2   -1    0    0  501    0  0.00000000000E+00  0.00000000000E+00  0.10557648657E+04  0.10557648657E+04  0.25500000920E-02 0.  1.
       -2   -1    0    0    0  501  0.00000000000E+00  0.00000000000E+00 -0.11713596358E+03  0.11713596360E+03  0.25500000920E-02 0. -1.
    10030    2    1    2    0    0  0.00000000000E+00  0.00000000000E+00  0.93862890213E+03  0.11729008293E+04  0.70332932506E+03 0.  0.
        3    1    3    3  502    0 -0.13633638051E+03 -0.16271125374E+03  0.17635100328E+01  0.21228678931E+03  0.10100000352E+00 0. -1.
       -3    1    3    3    0  502  0.13633638051E+03  0.16271125374E+03  0.93686539209E+03  0.96061404000E+03  0.10100000352E+00 0.  1.
</event>
<event>
 5   0  0.6990118E-03  0.6989754E+03  0.7818609E-02  0.9718986E-01
        1   -1    0    0  501    0  0.00000000000E+00  0.00000000000E+00  0.11532338128E+04  0.11532338129E+04  0.50400001928E-02 0. -1.
       -1   -1    0    0    0  501  0.00000000000E+00  0.00000000000E+00 -0.10591229884E+03  0.10591229896E+03  0.50400001928E-02 0.  1.
    10030    2    1    2    0    0  0.00000000000E+00  0.00000000000E+00  0.10473215140E+04  0.12591461118E+04  0.69897537667E+03 0.  0.
        5    1    3    3  502    0 -0.19360505911E+03  0.18724208078E+03  0.12255902023E+03  0.29594816973E+03  0.46999998093E+01 0.  1.
       -5    1    3    3    0  502  0.19360505911E+03 -0.18724208078E+03  0.92476249379E+03  0.96319794209E+03  0.46999998093E+01 0. -1.
</event>
<event>
 5   0  0.6246998E-03  0.6992949E+03  0.7818609E-02  0.9718439E-01
       -1   -1    0    0    0  501  0.00000000000E+00  0.00000000000E+00  0.32468341753E+03  0.32468341757E+03  0.50400001928E-02 0.  1.
        1   -1    0    0  501    0  0.00000000000E+00  0.00000000000E+00 -0.37653092575E+03  0.37653092579E+03  0.50400001928E-02 0. -1.
    10030    2    1    2    0    0  0.00000000000E+00  0.00000000000E+00 -0.51847508224E+02  0.70121434336E+03  0.69929492435E+03 0.  0.
        4    1    3    3  502    0  0.16364009934E+03 -0.30630500836E+03  0.14818972996E+02  0.34759467072E+03  0.12699999809E+01 0. -1.
       -4    1    3    3    0  502 -0.16364009934E+03  0.30630500836E+03 -0.66666481220E+02  0.35361967263E+03  0.12699999809E+01 0.  1.
</event>
<event>
 5   0  0.1100119E-02  0.7046917E+03  0.7818609E-02  0.9709242E-01
        2   -1    0    0  501    0  0.00000000000E+00  0.00000000000E+00  0.14232159479E+04  0.14232159479E+04  0.25500000920E-02 0.  1.
       -2   -1    0    0    0  501  0.00000000000E+00  0.00000000000E+00 -0.87230343090E+02  0.87230343127E+02  0.25500000920E-02 0. -1.
    10030    2    1    2    0    0  0.00000000000E+00  0.00000000000E+00  0.13359856048E+04  0.15104462910E+04  0.70469174951E+03 0.  0.
        4    1    3    3  502    0  0.12646270757E+03 -0.28773581150E+03  0.32664920502E+03  0.45330566913E+03  0.12699999809E+01 0.  1.
       -4    1    3    3    0  502 -0.12646270757E+03  0.28773581150E+03  0.10093363998E+04  0.10571406219E+04  0.12699999809E+01 0. -1.
</event>
<event>
 5   0  0.1109788E-02  0.6995975E+03  0.7818609E-02  0.9717921E-01
       -2   -1    0    0    0  501  0.00000000000E+00  0.00000000000E+00  0.26154925535E+03  0.26154925537E+03  0.25500000920E-02 0. -1.
        2   -1    0    0  501    0  0.00000000000E+00  0.00000000000E+00 -0.46782451115E+03  0.46782451116E+03  0.25500000920E-02 0.  1.
    10030    2    1    2    0    0  0.00000000000E+00  0.00000000000E+00 -0.20627525579E+03  0.72937376652E+03  0.69959746293E+03 0.  0.
        1    1    3    3  502    0  0.16638880394E+03 -0.20082952829E+03 -0.34617183252E+03  0.43341974017E+03  0.50400001928E-02 0.  1.
       -1    1    3    3    0  502 -0.16638880394E+03  0.20082952829E+03  0.13989657673E+03  0.29595402635E+03  0.50400001928E-02 0. -1.
</event>
<event>
 5   0  0.6609285E-03  0.7084310E+03  0.7818609E-02  0.9702922E-01
       -1   -1    0    0    0  501  0.00000000000E+00  0.00000000000E+00  0.32504882946E+03  0.32504882950E+03  0.50400001928E-02 0.  1.
        1   -1    0    0  501    0  0.00000000000E+00  0.00000000000E+00 -0.38599930446E+03  0.38599930450E+03  0.50400001928E-02 0. -1.
    10030    2    1    2    0    0  0.00000000000E+00  0.00000000000E+00 -0.60950475006E+02  0.71104813399E+03  0.70843100472E+03 0.  0.
        2    1    3    3  502    0  0.32967496167E+03 -0.12630319741E+03 -0.59400864667E+02  0.35800354853E+03  0.25500000920E-02 0.  1.
       -2    1    3    3    0  502 -0.32967496167E+03  0.12630319741E+03 -0.15496103384E+01  0.35304458547E+03  0.25500000920E-02 0. -1.
</event>
<event>
 5   0  0.1079446E-02  0.7021511E+03  0.7818609E-02  0.9713561E-01
       -2   -1    0    0    0  501  0.00000000000E+00  0.00000000000E+00  0.41115541839E+03  0.41115541840E+03  0.25500000920E-02 0. -1.
        2   -1    0    0  501    0  0.00000000000E+00  0.00000000000E+00 -0.29977479017E+03  0.29977479018E+03  0.25500000920E-02 0.  1.
    10030    2    1    2    0    0  0.00000000000E+00  0.00000000000E+00  0.11138062823E+03  0.71093020858E+03  0.70215106432E+03 0.  0.
        2    1    3    3  502    0  0.16168675954E+03  0.10775239462E+03 -0.24037096226E+03  0.30908152042E+03  0.25500000920E-02 0.  1.
       -2    1    3    3    0  502 -0.16168675954E+03 -0.10775239462E+03  0.35175159049E+03  0.40184868816E+03  0.25500000920E-02 0. -1.
</event>
<event>
 5   0  0.4440500E-03  0.7023606E+03  0.7818609E-02  0.9713204E-01
       -3   -1    0    0    0  501  0.00000000000E+00  0.00000000000E+00  0.51407061158E+03  0.51407062150E+03  0.10100000352E+00 0. -1.
        3   -1    0    0  501    0  0.00000000000E+00  0.00000000000E+00 -0.23990397860E+03  0.23990399986E+03  0.10100000352E+00 0.  1.
    10030    2    1    2    0    0  0.00000000000E+00  0.00000000000E+00  0.27416663298E+03  0.75397462136E+03  0.70236058191E+03 0.  0.
        4    1    3    3  502    0 -0.13959728044E+03  0.96143571783E+02  0.46724804915E+03  0.49704460508E+03  0.12699999809E+01 0. -1.
       -4    1    3    3    0  502  0.13959728044E+03 -0.96143571783E+02 -0.19308141616E+03  0.25693001629E+03  0.12699999809E+01 0.  1.
</event>
<event>
 5   0  0.1109788E-02  0.7075177E+03  0.7818609E-02  0.9704462E-01
       -2   -1    0    0    0  501  0.00000000000E+00  0.00000000000E+00  0.32612932370E+03  0.32612932371E+03  0.25500000920E-02 0. -1.
        2   -1    0    0  501    0  0.00000000000E+00  0.00000000000E+00 -0.38372917172E+03  0.38372917173E+03  0.25500000920E-02 0.  1.
    10030    2    1    2    0    0  0.00000000000E+00  0.00000000000E+00 -0.57599848015E+02  0.70985849544E+03  0.70751773197E+03 0.  0.
        1    1    3    3  502    0 -0.34439120926E+03 -0.38401841423E+02 -0.10020651110E+03  0.36072337231E+03  0.50400001928E-02 0. -1.
       -1    1    3    3    0  502  0.34439120926E+03  0.38401841423E+02  0.42606663081E+02  0.34913512313E+03  0.50400001928E-02 0.  1.
</event>
<event>
 5   0  0.1119786E-02  0.7008248E+03  0.7818609E-02  0.9715823E-01
        2   -1    0    0  501    0  0.00000000000E+00  0.00000000000E+00  0.27884655314E+03  0.27884655315E+03  0.25500000920E-02 0.  1.
       -2   -1    0    0    0  501  0.00000000000E+00  0.00000000000E+00 -0.44034559596E+03  0.44034559596E+03  0.25500000920E-02 0. -1.
    10030    2    1    2    0    0  0.00000000000E+00  0.00000000000E+00 -0.16149904281E+03  0.71919214912E+03  0.70082480444E+03 0.  0.
        3    1    3    3  502    0 -0.40160655072E+02 -0.33210000632E+03  0.26318713296E+02  0.33555324061E+03  0.10100000352E+00 0.  1.
       -3    1    3    3    0  502  0.40160655072E+02  0.33210000632E+03 -0.18781775611E+03  0.38363890851E+03  0.10100000352E+00 0. -1.
</event>
<event>
 5   0  0.1079446E-02  0.6996954E+03  0.7818609E-02  0.9717753E-01
        2   -1    0    0  501    0  0.00000000000E+00  0.00000000000E+00  0.55884341359E+03  0.55884341360E+03  0.25500000920E-02 0.  1.
       -2   -1    0    0    0  501  0.00000000000E+00  0.00000000000E+00 -0.21901198456E+03  0.21901198458E+03  0.25500000920E-02 0. -1.
    10030    2    1    2    0    0  0.00000000000E+00  0.00000000000E+00  0.33983142903E+03  0.77785539817E+03  0.69969537680E+03 0.  0.
        2    1    3    3  502    0 -0.10820535781E+03 -0.26643601129E+03 -0.51581326992E+02  0.29215951271E+03  0.25500000920E-02 0. -1.
       -2    1    3    3    0  502  0.10820535781E+03  0.26643601129E+03  0.39141275602E+03  0.48569588546E+03  0.25500000920E-02 0.  1.
</event>
<event>
 5   0  0.6990118E-03  0.6997088E+03  0.7818609E-02  0.9717730E-01
        1   -1    0    0  501    0  0.00000000000E+00  0.00000000000E+00  0.67486676578E+03  0.67486676580E+03  0.50400001928E-02 0. -1.
       -1   -1    0    0    0  501  0.00000000000E+00  0.00000000000E+00 -0.18136633654E+03  0.18136633661E+03  0.50400001928E-02 0.  1.
    10030    2    1    2    0    0  0.00000000000E+00  0.00000000000E+00  0.49350042924E+03  0.85623310241E+03  0.69970883373E+03 0.  0.
        5    1    3    3  502    0  0.29811628271E+03  0.15475349705E+03  0.12713989736E+03  0.35917768077E+03  0.46999998093E+01 0.  1.
       -5    1    3    3    0  502 -0.29811628271E+03 -0.15475349705E+03  0.36636053188E+03  0.49705542164E+03  0.46999998093E+01 0. -1.
</event>
<event>
 5   0  0.1100119E-02  0.6991503E+03  0.7818609E-02  0.9718686E-01
       -2   -1    0    0    0  501  0.00000000000E+00  0.00000000000E+00  0.60526385395E+03  0.60526385395E+03  0.25500000920E-02 0.  1.
        2   -1    0    0  501    0  0.00000000000E+00  0.00000000000E+00 -0.20190001306E+03  0.20190001308E+03  0.25500000920E-02 0. -1.
    10030    2    1    2    0    0  0.00000000000E+00  0.00000000000E+00  0.40336384089E+03  0.80716386703E+03  0.69915028435E+03 0.  0.
        4    1    3    3  502    0 -0.43765947390E+02 -0.76792202218E+02  0.59214742515E+03  0.59870918356E+03  0.12699999809E+01 0.  1.
       -4    1    3    3    0  502  0.43765947390E+02  0.76792202218E+02 -0.18878358426E+03  0.20845468347E+03  0.12699999809E+01 0. -1.
</event>
<event>
 5   0  0.6689415E-03  0.7014448E+03  0.7818609E-02  0.9714765E-01
       -1   -1    0    0    0  501  0.00000000000E+00  0.00000000000E+00  0.88634594784E+02  0.88634594927E+02  0.50400001928E-02 0. -1.
        1   -1    0    0  501    0  0.00000000000E+00  0.00000000000E+00 -0.13877899112E+04  0.13877899112E+04  0.50400001928E-02 0.  1.
    10030    2    1    2    0    0  0.00000000000E+00  0.00000000000E+00 -0.12991553164E+04  0.14764245061E+04  0.70144478482E+03 0.  0.
        1    1    3    3  502    0  0.23605785882E+03  0.25402190029E+03 -0.53908376123E+03  0.64098497657E+03  0.50400001928E-02 0. -1.
       -1    1    3    3    0  502 -0.23605785882E+03 -0.25402190029E+03 -0.76007155518E+03  0.83543952956E+03  0.50400001928E-02 0.  1.
</event>
<event>
 5   0  0.6689415E-03  0.7004847E+03  0.7818609E-02  0.9716404E-01
        1   -1    0    0  501    0  0.00000000000E+00  0.00000000000E+00  0.79313907804E+02  0.79313907964E+02  0.50400001928E-02 0. -1.
       -1   -1    0    0    0  501  0.00000000000E+00  0.00000000000E+00 -0.15466352717E+04  0.15466352717E+04  0.50400001928E-02 0.  1.
    10030    2    1    2    0    0  0.00000000000E+00  0.00000000000E+00 -0.14673213639E+04  0.16259491797E+04  0.70048465360E+03 0.  0.
        1    1    3    3  502    0 -0.34424474299E+03  0.83520922825E+01 -0.88220673419E+03  0.94702846969E+03  0.50400001928E-02 0. -1.
       -1    1    3    3    0  502  0.34424474299E+03 -0.83520922825E+01 -0.58511462969E+03  0.67892070997E+03  0.50400001928E-02 0.  1.
</event>
<event>
 5   0  0.1119786E-02  0.7022185E+03  0.7818609E-02  0.9713446E-01
        2   -1    0    0  501    0  0.00000000000E+00  0.00000000000E+00  0.56795381755E+03  0.56795381756E+03  0.25500000920E-02 0.  1.
       -2   -1    0    0    0  501  0.00000000000E+00  0.00000000000E+00 -0.21705584447E+03  0.21705584448E+03  0.25500000920E-02 0. -1.
    10030    2    1    2    0    0  0.00000000000E+00  0.00000000000E+00  0.35089797308E+03  0.78500966204E+03  0.70221847169E+03 0.  0.
        3    1    3    3  502    0  0.32064037467E+02  0.33772968990E+03  0.74291502895E+02  0.34728760926E+03  0.10100000352E+00 0. -1.
       -3    1    3    3    0  502 -0.32064037467E+02 -0.33772968990E+03  0.27660647019E+03  0.43772205278E+03  0.10100000352E+00 0.  1.
</event>
<event>
 5   0  0.6990118E-03  0.7061309E+03  0.7818609E-02  0.9706805E-01
       -1   -1    0    0    0  501  0.00000000000E+00  0.00000000000E+00  0.14088004217E+03  0.14088004226E+03  0.50400001928E-02 0. -1.
        1   -1    0    0  501    0  0.00000000000E+00  0.00000000000E+00 -0.88483239342E+03  0.88483239344E+03  0.50400001928E-02 0.  1.
    10030    2    1    2    0    0  0.00000000000E+00  0.00000000000E+00 -0.74395235125E+03  0.10257124357E+04  0.70613093673E+03 0.  0.
        5    1    3    3  502    0 -0.16721509024E+03  0.16364858071E+03 -0.75599474254E+03  0.79138605315E+03  0.46999998093E+01 0.  1.
       -5    1    3    3    0  502  0.16721509024E+03 -0.16364858071E+03  0.12042391286E+02  0.23432638255E+03  0.46999998093E+01 0. -1.
</event>
<event>
 5   0  0.6785252E-03  0.6999727E+03  0.7818609E-02  0.9717279E-01
       -1   -1    0    0    0  501  0.00000000000E+00  0.00000000000E+00  0.41642990109E+03  0.41642990113E+03  0.50400001928E-02 0. -1.
        1   -1    0    0  501    0  0.00000000000E+00  0.00000000000E+00 -0.29414421028E+03  0.29414421032E+03  0.50400001928E-02 0.  1.
    10030    2    1    2    0    0  0.00000000000E+00  0.00000000000E+00  0.12228569082E+03  0.71057411145E+03  0.69997269781E+03 0.  0.
        3    1    3    3  502    0 -0.31837946321E+03 -0.79676500146E+02  0.18454298204E+03  0.37652350483E+03  0.10100000352E+00 0. -1.
       -3    1    3    3    0  502  0.31837946321E+03  0.79676500146E+02 -0.62257291225E+02  0.33405060661E+03  0.10100000352E+00 0.  1.
</event>
<event>
 5   0  0.6246998E-03  0.6723720E+03  0.7818609E-02  0.9765682E-01
        1   -1    0    0  501    0  0.00000000000E+00  0.00000000000E+00  0.10254485847E+04  0.10254485847E+04  0.50400001928E-02 0.  1.
       -1   -1    0    0    0  501  0.00000000000E+00  0.00000000000E+00 -0.11021619504E+03  0.11021619515E+03  0.50400001928E-02 0. -1.
    10030    2    1    2    0    0  0.00000000000E+00  0.00000000000E+00  0.91523238969E+03  0.11356647799E+04  0.67237204370E+03 0.  0.
        4    1    3    3  502    0  0.12782726901E+03 -0.23475405038E+03  0.11324142679E+03  0.29030072083E+03  0.12699999809E+01 0. -1.
       -4    1    3    3    0  502 -0.12782726901E+03  0.23475405038E+03  0.80199096290E+03  0.84536405906E+03  0.12699999809E+01 0.  1.
</event>
<event>
 5   0  0.6990118E-03  0.7017033E+03  0.7818609E-02  0.9714324E-01
       -1   -1    0    0    0  501  0.00000000000E+00  0.00000000000E+00  0.17543592675E+03  0.17543592682E+03  0.50400001928E-02 0. -1.
        1   -1    0    0  501    0  0.00000000000E+00  0.00000000000E+00 -0.70166288388E+03  0.70166288389E+03  0.50400001928E-02 0.  1.
    10030    2    1    2    0    0  0.00000000000E+00  0.00000000000E+00 -0.52622695713E+03  0.87709881072E+03  0.70170329439E+03 0.  0.
        5    1    3    3  502    0  0.22309927117E+03  0.16211071979E+03 -0.53415997098E+03  0.60116731021E+03  0.46999998093E+01 0.  1.
       -5    1    3    3    0  502 -0.22309927117E+03 -0.16211071979E+03  0.79330138513E+01  0.27593150051E+03  0.46999998093E+01 0. -1.
</event>
<event>
 5   0  0.6246998E-03  0.6968816E+03  0.7818609E-02  0.9722580E-01
       -1   -1    0    0    0  501  0.00000000000E+00  0.00000000000E+00  0.15729656626E+03  0.15729656634E+03  0.50400001928E-02 0.  1.
        1   -1    0    0  501    0  0.00000000000E+00  0.00000000000E+00 -0.77186040027E+03  0.77186040029E+03  0.50400001928E-02 0. -1.
    10030    2    1    2    0    0  0.00000000000E+00  0.00000000000E+00 -0.61456383402E+03  0.92915696663E+03  0.69688159866E+03 0.  0.
        4    1    3    3  502    0 -0.10460141423E+03  0.10681057192E+03 -0.72692298998E+03  0.74213785808E+03  0.12699999809E+01 0. -1.
       -4    1    3    3    0  502  0.10460141423E+03 -0.10681057192E+03  0.11235915597E+03  0.18701910855E+03  0.12699999809E+01 0.  1.
</event>
<event>
 5   0  0.1109788E-02  0.7073569E+03  0.7818609E-02  0.9704733E-01
       -2   -1    0    0    0  501  0.00000000000E+00  0.00000000000E+00  0.23134294222E+03  0.23134294224E+03  0.25500000920E-02 0.  1.
        2   -1    0    0  501    0  0.00000000000E+00  0.00000000000E+00 -0.54070572701E+03  0.54070572702E+03  0.25500000920E-02 0. -1.
    10030    2    1    2    0    0  0.00000000000E+00  0.00000000000E+00 -0.30936278479E+03  0.77204866925E+03  0.70735692199E+03 0.  0.
        1    1    3    3  502    0  0.19394777726E+03  0.25537804239E+03  0.81423061036E+01  0.32078027061E+03  0.50400001928E-02 0. -1.
       -1    1    3    3    0  502 -0.19394777726E+03 -0.25537804239E+03 -0.31750509089E+03  0.45126839864E+03  0.50400001928E-02 0.  1.
</event>
<event>
 5   0  0.6246998E-03  0.7078390E+03  0.7818609E-02  0.9703920E-01
        1   -1    0    0  501    0  0.00000000000E+00  0.00000000000E+00  0.83813217664E+03  0.83813217665E+03  0.50400001928E-02 0. -1.
       -1   -1    0    0    0  501  0.00000000000E+00  0.00000000000E+00 -0.14945018184E+03  0.14945018193E+03  0.50400001928E-02 0.  1.
    10030    2    1    2    0    0  0.00000000000E+00  0.00000000000E+00  0.68868199480E+03  0.98758235858E+03  0.70783898241E+03 0.  0.
        4    1    3    3  502    0 -0.30510158239E+02  0.97223735222E+02 -0.12853780773E+03  0.16403324469E+03  0.12699999809E+01 0.  1.
       -4    1    3    3    0  502  0.30510158239E+02 -0.97223735222E+02  0.81721980253E+03  0.82354911389E+03  0.12699999809E+01 0. -1.
</event>
<event>
 5   0  0.1119786E-02  0.6993723E+03  0.7818609E-02  0.9718306E-01
       -2   -1    0    0    0  501  0.00000000000E+00  0.00000000000E+00  0.17015492812E+03  0.17015492814E+03  0.25500000920E-02 0. -1.
        2   -1    0    0  501    0  0.00000000000E+00  0.00000000000E+00 -0.71864160201E+03  0.71864160201E+03  0.25500000920E-02 0.  1.
    10030    2    1    2    0    0  0.00000000000E+00  0.00000000000E+00 -0.54848667388E+03  0.88879653015E+03  0.69937231900E+03 0.  0.
        3    1    3    3  502    0  0.33766136780E+03 -0.19117145299E+02 -0.16128970919E+03  0.37469326794E+03  0.10100000352E+00 0. -1.
       -3    1    3    3    0  502 -0.33766136780E+03  0.19117145299E+02 -0.38719696469E+03  0.51410326221E+03  0.10100000352E+00 0.  1.
</event>
<event>
 5   0  0.1100119E-02  0.6992076E+03  0.7818609E-02  0.9718588E-01
        2   -1    0    0  501    0  0.00000000000E+00  0.00000000000E+00  0.77704113043E+03  0.77704113044E+03  0.25500000920E-02 0.  1.
       -2   -1    0    0    0  501  0.00000000000E+00  0.00000000000E+00 -0.15729261413E+03  0.15729261416E+03  0.25500000920E-02 0. -1.
    10030    2    1    2    0    0  0.00000000000E+00  0.00000000000E+00  0.61974851630E+03  0.93433374459E+03  0.69920763928E+03 0.  0.
        4    1    3    3  502    0 -0.13373521052E+03  0.65376282632E+02 -0.11282411278E+03  0.18678880638E+03  0.12699999809E+01 0. -1.
       -4    1    3    3    0  502  0.13373521052E+03 -0.65376282632E+02  0.73257262908E+03  0.74754493821E+03  0.12699999809E+01 0.  1.
</event>
<event>
 5   0  0.6246998E-03  0.6973172E+03  0.7818609E-02  0.9721831E-01
        1   -1    0    0  501    0  0.00000000000E+00  0.00000000000E+00  0.22607158495E+03  0.22607158501E+03  0.50400001928E-02 0.  1.
       -1   -1    0    0    0  501  0.00000000000E+00  0.00000000000E+00 -0.53771825990E+03  0.53771825993E+03  0.50400001928E-02 0. -1.
    10030    2    1    2    0    0  0.00000000000E+00  0.00000000000E+00 -0.31164667495E+03  0.76378984493E+03  0.69731719986E+03 0.  0.
        4    1    3    3  502    0 -0.46693478720E+02 -0.33570848200E+03 -0.24535070317E+03  0.41842448099E+03  0.12699999809E+01 0.  1.
       -4    1    3    3    0  502  0.46693478720E+02  0.33570848200E+03 -0.66295971776E+02  0.34536536395E+03  0.12699999809E+01 0. -1.
</event>
<event>
 5   0  0.6689415E-03  0.6979138E+03  0.7818609E-02  0.9720807E-01
       -1   -1    0    0    0  501  0.00000000000E+00  0.00000000000E+00  0.15738389337E+03  0.15738389345E+03  0.50400001928E-02 0. -1.
        1   -1    0    0  501    0  0.00000000000E+00  0.00000000000E+00 -0.77371900423E+03  0.77371900425E+03  0.50400001928E-02 0.  1.
    10030    2    1    2    0    0  0.00000000000E+00  0.00000000000E+00 -0.61633511087E+03  0.93110289770E+03  0.69791377491E+03 0.  0.
        1    1    3    3  502    0  0.25799473959E+03  0.21941253931E+03 -0.19600785460E+03  0.39130835304E+03  0.50400001928E-02 0. -1.
       -1    1    3    3    0  502 -0.25799473959E+03 -0.21941253931E+03 -0.42032725626E+03  0.53979454466E+03  0.50400001928E-02 0.  1.
</event>
<event>
 5   0  0.1079446E-02  0.6979071E+03  0.7818609E-02  0.9720818E-01
       -2   -1    0    0    0  501  0.00000000000E+00  0.00000000000E+00  0.18837577582E+03  0.18837577584E+03  0.25500000920E-02 0.  1.
        2   -1    0    0  501    0  0.00000000000E+00  0.00000000000E+00 -0.64641316696E+03  0.64641316697E+03  0.25500000920E-02 0. -1.
    10030    2    1    2    0    0  0.00000000000E+00  0.00000000000E+00 -0.45803739114E+03  0.83478894281E+03  0.69790710510E+03 0.  0.
        2    1    3    3  502    0 -0.10987544170E+03  0.31662824161E+03 -0.11278737894E+03  0.35361992157E+03  0.25500000920E-02 0.  1.
       -2    1    3    3    0  502  0.10987544170E+03 -0.31662824161E+03 -0.34525001220E+03  0.48116902124E+03  0.25500000920E-02 0. -1.
</event>
<event>
 5   0  0.1119786E-02  0.6985655E+03  0.7818609E-02  0.9719688E-01
        2   -1    0    0  501    0  0.00000000000E+00  0.00000000000E+00  0.10511636416E+04  0.10511636416E+04  0.25500000920E-02 0. -1.
       -2   -1    0    0    0  501  0.00000000000E+00  0.00000000000E+00 -0.11606038379E+03  0.11606038381E+03  0.25500000920E-02 0.  1.
    10030    2    1    2    0    0  0.00000000000E+00  0.00000000000E+00  0.93510325786E+03  0.11672240255E+04  0.69856554650E+03 0.  0.
        3    1    3    3  502    0 -0.50843857650E+02  0.32428237729E+03  0.66704102314E+03  0.74342981836E+03  0.10100000352E+00 0.  1.
       -3    1    3    3    0  502  0.50843857650E+02 -0.32428237729E+03  0.26806223472E+03  0.42379420710E+03  0.10100000352E+00 0. -1.
</event>
<event>
 5   0  0.6246998E-03  0.7011684E+03  0.7818609E-02  0.9715236E-01
        1   -1    0    0  501    0  0.00000000000E+00  0.00000000000E+00  0.26436276794E+03  0.26436276799E+03  0.50400001928E-02 0. -1.
       -1   -1    0    0    0  501  0.00000000000E+00  0.00000000000E+00 -0.46492655724E+03  0.46492655726E+03  0.50400001928E-02 0.  1.
    10030    2    1    2    0    0  0.00000000000E+00  0.00000000000E+00 -0.20056378930E+03  0.72928932525E+03  0.70116837232E+03 0.  0.
        4    1    3    3  502    0  0.13934888982E+03  0.15162566010E+03  0.19482090778E+03  0.28348765917E+03  0.12699999809E+01 0. -1.
       -4    1    3    3    0  502 -0.13934888982E+03 -0.15162566010E+03 -0.39538469708E+03  0.44580166608E+03  0.12699999809E+01 0.  1.
</event>
<event>
 5   0  0.6609285E-03  0.7010379E+03  0.7818609E-02  0.9715459E-01
        1   -1    0    0  501    0  0.00000000000E+00  0.00000000000E+00  0.12275941095E+03  0.12275941105E+03  0.50400001928E-02 0. -1.
       -1   -1    0    0    0  501  0.00000000000E+00  0.00000000000E+00 -0.10008481818E+04  0.10008481818E+04  0.50400001928E-02 0.  1.
    10030    2    1    2    0    0  0.00000000000E+00  0.00000000000E+00 -0.87808877080E+03  0.11236075928E+04  0.70103789715E+03 0.  0.
        2    1    3    3  502    0 -0.20028927483E+03  0.25584260850E+03 -0.64980989459E+03  0.72651506045E+03  0.25500000920E-02 0.  1.
       -2    1    3    3    0  502  0.20028927483E+03 -0.25584260850E+03 -0.22827887621E+03  0.39709253237E+03  0.25500000920E-02 0. -1.
</event>
<event>
 5   0  0.6246998E-03  0.7010349E+03  0.7818609E-02  0.9715464E-01
       -1   -1    0    0    0  501  0.00000000000E+00  0.00000000000E+00  0.11960099197E+03  0.11960099207E+03  0.50400001928E-02 0.  1.
        1   -1    0    0  501    0  0.00000000000E+00  0.00000000000E+00 -0.10272698029E+04  0.10272698029E+04  0.50400001928E-02 0. -1.
    10030    2    1    2    0    0  0.00000000000E+00  0.00000000000E+00 -0.90766881090E+03  0.11468707950E+04  0.70103491356E+03 0.  0.
        4    1    3    3  502    0 -0.12375078574E+02  0.27797957410E+03 -0.80254932977E+03  0.84941911081E+03  0.12699999809E+01 0. -1.
       -4    1    3    3    0  502  0.12375078574E+02 -0.27797957410E+03 -0.10511948113E+03  0.29745168415E+03  0.12699999809E+01 0.  1.
</event>
<event>
 5   0  0.1079446E-02  0.7013291E+03  0.7818609E-02  0.9714962E-01
       -2   -1    0    0    0  501  0.00000000000E+00  0.00000000000E+00  0.14419428861E+03  0.14419428863E+03  0.25500000920E-02 0.  1.
        2   -1    0    0  501    0  0.00000000000E+00  0.00000000000E+00 -0.85277730104E+03  0.85277730105E+03  0.25500000920E-02 0. -1.
    10030    2    1    2    0    0  0.00000000000E+00  0.00000000000E+00 -0.70858301243E+03  0.99697158968E+03  0.70132907049E+03 0.  0.
        2    1    3    3  502    0  0.64083033518E+02 -0.49008120047E+02 -0.83940581663E+03  0.84327371357E+03  0.25500000920E-02 0. -1.
       -2    1    3    3    0  502 -0.64083033518E+02  0.49008120047E+02  0.13082280419E+03  0.15369787610E+03  0.25500000920E-02 0.  1.
</event>
<event>
 5   0  0.4440500E-03  0.6995435E+03  0.7818609E-02  0.9718013E-01
       -3   -1    0    0    0  501  0.00000000000E+00  0.00000000000E+00  0.33166108573E+03  0.33166110110E+03  0.10100000352E+00 0.  1.
        3   -1    0    0  501    0  0.00000000000E+00  0.00000000000E+00 -0.36887129332E+03  0.36887130715E+03  0.10100000352E+00 0. -1.
    10030    2    1    2    0    0  0.00000000000E+00  0.00000000000E+00 -0.37210207599E+02  0.70053240826E+03  0.69954346217E+03 0.  0.
        1    1    3    3  502    0 -0.60317641650E+02  0.66795566083E+02 -0.35707759959E+03  0.36824486106E+03  0.50400001928E-02 0. -1.
       -1    1    3    3    0  502  0.60317641650E+02 -0.66795566083E+02  0.31986739199E+03  0.33228754720E+03  0.50400001928E-02 0.  1.
</event>
<event>
 5   0  0.6785252E-03  0.6995228E+03  0.7818609E-02  0.9718049E-01
        1   -1    0    0  501    0  0.00000000000E+00  0.00000000000E+00  0.13173209962E+04  0.13173209962E+04  0.50400001928E-02 0. -1.
       -1   -1    0    0    0  501  0.00000000000E+00  0.00000000000E+00 -0.92865026652E+02  0.92865026789E+02  0.50400001928E-02 0.  1.
    10030    2    1    2    0    0  0.00000000000E+00  0.00000000000E+00  0.12244559695E+04  0.14101860230E+04  0.69952283601E+03 0.  0.
        3    1    3    3  502    0 -0.31285006285E+03  0.14569929017E+03  0.72679207135E+03  0.80456831293E+03  0.10100000352E+00 0. -1.
       -3    1    3    3    0  502  0.31285006285E+03 -0.14569929017E+03  0.49766389818E+03  0.60561771006E+03  0.10100000352E+00 0.  1.
</event>
<event>
 5   0  0.6689415E-03  0.7031679E+03  0.7818609E-02  0.9711830E-01
        1   -1    0    0  501    0  0.00000000000E+00  0.00000000000E+00  0.14503954237E+03  0.14503954245E+03  0.50400001928E-02 0. -1.
       -1   -1    0    0    0  501  0.00000000000E+00  0.00000000000E+00 -0.85225904060E+03  0.85225904062E+03  0.50400001928E-02 0.  1.
    10030    2    1    2    0    0  0.00000000000E+00  0.00000000000E+00 -0.70721949824E+03  0.99729858307E+03  0.70316786410E+03 0.  0.
        1    1    3    3  502    0 -0.32405377449E+02 -0.10010331112E+02  0.14271392663E+03  0.14668871836E+03  0.50400001928E-02 0. -1.
       -1    1    3    3    0  502  0.32405377449E+02  0.10010331112E+02 -0.84993342486E+03  0.85060986471E+03  0.50400001928E-02 0.  1.
</event>
<event>
 5   0  0.1119786E-02  0.7344833E+03  0.7818609E-02  0.9660013E-01
       -2   -1    0    0    0  501  0.00000000000E+00  0.00000000000E+00  0.21574174599E+03  0.21574174600E+03  0.25500000920E-02 0. -1.
        2   -1    0    0  501    0  0.00000000000E+00  0.00000000000E+00 -0.62512897713E+03  0.62512897713E+03  0.25500000920E-02 0.  1.
    10030    2    1    2    0    0  0.00000000000E+00  0.00000000000E+00 -0.40938723114E+03  0.84087072313E+03  0.73448326598E+03 0.  0.
        3    1    3    3  502    0 -0.11549230254E+03  0.32059429425E+03 -0.47940594815E+02  0.34411841608E+03  0.10100000352E+00 0. -1.
       -3    1    3    3    0  502  0.11549230254E+03 -0.32059429425E+03 -0.36144663632E+03  0.49675230705E+03  0.10100000352E+00 0.  1.
</event>
<event>
 5   0  0.1119786E-02  0.7027758E+03  0.7818609E-02  0.9712497E-01
       -2   -1    0    0    0  501  0.00000000000E+00  0.00000000000E+00  0.17011172706E+03  0.17011172708E+03  0.25500000920E-02 0.  1.
        2   -1    0    0  501    0  0.00000000000E+00  0.00000000000E+00 -0.72583747504E+03  0.72583747504E+03  0.25500000920E-02 0. -1.
    10030    2    1    2    0    0  0.00000000000E+00  0.00000000000E+00 -0.55572574798E+03  0.89594920212E+03  0.70277582899E+03 0.  0.
        3    1    3    3  502    0  0.82423539880E+02 -0.20932783852E+03 -0.62198780590E+03  0.66142318133E+03  0.10100000352E+00 0. -1.
       -3    1    3    3    0  502 -0.82423539880E+02  0.20932783852E+03  0.66262057924E+02  0.23452602079E+03  0.10100000352E+00 0.  1.
</event>
<event>
 5   0  0.6246998E-03  0.7014343E+03  0.7818609E-02  0.9714782E-01
        1   -1    0    0  501    0  0.00000000000E+00  0.00000000000E+00  0.15136467998E+03  0.15136468006E+03  0.50400001928E-02 0. -1.
       -1   -1    0    0    0  501  0.00000000000E+00  0.00000000000E+00 -0.81262368784E+03  0.81262368786E+03  0.50400001928E-02 0.  1.
    10030    2    1    2    0    0  0.00000000000E+00  0.00000000000E+00 -0.66125900786E+03  0.96398836792E+03  0.70143431482E+03 0.  0.
        4    1    3    3  502    0  0.58690196494E+02  0.97425417514E+02 -0.78657059524E+03  0.79475226665E+03  0.12699999809E+01 0.  1.
       -4    1    3    3    0  502 -0.58690196494E+02 -0.97425417514E+02  0.12531158738E+03  0.16923610127E+03  0.12699999809E+01 0. -1.
</event>
<event>
 5   0  0.4440500E-03  0.7013886E+03  0.7818609E-02  0.9714860E-01
       -3   -1    0    0    0  501  0.00000000000E+00  0.00000000000E+00  0.44275945368E+03  0.44275946520E+03  0.10100000352E+00 0.  1.
        3   -1    0    0  501    0  0.00000000000E+00  0.00000000000E+00 -0.27777268545E+03  0.27777270381E+03  0.10100000352E+00 0. -1.
    10030    2    1    2    0    0  0.00000000000E+00  0.00000000000E+00  0.16498676823E+03  0.72053216901E+03  0.70138860334E+03 0.  0.
        3    1    3    3  502    0  0.11685489887E+03 -0.32825188945E+03  0.12335479697E+03  0.36962249182E+03  0.10100000352E+00 0. -1.
       -3    1    3    3    0  502 -0.11685489887E+03  0.32825188945E+03  0.41631971253E+02  0.35090967720E+03  0.10100000352E+00 0.  1.
</event>
<event>
 5   0  0.1109788E-02  0.7012906E+03  0.7818609E-02  0.9715028E-01
       -2   -1    0    0    0  501  0.00000000000E+00  0.00000000000E+00  0.56046911313E+03  0.56046911314E+03  0.25500000920E-02 0. -1.
        2   -1    0    0  501    0  0.00000000000E+00  0.00000000000E+00 -0.21937359218E+03  0.21937359219E+03  0.25500000920E-02 0.  1.
    10030    2    1    2    0    0  0.00000000000E+00  0.00000000000E+00  0.34109552096E+03  0.77984270533E+03  0.70129058930E+03 0.  0.
        1    1    3    3  502    0  0.15538900736E+03 -0.15914323270E+03 -0.13088678107E+03  0.25807685213E+03  0.50400001928E-02 0.  1.
       -1    1    3    3    0  502 -0.15538900736E+03  0.15914323270E+03  0.47198230202E+03  0.52176585320E+03  0.50400001928E-02 0. -1.
</event>
<event>
 5   0  0.6609285E-03  0.7011707E+03  0.7818609E-02  0.9715232E-01
        1   -1    0    0  501    0  0.00000000000E+00  0.00000000000E+00  0.99448576664E+02  0.99448576792E+02  0.50400001928E-02 0.  1.
       -1   -1    0    0    0  501  0.00000000000E+00  0.00000000000E+00 -0.12359160218E+04  0.12359160218E+04  0.50400001928E-02 0. -1.
    10030    2    1    2    0    0  0.00000000000E+00  0.00000000000E+00 -0.11364674452E+04  0.13353645986E+04  0.70117070486E+03 0.  0.
        2    1    3    3  502    0  0.12004925655E+03  0.31207345020E+03 -0.36750830098E+03  0.49685411704E+03  0.25500000920E-02 0.  1.
       -2    1    3    3    0  502 -0.12004925655E+03 -0.31207345020E+03 -0.76895914417E+03  0.83851048159E+03  0.25500000920E-02 0. -1.
</event>
<event>
 5   0  0.6689415E-03  0.7004667E+03  0.7818609E-02  0.9716434E-01
        1   -1    0    0  501    0  0.00000000000E+00  0.00000000000E+00  0.77667980553E+03  0.77667980555E+03  0.50400001928E-02 0.  1.
       -1   -1    0    0    0  501  0.00000000000E+00  0.00000000000E+00 -0.15793303551E+03  0.15793303560E+03  0.50400001928E-02 0. -1.
    10030    2    1    2    0    0  0.00000000000E+00  0.00000000000E+00  0.61874677002E+03  0.93461284115E+03  0.70046669973E+03 0.  0.
        1    1    3    3  502    0 -0.25884028704E+03 -0.18428381810E+03  0.50594460745E+03  0.59744352506E+03  0.50400001928E-02 0.  1.
       -1    1    3    3    0  502  0.25884028704E+03  0.18428381810E+03  0.11280216257E+03  0.33716931609E+03  0.50400001928E-02 0. -1.
</event>
<event>
 5   0  0.1099980E-02  0.7005217E+03  0.7818609E-02  0.9716340E-01
        2   -1    0    0  501    0  0.00000000000E+00  0.00000000000E+00  0.17335207501E+04  0.17335207501E+04  0.25500000920E-02 0.  1.
       -2   -1    0    0    0  501  0.00000000000E+00  0.00000000000E+00 -0.70770805464E+02  0.70770805510E+02  0.25500000920E-02 0. -1.
    10030    2    1    2    0    0  0.00000000000E+00  0.00000000000E+00  0.16627499446E+04  0.18042915556E+04  0.70052169079E+03 0.  0.
        5    1    3    3  502    0 -0.24716635252E+03  0.22320100895E+03  0.55217426711E+03  0.64484758468E+03  0.46999998093E+01 0. -1.
       -5    1    3    3    0  502  0.24716635252E+03 -0.22320100895E+03  0.11105756775E+04  0.11594439709E+04  0.46999998093E+01 0.  1.
</event>
<event>
 5   0  0.1109788E-02  0.6969603E+03  0.7818609E-02  0.9722445E-01
       -2   -1    0    0    0  501  0.00000000000E+00  0.00000000000E+00  0.15742780842E+03  0.15742780845E+03  0.25500000920E-02 0. -1.
        2   -1    0    0  501    0  0.00000000000E+00  0.00000000000E+00 -0.77139111473E+03  0.77139111474E+03  0.25500000920E-02 0.  1.
    10030    2    1    2    0    0  0.00000000000E+00  0.00000000000E+00 -0.61396330631E+03  0.92881892318E+03  0.69696029340E+03 0.  0.
        1    1    3    3  502    0 -0.27713904059E+03  0.20207758493E+03 -0.38910074619E+03  0.51869141969E+03  0.50400001928E-02 0.  1.
       -1    1    3    3    0  502  0.27713904059E+03 -0.20207758493E+03 -0.22486256012E+03  0.41012750349E+03  0.50400001928E-02 0. -1.
</event>
<event>
 5   0  0.6609285E-03  0.7032954E+03  0.7818609E-02  0.9711613E-01
       -1   -1    0    0    0  501  0.00000000000E+00  0.00000000000E+00  0.53713743157E+02  0.53713743393E+02  0.50400001928E-02 0. -1.
        1   -1    0    0  501    0  0.00000000000E+00  0.00000000000E+00 -0.23021314857E+04  0.23021314857E+04  0.50400001928E-02 0.  1.
    10030    2    1    2    0    0  0.00000000000E+00  0.00000000000E+00 -0.22484177425E+04  0.23558452291E+04  0.70329538494E+03 0.  0.
        2    1    3    3  502    0 -0.15051892118E+03 -0.24128072949E+03 -0.18170736432E+04  0.18391924752E+04  0.25500000920E-02 0.  1.
       -2    1    3    3    0  502  0.15051892118E+03  0.24128072949E+03 -0.43134409935E+03  0.51665275389E+03  0.25500000920E-02 0. -1.
</event>
<event>
 5   0  0.6609285E-03  0.7002275E+03  0.7818609E-02  0.9716843E-01
       -1   -1    0    0    0  501  0.00000000000E+00  0.00000000000E+00  0.79983657751E+03  0.79983657752E+03  0.50400001928E-02 0. -1.
        1   -1    0    0  501    0  0.00000000000E+00  0.00000000000E+00 -0.15325585655E+03  0.15325585663E+03  0.50400001928E-02 0.  1.
    10030    2    1    2    0    0  0.00000000000E+00  0.00000000000E+00  0.64658072096E+03  0.95309243416E+03  0.70022750541E+03 0.  0.
        2    1    3    3  502    0 -0.12172481798E+03  0.24324833424E+03  0.23248038932E+02  0.27299662039E+03  0.25500000920E-02 0.  1.
       -2    1    3    3    0  502  0.12172481798E+03 -0.24324833424E+03  0.62333268203E+03  0.68009581377E+03  0.25500000920E-02 0. -1.
</event>
<event>
 5   0  0.1079446E-02  0.7036970E+03  0.7818609E-02  0.9710931E-01
       -2   -1    0    0    0  501  0.00000000000E+00  0.00000000000E+00  0.43657768783E+03  0.43657768783E+03  0.25500000920E-02 0.  1.
        2   -1    0    0  501    0  0.00000000000E+00  0.00000000000E+00 -0.28356322518E+03  0.28356322519E+03  0.25500000920E-02 0. -1.
    10030    2    1    2    0    0  0.00000000000E+00  0.00000000000E+00  0.15301446265E+03  0.72014091302E+03  0.70369702915E+03 0.  0.
        2    1    3    3  502    0 -0.27903055288E+03  0.18743234459E+03 -0.29885842197E+02  0.33746421559E+03  0.25500000920E-02 0.  1.
       -2    1    3    3    0  502  0.27903055288E+03 -0.18743234459E+03  0.18290030485E+03  0.38267669743E+03  0.25500000920E-02 0. -1.
</event>
<event>
 5   0  0.4440500E-03  0.7027693E+03  0.7818609E-02  0.9712508E-01
        3   -1    0    0  501    0  0.00000000000E+00  0.00000000000E+00  0.12717861274E+03  0.12717865285E+03  0.10100000352E+00 0. -1.
       -3   -1    0    0    0  501  0.00000000000E+00  0.00000000000E+00 -0.97084834376E+03  0.97084834901E+03  0.10100000352E+00 0.  1.
    10030    2    1    2    0    0  0.00000000000E+00  0.00000000000E+00 -0.84366973102E+03  0.10980270019E+04  0.70276929484E+03 0.  0.
        2    1    3    3  502    0 -0.24763522105E+03  0.97241672924E+02 -0.78048639363E+03  0.82458362603E+03  0.25500000920E-02 0.  1.
       -2    1    3    3    0  502  0.24763522105E+03 -0.97241672924E+02 -0.63183337385E+02  0.27344337583E+03  0.25500000920E-02 0. -1.
</event>
<event>
 5   0  0.6689415E-03  0.6945099E+03  0.7818609E-02  0.9726667E-01
       -1   -1    0    0    0  501  0.00000000000E+00  0.00000000000E+00  0.17225461327E+03  0.17225461335E+03  0.50400001928E-02 0.  1.
        1   -1    0    0  501    0  0.00000000000E+00  0.00000000000E+00 -0.70004510672E+03  0.70004510674E+03  0.50400001928E-02 0. -1.
    10030    2    1    2    0    0  0.00000000000E+00  0.00000000000E+00 -0.52779049344E+03  0.87229972008E+03  0.69450989675E+03 0.  0.
        1    1    3    3  502    0 -0.20117162448E+03  0.88797311883E+02 -0.60145382596E+03  0.64039182527E+03  0.50400001928E-02 0. -1.
       -1    1    3    3    0  502  0.20117162448E+03 -0.88797311883E+02  0.73663332512E+02  0.23190789481E+03  0.50400001928E-02 0.  1.
</event>
<event>
 5   0  0.1099980E-02  0.7005862E+03  0.7818609E-02  0.9716230E-01
       -2   -1    0    0    0  501  0.00000000000E+00  0.00000000000E+00  0.17248122063E+03  0.17248122065E+03  0.25500000920E-02 0.  1.
        2   -1    0    0  501    0  0.00000000000E+00  0.00000000000E+00 -0.71141233982E+03  0.71141233982E+03  0.25500000920E-02 0. -1.
    10030    2    1    2    0    0  0.00000000000E+00  0.00000000000E+00 -0.53893111919E+03  0.88389356047E+03  0.70058623668E+03 0.  0.
        5    1    3    3  502    0  0.65922434072E+02 -0.26070136046E+03 -0.55262684843E+03  0.61459701453E+03  0.46999998093E+01 0. -1.
       -5    1    3    3    0  502 -0.65922434072E+02  0.26070136046E+03  0.13695729243E+02  0.26929654595E+03  0.46999998093E+01 0.  1.
</event>
<event>
 5   0  0.6785252E-03  0.6982334E+03  0.7818609E-02  0.9720258E-01
       -1   -1    0    0    0  501  0.00000000000E+00  0.00000000000E+00  0.33898609960E+03  0.33898609964E+03  0.50400001928E-02 0.  1.
        1   -1    0    0  501    0  0.00000000000E+00  0.00000000000E+00 -0.35955002630E+03  0.35955002633E+03  0.50400001928E-02 0. -1.
    10030    2    1    2    0    0  0.00000000000E+00  0.00000000000E+00 -0.20563926692E+02  0.69853612597E+03  0.69823337374E+03 0.  0.
        3    1    3    3  502    0  0.15303193204E+03 -0.65361207508E+02  0.29675759658E+03  0.34022924772E+03  0.10100000352E+00 0.  1.
       -3    1    3    3    0  502 -0.15303193204E+03  0.65361207508E+02 -0.31732152328E+03  0.35830687826E+03  0.10100000352E+00 0. -1.
</event>
<event>
 5   0  0.1079446E-02  0.6990627E+03  0.7818609E-02  0.9718836E-01
       -2   -1    0    0    0  501  0.00000000000E+00  0.00000000000E+00  0.61876927173E+02  0.61876927226E+02  0.25500000920E-02 0.  1.
        2   -1    0    0  501    0  0.00000000000E+00  0.00000000000E+00 -0.19744381760E+04  0.19744381760E+04  0.25500000920E-02 0. -1.
    10030    2    1    2    0    0  0.00000000000E+00  0.00000000000E+00 -0.19125612489E+04  0.20363151033E+04  0.69906270758E+03 0.  0.
        2    1    3    3  502    0 -0.22026024589E+03 -0.19380371945E+03 -0.40284301138E+03  0.49835424089E+03  0.25500000920E-02 0. -1.
       -2    1    3    3    0  502  0.22026024589E+03  0.19380371945E+03 -0.15097182375E+04  0.15379608624E+04  0.25500000920E-02 0.  1.
</event>
<event>
 5   0  0.1079446E-02  0.7009131E+03  0.7818609E-02  0.9715672E-01
       -2   -1    0    0    0  501  0.00000000000E+00  0.00000000000E+00  0.22105498097E+03  0.22105498099E+03  0.25500000920E-02 0.  1.
        2   -1    0    0  501    0  0.00000000000E+00  0.00000000000E+00 -0.55560748180E+03  0.55560748181E+03  0.25500000920E-02 0. -1.
    10030    2    1    2    0    0  0.00000000000E+00  0.00000000000E+00 -0.33455250083E+03  0.77666246280E+03  0.70091312251E+03 0.  0.
        2    1    3    3  502    0  0.46729008260E+02 -0.34399222332E+03 -0.22048162798E+03  0.41124980024E+03  0.25500000920E-02 0. -1.
       -2    1    3    3    0  502 -0.46729008260E+02  0.34399222332E+03 -0.11407087285E+03  0.36541266255E+03  0.25500000920E-02 0.  1.
</event>
<event>
 5   0  0.6689415E-03  0.6993597E+03  0.7818609E-02  0.9718328E-01
       -1   -1    0    0    0  501  0.00000000000E+00  0.00000000000E+00  0.28780869139E+03  0.28780869144E+03  0.50400001928E-02 0.  1.
        1   -1    0    0  501    0  0.00000000000E+00  0.00000000000E+00 -0.42485164789E+03  0.42485164792E+03  0.50400001928E-02 0. -1.
    10030    2    1    2    0    0  0.00000000000E+00  0.00000000000E+00 -0.13704295650E+03  0.71266033936E+03  0.69935969813E+03 0.  0.
        1    1    3    3  502    0 -0.21425066654E+03 -0.24043454631E+00 -0.35013321479E+03  0.41048346379E+03  0.50400001928E-02 0. -1.
       -1    1    3    3    0  502  0.21425066654E+03  0.24043454631E+00  0.21309025829E+03  0.30217687557E+03  0.50400001928E-02 0.  1.
</event>
<event>
 5   0  0.1119786E-02  0.6987935E+03  0.7818609E-02  0.9719298E-01
        2   -1    0    0  501    0  0.00000000000E+00  0.00000000000E+00  0.13029385244E+04  0.13029385244E+04  0.25500000920E-02 0.  1.
       -2   -1    0    0    0  501  0.00000000000E+00  0.00000000000E+00 -0.93694434175E+02  0.93694434210E+02  0.25500000920E-02 0. -1.
    10030    2    1    2    0    0  0.00000000000E+00  0.00000000000E+00  0.12092440902E+04  0.13966329586E+04  0.69879349691E+03 0.  0.
        3    1    3    3  502    0  0.28039052762E+02  0.25987549103E+03  0.10680149737E+04  0.10995351079E+04  0.10100000352E+00 0.  1.
       -3    1    3    3    0  502 -0.28039052762E+02 -0.25987549103E+03  0.14122911651E+03  0.29709785066E+03  0.10100000352E+00 0. -1.
</event>
<event>
 5   0  0.1079446E-02  0.7073114E+03  0.7818609E-02  0.9704810E-01
       -2   -1    0    0    0  501  0.00000000000E+00  0.00000000000E+00  0.15199796982E+03  0.15199796984E+03  0.25500000920E-02 0.  1.
        2   -1    0    0  501    0  0.00000000000E+00  0.00000000000E+00 -0.82285553150E+03  0.82285553150E+03  0.25500000920E-02 0. -1.
    10030    2    1    2    0    0  0.00000000000E+00  0.00000000000E+00 -0.67085756168E+03  0.97485350135E+03  0.70731144557E+03 0.  0.
        2    1    3    3  502    0 -0.25747110077E+03  0.21451088664E+03 -0.49115347460E+03  0.59459063551E+03  0.25500000920E-02 0. -1.
       -2    1    3    3    0  502  0.25747110077E+03 -0.21451088664E+03 -0.17970408707E+03  0.38026286584E+03  0.25500000920E-02 0.  1.
</event>
<event>
 5   0  0.6785252E-03  0.6993987E+03  0.7818609E-02  0.9718261E-01
       -1   -1    0    0    0  501  0.00000000000E+00  0.00000000000E+00  0.29078171053E+03  0.29078171058E+03  0.50400001928E-02 0. -1.
        1   -1    0    0  501    0  0.00000000000E+00  0.00000000000E+00 -0.42055477578E+03  0.42055477581E+03  0.50400001928E-02 0.  1.
    10030    2    1    2    0    0  0.00000000000E+00  0.00000000000E+00 -0.12977306525E+03  0.71133648639E+03  0.69939870489E+03 0.  0.
        3    1    3    3  502    0 -0.93222039681E+02  0.28723527202E+03  0.11446156581E+03  0.32294877368E+03  0.10100000352E+00 0. -1.
       -3    1    3    3    0  502  0.93222039681E+02 -0.28723527202E+03 -0.24423463106E+03  0.38838771271E+03  0.10100000352E+00 0.  1.
</event>
<event>
 5   0  0.6785252E-03  0.6965374E+03  0.7818609E-02  0.9723172E-01
       -1   -1    0    0    0  501  0.00000000000E+00  0.00000000000E+00  0.23594409094E+03  0.23594409100E+03  0.50400001928E-02 0.  1.
        1   -1    0    0  501    0  0.00000000000E+00  0.00000000000E+00 -0.51406709908E+03  0.51406709910E+03  0.50400001928E-02 0. -1.
    10030    2    1    2    0    0  0.00000000000E+00  0.00000000000E+00 -0.27812300813E+03  0.75001119010E+03  0.69653742011E+03 0.  0.
        3    1    3    3  502    0  0.50192657810E+02 -0.24451385952E+03 -0.40057443950E+03  0.47198116718E+03  0.10100000352E+00 0. -1.
       -3    1    3    3    0  502 -0.50192657810E+02  0.24451385952E+03  0.12245143136E+03  0.27803002291E+03  0.10100000352E+00 0.  1.
</event>
<event>
 5   0  0.6246998E-03  0.7007518E+03  0.7818609E-02  0.9715947E-01
       -1   -1    0    0    0  501  0.00000000000E+00  0.00000000000E+00  0.30353304755E+03  0.30353304759E+03  0.50400001928E-02 0.  1.
        1   -1    0    0  501    0  0.00000000000E+00  0.00000000000E+00 -0.40444780256E+03  0.40444780259E+03  0.50400001928E-02 0. -1.
    10030    2    1    2    0    0  0.00000000000E+00  0.00000000000E+00 -0.10091475501E+03  0.70798085018E+03  0.70075180802E+03 0.  0.
        4    1    3    3  502    0 -0.27473400307E+03 -0.16495536920E+03  0.92682044946E+02  0.33358750071E+03  0.12699999809E+01 0.  1.
       -4    1    3    3    0  502  0.27473400307E+03  0.16495536920E+03 -0.19359679996E+03  0.37439334947E+03  0.12699999809E+01 0. -1.
</event>
<event>
 5   0  0.1119786E-02  0.6997170E+03  0.7818609E-02  0.9717716E-01
       -2   -1    0    0    0  501  0.00000000000E+00  0.00000000000E+00  0.31030693724E+03  0.31030693725E+03  0.25500000920E-02 0. -1.
        2   -1    0    0  501    0  0.00000000000E+00  0.00000000000E+00 -0.39445124163E+03  0.39445124164E+03  0.25500000920E-02 0.  1.
    10030    2    1    2    0    0  0.00000000000E+00  0.00000000000E+00 -0.84144304387E+02  0.70475817889E+03  0.69971696188E+03 0.  0.
        3    1    3    3  502    0 -0.13296411629E+03 -0.18883786378E+03  0.22261722800E+03  0.32077661296E+03  0.10100000352E+00 0. -1.
       -3    1    3    3    0  502  0.13296411629E+03  0.18883786378E+03 -0.30676153238E+03  0.38398156593E+03  0.10100000352E+00 0.  1.
</event>
<event>
 5   0  0.1079446E-02  0.7012102E+03  0.7818609E-02  0.9715165E-01
       -2   -1    0    0    0  501  0.00000000000E+00  0.00000000000E+00  0.63080380816E+02  0.63080380868E+02  0.25500000920E-02 0. -1.
        2   -1    0    0  501    0  0.00000000000E+00  0.00000000000E+00 -0.19486870789E+04  0.19486870789E+04  0.25500000920E-02 0.  1.
    10030    2    1    2    0    0  0.00000000000E+00  0.00000000000E+00 -0.18856066981E+04  0.20117674598E+04  0.70121016275E+03 0.  0.
        2    1    3    3  502    0  0.27647273374E+03 -0.18407689008E+03 -0.12648783775E+04  0.13077609811E+04  0.25500000920E-02 0.  1.
       -2    1    3    3    0  502 -0.27647273374E+03  0.18407689008E+03 -0.62072832065E+03  0.70400647868E+03  0.25500000920E-02 0. -1.
</event>
<event>
 5   0  0.1100119E-02  0.7020627E+03  0.7818609E-02  0.9713711E-01
       -2   -1    0    0    0  501  0.00000000000E+00  0.00000000000E+00  0.61014158126E+03  0.61014158126E+03  0.25500000920E-02 0.  1.
        2   -1    0    0  501    0  0.00000000000E+00  0.00000000000E+00 -0.20195808075E+03  0.20195808076E+03  0.25500000920E-02 0. -1.
    10030    2    1    2    0    0  0.00000000000E+00  0.00000000000E+00  0.40818350051E+03  0.81209966203E+03  0.70206274006E+03 0.  0.
        4    1    3    3  502    0  0.10551189297E+03  0.13572685001E+03  0.55811062288E+03  0.58398939857E+03  0.12699999809E+01 0.  1.
       -4    1    3    3    0  502 -0.10551189297E+03 -0.13572685001E+03 -0.14992712237E+03  0.22811026346E+03  0.12699999809E+01 0. -1.
</event>
<event>
 5   0  0.6609285E-03  0.6975830E+03  0.7818609E-02  0.9721375E-01
       -1   -1    0    0    0  501  0.00000000000E+00  0.00000000000E+00  0.16281442958E+03  0.16281442966E+03  0.50400001928E-02 0.  1.
        1   -1    0    0  501    0  0.00000000000E+00  0.00000000000E+00 -0.74720341488E+03  0.74720341489E+03  0.50400001928E-02 0. -1.
    10030    2    1    2    0    0  0.00000000000E+00  0.00000000000E+00 -0.58438898530E+03  0.91001784455E+03  0.69758296372E+03 0.  0.
        2    1    3    3  502    0 -0.22822802306E+03  0.12900085698E+03  0.79218111408E+01  0.26228230346E+03  0.25500000920E-02 0.  1.
       -2    1    3    3    0  502  0.22822802306E+03 -0.12900085698E+03 -0.59231079644E+03  0.64773554109E+03  0.25500000920E-02 0. -1.
</event>
<event>
 5   0  0.6990118E-03  0.6971997E+03  0.7818609E-02  0.9722033E-01
       -1   -1    0    0    0  501  0.00000000000E+00  0.00000000000E+00  0.25189601404E+03  0.25189601409E+03  0.50400001928E-02 0. -1.
        1   -1    0    0  501    0  0.00000000000E+00  0.00000000000E+00 -0.48242864927E+03  0.48242864930E+03  0.50400001928E-02 0.  1.
    10030    2    1    2    0    0  0.00000000000E+00  0.00000000000E+00 -0.23053263523E+03  0.73432466339E+03  0.69719969546E+03 0.  0.
        5    1    3    3  502    0 -0.24449627096E+02 -0.18765416562E+03  0.19304584667E+03  0.27037133549E+03  0.46999998093E+01 0. -1.
       -5    1    3    3    0  502  0.24449627096E+02  0.18765416562E+03 -0.42357848191E+03  0.46395332790E+03  0.46999998093E+01 0.  1.
</event>
<event>
 5   0  0.1109788E-02  0.7003703E+03  0.7818609E-02  0.9716599E-01
       -2   -1    0    0    0  501  0.00000000000E+00  0.00000000000E+00  0.74670907381E+02  0.74670907425E+02  0.25500000920E-02 0. -1.
        2   -1    0    0  501    0  0.00000000000E+00  0.00000000000E+00 -0.16422677793E+04  0.16422677793E+04  0.25500000920E-02 0.  1.
    10030    2    1    2    0    0  0.00000000000E+00  0.00000000000E+00 -0.15675968719E+04  0.17169386867E+04  0.70037026003E+03 0.  0.
        1    1    3    3  502    0  0.28372705241E+03  0.18798839494E+03 -0.58180914595E+03  0.67404937448E+03  0.50400001928E-02 0. -1.
       -1    1    3    3    0  502 -0.28372705241E+03 -0.18798839494E+03 -0.98578772596E+03  0.10428893122E+04  0.50400001928E-02 0.  1.
</event>
<event>
 5   0  0.1079446E-02  0.6993619E+03  0.7818609E-02  0.9718324E-01
        2   -1    0    0  501    0  0.00000000000E+00  0.00000000000E+00  0.11453467616E+04  0.11453467616E+04  0.25500000920E-02 0. -1.
       -2   -1    0    0    0  501  0.00000000000E+00  0.00000000000E+00 -0.10675960925E+03  0.10675960928E+03  0.25500000920E-02 0.  1.
    10030    2    1    2    0    0  0.00000000000E+00  0.00000000000E+00  0.10385871524E+04  0.12521063709E+04  0.69936191704E+03 0.  0.
        2    1    3    3  502    0 -0.31410131878E+03  0.79446112239E+02  0.75481514655E+03  0.82141172908E+03  0.25500000920E-02 0. -1.
       -2    1    3    3    0  502  0.31410131878E+03 -0.79446112239E+02  0.28377200584E+03  0.43069464185E+03  0.25500000920E-02 0.  1.
</event>
<event>
 5   0  0.6689415E-03  0.7069118E+03  0.7818609E-02  0.9705485E-01
       -1   -1    0    0    0  501  0.00000000000E+00  0.00000000000E+00  0.41511055733E+03  0.41511055736E+03  0.50400001928E-02 0.  1.
        1   -1    0    0  501    0  0.00000000000E+00  0.00000000000E+00 -0.30095852950E+03  0.30095852954E+03  0.50400001928E-02 0. -1.
    10030    2    1    2    0    0  0.00000000000E+00  0.00000000000E+00  0.11415202782E+03  0.71606908690E+03  0.70691177085E+03 0.  0.
        1    1    3    3  502    0 -0.26495802608E+03  0.22556516310E+03  0.11991725312E+03  0.36805236857E+03  0.50400001928E-02 0. -1.
       -1    1    3    3    0  502  0.26495802608E+03 -0.22556516310E+03 -0.57652252938E+01  0.34801671833E+03  0.50400001928E-02 0.  1.
</event>
<event>
 5   0  0.6785252E-03  0.7008706E+03  0.7818609E-02  0.9715745E-01
        1   -1    0    0  501    0  0.00000000000E+00  0.00000000000E+00  0.26862493199E+03  0.26862493204E+03  0.50400001928E-02 0.  1.
       -1   -1    0    0    0  501  0.00000000000E+00  0.00000000000E+00 -0.45716119241E+03  0.45716119244E+03  0.50400001928E-02 0. -1.
    10030    2    1    2    0    0  0.00000000000E+00  0.00000000000E+00 -0.18853626042E+03  0.72578612447E+03  0.70087058505E+03 0.  0.
        3    1    3    3  502    0 -0.33825138544E+03  0.69678229710E+02 -0.32691427470E+02  0.34689738407E+03  0.10100000352E+00 0.  1.
       -3    1    3    3    0  502  0.33825138544E+03 -0.69678229710E+02 -0.15584483295E+03  0.37888874040E+03  0.10100000352E+00 0. -1.
</event>
<event>
 5   0  0.6246998E-03  0.6964149E+03  0.7818609E-02  0.9723383E-01
        1   -1    0    0  501    0  0.00000000000E+00  0.00000000000E+00  0.82726183890E+03  0.82726183892E+03  0.50400001928E-02 0. -1.
       -1   -1    0    0    0  501  0.00000000000E+00  0.00000000000E+00 -0.14656598274E+03  0.14656598282E+03  0.50400001928E-02 0.  1.
    10030    2    1    2    0    0  0.00000000000E+00  0.00000000000E+00  0.68069585617E+03  0.97382782174E+03  0.69641494656E+03 0.  0.
        4    1    3    3  502    0 -0.14702840505E+02 -0.31779177057E+03  0.53829662340E+03  0.62527805865E+03  0.12699999809E+01 0. -1.
       -4    1    3    3    0  502  0.14702840505E+02  0.31779177057E+03  0.14239923276E+03  0.34854976309E+03  0.12699999809E+01 0.  1.
</event>
<event>
 5   0  0.6990118E-03  0.7009562E+03  0.7818609E-02  0.9715598E-01
        1   -1    0    0  501    0  0.00000000000E+00  0.00000000000E+00  0.59886034584E+03  0.59886034586E+03  0.50400001928E-02 0. -1.
       -1   -1    0    0    0  501  0.00000000000E+00  0.00000000000E+00 -0.20511442702E+03  0.20511442708E+03  0.50400001928E-02 0.  1.
    10030    2    1    2    0    0  0.00000000000E+00  0.00000000000E+00  0.39374591882E+03  0.80397477294E+03  0.70095619474E+03 0.  0.
        5    1    3    3  502    0  0.32173770187E+03 -0.50545366725E+02  0.34528389309E+03  0.47467150718E+03  0.46999998093E+01 0. -1.
       -5    1    3    3    0  502 -0.32173770187E+03  0.50545366725E+02  0.48462025729E+02  0.32930326576E+03  0.46999998093E+01 0.  1.
</event>
<event>
 5   0  0.6689415E-03  0.7005154E+03  0.7818609E-02  0.9716351E-01
        1   -1    0    0  501    0  0.00000000000E+00  0.00000000000E+00  0.46138745102E+03  0.46138745105E+03  0.50400001928E-02 0. -1.
       -1   -1    0    0    0  501  0.00000000000E+00  0.00000000000E+00 -0.26589466341E+03  0.26589466346E+03  0.50400001928E-02 0.  1.
    10030    2    1    2    0    0  0.00000000000E+00  0.00000000000E+00  0.19549278761E+03  0.72728211451E+03  0.70051541316E+03 0.  0.
        1    1    3    3  502    0 -0.14470797791E+03  0.17802163288E+03  0.37252581167E+03  0.43750152117E+03  0.50400001928E-02 0. -1.
       -1    1    3    3    0  502  0.14470797791E+03 -0.17802163288E+03 -0.17703302406E+03  0.28978059334E+03  0.50400001928E-02 0.  1.
</event>
<event>
 5   0  0.1119786E-02  0.6999546E+03  0.7818609E-02  0.9717310E-01
        2   -1    0    0  501    0  0.00000000000E+00  0.00000000000E+00  0.11067235807E+04  0.11067235807E+04  0.25500000920E-02 0. -1.
       -2   -1    0    0    0  501  0.00000000000E+00  0.00000000000E+00 -0.11067270708E+03  0.11067270711E+03  0.25500000920E-02 0.  1.
    10030    2    1    2    0    0  0.00000000000E+00  0.00000000000E+00  0.99605087363E+03  0.12173962878E+04  0.69995455476E+03 0.  0.
        3    1    3    3  502    0 -0.31920124426E+03  0.10802389619E+03  0.33371009506E+03  0.47425840449E+03  0.10100000352E+00 0.  1.
       -3    1    3    3    0  502  0.31920124426E+03 -0.10802389619E+03  0.66234077857E+03  0.74313788333E+03  0.10100000352E+00 0. -1.
</event>
<event>
 5   0  0.6609285E-03  0.7000205E+03  0.7818609E-02  0.9717197E-01
       -1   -1    0    0    0  501  0.00000000000E+00  0.00000000000E+00  0.11618272296E+03  0.11618272306E+03  0.50400001928E-02 0. -1.
        1   -1    0    0  501    0  0.00000000000E+00  0.00000000000E+00 -0.10544353057E+04  0.10544353057E+04  0.50400001928E-02 0.  1.
    10030    2    1    2    0    0  0.00000000000E+00  0.00000000000E+00 -0.93825258277E+03  0.11706180288E+04  0.70002047133E+03 0.  0.
        2    1    3    3  502    0 -0.41113052749E+02 -0.98096700916E+02  0.88502240231E+02  0.13836868276E+03  0.25500000920E-02 0. -1.
       -2    1    3    3    0  502  0.41113052749E+02  0.98096700916E+02 -0.10267548230E+04  0.10322493460E+04  0.25500000920E-02 0.  1.
</event>
<event>
 5   0  0.4440500E-03  0.7024500E+03  0.7818609E-02  0.9713052E-01
        3   -1    0    0  501    0  0.00000000000E+00  0.00000000000E+00  0.37672257680E+03  0.37672259034E+03  0.10100000352E+00 0. -1.
       -3   -1    0    0    0  501  0.00000000000E+00  0.00000000000E+00 -0.32745310082E+03  0.32745311639E+03  0.10100000352E+00 0.  1.
    10030    2    1    2    0    0  0.00000000000E+00  0.00000000000E+00  0.49269475978E+02  0.70417570673E+03  0.70244995885E+03 0.  0.
        5    1    3    3  502    0 -0.24720793746E+02 -0.53228048640E+02  0.37174044293E+03  0.37637400244E+03  0.46999998093E+01 0. -1.
       -5    1    3    3    0  502  0.24720793746E+02  0.53228048640E+02 -0.32247096696E+03  0.32780170429E+03  0.46999998093E+01 0.  1.
</event>
<event>
 5   0  0.1109788E-02  0.7051224E+03  0.7818609E-02  0.9708512E-01
        2   -1    0    0  501    0  0.00000000000E+00  0.00000000000E+00  0.70476822814E+03  0.70476822815E+03  0.25500000920E-02 0.  1.
       -2   -1    0    0    0  501  0.00000000000E+00  0.00000000000E+00 -0.17636917766E+03  0.17636917768E+03  0.25500000920E-02 0. -1.
    10030    2    1    2    0    0  0.00000000000E+00  0.00000000000E+00  0.52839905048E+03  0.88113740582E+03  0.70512238044E+03 0.  0.
        1    1    3    3  502    0 -0.23831325332E+03  0.44378669101E+02 -0.55705814560E+02  0.24872838757E+03  0.50400001928E-02 0. -1.
       -1    1    3    3    0  502  0.23831325332E+03 -0.44378669101E+02  0.58410486504E+03  0.63240901826E+03  0.50400001928E-02 0.  1.
</event>
<event>
 5   0  0.6609285E-03  0.6997063E+03  0.7818609E-02  0.9717735E-01
        1   -1    0    0  501    0  0.00000000000E+00  0.00000000000E+00  0.50047600711E+03  0.50047600714E+03  0.50400001928E-02 0. -1.
       -1   -1    0    0    0  501  0.00000000000E+00  0.00000000000E+00 -0.24456165562E+03  0.24456165567E+03  0.50400001928E-02 0.  1.
    10030    2    1    2    0    0  0.00000000000E+00  0.00000000000E+00  0.25591435150E+03  0.74503766281E+03  0.69970634105E+03 0.  0.
        2    1    3    3  502    0  0.28741214382E+03 -0.17871526954E+03  0.33602739599E+02  0.34010885330E+03  0.25500000920E-02 0.  1.
       -2    1    3    3    0  502 -0.28741214382E+03  0.17871526954E+03  0.22231161190E+03  0.40492880951E+03  0.25500000920E-02 0. -1.
</event>
<event>
 5   0  0.6785252E-03  0.7076343E+03  0.7818609E-02  0.9704265E-01
       -1   -1    0    0    0  501  0.00000000000E+00  0.00000000000E+00  0.34915245328E+03  0.34915245332E+03  0.50400001928E-02 0.  1.
        1   -1    0    0  501    0  0.00000000000E+00  0.00000000000E+00 -0.35854420612E+03  0.35854420616E+03  0.50400001928E-02 0. -1.
    10030    2    1    2    0    0  0.00000000000E+00  0.00000000000E+00 -0.93917528418E+01  0.70769665948E+03  0.70763433835E+03 0.  0.
        3    1    3    3  502    0 -0.87414248133E+02  0.19059586804E+03 -0.28970964753E+03  0.35763071144E+03  0.10100000352E+00 0. -1.
       -3    1    3    3    0  502  0.87414248133E+02 -0.19059586804E+03  0.28031789469E+03  0.35006594804E+03  0.10100000352E+00 0.  1.
</event>
<event>
 5   0  0.1100119E-02  0.7001266E+03  0.7818609E-02  0.9717016E-01
        2   -1    0    0  501    0  0.00000000000E+00  0.00000000000E+00  0.91339687100E+03  0.91339687100E+03  0.25500000920E-02 0. -1.
       -2   -1    0    0    0  501  0.00000000000E+00  0.00000000000E+00 -0.13416329182E+03  0.13416329184E+03  0.25500000920E-02 0.  1.
    10030    2    1    2    0    0  0.00000000000E+00  0.00000000000E+00  0.77923357918E+03  0.10475601628E+04  0.70012664844E+03 0.  0.
        4    1    3    3  502    0  0.37939844305E+02  0.25624579742E+03  0.74192224864E+03  0.78584449887E+03  0.12699999809E+01 0. -1.
       -4    1    3    3    0  502 -0.37939844305E+02 -0.25624579742E+03  0.37311330536E+02  0.26171566397E+03  0.12699999809E+01 0.  1.
</event>
<event>
 5   0  0.6246998E-03  0.6909900E+03  0.7818609E-02  0.9732766E-01
        1   -1    0    0  501    0  0.00000000000E+00  0.00000000000E+00  0.73096781549E+03  0.73096781551E+03  0.50400001928E-02 0. -1.
       -1   -1    0    0    0  501  0.00000000000E+00  0.00000000000E+00 -0.16329967310E+03  0.16329967318E+03  0.50400001928E-02 0.  1.
    10030    2    1    2    0    0  0.00000000000E+00  0.00000000000E+00  0.56766814239E+03  0.89426748869E+03  0.69099002991E+03 0.  0.
        4    1    3    3  502    0 -0.58602656741E+02 -0.13162938401E+03  0.69022528218E+03  0.70510504124E+03  0.12699999809E+01 0. -1.
       -4    1    3    3    0  502  0.58602656741E+02  0.13162938401E+03 -0.12255713979E+03  0.18916244745E+03  0.12699999809E+01 0.  1.
</event>
<event>
 5   0  0.1079446E-02  0.6983182E+03  0.7818609E-02  0.9720113E-01
       -2   -1    0    0    0  501  0.00000000000E+00  0.00000000000E+00  0.45945344250E+03  0.45945344250E+03  0.25500000920E-02 0.  1.
        2   -1    0    0  501    0  0.00000000000E+00  0.00000000000E+00 -0.26534155244E+03  0.26534155245E+03  0.25500000920E-02 0. -1.
    10030    2    1    2    0    0  0.00000000000E+00  0.00000000000E+00  0.19411189006E+03  0.72479499495E+03  0.69831823608E+03 0.  0.
        2    1    3    3  502    0  0.77095253545E+02 -0.32271331380E+03  0.20991949901E+03  0.39262419321E+03  0.25500000920E-02 0.  1.
       -2    1    3    3    0  502 -0.77095253545E+02  0.32271331380E+03 -0.15807608950E+02  0.33217080174E+03  0.25500000920E-02 0. -1.
</event>
<event>
 5   0  0.6785252E-03  0.7007516E+03  0.7818609E-02  0.9715948E-01
        1   -1    0    0  501    0  0.00000000000E+00  0.00000000000E+00  0.66207597694E+03  0.66207597696E+03  0.50400001928E-02 0.  1.
       -1   -1    0    0    0  501  0.00000000000E+00  0.00000000000E+00 -0.18542162092E+03  0.18542162099E+03  0.50400001928E-02 0. -1.
    10030    2    1    2    0    0  0.00000000000E+00  0.00000000000E+00  0.47665435602E+03  0.84749759795E+03  0.70075159894E+03 0.  0.
        3    1    3    3  502    0 -0.27867909697E+02 -0.13128511168E+03  0.62975620789E+03  0.64389851104E+03  0.10100000352E+00 0.  1.
       -3    1    3    3    0  502  0.27867909697E+02  0.13128511168E+03 -0.15310185188E+03  0.20359908691E+03  0.10100000352E+00 0. -1.
</event>
<event>
 5   0  0.1119786E-02  0.7003821E+03  0.7818609E-02  0.9716579E-01
       -2   -1    0    0    0  501  0.00000000000E+00  0.00000000000E+00  0.13709499643E+03  0.13709499646E+03  0.25500000920E-02 0.  1.
        2   -1    0    0  501    0  0.00000000000E+00  0.00000000000E+00 -0.89451663691E+03  0.89451663691E+03  0.25500000920E-02 0. -1.
    10030    2    1    2    0    0  0.00000000000E+00  0.00000000000E+00 -0.75742164047E+03  0.10316116334E+04  0.70038205334E+03 0.  0.
        3    1    3    3  502    0  0.19524115309E+03  0.43780622830E+02 -0.80202781997E+03  0.82661023765E+03  0.10100000352E+00 0. -1.
       -3    1    3    3    0  502 -0.19524115309E+03 -0.43780622830E+02  0.44606179494E+02  0.20500139571E+03  0.10100000352E+00 0.  1.
</event>
<event>
 5   0  0.6609285E-03  0.7293533E+03  0.7818609E-02  0.9668310E-01
        1   -1    0    0  501    0  0.00000000000E+00  0.00000000000E+00  0.14926250869E+03  0.14926250878E+03  0.50400001928E-02 0.  1.
       -1   -1    0    0    0  501  0.00000000000E+00  0.00000000000E+00 -0.89097436087E+03  0.89097436088E+03  0.50400001928E-02 0. -1.
    10030    2    1    2    0    0  0.00000000000E+00  0.00000000000E+00 -0.74171185217E+03  0.10402368697E+04  0.72935332545E+03 0.  0.
        2    1    3    3  502    0  0.31509447932E+03 -0.20006795195E+01 -0.63268186587E+03  0.70680610993E+03  0.25500000920E-02 0. -1.
       -2    1    3    3    0  502 -0.31509447932E+03  0.20006795195E+01 -0.10902998630E+03  0.33343075974E+03  0.25500000920E-02 0.  1.
</event>
<event>
 5   0  0.1079446E-02  0.6940313E+03  0.7818609E-02  0.9727494E-01
        2   -1    0    0  501    0  0.00000000000E+00  0.00000000000E+00  0.31550722138E+03  0.31550722139E+03  0.25500000920E-02 0.  1.
       -2   -1    0    0    0  501  0.00000000000E+00  0.00000000000E+00 -0.38167067769E+03  0.38167067770E+03  0.25500000920E-02 0. -1.
    10030    2    1    2    0    0  0.00000000000E+00  0.00000000000E+00 -0.66163456310E+02  0.69717789909E+03  0.69403128173E+03 0.  0.
        2    1    3    3  502    0  0.27152536075E+03  0.18175430649E+03 -0.15048421216E+03  0.35973065976E+03  0.25500000920E-02 0.  1.
       -2    1    3    3    0  502 -0.27152536075E+03 -0.18175430649E+03  0.84320755852E+02  0.33744723933E+03  0.25500000920E-02 0. -1.
</event>
<event>
 5   0  0.1109788E-02  0.7012446E+03  0.7818609E-02  0.9715106E-01
        2   -1    0    0  501    0  0.00000000000E+00  0.00000000000E+00  0.90794385569E+03  0.90794385569E+03  0.25500000920E-02 0.  1.
       -2   -1    0    0    0  501  0.00000000000E+00  0.00000000000E+00 -0.13540043120E+03  0.13540043123E+03  0.25500000920E-02 0. -1.
    10030    2    1    2    0    0  0.00000000000E+00  0.00000000000E+00  0.77254342449E+03  0.10433442869E+04  0.70124457811E+03 0.  0.
        1    1    3    3  502    0 -0.30823071913E+03 -0.66734104754E+02  0.61423957244E+03  0.69047075921E+03  0.50400001928E-02 0.  1.
       -1    1    3    3    0  502  0.30823071913E+03  0.66734104754E+02  0.15830385205E+03  0.35287352770E+03  0.50400001928E-02 0. -1.
</event>
<event>
 5   0  0.6689415E-03  0.6932476E+03  0.7818609E-02  0.9728850E-01
        1   -1    0    0  501    0  0.00000000000E+00  0.00000000000E+00  0.84043818184E+03  0.84043818186E+03  0.50400001928E-02 0.  1.
       -1   -1    0    0    0  501  0.00000000000E+00  0.00000000000E+00 -0.14295883258E+03  0.14295883267E+03  0.50400001928E-02 0. -1.
    10030    2    1    2    0    0  0.00000000000E+00  0.00000000000E+00  0.69747934926E+03  0.98339701453E+03  0.69324760767E+03 0.  0.
        1    1    3    3  502    0  0.96903474984E+02 -0.31935346939E+03  0.21588754680E+03  0.39747245787E+03  0.50400001928E-02 0.  1.
       -1    1    3    3    0  502 -0.96903474984E+02  0.31935346939E+03  0.48159180246E+03  0.58592455666E+03  0.50400001928E-02 0. -1.
</event>
<event>
 5   0  0.6609285E-03  0.6989350E+03  0.7818609E-02  0.9719055E-01
       -1   -1    0    0    0  501  0.00000000000E+00  0.00000000000E+00  0.12018757584E+03  0.12018757594E+03  0.50400001928E-02 0.  1.
        1   -1    0    0  501    0  0.00000000000E+00  0.00000000000E+00 -0.10161409417E+04  0.10161409417E+04  0.50400001928E-02 0. -1.
    10030    2    1    2    0    0  0.00000000000E+00  0.00000000000E+00 -0.89595336585E+03  0.11363285176E+04  0.69893495135E+03 0.  0.
        2    1    3    3  502    0  0.31988601224E+03  0.43850879533E+01 -0.67663855656E+03  0.74845576092E+03  0.25500000920E-02 0. -1.
       -2    1    3    3    0  502 -0.31988601224E+03 -0.43850879533E+01 -0.21931480928E+03  0.38787275672E+03  0.25500000920E-02 0.  1.
</event>
<event>
 5   0  0.1079446E-02  0.6961514E+03  0.7818609E-02  0.9723837E-01
        2   -1    0    0  501    0  0.00000000000E+00  0.00000000000E+00  0.10788480382E+04  0.10788480382E+04  0.25500000920E-02 0. -1.
       -2   -1    0    0    0  501  0.00000000000E+00  0.00000000000E+00 -0.11230190840E+03  0.11230190842E+03  0.25500000920E-02 0.  1.
    10030    2    1    2    0    0  0.00000000000E+00  0.00000000000E+00  0.96654612979E+03  0.11911499466E+04  0.69615140185E+03 0.  0.
        2    1    3    3  502    0  0.34732953438E+03  0.20094134428E+02  0.46491501344E+03  0.58067852502E+03  0.25500000920E-02 0.  1.
       -2    1    3    3    0  502 -0.34732953438E+03 -0.20094134428E+02  0.50163111635E+03  0.61047142160E+03  0.25500000920E-02 0. -1.
</event>
<event>
 5   0  0.1100119E-02  0.7020263E+03  0.7818609E-02  0.9713773E-01
        2   -1    0    0  501    0  0.00000000000E+00  0.00000000000E+00  0.24821982235E+03  0.24821982236E+03  0.25500000920E-02 0. -1.
       -2   -1    0    0    0  501  0.00000000000E+00  0.00000000000E+00 -0.49637545666E+03  0.49637545666E+03  0.25500000920E-02 0.  1.
    10030    2    1    2    0    0  0.00000000000E+00  0.00000000000E+00 -0.24815563431E+03  0.74459527903E+03  0.70202628919E+03 0.  0.
        4    1    3    3  502    0 -0.84490630791E+02  0.12957790728E+03  0.21011470191E+03  0.26091933927E+03  0.12699999809E+01 0. -1.
       -4    1    3    3    0  502  0.84490630791E+02 -0.12957790728E+03 -0.45827033621E+03  0.48367593976E+03  0.12699999809E+01 0.  1.
</event>
<event>
 5   0  0.1119786E-02  0.6964176E+03  0.7818609E-02  0.9723378E-01
        2   -1    0    0  501    0  0.00000000000E+00  0.00000000000E+00  0.20277959295E+03  0.20277959297E+03  0.25500000920E-02 0. -1.
       -2   -1    0    0    0  501  0.00000000000E+00  0.00000000000E+00 -0.59793677484E+03  0.59793677484E+03  0.25500000920E-02 0.  1.
    10030    2    1    2    0    0  0.00000000000E+00  0.00000000000E+00 -0.39515718189E+03  0.80071636781E+03  0.69641762132E+03 0.  0.
        3    1    3    3  502    0 -0.43739474396E+02 -0.24893499261E+03 -0.47296485265E+03  0.53626256089E+03  0.10100000352E+00 0.  1.
       -3    1    3    3    0  502  0.43739474396E+02  0.24893499261E+03  0.77807670759E+02  0.26445380693E+03  0.10100000352E+00 0. -1.
</event>
<event>
 5   0  0.1099980E-02  0.7003413E+03  0.7818609E-02  0.9716649E-01
        2   -1    0    0  501    0  0.00000000000E+00  0.00000000000E+00  0.11241517449E+04  0.11241517449E+04  0.25500000920E-02 0. -1.
       -2   -1    0    0    0  501  0.00000000000E+00  0.00000000000E+00 -0.10907734038E+03  0.10907734041E+03  0.25500000920E-02 0.  1.
    10030    2    1    2    0    0  0.00000000000E+00  0.00000000000E+00  0.10150744046E+04  0.12332290853E+04  0.70034129547E+03 0.  0.
        5    1    3    3  502    0 -0.76098728416E+02 -0.31890844333E+03  0.29112743331E+03  0.43848703985E+03  0.46999998093E+01 0.  1.
       -5    1    3    3    0  502  0.76098728416E+02  0.31890844333E+03  0.72394697124E+03  0.79474204549E+03  0.46999998093E+01 0. -1.
</event>
<event>
 5   0  0.6246998E-03  0.6999236E+03  0.7818609E-02  0.9717363E-01
        1   -1    0    0  501    0  0.00000000000E+00  0.00000000000E+00  0.10608503519E+04  0.10608503519E+04  0.50400001928E-02 0.  1.
       -1   -1    0    0    0  501  0.00000000000E+00  0.00000000000E+00 -0.11544821250E+03  0.11544821261E+03  0.50400001928E-02 0. -1.
    10030    2    1    2    0    0  0.00000000000E+00  0.00000000000E+00  0.94540213940E+03  0.11762985645E+04  0.69992364420E+03 0.  0.
        4    1    3    3  502    0  0.13488647052E+03  0.69838831352E+02 -0.57157238860E+02  0.16229721238E+03  0.12699999809E+01 0. -1.
       -4    1    3    3    0  502 -0.13488647052E+03 -0.69838831352E+02  0.10025593783E+04  0.10140013521E+04  0.12699999809E+01 0.  1.
</event>
<event>
 5   0  0.6785252E-03  0.7042509E+03  0.7818609E-02  0.9709990E-01
       -1   -1    0    0    0  501  0.00000000000E+00  0.00000000000E+00  0.23027775326E+03  0.23027775332E+03  0.50400001928E-02 0.  1.
        1   -1    0    0  501    0  0.00000000000E+00  0.00000000000E+00 -0.53844680883E+03  0.53844680886E+03  0.50400001928E-02 0. -1.
    10030    2    1    2    0    0  0.00000000000E+00  0.00000000000E+00 -0.30816905557E+03  0.76872456217E+03  0.70425086842E+03 0.  0.
        3    1    3    3  502    0  0.21908972403E+03 -0.23231271654E+02 -0.45391767456E+03  0.50456046678E+03  0.10100000352E+00 0. -1.
       -3    1    3    3    0  502 -0.21908972403E+03  0.23231271654E+02  0.14574861899E+03  0.26416409539E+03  0.10100000352E+00 0.  1.
</event>
<event>
 5   0  0.6246998E-03  0.6970317E+03  0.7818609E-02  0.9722322E-01
       -1   -1    0    0    0  501  0.00000000000E+00  0.00000000000E+00  0.21460962936E+03  0.21460962942E+03  0.50400001928E-02 0. -1.
        1   -1    0    0  501    0  0.00000000000E+00  0.00000000000E+00 -0.56597325837E+03  0.56597325839E+03  0.50400001928E-02 0.  1.
    10030    2    1    2    0    0  0.00000000000E+00  0.00000000000E+00 -0.35136362901E+03  0.78058288781E+03  0.69703173883E+03 0.  0.
        4    1    3    3  502    0  0.49016548668E+02  0.68935305244E+00  0.21072685360E+03  0.21635738254E+03  0.12699999809E+01 0. -1.
       -4    1    3    3    0  502 -0.49016548668E+02 -0.68935305244E+00 -0.56209048261E+03  0.56422550527E+03  0.12699999809E+01 0.  1.
</event>
<event>
 5   0  0.1100119E-02  0.6879404E+03  0.7818609E-02  0.9738081E-01
        2   -1    0    0  501    0  0.00000000000E+00  0.00000000000E+00  0.32722920853E+03  0.32722920854E+03  0.25500000920E-02 0. -1.
       -2   -1    0    0    0  501  0.00000000000E+00  0.00000000000E+00 -0.36156765095E+03  0.36156765096E+03  0.25500000920E-02 0.  1.
    10030    2    1    2    0    0  0.00000000000E+00  0.00000000000E+00 -0.34338442414E+02  0.68879685950E+03  0.68794039351E+03 0.  0.
        4    1    3    3  502    0 -0.29576093083E+03 -0.66554335423E+02 -0.17988269819E+03  0.35251014989E+03  0.12699999809E+01 0.  1.
       -4    1    3    3    0  502  0.29576093083E+03  0.66554335423E+02  0.14554425578E+03  0.33628670961E+03  0.12699999809E+01 0. -1.
</event>
<event>
 5   0  0.1100119E-02  0.6975740E+03  0.7818609E-02  0.9721390E-01
       -2   -1    0    0    0  501  0.00000000000E+00  0.00000000000E+00  0.50790970179E+02  0.50790970243E+02  0.25500000920E-02 0.  1.
        2   -1    0    0  501    0  0.00000000000E+00  0.00000000000E+00 -0.23951572751E+04  0.23951572751E+04  0.25500000920E-02 0. -1.
    10030    2    1    2    0    0  0.00000000000E+00  0.00000000000E+00 -0.23443663049E+04  0.24459482453E+04  0.69757397260E+03 0.  0.
        4    1    3    3  502    0  0.14433204715E+02 -0.12156798087E+03 -0.23173406772E+04  0.23205724549E+04  0.12699999809E+01 0. -1.
       -4    1    3    3    0  502 -0.14433204715E+02  0.12156798087E+03 -0.27025627705E+02  0.12537579042E+03  0.12699999809E+01 0.  1.
</event>
<event>
 5   0  0.6990118E-03  0.7007331E+03  0.7818609E-02  0.9715979E-01
        1   -1    0    0  501    0  0.00000000000E+00  0.00000000000E+00  0.18489966031E+03  0.18489966038E+03  0.50400001928E-02 0. -1.
       -1   -1    0    0    0  501  0.00000000000E+00  0.00000000000E+00 -0.66391000167E+03  0.66391000169E+03  0.50400001928E-02 0.  1.
    10030    2    1    2    0    0  0.00000000000E+00  0.00000000000E+00 -0.47901034136E+03  0.84880966207E+03  0.70073314128E+03 0.  0.
        5    1    3    3  502    0  0.15465657832E+02 -0.27411894755E+03 -0.50310017972E+03  0.57315989463E+03  0.46999998093E+01 0.  1.
       -5    1    3    3    0  502 -0.15465657832E+02  0.27411894755E+03  0.24089838363E+02  0.27564976744E+03  0.46999998093E+01 0. -1.
</event>
<event>
 5   0  0.1079446E-02  0.7050449E+03  0.7818609E-02  0.9708643E-01
       -2   -1    0    0    0  501  0.00000000000E+00  0.00000000000E+00  0.25088375246E+03  0.25088375247E+03  0.25500000920E-02 0.  1.
        2   -1    0    0  501    0  0.00000000000E+00  0.00000000000E+00 -0.49533734494E+03  0.49533734495E+03  0.25500000920E-02 0. -1.
    10030    2    1    2    0    0  0.00000000000E+00  0.00000000000E+00 -0.24445359248E+03  0.74622109741E+03  0.70504493995E+03 0.  0.
        2    1    3    3  502    0  0.32916736954E+02  0.34736862432E+03 -0.69057290136E+02  0.35569281980E+03  0.25500000920E-02 0.  1.
       -2    1    3    3    0  502 -0.32916736954E+02 -0.34736862432E+03 -0.17539630235E+03  0.39052827761E+03  0.25500000920E-02 0. -1.
</event>
<event>
 5   0  0.6609285E-03  0.7056686E+03  0.7818609E-02  0.9707587E-01
        1   -1    0    0  501    0  0.00000000000E+00  0.00000000000E+00  0.10861625906E+04  0.10861625906E+04  0.50400001928E-02 0.  1.
       -1   -1    0    0    0  501  0.00000000000E+00  0.00000000000E+00 -0.11461639180E+03  0.11461639191E+03  0.50400001928E-02 0. -1.
    10030    2    1    2    0    0  0.00000000000E+00  0.00000000000E+00  0.97154619882E+03  0.12007789825E+04  0.70566858259E+03 0.  0.
        2    1    3    3  502    0  0.26077858474E+02  0.11036892202E+03  0.10543040169E+04  0.10603859268E+04  0.25500000920E-02 0.  1.
       -2    1    3    3    0  502 -0.26077858474E+02 -0.11036892202E+03 -0.82757818067E+02  0.14039305577E+03  0.25500000920E-02 0. -1.
</event>
<event>
 5   0  0.6785252E-03  0.6961243E+03  0.7818609E-02  0.9723883E-01
       -1   -1    0    0    0  501  0.00000000000E+00  0.00000000000E+00  0.84090916245E+02  0.84090916396E+02  0.50400001928E-02 0. -1.
        1   -1    0    0  501    0  0.00000000000E+00  0.00000000000E+00 -0.14406699771E+04  0.14406699771E+04  0.50400001928E-02 0.  1.
    10030    2    1    2    0    0  0.00000000000E+00  0.00000000000E+00 -0.13565790609E+04  0.15247608935E+04  0.69612429495E+03 0.  0.
        3    1    3    3  502    0 -0.92827686900E+02 -0.26066140014E+03 -0.21578739872E+03  0.35089251435E+03  0.10100000352E+00 0. -1.
       -3    1    3    3    0  502  0.92827686900E+02  0.26066140014E+03 -0.11407916622E+04  0.11738683792E+04  0.10100000352E+00 0.  1.
</event>
<event>
 5   0  0.1099980E-02  0.7021598E+03  0.7818609E-02  0.9713546E-01
        2   -1    0    0  501    0  0.00000000000E+00  0.00000000000E+00  0.62056763231E+03  0.62056763232E+03  0.25500000920E-02 0.  1.
       -2   -1    0    0    0  501  0.00000000000E+00  0.00000000000E+00 -0.19861990050E+03  0.19861990051E+03  0.25500000920E-02 0. -1.
    10030    2    1    2    0    0  0.00000000000E+00  0.00000000000E+00  0.42194773182E+03  0.81918753283E+03  0.70215975786E+03 0.  0.
        5    1    3    3  502    0  0.24105894444E+03  0.57956805755E+02  0.50092458828E+03  0.55894180303E+03  0.46999998093E+01 0.  1.
       -5    1    3    3    0  502 -0.24105894444E+03 -0.57956805755E+02 -0.78976856461E+02  0.26024572981E+03  0.46999998093E+01 0. -1.
</event>
<event>
 5   0  0.1109788E-02  0.6987131E+03  0.7818609E-02  0.9719435E-01
       -2   -1    0    0    0  501  0.00000000000E+00  0.00000000000E+00  0.17284455172E+03  0.17284455174E+03  0.25500000920E-02 0.  1.
        2   -1    0    0  501    0  0.00000000000E+00  0.00000000000E+00 -0.70612588948E+03  0.70612588948E+03  0.25500000920E-02 0. -1.
    10030    2    1    2    0    0  0.00000000000E+00  0.00000000000E+00 -0.53328133776E+03  0.87897044122E+03  0.69871313952E+03 0.  0.
        1    1    3    3  502    0  0.20215418027E+03  0.21721933582E+03 -0.34681591819E+02  0.29875301721E+03  0.50400001928E-02 0.  1.
       -1    1    3    3    0  502 -0.20215418027E+03 -0.21721933582E+03 -0.49859974594E+03  0.58021742401E+03  0.50400001928E-02 0. -1.
</event>
<event>
 5   0  0.6246998E-03  0.7000563E+03  0.7818609E-02  0.9717136E-01
        1   -1    0    0  501    0  0.00000000000E+00  0.00000000000E+00  0.15737529683E+04  0.15737529684E+04  0.50400001928E-02 0.  1.
       -1   -1    0    0    0  501  0.00000000000E+00  0.00000000000E+00 -0.77851924298E+02  0.77851924461E+02  0.50400001928E-02 0. -1.
    10030    2    1    2    0    0  0.00000000000E+00  0.00000000000E+00  0.14959010441E+04  0.16516048928E+04  0.70005627516E+03 0.  0.
        4    1    3    3  502    0  0.10751545605E+03 -0.93241438069E+02  0.15024097127E+04  0.15091355462E+04  0.12699999809E+01 0.  1.
       -4    1    3    3    0  502 -0.10751545605E+03  0.93241438069E+02 -0.65086686405E+01  0.14246934664E+03  0.12699999809E+01 0. -1.
</event>
<event>
 5   0  0.6609285E-03  0.6995368E+03  0.7818609E-02  0.9718025E-01
        1   -1    0    0  501    0  0.00000000000E+00  0.00000000000E+00  0.37956581557E+03  0.37956581560E+03  0.50400001928E-02 0.  1.
       -1   -1    0    0    0  501  0.00000000000E+00  0.00000000000E+00 -0.32231018730E+03  0.32231018734E+03  0.50400001928E-02 0. -1.
    10030    2    1    2    0    0  0.00000000000E+00  0.00000000000E+00  0.57255628269E+02  0.70187600294E+03  0.69953678712E+03 0.  0.
        2    1    3    3  502    0 -0.87459512397E+02  0.21158511193E+03  0.29393689119E+03  0.37258062471E+03  0.25500000920E-02 0.  1.
       -2    1    3    3    0  502  0.87459512397E+02 -0.21158511193E+03 -0.23668126292E+03  0.32929537823E+03  0.25500000920E-02 0. -1.
</event>
<event>
 5   0  0.6785252E-03  0.7135660E+03  0.7818609E-02  0.9694310E-01
        1   -1    0    0  501    0  0.00000000000E+00  0.00000000000E+00  0.21180634601E+04  0.21180634602E+04  0.50400001928E-02 0.  1.
       -1   -1    0    0    0  501  0.00000000000E+00  0.00000000000E+00 -0.60099293832E+02  0.60099294044E+02  0.50400001928E-02 0. -1.
    10030    2    1    2    0    0  0.00000000000E+00  0.00000000000E+00  0.20579641663E+04  0.21781627542E+04  0.71356602633E+03 0.  0.
        3    1    3    3  502    0  0.13949193184E+03  0.39489001997E+02  0.20241016146E+04  0.20292867557E+04  0.10100000352E+00 0.  1.
       -3    1    3    3    0  502 -0.13949193184E+03 -0.39489001997E+02  0.33862551719E+02  0.14887599853E+03  0.10100000352E+00 0. -1.
</event>
<event>
 5   0  0.1100119E-02  0.6956913E+03  0.7818609E-02  0.9724629E-01
       -2   -1    0    0    0  501  0.00000000000E+00  0.00000000000E+00  0.21627356443E+03  0.21627356444E+03  0.25500000920E-02 0. -1.
        2   -1    0    0  501    0  0.00000000000E+00  0.00000000000E+00 -0.55946088136E+03  0.55946088137E+03  0.25500000920E-02 0.  1.
    10030    2    1    2    0    0  0.00000000000E+00  0.00000000000E+00 -0.34318731693E+03  0.77573444581E+03  0.69569130792E+03 0.  0.
        4    1    3    3  502    0  0.16318692556E+03 -0.30685436174E+03 -0.15561237675E+03  0.38079705447E+03  0.12699999809E+01 0.  1.
       -4    1    3    3    0  502 -0.16318692556E+03  0.30685436174E+03 -0.18757494018E+03  0.39493739134E+03  0.12699999809E+01 0. -1.
</event>
<event>
 5   0  0.6990118E-03  0.6841009E+03  0.7818609E-02  0.9744815E-01
       -1   -1    0    0    0  501  0.00000000000E+00  0.00000000000E+00  0.10284024241E+03  0.10284024254E+03  0.50400001928E-02 0.  1.
        1   -1    0    0  501    0  0.00000000000E+00  0.00000000000E+00 -0.11376724199E+04  0.11376724199E+04  0.50400001928E-02 0. -1.
    10030    2    1    2    0    0  0.00000000000E+00  0.00000000000E+00 -0.10348321775E+04  0.12405126625E+04  0.68410089179E+03 0.  0.
        5    1    3    3  502    0  0.23074224959E+03  0.16745546483E+03 -0.17482727840E+03  0.33446970822E+03  0.46999998093E+01 0.  1.
       -5    1    3    3    0  502 -0.23074224959E+03 -0.16745546483E+03 -0.86000489911E+03  0.90604295425E+03  0.46999998093E+01 0. -1.
</event>
<event>
 5   0  0.1119786E-02  0.7035430E+03  0.7818609E-02  0.9711192E-01
        2   -1    0    0  501    0  0.00000000000E+00  0.00000000000E+00  0.23700712342E+03  0.23700712344E+03  0.25500000920E-02 0.  1.
       -2   -1    0    0    0  501  0.00000000000E+00  0.00000000000E+00 -0.52210744185E+03  0.52210744186E+03  0.25500000920E-02 0. -1.
    10030    2    1    2    0    0  0.00000000000E+00  0.00000000000E+00 -0.28510031843E+03  0.75911456530E+03  0.70354298495E+03 0.  0.
        3    1    3    3  502    0 -0.27991092899E+03 -0.33993073398E+02  0.84390363759E+02  0.29432533174E+03  0.10100000352E+00 0.  1.
       -3    1    3    3    0  502  0.27991092899E+03  0.33993073398E+02 -0.36949068219E+03  0.46478923356E+03  0.10100000352E+00 0. -1.
</event>
<event>
 5   0  0.1119786E-02  0.6968074E+03  0.7818609E-02  0.9722708E-01
        2   -1    0    0  501    0  0.00000000000E+00  0.00000000000E+00  0.81082499590E+03  0.81082499590E+03  0.25500000920E-02 0.  1.
       -2   -1    0    0    0  501  0.00000000000E+00  0.00000000000E+00 -0.14970571940E+03  0.14970571942E+03  0.25500000920E-02 0. -1.
    10030    2    1    2    0    0  0.00000000000E+00  0.00000000000E+00  0.66111927650E+03  0.96053071532E+03  0.69680740332E+03 0.  0.
        3    1    3    3  502    0 -0.27696061788E+03  0.17968787214E+03  0.17711988113E+03  0.37465501163E+03  0.10100000352E+00 0. -1.
       -3    1    3    3    0  502  0.27696061788E+03 -0.17968787214E+03  0.48399939537E+03  0.58587570369E+03  0.10100000352E+00 0.  1.
</event>
<event>
 5   0  0.6990118E-03  0.7009819E+03  0.7818609E-02  0.9715555E-01
        1   -1    0    0  501    0  0.00000000000E+00  0.00000000000E+00  0.36556557771E+03  0.36556557775E+03  0.50400001928E-02 0. -1.
       -1   -1    0    0    0  501  0.00000000000E+00  0.00000000000E+00 -0.33603793205E+03  0.33603793208E+03  0.50400001928E-02 0.  1.
    10030    2    1    2    0    0  0.00000000000E+00  0.00000000000E+00  0.29527645669E+02  0.70160350983E+03  0.70098188504E+03 0.  0.
        5    1    3    3  502    0 -0.20396355261E+03 -0.10748621120E+03  0.27894370491E+03  0.36192001450E+03  0.46999998093E+01 0. -1.
       -5    1    3    3    0  502  0.20396355261E+03  0.10748621120E+03 -0.24941605924E+03  0.33968349533E+03  0.46999998093E+01 0.  1.
</event>
<event>
 5   0  0.4440500E-03  0.7033947E+03  0.7818609E-02  0.9711444E-01
        3   -1    0    0  501    0  0.00000000000E+00  0.00000000000E+00  0.61715372736E+03  0.61715373562E+03  0.10100000352E+00 0. -1.
       -3   -1    0    0    0  501  0.00000000000E+00  0.00000000000E+00 -0.20042173290E+03  0.20042175835E+03  0.10100000352E+00 0.  1.
    10030    2    1    2    0    0  0.00000000000E+00  0.00000000000E+00  0.41673199446E+03  0.81757549397E+03  0.70339472072E+03 0.  0.
        3    1    3    3  502    0  0.20034899712E+03 -0.30642606255E+02 -0.12571456264E+03  0.23850126084E+03  0.10100000352E+00 0.  1.
       -3    1    3    3    0  502 -0.20034899712E+03  0.30642606255E+02  0.54244655710E+03  0.57907423313E+03  0.10100000352E+00 0. -1.
</event>
<event>
 5   0  0.4440500E-03  0.7020344E+03  0.7818609E-02  0.9713759E-01
        3   -1    0    0  501    0  0.00000000000E+00  0.00000000000E+00  0.21770449969E+03  0.21770452311E+03  0.10100000352E+00 0. -1.
       -3   -1    0    0    0  501  0.00000000000E+00  0.00000000000E+00 -0.56596471660E+03  0.56596472562E+03  0.10100000352E+00 0.  1.
    10030    2    1    2    0    0  0.00000000000E+00  0.00000000000E+00 -0.34826021692E+03  0.78366924873E+03  0.70203440992E+03 0.  0.
        4    1    3    3  502    0  0.27416525319E+01 -0.34720369930E+03 -0.11662754448E+03  0.36628066083E+03  0.12699999809E+01 0. -1.
       -4    1    3    3    0  502 -0.27416525319E+01  0.34720369930E+03 -0.23163267244E+03  0.41738858790E+03  0.12699999809E+01 0.  1.
</event>
<event>
 5   0  0.6990118E-03  0.7008793E+03  0.7818609E-02  0.9715730E-01
        1   -1    0    0  501    0  0.00000000000E+00  0.00000000000E+00  0.23773993373E+03  0.23773993378E+03  0.50400001928E-02 0.  1.
       -1   -1    0    0    0  501  0.00000000000E+00  0.00000000000E+00 -0.51656430020E+03  0.51656430022E+03  0.50400001928E-02 0. -1.
    10030    2    1    2    0    0  0.00000000000E+00  0.00000000000E+00 -0.27882436647E+03  0.75430423400E+03  0.70087934061E+03 0.  0.
        5    1    3    3  502    0 -0.14598343198E+03  0.31794885174E+03 -0.11834349713E+03  0.36936419432E+03  0.46999998093E+01 0. -1.
       -5    1    3    3    0  502  0.14598343198E+03 -0.31794885174E+03 -0.16048086934E+03  0.38494003968E+03  0.46999998093E+01 0.  1.
</event>
<event>
 5   0  0.1119786E-02  0.6989039E+03  0.7818609E-02  0.9719109E-01
       -2   -1    0    0    0  501  0.00000000000E+00  0.00000000000E+00  0.18606890294E+03  0.18606890296E+03  0.25500000920E-02 0. -1.
        2   -1    0    0  501    0  0.00000000000E+00  0.00000000000E+00 -0.65629803028E+03  0.65629803028E+03  0.25500000920E-02 0.  1.
    10030    2    1    2    0    0  0.00000000000E+00  0.00000000000E+00 -0.47022912734E+03  0.84236693324E+03  0.69890386894E+03 0.  0.
        3    1    3    3  502    0  0.19120096580E+03 -0.24507001230E+03 -0.42650388398E+02  0.31374541604E+03  0.10100000352E+00 0. -1.
       -3    1    3    3    0  502 -0.19120096580E+03  0.24507001230E+03 -0.42757873894E+03  0.52862151720E+03  0.10100000352E+00 0.  1.
</event>
<event>
 5   0  0.6990118E-03  0.7405555E+03  0.7818609E-02  0.9650285E-01
        1   -1    0    0  501    0  0.00000000000E+00  0.00000000000E+00  0.54794137771E+03  0.54794137773E+03  0.50400001928E-02 0. -1.
       -1   -1    0    0    0  501  0.00000000000E+00  0.00000000000E+00 -0.25021947581E+03  0.25021947586E+03  0.50400001928E-02 0.  1.
    10030    2    1    2    0    0  0.00000000000E+00  0.00000000000E+00  0.29772190190E+03  0.79816085359E+03  0.74055547891E+03 0.  0.
        5    1    3    3  502    0 -0.79331541684E+02 -0.18224841804E+03  0.48553007946E+03  0.52466134548E+03  0.46999998093E+01 0. -1.
       -5    1    3    3    0  502  0.79331541684E+02  0.18224841804E+03 -0.18780817756E+03  0.27349950811E+03  0.46999998093E+01 0.  1.
</event>
<event>
 5   0  0.1079446E-02  0.6992839E+03  0.7818609E-02  0.9718458E-01
       -2   -1    0    0    0  501  0.00000000000E+00  0.00000000000E+00  0.19286693725E+03  0.19286693726E+03  0.25500000920E-02 0. -1.
        2   -1    0    0  501    0  0.00000000000E+00  0.00000000000E+00 -0.63385399018E+03  0.63385399018E+03  0.25500000920E-02 0.  1.
    10030    2    1    2    0    0  0.00000000000E+00  0.00000000000E+00 -0.44098705293E+03  0.82672092745E+03  0.69928385583E+03 0.  0.
        2    1    3    3  502    0  0.17569723618E+03  0.27987827235E+03 -0.35553876025E+03  0.48539589633E+03  0.25500000920E-02 0.  1.
       -2    1    3    3    0  502 -0.17569723618E+03 -0.27987827235E+03 -0.85448292685E+02  0.34132503111E+03  0.25500000920E-02 0. -1.
</event>
<event>
 5   0  0.1109788E-02  0.7040348E+03  0.7818609E-02  0.9710357E-01
       -2   -1    0    0    0  501  0.00000000000E+00  0.00000000000E+00  0.18188686211E+03  0.18188686213E+03  0.25500000920E-02 0.  1.
        2   -1    0    0  501    0  0.00000000000E+00  0.00000000000E+00 -0.68128209232E+03  0.68128209233E+03  0.25500000920E-02 0. -1.
    10030    2    1    2    0    0  0.00000000000E+00  0.00000000000E+00 -0.49939523021E+03  0.86316895446E+03  0.70403483435E+03 0.  0.
        1    1    3    3  502    0  0.32275144969E+03  0.10969858849E+03 -0.14201613576E+03  0.36928425560E+03  0.50400001928E-02 0.  1.
       -1    1    3    3    0  502 -0.32275144969E+03 -0.10969858849E+03 -0.35737909445E+03  0.49388469886E+03  0.50400001928E-02 0. -1.
</event>
<event>
 5   0  0.6689415E-03  0.6995211E+03  0.7818609E-02  0.9718051E-01
        1   -1    0    0  501    0  0.00000000000E+00  0.00000000000E+00  0.12631922201E+04  0.12631922201E+04  0.50400001928E-02 0. -1.
       -1   -1    0    0    0  501  0.00000000000E+00  0.00000000000E+00 -0.96843898916E+02  0.96843899047E+02  0.50400001928E-02 0.  1.
    10030    2    1    2    0    0  0.00000000000E+00  0.00000000000E+00  0.11663483212E+04  0.13600361192E+04  0.69952114985E+03 0.  0.
        1    1    3    3  502    0  0.26606013849E+03 -0.51985150573E+02  0.10128553498E+04  0.10485067538E+04  0.50400001928E-02 0. -1.
       -1    1    3    3    0  502 -0.26606013849E+03  0.51985150573E+02  0.15349297138E+03  0.31152936533E+03  0.50400001928E-02 0.  1.
</event>
<event>
 5   0  0.1100119E-02  0.7031133E+03  0.7818609E-02  0.9711923E-01
        2   -1    0    0  501    0  0.00000000000E+00  0.00000000000E+00  0.11606537463E+04  0.11606537463E+04  0.25500000920E-02 0. -1.
       -2   -1    0    0    0  501  0.00000000000E+00  0.00000000000E+00 -0.10648489581E+03  0.10648489584E+03  0.25500000920E-02 0.  1.
    10030    2    1    2    0    0  0.00000000000E+00  0.00000000000E+00  0.10541688505E+04  0.12671386422E+04  0.70311334299E+03 0.  0.
        4    1    3    3  502    0 -0.19487375340E+03 -0.26837145533E+03  0.31698160003E+03  0.45877877616E+03  0.12699999809E+01 0.  1.
       -4    1    3    3    0  502  0.19487375340E+03  0.26837145533E+03  0.73718725050E+03  0.80835986603E+03  0.12699999809E+01 0. -1.
</event>
<event>
 5   0  0.1100119E-02  0.7026072E+03  0.7818609E-02  0.9712784E-01
       -2   -1    0    0    0  501  0.00000000000E+00  0.00000000000E+00  0.78142909299E+02  0.78142909340E+02  0.25500000920E-02 0. -1.
        2   -1    0    0  501    0  0.00000000000E+00  0.00000000000E+00 -0.15793400616E+04  0.15793400616E+04  0.25500000920E-02 0.  1.
    10030    2    1    2    0    0  0.00000000000E+00  0.00000000000E+00 -0.15011971523E+04  0.16574829710E+04  0.70260722235E+03 0.  0.
        4    1    3    3  502    0  0.13966792127E+03 -0.13202142786E+03 -0.14443179631E+04  0.14570493393E+04  0.12699999809E+01 0.  1.
       -4    1    3    3    0  502 -0.13966792127E+03  0.13202142786E+03 -0.56879189219E+02  0.20043363169E+03  0.12699999809E+01 0. -1.
</event>
<event>
 5   0  0.1119786E-02  0.7003608E+03  0.7818609E-02  0.9716615E-01
       -2   -1    0    0    0  501  0.00000000000E+00  0.00000000000E+00  0.15934111155E+03  0.15934111157E+03  0.25500000920E-02 0.  1.
        2   -1    0    0  501    0  0.00000000000E+00  0.00000000000E+00 -0.76958360429E+03  0.76958360430E+03  0.25500000920E-02 0. -1.
    10030    2    1    2    0    0  0.00000000000E+00  0.00000000000E+00 -0.61024249275E+03  0.92892471587E+03  0.70036078402E+03 0.  0.
        3    1    3    3  502    0  0.92684782565E+02  0.31520908766E+03 -0.14442423332E+03  0.35889498078E+03  0.10100000352E+00 0.  1.
       -3    1    3    3    0  502 -0.92684782565E+02 -0.31520908766E+03 -0.46581825943E+03  0.57002973508E+03  0.10100000352E+00 0. -1.
</event>
<event>
 5   0  0.4440500E-03  0.7032308E+03  0.7818609E-02  0.9711723E-01
       -3   -1    0    0    0  501  0.00000000000E+00  0.00000000000E+00  0.74864468717E+03  0.74864469398E+03  0.10100000352E+00 0. -1.
        3   -1    0    0  501    0  0.00000000000E+00  0.00000000000E+00 -0.16514293705E+03  0.16514296793E+03  0.10100000352E+00 0.  1.
    10030    2    1    2    0    0  0.00000000000E+00  0.00000000000E+00  0.58350175012E+03  0.91378766191E+03  0.70323082887E+03 0.  0.
        3    1    3    3  502    0 -0.16374978637E+03  0.48124063327E+02 -0.10770725936E+03  0.20181868577E+03  0.10100000352E+00 0.  1.
       -3    1    3    3    0  502  0.16374978637E+03 -0.48124063327E+02  0.69120900948E+03  0.71196897614E+03  0.10100000352E+00 0. -1.
</event>
<event>
 5   0  0.6246998E-03  0.6976481E+03  0.7818609E-02  0.9721263E-01
        1   -1    0    0  501    0  0.00000000000E+00  0.00000000000E+00  0.80414432016E+03  0.80414432018E+03  0.50400001928E-02 0.  1.
       -1   -1    0    0    0  501  0.00000000000E+00  0.00000000000E+00 -0.15131390909E+03  0.15131390917E+03  0.50400001928E-02 0. -1.
    10030    2    1    2    0    0  0.00000000000E+00  0.00000000000E+00  0.65283041107E+03  0.95545822935E+03  0.69764810787E+03 0.  0.
        4    1    3    3  502    0  0.15905823981E+03  0.12963101215E+03 -0.59914262464E+02  0.21376401641E+03  0.12699999809E+01 0. -1.
       -4    1    3    3    0  502 -0.15905823981E+03 -0.12963101215E+03  0.71274467354E+03  0.74169421295E+03  0.12699999809E+01 0.  1.
</event>
<event>
 5   0  0.6609285E-03  0.6997756E+03  0.7818609E-02  0.9717616E-01
       -1   -1    0    0    0  501  0.00000000000E+00  0.00000000000E+00  0.29883987940E+03  0.29883987944E+03  0.50400001928E-02 0.  1.
        1   -1    0    0  501    0  0.00000000000E+00  0.00000000000E+00 -0.40965572558E+03  0.40965572561E+03  0.50400001928E-02 0. -1.
    10030    2    1    2    0    0  0.00000000000E+00  0.00000000000E+00 -0.11081584618E+03  0.70849560505E+03  0.69977558589E+03 0.  0.
        2    1    3    3  502    0 -0.26656714461E+03 -0.21471238672E+03  0.18035761744E+02  0.34276047074E+03  0.25500000920E-02 0. -1.
       -2    1    3    3    0  502  0.26656714461E+03  0.21471238672E+03 -0.12885160793E+03  0.36573513431E+03  0.25500000920E-02 0.  1.
</event>
<event>
 5   0  0.1119786E-02  0.6971375E+03  0.7818609E-02  0.9722140E-01
        2   -1    0    0  501    0  0.00000000000E+00  0.00000000000E+00  0.72090408233E+03  0.72090408234E+03  0.25500000920E-02 0. -1.
       -2   -1    0    0    0  501  0.00000000000E+00  0.00000000000E+00 -0.16853859843E+03  0.16853859845E+03  0.25500000920E-02 0.  1.
    10030    2    1    2    0    0  0.00000000000E+00  0.00000000000E+00  0.55236548390E+03  0.88944268079E+03  0.69713747181E+03 0.  0.
        3    1    3    3  502    0 -0.43739311401E+02  0.30470480069E+03  0.67543226097E+02  0.31515113916E+03  0.10100000352E+00 0.  1.
       -3    1    3    3    0  502  0.43739311401E+02 -0.30470480069E+03  0.48482225781E+03  0.57429154163E+03  0.10100000352E+00 0. -1.
</event>
<event>
 5   0  0.1100119E-02  0.7002752E+03  0.7818609E-02  0.9716762E-01
       -2   -1    0    0    0  501  0.00000000000E+00  0.00000000000E+00  0.15410794063E+03  0.15410794065E+03  0.25500000920E-02 0. -1.
        2   -1    0    0  501    0  0.00000000000E+00  0.00000000000E+00 -0.79552259008E+03  0.79552259008E+03  0.25500000920E-02 0.  1.
    10030    2    1    2    0    0  0.00000000000E+00  0.00000000000E+00 -0.64141464944E+03  0.94963053074E+03  0.70027522617E+03 0.  0.
        4    1    3    3  502    0 -0.12125423263E+03  0.24586395110E+03 -0.25333320823E+02  0.27530902896E+03  0.12699999809E+01 0. -1.
       -4    1    3    3    0  502  0.12125423263E+03 -0.24586395110E+03 -0.61608132862E+03  0.67432150178E+03  0.12699999809E+01 0.  1.
</event>
<event>
 5   0  0.1100119E-02  0.7001975E+03  0.7818609E-02  0.9716895E-01
       -2   -1    0    0    0  501  0.00000000000E+00  0.00000000000E+00  0.64276238921E+02  0.64276238972E+02  0.25500000920E-02 0.  1.
        2   -1    0    0  501    0  0.00000000000E+00  0.00000000000E+00 -0.19069119091E+04  0.19069119091E+04  0.25500000920E-02 0. -1.
    10030    2    1    2    0    0  0.00000000000E+00  0.00000000000E+00 -0.18426356702E+04  0.19711881481E+04  0.70019747365E+03 0.  0.
        4    1    3    3  502    0  0.42722646567E+02 -0.99722723305E+01 -0.18991364917E+04  0.18996435713E+04  0.12699999809E+01 0. -1.
       -4    1    3    3    0  502 -0.42722646567E+02  0.99722723305E+01  0.56500821509E+02  0.71544576847E+02  0.12699999809E+01 0.  1.
</event>
<event>
 5   0  0.6785252E-03  0.6996870E+03  0.7818609E-02  0.9717768E-01
       -1   -1    0    0    0  501  0.00000000000E+00  0.00000000000E+00  0.30695698215E+03  0.30695698219E+03  0.50400001928E-02 0.  1.
        1   -1    0    0  501    0  0.00000000000E+00  0.00000000000E+00 -0.39872190795E+03  0.39872190799E+03  0.50400001928E-02 0. -1.
    10030    2    1    2    0    0  0.00000000000E+00  0.00000000000E+00 -0.91764925805E+02  0.70567889018E+03  0.69968699747E+03 0.  0.
        3    1    3    3  502    0 -0.30965282024E+03 -0.35705282269E+02  0.11431963765E+03  0.33200711742E+03  0.10100000352E+00 0. -1.
       -3    1    3    3    0  502  0.30965282024E+03  0.35705282269E+02 -0.20608456345E+03  0.37367177276E+03  0.10100000352E+00 0.  1.
</event>
<event>
 5   0  0.6689415E-03  0.6985631E+03  0.7818609E-02  0.9719693E-01
       -1   -1    0    0    0  501  0.00000000000E+00  0.00000000000E+00  0.12735466576E+04  0.12735466576E+04  0.50400001928E-02 0. -1.
        1   -1    0    0  501    0  0.00000000000E+00  0.00000000000E+00 -0.95793599105E+02  0.95793599237E+02  0.50400001928E-02 0.  1.
    10030    2    1    2    0    0  0.00000000000E+00  0.00000000000E+00  0.11777530585E+04  0.13693402569E+04  0.69856314835E+03 0.  0.
        1    1    3    3  502    0 -0.15525197818E+03 -0.17288932420E+03  0.11000544053E+04  0.11243280615E+04  0.50400001928E-02 0. -1.
       -1    1    3    3    0  502  0.15525197818E+03  0.17288932420E+03  0.77698653197E+02  0.24501219538E+03  0.50400001928E-02 0.  1.
</event>
<event>
 5   0  0.6609285E-03  0.7038336E+03  0.7818609E-02  0.9710699E-01
       -1   -1    0    0    0  501  0.00000000000E+00  0.00000000000E+00  0.99436971760E+02  0.99436971888E+02  0.50400001928E-02 0.  1.
        1   -1    0    0  501    0  0.00000000000E+00  0.00000000000E+00 -0.12454665662E+04  0.12454665662E+04  0.50400001928E-02 0. -1.
    10030    2    1    2    0    0  0.00000000000E+00  0.00000000000E+00 -0.11460295944E+04  0.13449035381E+04  0.70383357085E+03 0.  0.
        2    1    3    3  502    0  0.26715292826E+03  0.71286221774E+02 -0.98900041043E+03  0.10269246439E+04  0.25500000920E-02 0. -1.
       -2    1    3    3    0  502 -0.26715292826E+03 -0.71286221774E+02 -0.15702918400E+03  0.31797889415E+03  0.25500000920E-02 0.  1.
</event>
<event>
 5   0  0.1109788E-02  0.7008232E+03  0.7818609E-02  0.9715825E-01
       -2   -1    0    0    0  501  0.00000000000E+00  0.00000000000E+00  0.17405116975E+03  0.17405116977E+03  0.25500000920E-02 0.  1.
        2   -1    0    0  501    0  0.00000000000E+00  0.00000000000E+00 -0.70547235851E+03  0.70547235852E+03  0.25500000920E-02 0. -1.
    10030    2    1    2    0    0  0.00000000000E+00  0.00000000000E+00 -0.53142118876E+03  0.87952352829E+03  0.70082319949E+03 0.  0.
        1    1    3    3  502    0  0.33167043266E+03  0.96357380492E+02 -0.19148296956E+03  0.39491232993E+03  0.50400001928E-02 0.  1.
       -1    1    3    3    0  502 -0.33167043266E+03 -0.96357380492E+02 -0.33993821920E+03  0.48461119836E+03  0.50400001928E-02 0. -1.
</event>
<event>
 5   0  0.1100119E-02  0.7024233E+03  0.7818609E-02  0.9713097E-01
       -2   -1    0    0    0  501  0.00000000000E+00  0.00000000000E+00  0.10645065472E+03  0.10645065475E+03  0.25500000920E-02 0. -1.
        2   -1    0    0  501    0  0.00000000000E+00  0.00000000000E+00 -0.11587492199E+04  0.11587492199E+04  0.25500000920E-02 0.  1.
    10030    2    1    2    0    0  0.00000000000E+00  0.00000000000E+00 -0.10522985652E+04  0.12651998747E+04  0.70242327165E+03 0.  0.
        4    1    3    3  502    0  0.33916793329E+02  0.27810144297E+03 -0.90763344894E+03  0.94988991573E+03  0.12699999809E+01 0.  1.
       -4    1    3    3    0  502 -0.33916793329E+02 -0.27810144297E+03 -0.14466511626E+03  0.31530995896E+03  0.12699999809E+01 0. -1.
</event>
<event>
 5   0  0.6990118E-03  0.6953523E+03  0.7818609E-02  0.9725213E-01
       -1   -1    0    0    0  501  0.00000000000E+00  0.00000000000E+00  0.22087643952E+03  0.22087643958E+03  0.50400001928E-02 0.  1.
        1   -1    0    0  501    0  0.00000000000E+00  0.00000000000E+00 -0.54726849960E+03  0.54726849963E+03  0.50400001928E-02 0. -1.
    10030    2    1    2    0    0  0.00000000000E+00  0.00000000000E+00 -0.32639206008E+03  0.76814493921E+03  0.69535233568E+03 0.  0.
        5    1    3    3  502    0  0.10726594266E+02  0.24222323271E+03 -0.43841431631E+03  0.50101532614E+03  0.46999998093E+01 0. -1.
       -5    1    3    3    0  502 -0.10726594266E+02 -0.24222323271E+03  0.11202225622E+03  0.26712961306E+03  0.46999998093E+01 0.  1.
</event>
<event>
 5   0  0.1109788E-02  0.6975029E+03  0.7818609E-02  0.9721512E-01
       -2   -1    0    0    0  501  0.00000000000E+00  0.00000000000E+00  0.20483462800E+03  0.20483462801E+03  0.25500000920E-02 0.  1.
        2   -1    0    0  501    0  0.00000000000E+00  0.00000000000E+00 -0.59378428216E+03  0.59378428217E+03  0.25500000920E-02 0. -1.
    10030    2    1    2    0    0  0.00000000000E+00  0.00000000000E+00 -0.38894965417E+03  0.79861891018E+03  0.69750292489E+03 0.  0.
        1    1    3    3  502    0  0.70529406078E+02  0.26406265521E+03 -0.44249758365E+03  0.52010344602E+03  0.50400001928E-02 0. -1.
       -1    1    3    3    0  502 -0.70529406078E+02 -0.26406265521E+03  0.53547929487E+02  0.27851546416E+03  0.50400001928E-02 0.  1.
</event>
<event>
 5   0  0.6689415E-03  0.7141855E+03  0.7818609E-02  0.9693276E-01
       -1   -1    0    0    0  501  0.00000000000E+00  0.00000000000E+00  0.19518397051E+03  0.19518397058E+03  0.50400001928E-02 0.  1.
        1   -1    0    0  501    0  0.00000000000E+00  0.00000000000E+00 -0.65330798016E+03  0.65330798018E+03  0.50400001928E-02 0. -1.
    10030    2    1    2    0    0  0.00000000000E+00  0.00000000000E+00 -0.45812400964E+03  0.84849195076E+03  0.71418553772E+03 0.  0.
        1    1    3    3  502    0 -0.18524238494E+03  0.30405840336E+03 -0.26157636271E+03  0.44180136644E+03  0.50400001928E-02 0. -1.
       -1    1    3    3    0  502  0.18524238494E+03 -0.30405840336E+03 -0.19654764694E+03  0.40669058432E+03  0.50400001928E-02 0.  1.
</event>
<event>
 5   0  0.6990118E-03  0.6996167E+03  0.7818609E-02  0.9717888E-01
       -1   -1    0    0    0  501  0.00000000000E+00  0.00000000000E+00  0.64655966940E+02  0.64655967137E+02  0.50400001928E-02 0. -1.
        1   -1    0    0  501    0  0.00000000000E+00  0.00000000000E+00 -0.18925688058E+04  0.18925688058E+04  0.50400001928E-02 0.  1.
    10030    2    1    2    0    0  0.00000000000E+00  0.00000000000E+00 -0.18279128389E+04  0.19572247730E+04  0.69961665601E+03 0.  0.
        5    1    3    3  502    0 -0.15974956030E+03 -0.16167012928E+03 -0.17016839313E+03  0.28396571049E+03  0.46999998093E+01 0. -1.
       -5    1    3    3    0  502  0.15974956030E+03  0.16167012928E+03 -0.16577444458E+04  0.16732590625E+04  0.46999998093E+01 0.  1.
</event>
<event>
 5   0  0.6990118E-03  0.6996396E+03  0.7818609E-02  0.9717849E-01
        1   -1    0    0  501    0  0.00000000000E+00  0.00000000000E+00  0.55186752590E+03  0.55186752592E+03  0.50400001928E-02 0. -1.
       -1   -1    0    0    0  501  0.00000000000E+00  0.00000000000E+00 -0.22174507780E+03  0.22174507785E+03  0.50400001928E-02 0.  1.
    10030    2    1    2    0    0  0.00000000000E+00  0.00000000000E+00  0.33012244810E+03  0.77361260377E+03  0.69963964294E+03 0.  0.
        5    1    3    3  502    0 -0.93298964553E+02  0.32811258799E+03  0.79488499565E+02  0.35028999235E+03  0.46999998093E+01 0. -1.
       -5    1    3    3    0  502  0.93298964553E+02 -0.32811258799E+03  0.25063394854E+03  0.42332261142E+03  0.46999998093E+01 0.  1.
</event>
<event>
 5   0  0.1099980E-02  0.7044224E+03  0.7818609E-02  0.9709699E-01
        2   -1    0    0  501    0  0.00000000000E+00  0.00000000000E+00  0.62232392507E+03  0.62232392508E+03  0.25500000920E-02 0.  1.
       -2   -1    0    0    0  501  0.00000000000E+00  0.00000000000E+00 -0.19933788205E+03  0.19933788206E+03  0.25500000920E-02 0. -1.
    10030    2    1    2    0    0  0.00000000000E+00  0.00000000000E+00  0.42298604302E+03  0.82166180714E+03  0.70442241072E+03 0.  0.
        5    1    3    3  502    0 -0.25556464823E+02  0.32492865731E+02 -0.19646148287E+03  0.20081863327E+03  0.46999998093E+01 0. -1.
       -5    1    3    3    0  502  0.25556464823E+02 -0.32492865731E+02  0.61944752589E+03  0.62084317388E+03  0.46999998093E+01 0.  1.
</event>
<event>
 5   0  0.1099980E-02  0.6968528E+03  0.7818609E-02  0.9722629E-01
       -2   -1    0    0    0  501  0.00000000000E+00  0.00000000000E+00  0.96062103916E+03  0.96062103916E+03  0.25500000920E-02 0. -1.
        2   -1    0    0  501    0  0.00000000000E+00  0.00000000000E+00 -0.12637758918E+03  0.12637758921E+03  0.25500000920E-02 0.  1.
    10030    2    1    2    0    0  0.00000000000E+00  0.00000000000E+00  0.83424344998E+03  0.10869986284E+04  0.69685284261E+03 0.  0.
        5    1    3    3  502    0 -0.26011677612E+03  0.11762231486E+03  0.10560414256E+03  0.30441759328E+03  0.46999998093E+01 0.  1.
       -5    1    3    3    0  502  0.26011677612E+03 -0.11762231486E+03  0.72863930742E+03  0.78258103510E+03  0.46999998093E+01 0. -1.
</event>
<event>
 5   0  0.1079446E-02  0.6963669E+03  0.7818609E-02  0.9723466E-01
       -2   -1    0    0    0  501  0.00000000000E+00  0.00000000000E+00  0.15346860239E+03  0.15346860241E+03  0.25500000920E-02 0. -1.
        2   -1    0    0  501    0  0.00000000000E+00  0.00000000000E+00 -0.78994468244E+03  0.78994468245E+03  0.25500000920E-02 0.  1.
    10030    2    1    2    0    0  0.00000000000E+00  0.00000000000E+00 -0.63647608005E+03  0.94341328486E+03  0.69636687571E+03 0.  0.
        2    1    3    3  502    0 -0.14621038209E+03  0.14313773072E+03 -0.69990154855E+03  0.72919686194E+03  0.25500000920E-02 0.  1.
       -2    1    3    3    0  502  0.14621038209E+03 -0.14313773072E+03  0.63425468505E+02  0.21421642292E+03  0.25500000920E-02 0. -1.
</event>
<event>
 5   0  0.6689415E-03  0.6997815E+03  0.7818609E-02  0.9717606E-01
        1   -1    0    0  501    0  0.00000000000E+00  0.00000000000E+00  0.64759457578E+03  0.64759457580E+03  0.50400001928E-02 0. -1.
       -1   -1    0    0    0  501  0.00000000000E+00  0.00000000000E+00 -0.18904349012E+03  0.18904349019E+03  0.50400001928E-02 0.  1.
    10030    2    1    2    0    0  0.00000000000E+00  0.00000000000E+00  0.45855108566E+03  0.83663806599E+03  0.69978150540E+03 0.  0.
        1    1    3    3  502    0 -0.14064040815E+03  0.95917888594E+02  0.59474398201E+03  0.61862781211E+03  0.50400001928E-02 0. -1.
       -1    1    3    3    0  502  0.14064040815E+03 -0.95917888594E+02 -0.13619289634E+03  0.21801025388E+03  0.50400001928E-02 0.  1.
</event>
<event>
 5   0  0.1099980E-02  0.7002127E+03  0.7818609E-02  0.9716868E-01
       -2   -1    0    0    0  501  0.00000000000E+00  0.00000000000E+00  0.18455518305E+03  0.18455518306E+03  0.25500000920E-02 0. -1.
        2   -1    0    0  501    0  0.00000000000E+00  0.00000000000E+00 -0.66416162501E+03  0.66416162502E+03  0.25500000920E-02 0.  1.
    10030    2    1    2    0    0  0.00000000000E+00  0.00000000000E+00 -0.47960644197E+03  0.84871680808E+03  0.70021273992E+03 0.  0.
        5    1    3    3  502    0  0.25451083552E+03  0.17174054797E+03 -0.35964675768E+02  0.30917006504E+03  0.46999998093E+01 0. -1.
       -5    1    3    3    0  502 -0.25451083552E+03 -0.17174054797E+03 -0.44364176620E+03  0.53954674304E+03  0.46999998093E+01 0.  1.
</event>
<event>
 5   0  0.6785252E-03  0.6979995E+03  0.7818609E-02  0.9720659E-01
        1   -1    0    0  501    0  0.00000000000E+00  0.00000000000E+00  0.57193075080E+03  0.57193075083E+03  0.50400001928E-02 0.  1.
       -1   -1    0    0    0  501  0.00000000000E+00  0.00000000000E+00 -0.21296427672E+03  0.21296427678E+03  0.50400001928E-02 0. -1.
    10030    2    1    2    0    0  0.00000000000E+00  0.00000000000E+00  0.35896647409E+03  0.78489502760E+03  0.69799948054E+03 0.  0.
        3    1    3    3  502    0  0.21881204890E+03  0.12716082573E+03  0.44971775405E+03  0.51603745683E+03  0.10100000352E+00 0.  1.
       -3    1    3    3    0  502 -0.21881204890E+03 -0.12716082573E+03 -0.90751279965E+02  0.26885757077E+03  0.10100000352E+00 0. -1.
</event>
<event>
 5   0  0.1119786E-02  0.6976843E+03  0.7818609E-02  0.9721201E-01
        2   -1    0    0  501    0  0.00000000000E+00  0.00000000000E+00  0.60689837056E+03  0.60689837056E+03  0.25500000920E-02 0.  1.
       -2   -1    0    0    0  501  0.00000000000E+00  0.00000000000E+00 -0.20051272499E+03  0.20051272500E+03  0.25500000920E-02 0. -1.
    10030    2    1    2    0    0  0.00000000000E+00  0.00000000000E+00  0.40638564557E+03  0.80741109556E+03  0.69768430132E+03 0.  0.
        3    1    3    3  502    0  0.22820706392E+03  0.20200798110E+03  0.39960608707E+03  0.50256414861E+03  0.10100000352E+00 0.  1.
       -3    1    3    3    0  502 -0.22820706392E+03 -0.20200798110E+03  0.67795585015E+01  0.30484694695E+03  0.10100000352E+00 0. -1.
</event>
<event>
 5   0  0.1099980E-02  0.6964269E+03  0.7818609E-02  0.9723362E-01
       -2   -1    0    0    0  501  0.00000000000E+00  0.00000000000E+00  0.50959565562E+03  0.50959565563E+03  0.25500000920E-02 0. -1.
        2   -1    0    0  501    0  0.00000000000E+00  0.00000000000E+00 -0.23793888225E+03  0.23793888226E+03  0.25500000920E-02 0.  1.
    10030    2    1    2    0    0  0.00000000000E+00  0.00000000000E+00  0.27165677338E+03  0.74753453789E+03  0.69642694004E+03 0.  0.
        5    1    3    3  502    0  0.31844658828E+02 -0.18388442718E+03 -0.17968662373E+03  0.25910796514E+03  0.46999998093E+01 0.  1.
       -5    1    3    3    0  502 -0.31844658828E+02  0.18388442718E+03  0.45134339710E+03  0.48842657275E+03  0.46999998093E+01 0. -1.
</event>
<event>
 5   0  0.6246998E-03  0.7079307E+03  0.7818609E-02  0.9703765E-01
        1   -1    0    0  501    0  0.00000000000E+00  0.00000000000E+00  0.10037150423E+04  0.10037150423E+04  0.50400001928E-02 0.  1.
       -1   -1    0    0    0  501  0.00000000000E+00  0.00000000000E+00 -0.12482774473E+03  0.12482774483E+03  0.50400001928E-02 0. -1.
    10030    2    1    2    0    0  0.00000000000E+00  0.00000000000E+00  0.87888729753E+03  0.11285427871E+04  0.70793074561E+03 0.  0.
        4    1    3    3  502    0 -0.33246314375E+03 -0.11693339731E+03  0.49194666514E+03  0.60515972734E+03  0.12699999809E+01 0.  1.
       -4    1    3    3    0  502  0.33246314375E+03  0.11693339731E+03  0.38694063239E+03  0.52338305977E+03  0.12699999809E+01 0. -1.
</event>
<event>
 5   0  0.1119786E-02  0.7019864E+03  0.7818609E-02  0.9713841E-01
       -2   -1    0    0    0  501  0.00000000000E+00  0.00000000000E+00  0.30926027159E+03  0.30926027160E+03  0.25500000920E-02 0.  1.
        2   -1    0    0  501    0  0.00000000000E+00  0.00000000000E+00 -0.39835776229E+03  0.39835776230E+03  0.25500000920E-02 0. -1.
    10030    2    1    2    0    0  0.00000000000E+00  0.00000000000E+00 -0.89097490695E+02  0.70761803390E+03  0.70198640945E+03 0.  0.
        3    1    3    3  502    0 -0.15874159854E+03 -0.11449076042E+03 -0.33824363091E+03  0.39078868123E+03  0.10100000352E+00 0. -1.
       -3    1    3    3    0  502  0.15874159854E+03  0.11449076042E+03  0.24914614021E+03  0.31682935267E+03  0.10100000352E+00 0.  1.
</event>
<event>
 5   0  0.1079446E-02  0.6988719E+03  0.7818609E-02  0.9719163E-01
        2   -1    0    0  501    0  0.00000000000E+00  0.00000000000E+00  0.75771605126E+03  0.75771605127E+03  0.25500000920E-02 0. -1.
       -2   -1    0    0    0  501  0.00000000000E+00  0.00000000000E+00 -0.16114941662E+03  0.16114941664E+03  0.25500000920E-02 0.  1.
    10030    2    1    2    0    0  0.00000000000E+00  0.00000000000E+00  0.59656663464E+03  0.91886546791E+03  0.69887194718E+03 0.  0.
        2    1    3    3  502    0  0.10187327780E+03 -0.24394088693E+03  0.59873421000E+03  0.65449826224E+03  0.25500000920E-02 0. -1.
       -2    1    3    3    0  502 -0.10187327780E+03  0.24394088693E+03 -0.21675753580E+01  0.26436720567E+03  0.25500000920E-02 0.  1.
</event>
<event>
 5   0  0.1100119E-02  0.7010327E+03  0.7818609E-02  0.9715468E-01
       -2   -1    0    0    0  501  0.00000000000E+00  0.00000000000E+00  0.51991467865E+02  0.51991467928E+02  0.25500000920E-02 0.  1.
        2   -1    0    0  501    0  0.00000000000E+00  0.00000000000E+00 -0.23631130733E+04  0.23631130733E+04  0.25500000920E-02 0. -1.
    10030    2    1    2    0    0  0.00000000000E+00  0.00000000000E+00 -0.23111216054E+04  0.24151045412E+04  0.70103271675E+03 0.  0.
        4    1    3    3  502    0 -0.24663459861E+03 -0.22195563241E+03 -0.15448255553E+04  0.15800571310E+04  0.12699999809E+01 0. -1.
       -4    1    3    3    0  502  0.24663459861E+03  0.22195563241E+03 -0.76629605011E+03  0.83504741021E+03  0.12699999809E+01 0.  1.
</event>
<event>
 5   0  0.1119786E-02  0.6989964E+03  0.7818609E-02  0.9718950E-01
       -2   -1    0    0    0  501  0.00000000000E+00  0.00000000000E+00  0.76448333916E+02  0.76448333958E+02  0.25500000920E-02 0. -1.
        2   -1    0    0  501    0  0.00000000000E+00  0.00000000000E+00 -0.15977978959E+04  0.15977978959E+04  0.25500000920E-02 0.  1.
    10030    2    1    2    0    0  0.00000000000E+00  0.00000000000E+00 -0.15213495620E+04  0.16742462299E+04  0.69899638659E+03 0.  0.
        3    1    3    3  502    0  0.11334724058E+03 -0.21467308200E+02 -0.15508797061E+04  0.15551644014E+04  0.10100000352E+00 0.  1.
       -3    1    3    3    0  502 -0.11334724058E+03  0.21467308200E+02  0.29530144110E+02  0.11908182850E+03  0.10100000352E+00 0. -1.
</event>
<event>
 5   0  0.1109788E-02  0.7079524E+03  0.7818609E-02  0.9703728E-01
       -2   -1    0    0    0  501  0.00000000000E+00  0.00000000000E+00  0.12389788629E+03  0.12389788631E+03  0.25500000920E-02 0.  1.
        2   -1    0    0  501    0  0.00000000000E+00  0.00000000000E+00 -0.10113098649E+04  0.10113098649E+04  0.25500000920E-02 0. -1.
    10030    2    1    2    0    0  0.00000000000E+00  0.00000000000E+00 -0.88741197858E+03  0.11352077512E+04  0.70795241268E+03 0.  0.
        1    1    3    3  502    0 -0.23463519362E+03  0.19149114389E+03 -0.14988028576E+03  0.33791512597E+03  0.50400001928E-02 0.  1.
       -1    1    3    3    0  502  0.23463519362E+03 -0.19149114389E+03 -0.73753169282E+03  0.79729262521E+03  0.50400001928E-02 0. -1.
</event>
<event>
 5   0  0.1109788E-02  0.7020340E+03  0.7818609E-02  0.9713760E-01
        2   -1    0    0  501    0  0.00000000000E+00  0.00000000000E+00  0.19545880442E+04  0.19545880442E+04  0.25500000920E-02 0.  1.
       -2   -1    0    0    0  501  0.00000000000E+00  0.00000000000E+00 -0.63037803140E+02  0.63037803192E+02  0.25500000920E-02 0. -1.
    10030    2    1    2    0    0  0.00000000000E+00  0.00000000000E+00  0.18915502410E+04  0.20176258474E+04  0.70203400602E+03 0.  0.
        1    1    3    3  502    0  0.31975686098E+03 -0.14337629623E+03  0.88745941575E+03  0.95414119872E+03  0.50400001928E-02 0.  1.
       -1    1    3    3    0  502 -0.31975686098E+03  0.14337629623E+03  0.10040908253E+04  0.10634846486E+04  0.50400001928E-02 0. -1.
</event>
<event>
 5   0  0.6689415E-03  0.6998272E+03  0.7818609E-02  0.9717528E-01
        1   -1    0    0  501    0  0.00000000000E+00  0.00000000000E+00  0.28451875872E+03  0.28451875876E+03  0.50400001928E-02 0. -1.
       -1   -1    0    0    0  501  0.00000000000E+00  0.00000000000E+00 -0.43033904952E+03  0.43033904955E+03  0.50400001928E-02 0.  1.
    10030    2    1    2    0    0  0.00000000000E+00  0.00000000000E+00 -0.14582029080E+03  0.71485780832E+03  0.69982721360E+03 0.  0.
        1    1    3    3  502    0  0.10101924488E+03  0.30927181174E+03  0.58640902607E+02  0.33059445981E+03  0.50400001928E-02 0. -1.
       -1    1    3    3    0  502 -0.10101924488E+03 -0.30927181174E+03 -0.20446119341E+03  0.38426334851E+03  0.50400001928E-02 0.  1.
</event>
<event>
 5   0  0.6609285E-03  0.7028327E+03  0.7818609E-02  0.9712400E-01
       -1   -1    0    0    0  501  0.00000000000E+00  0.00000000000E+00  0.11067636369E+03  0.11067636381E+03  0.50400001928E-02 0.  1.
        1   -1    0    0  501    0  0.00000000000E+00  0.00000000000E+00 -0.11158068361E+04  0.11158068361E+04  0.50400001928E-02 0. -1.
    10030    2    1    2    0    0  0.00000000000E+00  0.00000000000E+00 -0.10051304724E+04  0.12264831999E+04  0.70283267788E+03 0.  0.
        2    1    3    3  502    0  0.60940259835E+02 -0.24018419977E+03 -0.67729770768E+02  0.25688418974E+03  0.25500000920E-02 0.  1.
       -2    1    3    3    0  502 -0.60940259835E+02  0.24018419977E+03 -0.93740070161E+03  0.96959901014E+03  0.25500000920E-02 0. -1.
</event>
<event>
 5   0  0.1109788E-02  0.6918265E+03  0.7818609E-02  0.9731313E-01
       -2   -1    0    0    0  501  0.00000000000E+00  0.00000000000E+00  0.28987865993E+03  0.28987865994E+03  0.25500000920E-02 0.  1.
        2   -1    0    0  501    0  0.00000000000E+00  0.00000000000E+00 -0.41277951619E+03  0.41277951619E+03  0.25500000920E-02 0. -1.
    10030    2    1    2    0    0  0.00000000000E+00  0.00000000000E+00 -0.12290085626E+03  0.70265817613E+03  0.69182648982E+03 0.  0.
        1    1    3    3  502    0  0.32863269440E+03 -0.72308472352E+01  0.47959131064E+02  0.33219243106E+03  0.50400001928E-02 0.  1.
       -1    1    3    3    0  502 -0.32863269440E+03  0.72308472352E+01 -0.17085998732E+03  0.37046574507E+03  0.50400001928E-02 0. -1.
</event>
<event>
 5   0  0.6785252E-03  0.6926397E+03  0.7818609E-02  0.9729903E-01
        1   -1    0    0  501    0  0.00000000000E+00  0.00000000000E+00  0.56883824851E+03  0.56883824853E+03  0.50400001928E-02 0.  1.
       -1   -1    0    0    0  501  0.00000000000E+00  0.00000000000E+00 -0.21084626889E+03  0.21084626895E+03  0.50400001928E-02 0. -1.
    10030    2    1    2    0    0  0.00000000000E+00  0.00000000000E+00  0.35799197963E+03  0.77968451748E+03  0.69263965330E+03 0.  0.
        3    1    3    3  502    0  0.22824493540E+03 -0.17691269372E+03 -0.36191484480E+02  0.29103897589E+03  0.10100000352E+00 0. -1.
       -3    1    3    3    0  502 -0.22824493540E+03  0.17691269372E+03  0.39418346411E+03  0.48864554159E+03  0.10100000352E+00 0.  1.
</event>
<event>
 5   0  0.1099980E-02  0.7046578E+03  0.7818609E-02  0.9709300E-01
       -2   -1    0    0    0  501  0.00000000000E+00  0.00000000000E+00  0.18919206657E+03  0.18919206659E+03  0.25500000920E-02 0.  1.
        2   -1    0    0  501    0  0.00000000000E+00  0.00000000000E+00 -0.65613559069E+03  0.65613559069E+03  0.25500000920E-02 0. -1.
    10030    2    1    2    0    0  0.00000000000E+00  0.00000000000E+00 -0.46694352412E+03  0.84532765728E+03  0.70465778464E+03 0.  0.
        5    1    3    3  502    0 -0.26445499352E+02  0.29837006688E+03 -0.45593575953E+03  0.54554886863E+03  0.46999998093E+01 0. -1.
       -5    1    3    3    0  502  0.26445499352E+02 -0.29837006688E+03 -0.11007764590E+02  0.29977878866E+03  0.46999998093E+01 0.  1.
</event>
<event>
 5   0  0.6785252E-03  0.6844392E+03  0.7818609E-02  0.9744220E-01
       -1   -1    0    0    0  501  0.00000000000E+00  0.00000000000E+00  0.20893275439E+03  0.20893275445E+03  0.50400001928E-02 0. -1.
        1   -1    0    0  501    0  0.00000000000E+00  0.00000000000E+00 -0.56053557295E+03  0.56053557297E+03  0.50400001928E-02 0.  1.
    10030    2    1    2    0    0  0.00000000000E+00  0.00000000000E+00 -0.35160281856E+03  0.76946832742E+03  0.68443916083E+03 0.  0.
        3    1    3    3  502    0  0.33300197072E+03  0.78732681874E+02 -0.17017089008E+03  0.38216133992E+03  0.10100000352E+00 0. -1.
       -3    1    3    3    0  502 -0.33300197072E+03 -0.78732681874E+02 -0.18143192848E+03  0.38730698750E+03  0.10100000352E+00 0.  1.
</event>
<event>
 5   0  0.1079446E-02  0.7000277E+03  0.7818609E-02  0.9717185E-01
        2   -1    0    0  501    0  0.00000000000E+00  0.00000000000E+00  0.84543194423E+03  0.84543194423E+03  0.25500000920E-02 0. -1.
       -2   -1    0    0    0  501  0.00000000000E+00  0.00000000000E+00 -0.14490781431E+03  0.14490781433E+03  0.25500000920E-02 0.  1.
    10030    2    1    2    0    0  0.00000000000E+00  0.00000000000E+00  0.70052412992E+03  0.99033975856E+03  0.70002770001E+03 0.  0.
        2    1    3    3  502    0 -0.11760391676E+03  0.11467459875E+03 -0.86994196993E+02  0.18587343853E+03  0.25500000920E-02 0.  1.
       -2    1    3    3    0  502  0.11760391676E+03 -0.11467459875E+03  0.78751832691E+03  0.80446632003E+03  0.25500000920E-02 0. -1.
</event>
<event>
 5   0  0.6246998E-03  0.7010136E+03  0.7818609E-02  0.9715500E-01
        1   -1    0    0  501    0  0.00000000000E+00  0.00000000000E+00  0.12086220941E+04  0.12086220941E+04  0.50400001928E-02 0. -1.
       -1   -1    0    0    0  501  0.00000000000E+00  0.00000000000E+00 -0.10164881364E+03  0.10164881376E+03  0.50400001928E-02 0.  1.
    10030    2    1    2    0    0  0.00000000000E+00  0.00000000000E+00  0.11069732805E+04  0.13102709079E+04  0.70101355791E+03 0.  0.
        4    1    3    3  502    0 -0.19371280079E+03 -0.19207517864E+03  0.14213028213E+03  0.30760389048E+03  0.12699999809E+01 0.  1.
       -4    1    3    3    0  502  0.19371280079E+03  0.19207517864E+03  0.96484299836E+03  0.10026670174E+04  0.12699999809E+01 0. -1.
</event>
<event>
 5   0  0.6990118E-03  0.6985816E+03  0.7818609E-02  0.9719661E-01
        1   -1    0    0  501    0  0.00000000000E+00  0.00000000000E+00  0.32220881584E+03  0.32220881588E+03  0.50400001928E-02 0. -1.
       -1   -1    0    0    0  501  0.00000000000E+00  0.00000000000E+00 -0.37864899886E+03  0.37864899889E+03  0.50400001928E-02 0.  1.
    10030    2    1    2    0    0  0.00000000000E+00  0.00000000000E+00 -0.56440183016E+02  0.70085781477E+03  0.69858155019E+03 0.  0.
        5    1    3    3  502    0  0.16225881812E+03  0.22269364712E+03  0.18709882309E+03  0.33308924349E+03  0.46999998093E+01 0. -1.
       -5    1    3    3    0  502 -0.16225881812E+03 -0.22269364712E+03 -0.24353900611E+03  0.36776857128E+03  0.46999998093E+01 0.  1.
</event>
<event>
 5   0  0.6689415E-03  0.7009288E+03  0.7818609E-02  0.9715645E-01
        1   -1    0    0  501    0  0.00000000000E+00  0.00000000000E+00  0.82737433498E+03  0.82737433499E+03  0.50400001928E-02 0.  1.
       -1   -1    0    0    0  501  0.00000000000E+00  0.00000000000E+00 -0.14845189080E+03  0.14845189089E+03  0.50400001928E-02 0. -1.
    10030    2    1    2    0    0  0.00000000000E+00  0.00000000000E+00  0.67892244417E+03  0.97582622588E+03  0.70092876808E+03 0.  0.
        1    1    3    3  502    0  0.20133212608E+03  0.14308413467E+03  0.68560349034E+03  0.72873852689E+03  0.50400001928E-02 0.  1.
       -1    1    3    3    0  502 -0.20133212608E+03 -0.14308413467E+03 -0.66810461671E+01  0.24708769899E+03  0.50400001928E-02 0. -1.
</event>
<event>
 5   0  0.6609285E-03  0.6994271E+03  0.7818609E-02  0.9718212E-01
        1   -1    0    0  501    0  0.00000000000E+00  0.00000000000E+00  0.11528807238E+04  0.11528807238E+04  0.50400001928E-02 0.  1.
       -1   -1    0    0    0  501  0.00000000000E+00  0.00000000000E+00 -0.10608172752E+03  0.10608172764E+03  0.50400001928E-02 0. -1.
    10030    2    1    2    0    0  0.00000000000E+00  0.00000000000E+00  0.10467989963E+04  0.12589624515E+04  0.69942713384E+03 0.  0.
        2    1    3    3  502    0 -0.23623376381E+02  0.21046140284E+03  0.10243260344E+04  0.10459903875E+04  0.25500000920E-02 0.  1.
       -2    1    3    3    0  502  0.23623376381E+02 -0.21046140284E+03  0.22472961882E+02  0.21297206394E+03  0.25500000920E-02 0. -1.
</event>
<event>
 5   0  0.1119786E-02  0.6969867E+03  0.7818609E-02  0.9722399E-01
       -2   -1    0    0    0  501  0.00000000000E+00  0.00000000000E+00  0.88224505572E+02  0.88224505609E+02  0.25500000920E-02 0. -1.
        2   -1    0    0  501    0  0.00000000000E+00  0.00000000000E+00 -0.13765744231E+04  0.13765744231E+04  0.25500000920E-02 0.  1.
    10030    2    1    2    0    0  0.00000000000E+00  0.00000000000E+00 -0.12883499176E+04  0.14647989287E+04  0.69698665092E+03 0.  0.
        3    1    3    3  502    0 -0.58068796175E+02  0.23149284674E+03 -0.11778642769E+04  0.12018008106E+04  0.10100000352E+00 0.  1.
       -3    1    3    3    0  502  0.58068796175E+02 -0.23149284674E+03 -0.11048564061E+03  0.26299811817E+03  0.10100000352E+00 0. -1.
</event>
<event>
 5   0  0.1109788E-02  0.6985115E+03  0.7818609E-02  0.9719781E-01
       -2   -1    0    0    0  501  0.00000000000E+00  0.00000000000E+00  0.32258695455E+03  0.32258695456E+03  0.25500000920E-02 0. -1.
        2   -1    0    0  501    0  0.00000000000E+00  0.00000000000E+00 -0.37812925042E+03  0.37812925043E+03  0.25500000920E-02 0.  1.
    10030    2    1    2    0    0  0.00000000000E+00  0.00000000000E+00 -0.55542295878E+02  0.70071620499E+03  0.69851145539E+03 0.  0.
        1    1    3    3  502    0  0.18835567522E+03 -0.26457263729E+03  0.10109842061E+03  0.34014325138E+03  0.50400001928E-02 0. -1.
       -1    1    3    3    0  502 -0.18835567522E+03  0.26457263729E+03 -0.15664071648E+03  0.36057295361E+03  0.50400001928E-02 0.  1.
</event>
<event>
 5   0  0.4440500E-03  0.7016364E+03  0.7818609E-02  0.9714438E-01
        4   -1    0    0  501    0  0.00000000000E+00  0.00000000000E+00  0.13311315520E+04  0.13311321578E+04  0.12699999809E+01 0.  1.
       -4   -1    0    0    0  501  0.00000000000E+00  0.00000000000E+00 -0.92452745992E+02  0.92461468415E+02  0.12699999809E+01 0. -1.
    10030    2    1    2    0    0  0.00000000000E+00  0.00000000000E+00  0.12386788060E+04  0.14235936262E+04  0.70163639319E+03 0.  0.
        5    1    3    3  502    0 -0.17236725353E+03  0.17565629026E+02  0.12381970993E+04  0.12502692383E+04  0.46999998093E+01 0.  1.
       -5    1    3    3    0  502  0.17236725353E+03 -0.17565629026E+02  0.48170663712E+00  0.17332438793E+03  0.46999998093E+01 0. -1.
</event>
<event>
 5   0  0.6609285E-03  0.6949955E+03  0.7818609E-02  0.9725829E-01
        1   -1    0    0  501    0  0.00000000000E+00  0.00000000000E+00  0.54665720313E+03  0.54665720316E+03  0.50400001928E-02 0. -1.
       -1   -1    0    0    0  501  0.00000000000E+00  0.00000000000E+00 -0.22089651688E+03  0.22089651693E+03  0.50400001928E-02 0.  1.
    10030    2    1    2    0    0  0.00000000000E+00  0.00000000000E+00  0.32576068626E+03  0.76755372009E+03  0.69499545935E+03 0.  0.
        2    1    3    3  502    0  0.19977351359E+03  0.28432292566E+03  0.16551459688E+03  0.38489487471E+03  0.25500000920E-02 0.  1.
       -2    1    3    3    0  502 -0.19977351359E+03 -0.28432292566E+03  0.16024608937E+03  0.38265884539E+03  0.25500000920E-02 0. -1.
</event>
<event>
 5   0  0.6785252E-03  0.6984993E+03  0.7818609E-02  0.9719802E-01
       -1   -1    0    0    0  501  0.00000000000E+00  0.00000000000E+00  0.19807286121E+03  0.19807286127E+03  0.50400001928E-02 0. -1.
        1   -1    0    0  501    0  0.00000000000E+00  0.00000000000E+00 -0.61581030943E+03  0.61581030945E+03  0.50400001928E-02 0.  1.
    10030    2    1    2    0    0  0.00000000000E+00  0.00000000000E+00 -0.41773744822E+03  0.81388317072E+03  0.69849927698E+03 0.  0.
        3    1    3    3  502    0  0.52100648646E+02  0.11420944786E+03  0.17087724481E+03  0.21203140938E+03  0.10100000352E+00 0. -1.
       -3    1    3    3    0  502 -0.52100648646E+02 -0.11420944786E+03 -0.58861469303E+03  0.60185176134E+03  0.10100000352E+00 0.  1.
</event>
<event>
 5   0  0.6246998E-03  0.7263879E+03  0.7818609E-02  0.9673140E-01
        1   -1    0    0  501    0  0.00000000000E+00  0.00000000000E+00  0.65944390625E+03  0.65944390627E+03  0.50400001928E-02 0. -1.
       -1   -1    0    0    0  501  0.00000000000E+00  0.00000000000E+00 -0.20003195738E+03  0.20003195744E+03  0.50400001928E-02 0.  1.
    10030    2    1    2    0    0  0.00000000000E+00  0.00000000000E+00  0.45941194887E+03  0.85947586371E+03  0.72638792772E+03 0.  0.
        4    1    3    3  502    0  0.21419521481E+03  0.10255961183E+03 -0.95432089721E+02  0.25594327629E+03  0.12699999809E+01 0.  1.
       -4    1    3    3    0  502 -0.21419521481E+03 -0.10255961183E+03  0.55484403859E+03  0.60353258742E+03  0.12699999809E+01 0. -1.
</event>
<event>
 5   0  0.1079446E-02  0.6989458E+03  0.7818609E-02  0.9719037E-01
       -2   -1    0    0    0  501  0.00000000000E+00  0.00000000000E+00  0.20632992112E+03  0.20632992114E+03  0.25500000920E-02 0.  1.
        2   -1    0    0  501    0  0.00000000000E+00  0.00000000000E+00 -0.59192236198E+03  0.59192236199E+03  0.25500000920E-02 0. -1.
    10030    2    1    2    0    0  0.00000000000E+00  0.00000000000E+00 -0.38559244086E+03  0.79825228313E+03  0.69894576118E+03 0.  0.
        2    1    3    3  502    0 -0.33312306356E+03 -0.33556583354E+02 -0.78392622577E+02  0.34386396008E+03  0.25500000920E-02 0. -1.
       -2    1    3    3    0  502  0.33312306356E+03  0.33556583354E+02 -0.30719981828E+03  0.45438832305E+03  0.25500000920E-02 0.  1.
</event>
<event>
 5   0  0.1109788E-02  0.7024929E+03  0.7818609E-02  0.9712979E-01
       -2   -1    0    0    0  501  0.00000000000E+00  0.00000000000E+00  0.57826179351E+02  0.57826179407E+02  0.25500000920E-02 0.  1.
        2   -1    0    0  501    0  0.00000000000E+00  0.00000000000E+00 -0.21335329088E+04  0.21335329088E+04  0.25500000920E-02 0. -1.
    10030    2    1    2    0    0  0.00000000000E+00  0.00000000000E+00 -0.20757067294E+04  0.21913590882E+04  0.70249286600E+03 0.  0.
        1    1    3    3  502    0 -0.23855569694E+03 -0.40154767479E+02 -0.24345910043E+03  0.34321066344E+03  0.50400001928E-02 0.  1.
       -1    1    3    3    0  502  0.23855569694E+03  0.40154767479E+02 -0.18322476290E+04  0.18481484247E+04  0.50400001928E-02 0. -1.
</event>
<event>
 5   0  0.4440500E-03  0.7013218E+03  0.7818609E-02  0.9714974E-01
        3   -1    0    0  501    0  0.00000000000E+00  0.00000000000E+00  0.52228063008E+03  0.52228063984E+03  0.10100000352E+00 0. -1.
       -3   -1    0    0    0  501  0.00000000000E+00  0.00000000000E+00 -0.23543485143E+03  0.23543487310E+03  0.10100000352E+00 0.  1.
    10030    2    1    2    0    0  0.00000000000E+00  0.00000000000E+00  0.28684577864E+03  0.75771551294E+03  0.70132182187E+03 0.  0.
        2    1    3    3  502    0  0.16751606287E+03 -0.13265386338E+03 -0.15697088049E+03  0.26513871109E+03  0.25500000920E-02 0.  1.
       -2    1    3    3    0  502 -0.16751606287E+03  0.13265386338E+03  0.44381665914E+03  0.49257680185E+03  0.25500000920E-02 0. -1.
</event>
<event>
 5   0  0.6689415E-03  0.6983422E+03  0.7818609E-02  0.9720071E-01
        1   -1    0    0  501    0  0.00000000000E+00  0.00000000000E+00  0.90508254263E+03  0.90508254264E+03  0.50400001928E-02 0. -1.
       -1   -1    0    0    0  501  0.00000000000E+00  0.00000000000E+00 -0.13470646518E+03  0.13470646527E+03  0.50400001928E-02 0.  1.
    10030    2    1    2    0    0  0.00000000000E+00  0.00000000000E+00  0.77037607745E+03  0.10397890079E+04  0.69834223722E+03 0.  0.
        1    1    3    3  502    0 -0.27219544943E+03  0.71235564739E+02  0.77313748739E+02  0.29179150801E+03  0.50400001928E-02 0.  1.
       -1    1    3    3    0  502  0.27219544943E+03 -0.71235564739E+02  0.69306232871E+03  0.74799749991E+03  0.50400001928E-02 0. -1.
</event>
<event>
 5   0  0.1079446E-02  0.6979237E+03  0.7818609E-02  0.9720790E-01
        2   -1    0    0  501    0  0.00000000000E+00  0.00000000000E+00  0.95175744494E+03  0.95175744494E+03  0.25500000920E-02 0.  1.
       -2   -1    0    0    0  501  0.00000000000E+00  0.00000000000E+00 -0.12794684720E+03  0.12794684723E+03  0.25500000920E-02 0. -1.
    10030    2    1    2    0    0  0.00000000000E+00  0.00000000000E+00  0.82381059773E+03  0.10797042922E+04  0.69792367605E+03 0.  0.
        2    1    3    3  502    0  0.20484696424E+03 -0.10449364756E+03  0.81796038942E+03  0.84967075965E+03  0.25500000920E-02 0.  1.
       -2    1    3    3    0  502 -0.20484696424E+03  0.10449364756E+03  0.58502083165E+01  0.23003353252E+03  0.25500000920E-02 0. -1.
</event>
<event>
 5   0  0.6689415E-03  0.6993885E+03  0.7818609E-02  0.9718279E-01
        1   -1    0    0  501    0  0.00000000000E+00  0.00000000000E+00  0.71095799069E+03  0.71095799071E+03  0.50400001928E-02 0.  1.
       -1   -1    0    0    0  501  0.00000000000E+00  0.00000000000E+00 -0.17200180034E+03  0.17200180041E+03  0.50400001928E-02 0. -1.
    10030    2    1    2    0    0  0.00000000000E+00  0.00000000000E+00  0.53895619036E+03  0.88295979113E+03  0.69938845974E+03 0.  0.
        1    1    3    3  502    0 -0.22593111611E+02 -0.11754078519E+03 -0.14533593705E+03  0.18827856888E+03  0.50400001928E-02 0. -1.
       -1    1    3    3    0  502  0.22593111611E+02  0.11754078519E+03  0.68429212741E+03  0.69468122224E+03  0.50400001928E-02 0.  1.
</event>
<event>
 5   0  0.1109788E-02  0.6995904E+03  0.7818609E-02  0.9717933E-01
       -2   -1    0    0    0  501  0.00000000000E+00  0.00000000000E+00  0.10061508224E+03  0.10061508227E+03  0.25500000920E-02 0.  1.
        2   -1    0    0  501    0  0.00000000000E+00  0.00000000000E+00 -0.12160869613E+04  0.12160869613E+04  0.25500000920E-02 0. -1.
    10030    2    1    2    0    0  0.00000000000E+00  0.00000000000E+00 -0.11154718790E+04  0.13167020435E+04  0.69959042201E+03 0.  0.
        1    1    3    3  502    0  0.74876434433E+02 -0.30241079874E+03 -0.85709061445E+03  0.91195564203E+03  0.50400001928E-02 0. -1.
       -1    1    3    3    0  502 -0.74876434433E+02  0.30241079874E+03 -0.25838126458E+03  0.40474640152E+03  0.50400001928E-02 0.  1.
</event>
<event>
 5   0  0.6785252E-03  0.7030718E+03  0.7818609E-02  0.9711993E-01
        1   -1    0    0  501    0  0.00000000000E+00  0.00000000000E+00  0.12346577797E+03  0.12346577807E+03  0.50400001928E-02 0.  1.
       -1   -1    0    0    0  501  0.00000000000E+00  0.00000000000E+00 -0.10009048635E+04  0.10009048635E+04  0.50400001928E-02 0. -1.
    10030    2    1    2    0    0  0.00000000000E+00  0.00000000000E+00 -0.87743908550E+03  0.11243706416E+04  0.70307182479E+03 0.  0.
        3    1    3    3  502    0 -0.14587974078E+03 -0.24969874602E+03 -0.75835324645E+03  0.81162184492E+03  0.10100000352E+00 0. -1.
       -3    1    3    3    0  502  0.14587974078E+03  0.24969874602E+03 -0.11908583905E+03  0.31274879664E+03  0.10100000352E+00 0.  1.
</event>
<event>
 5   0  0.1099980E-02  0.6912494E+03  0.7818609E-02  0.9732315E-01
       -2   -1    0    0    0  501  0.00000000000E+00  0.00000000000E+00  0.12670411823E+03  0.12670411825E+03  0.25500000920E-02 0. -1.
        2   -1    0    0  501    0  0.00000000000E+00  0.00000000000E+00 -0.94279828988E+03  0.94279828989E+03  0.25500000920E-02 0.  1.
    10030    2    1    2    0    0  0.00000000000E+00  0.00000000000E+00 -0.81609417166E+03  0.10695024081E+04  0.69124937903E+03 0.  0.
        5    1    3    3  502    0 -0.25424266278E+03  0.22430226835E+03 -0.30444811367E+03  0.45569900491E+03  0.46999998093E+01 0. -1.
       -5    1    3    3    0  502  0.25424266278E+03 -0.22430226835E+03 -0.51164605798E+03  0.61380340323E+03  0.46999998093E+01 0.  1.
</event>
<event>
 5   0  0.1109788E-02  0.6969789E+03  0.7818609E-02  0.9722413E-01
       -2   -1    0    0    0  501  0.00000000000E+00  0.00000000000E+00  0.61501764433E+02  0.61501764486E+02  0.25500000920E-02 0. -1.
        2   -1    0    0  501    0  0.00000000000E+00  0.00000000000E+00 -0.19746570382E+04  0.19746570382E+04  0.25500000920E-02 0.  1.
    10030    2    1    2    0    0  0.00000000000E+00  0.00000000000E+00 -0.19131552738E+04  0.20361588027E+04  0.69697888650E+03 0.  0.
        1    1    3    3  502    0 -0.68867982796E+02  0.18325163111E+03 -0.11431559713E+03  0.22669807041E+03  0.50400001928E-02 0. -1.
       -1    1    3    3    0  502  0.68867982796E+02 -0.18325163111E+03 -0.17988396767E+04  0.18094607323E+04  0.50400001928E-02 0.  1.
</event>
<event>
 5   0  0.6609285E-03  0.7023059E+03  0.7818609E-02  0.9713297E-01
       -1   -1    0    0    0  501  0.00000000000E+00  0.00000000000E+00  0.13587371413E+03  0.13587371423E+03  0.50400001928E-02 0. -1.
        1   -1    0    0  501    0  0.00000000000E+00  0.00000000000E+00 -0.90752214830E+03  0.90752214831E+03  0.50400001928E-02 0.  1.
    10030    2    1    2    0    0  0.00000000000E+00  0.00000000000E+00 -0.77164843417E+03  0.10433958625E+04  0.70230593050E+03 0.  0.
        2    1    3    3  502    0  0.21683506374E+02  0.12719078404E+03  0.99380551595E+02  0.16286240830E+03  0.25500000920E-02 0. -1.
       -2    1    3    3    0  502 -0.21683506374E+02 -0.12719078404E+03 -0.87102898576E+03  0.88053345424E+03  0.25500000920E-02 0.  1.
</event>
<event>
 5   0  0.1079446E-02  0.6966329E+03  0.7818609E-02  0.9723008E-01
       -2   -1    0    0    0  501  0.00000000000E+00  0.00000000000E+00  0.21408022948E+03  0.21408022950E+03  0.25500000920E-02 0. -1.
        2   -1    0    0  501    0  0.00000000000E+00  0.00000000000E+00 -0.56672374723E+03  0.56672374723E+03  0.25500000920E-02 0.  1.
    10030    2    1    2    0    0  0.00000000000E+00  0.00000000000E+00 -0.35264351774E+03  0.78080397673E+03  0.69663290151E+03 0.  0.
        2    1    3    3  502    0  0.18019928786E+02 -0.78398212807E+02 -0.55616978358E+03  0.56195713874E+03  0.25500000920E-02 0.  1.
       -2    1    3    3    0  502 -0.18019928786E+02  0.78398212807E+02  0.20352626584E+03  0.21884683799E+03  0.25500000920E-02 0. -1.
</event>
<event>
 5   0  0.1109788E-02  0.7037669E+03  0.7818609E-02  0.9710812E-01
       -2   -1    0    0    0  501  0.00000000000E+00  0.00000000000E+00  0.15651032142E+03  0.15651032144E+03  0.25500000920E-02 0.  1.
        2   -1    0    0  501    0  0.00000000000E+00  0.00000000000E+00 -0.79114240223E+03  0.79114240224E+03  0.25500000920E-02 0. -1.
    10030    2    1    2    0    0  0.00000000000E+00  0.00000000000E+00 -0.63463208081E+03  0.94765272368E+03  0.70376686956E+03 0.  0.
        1    1    3    3  502    0  0.24344088343E+03  0.65843004047E+02 -0.64776338271E+03  0.69512312932E+03  0.50400001928E-02 0. -1.
       -1    1    3    3    0  502 -0.24344088343E+03 -0.65843004047E+02  0.13131301900E+02  0.25252959435E+03  0.50400001928E-02 0.  1.
</event>
<event>
 5   0  0.6609285E-03  0.6987223E+03  0.7818609E-02  0.9719420E-01
       -1   -1    0    0    0  501  0.00000000000E+00  0.00000000000E+00  0.20781048560E+03  0.20781048566E+03  0.50400001928E-02 0.  1.
        1   -1    0    0  501    0  0.00000000000E+00  0.00000000000E+00 -0.58732934786E+03  0.58732934788E+03  0.50400001928E-02 0. -1.
    10030    2    1    2    0    0  0.00000000000E+00  0.00000000000E+00 -0.37951886226E+03  0.79513983355E+03  0.69872225389E+03 0.  0.
        2    1    3    3  502    0 -0.16983832902E+03  0.57947710371E+02  0.15135372024E+03  0.23475720176E+03  0.25500000920E-02 0.  1.
       -2    1    3    3    0  502  0.16983832902E+03 -0.57947710371E+02 -0.53087258250E+03  0.56038263178E+03  0.25500000920E-02 0. -1.
</event>
<event>
 5   0  0.6246998E-03  0.6909020E+03  0.7818609E-02  0.9732919E-01
        1   -1    0    0  501    0  0.00000000000E+00  0.00000000000E+00  0.10322965622E+04  0.10322965622E+04  0.50400001928E-02 0. -1.
       -1   -1    0    0    0  501  0.00000000000E+00  0.00000000000E+00 -0.11560280579E+03  0.11560280590E+03  0.50400001928E-02 0.  1.
    10030    2    1    2    0    0  0.00000000000E+00  0.00000000000E+00  0.91669375645E+03  0.11478993681E+04  0.69090195851E+03 0.  0.
        4    1    3    3  502    0 -0.20209137479E+03 -0.24175259315E+03  0.69360219598E+03  0.76182075269E+03  0.12699999809E+01 0.  1.
       -4    1    3    3    0  502  0.20209137479E+03  0.24175259315E+03  0.22309156047E+03  0.38607861546E+03  0.12699999809E+01 0. -1.
</event>
<event>
 5   0  0.1099980E-02  0.7017366E+03  0.7818609E-02  0.9714267E-01
       -2   -1    0    0    0  501  0.00000000000E+00  0.00000000000E+00  0.99983512809E+02  0.99983512841E+02  0.25500000920E-02 0.  1.
        2   -1    0    0  501    0  0.00000000000E+00  0.00000000000E+00 -0.12312884902E+04  0.12312884902E+04  0.25500000920E-02 0. -1.
    10030    2    1    2    0    0  0.00000000000E+00  0.00000000000E+00 -0.11313049774E+04  0.13312720030E+04  0.70173655613E+03 0.  0.
        5    1    3    3  502    0 -0.27850741246E+03 -0.39998090697E+02 -0.16807204609E+03  0.32777511914E+03  0.46999998093E+01 0.  1.
       -5    1    3    3    0  502  0.27850741246E+03  0.39998090697E+02 -0.96323293129E+03  0.10034968839E+04  0.46999998093E+01 0. -1.
</event>
<event>
 5   0  0.6785252E-03  0.7006890E+03  0.7818609E-02  0.9716055E-01
       -1   -1    0    0    0  501  0.00000000000E+00  0.00000000000E+00  0.11112142317E+03  0.11112142328E+03  0.50400001928E-02 0.  1.
        1   -1    0    0  501    0  0.00000000000E+00  0.00000000000E+00 -0.11045688707E+04  0.11045688707E+04  0.50400001928E-02 0. -1.
    10030    2    1    2    0    0  0.00000000000E+00  0.00000000000E+00 -0.99344744750E+03  0.12156902940E+04  0.70068898942E+03 0.  0.
        3    1    3    3  502    0 -0.95343402165E+02 -0.42839145026E+02 -0.10768854117E+04  0.10819462819E+04  0.10100000352E+00 0. -1.
       -3    1    3    3    0  502  0.95343402165E+02  0.42839145026E+02  0.83437964252E+02  0.13374401206E+03  0.10100000352E+00 0.  1.
</event>
<event>
 5   0  0.6689415E-03  0.6991089E+03  0.7818609E-02  0.9718757E-01
       -1   -1    0    0    0  501  0.00000000000E+00  0.00000000000E+00  0.42331086264E+03  0.42331086267E+03  0.50400001928E-02 0.  1.
        1   -1    0    0  501    0  0.00000000000E+00  0.00000000000E+00 -0.28864914671E+03  0.28864914675E+03  0.50400001928E-02 0. -1.
    10030    2    1    2    0    0  0.00000000000E+00  0.00000000000E+00  0.13466171593E+03  0.71196000943E+03  0.69910891661E+03 0.  0.
        1    1    3    3  502    0 -0.31609727257E+03  0.13910572471E+03  0.12296458960E+02  0.34557067483E+03  0.50400001928E-02 0.  1.
       -1    1    3    3    0  502  0.31609727257E+03 -0.13910572471E+03  0.12236525697E+03  0.36638933460E+03  0.50400001928E-02 0. -1.
</event>
<event>
 5   0  0.1119786E-02  0.6782623E+03  0.7818609E-02  0.9755146E-01
       -2   -1    0    0    0  501  0.00000000000E+00  0.00000000000E+00  0.28869848507E+03  0.28869848508E+03  0.25500000920E-02 0.  1.
        2   -1    0    0  501    0  0.00000000000E+00  0.00000000000E+00 -0.39837382761E+03  0.39837382762E+03  0.25500000920E-02 0. -1.
    10030    2    1    2    0    0  0.00000000000E+00  0.00000000000E+00 -0.10967534255E+03  0.68707231270E+03  0.67826225172E+03 0.  0.
        3    1    3    3  502    0  0.31737417167E+02 -0.16632196807E+03 -0.35249045018E+03  0.39104959836E+03  0.10100000352E+00 0. -1.
       -3    1    3    3    0  502 -0.31737417167E+02  0.16632196807E+03  0.24281510763E+03  0.29602271434E+03  0.10100000352E+00 0.  1.
</event>
<event>
 5   0  0.1099980E-02  0.6981450E+03  0.7818609E-02  0.9720410E-01
       -2   -1    0    0    0  501  0.00000000000E+00  0.00000000000E+00  0.15759568247E+03  0.15759568249E+03  0.25500000920E-02 0. -1.
        2   -1    0    0  501    0  0.00000000000E+00  0.00000000000E+00 -0.77319132655E+03  0.77319132655E+03  0.25500000920E-02 0.  1.
    10030    2    1    2    0    0  0.00000000000E+00  0.00000000000E+00 -0.61559564408E+03  0.93078700904E+03  0.69814501301E+03 0.  0.
        5    1    3    3  502    0 -0.10474380514E+03 -0.21214963510E+03  0.34327465804E+02  0.23912172067E+03  0.46999998093E+01 0. -1.
       -5    1    3    3    0  502  0.10474380514E+03  0.21214963510E+03 -0.64992310988E+03  0.69166528837E+03  0.46999998093E+01 0.  1.
</event>
<event>
 5   0  0.6990118E-03  0.6990572E+03  0.7818609E-02  0.9718846E-01
       -1   -1    0    0    0  501  0.00000000000E+00  0.00000000000E+00  0.89075503205E+03  0.89075503206E+03  0.50400001928E-02 0. -1.
        1   -1    0    0  501    0  0.00000000000E+00  0.00000000000E+00 -0.13715358943E+03  0.13715358952E+03  0.50400001928E-02 0.  1.
    10030    2    1    2    0    0  0.00000000000E+00  0.00000000000E+00  0.75360144262E+03  0.10279086216E+04  0.69905722226E+03 0.  0.
        5    1    3    3  502    0 -0.39337893084E+02 -0.99805859414E+02 -0.11229835868E+03  0.15537596586E+03  0.46999998093E+01 0.  1.
       -5    1    3    3    0  502  0.39337893084E+02  0.99805859414E+02  0.86589980130E+03  0.87253265572E+03  0.46999998093E+01 0. -1.
</event>
<event>
 5   0  0.6609285E-03  0.7073586E+03  0.7818609E-02  0.9704730E-01
        1   -1    0    0  501    0  0.00000000000E+00  0.00000000000E+00  0.32356067341E+03  0.32356067345E+03  0.50400001928E-02 0. -1.
       -1   -1    0    0    0  501  0.00000000000E+00  0.00000000000E+00 -0.38660149213E+03  0.38660149217E+03  0.50400001928E-02 0.  1.
    10030    2    1    2    0    0  0.00000000000E+00  0.00000000000E+00 -0.63040818722E+02  0.71016216562E+03  0.70735857714E+03 0.  0.
        2    1    3    3  502    0  0.17401966183E+03 -0.11152282617E+03 -0.31965767041E+03  0.38065891520E+03  0.25500000920E-02 0.  1.
       -2    1    3    3    0  502 -0.17401966183E+03  0.11152282617E+03  0.25661685169E+03  0.32950325042E+03  0.25500000920E-02 0. -1.
</event>
<event>
 5   0  0.1100119E-02  0.7164522E+03  0.7818609E-02  0.9689503E-01
       -2   -1    0    0    0  501  0.00000000000E+00  0.00000000000E+00  0.73057961744E+02  0.73057961789E+02  0.25500000920E-02 0.  1.
        2   -1    0    0  501    0  0.00000000000E+00  0.00000000000E+00 -0.17564946848E+04  0.17564946848E+04  0.25500000920E-02 0. -1.
    10030    2    1    2    0    0  0.00000000000E+00  0.00000000000E+00 -0.16834367231E+04  0.18295526466E+04  0.71645215201E+03 0.  0.
        4    1    3    3  502    0 -0.14681419234E+03 -0.15507423326E+02 -0.16751932194E+04  0.16816863033E+04  0.12699999809E+01 0. -1.
       -4    1    3    3    0  502  0.14681419234E+03  0.15507423326E+02 -0.82435036674E+01  0.14786634337E+03  0.12699999809E+01 0.  1.
</event>
<event>
 5   0  0.1099980E-02  0.6991324E+03  0.7818609E-02  0.9718717E-01
        2   -1    0    0  501    0  0.00000000000E+00  0.00000000000E+00  0.55917861053E+03  0.55917861053E+03  0.25500000920E-02 0. -1.
       -2   -1    0    0    0  501  0.00000000000E+00  0.00000000000E+00 -0.21852861408E+03  0.21852861409E+03  0.25500000920E-02 0.  1.
    10030    2    1    2    0    0  0.00000000000E+00  0.00000000000E+00  0.34064999645E+03  0.77770722462E+03  0.69913239601E+03 0.  0.
        5    1    3    3  502    0  0.26210015278E+03  0.17018362696E+03  0.34449642342E+03  0.46514388389E+03  0.46999998093E+01 0. -1.
       -5    1    3    3    0  502 -0.26210015278E+03 -0.17018362696E+03 -0.38464269659E+01  0.31256334074E+03  0.46999998093E+01 0.  1.
</event>
<event>
 5   0  0.6246998E-03  0.7013535E+03  0.7818609E-02  0.9714920E-01
       -1   -1    0    0    0  501  0.00000000000E+00  0.00000000000E+00  0.16198001323E+03  0.16198001331E+03  0.50400001928E-02 0.  1.
        1   -1    0    0  501    0  0.00000000000E+00  0.00000000000E+00 -0.75919356394E+03  0.75919356396E+03  0.50400001928E-02 0. -1.
    10030    2    1    2    0    0  0.00000000000E+00  0.00000000000E+00 -0.59721355071E+03  0.92117357726E+03  0.70135350166E+03 0.  0.
        4    1    3    3  502    0 -0.17195314689E+03  0.61488880943E+01  0.10272257228E+03  0.20039768788E+03  0.12699999809E+01 0.  1.
       -4    1    3    3    0  502  0.17195314689E+03 -0.61488880943E+01 -0.69993612299E+03  0.72077588939E+03  0.12699999809E+01 0. -1.
</event>
<event>
 5   0  0.1079446E-02  0.7024226E+03  0.7818609E-02  0.9713098E-01
        2   -1    0    0  501    0  0.00000000000E+00  0.00000000000E+00  0.11587384523E+04  0.11587384523E+04  0.25500000920E-02 0.  1.
       -2   -1    0    0    0  501  0.00000000000E+00  0.00000000000E+00 -0.10645143683E+03  0.10645143686E+03  0.25500000920E-02 0. -1.
    10030    2    1    2    0    0  0.00000000000E+00  0.00000000000E+00  0.10522870155E+04  0.12651898892E+04  0.70242258842E+03 0.  0.
        2    1    3    3  502    0  0.23133809185E+03  0.26366887127E+03  0.49439023510E+03  0.60618503032E+03  0.25500000920E-02 0. -1.
       -2    1    3    3    0  502 -0.23133809185E+03 -0.26366887127E+03  0.55789678040E+03  0.65900485886E+03  0.25500000920E-02 0.  1.
</event>
<event>
 5   0  0.4440500E-03  0.7192877E+03  0.7818609E-02  0.9684805E-01
       -3   -1    0    0    0  501  0.00000000000E+00  0.00000000000E+00  0.79062112319E+02  0.79062176831E+02  0.10100000352E+00 0. -1.
        3   -1    0    0  501    0  0.00000000000E+00  0.00000000000E+00 -0.16359750154E+04  0.16359750185E+04  0.10100000352E+00 0.  1.
    10030    2    1    2    0    0  0.00000000000E+00  0.00000000000E+00 -0.15569129031E+04  0.17150371954E+04  0.71928769881E+03 0.  0.
        1    1    3    3  502    0 -0.12862835504E+03  0.30230500580E+03 -0.11273400423E+04  0.11742355561E+04  0.50400001928E-02 0.  1.
       -1    1    3    3    0  502  0.12862835504E+03 -0.30230500580E+03 -0.42957286077E+03  0.54080163922E+03  0.50400001928E-02 0. -1.
</event>
<event>
 5   0  0.6609285E-03  0.6997350E+03  0.7818609E-02  0.9717686E-01
        1   -1    0    0  501    0  0.00000000000E+00  0.00000000000E+00  0.25757253633E+03  0.25757253638E+03  0.50400001928E-02 0.  1.
       -1   -1    0    0    0  501  0.00000000000E+00  0.00000000000E+00 -0.47523409330E+03  0.47523409333E+03  0.50400001928E-02 0. -1.
    10030    2    1    2    0    0  0.00000000000E+00  0.00000000000E+00 -0.21766155697E+03  0.73280662971E+03  0.69973495208E+03 0.  0.
        2    1    3    3  502    0 -0.18162578775E+03 -0.29827059869E+03 -0.86517093582E+02  0.35977560271E+03  0.25500000920E-02 0. -1.
       -2    1    3    3    0  502  0.18162578775E+03  0.29827059869E+03 -0.13114446338E+03  0.37303102700E+03  0.25500000920E-02 0.  1.
</event>
<event>
 5   0  0.1109788E-02  0.6992255E+03  0.7818609E-02  0.9718558E-01
       -2   -1    0    0    0  501  0.00000000000E+00  0.00000000000E+00  0.64602886444E+02  0.64602886494E+02  0.25500000920E-02 0.  1.
        2   -1    0    0  501    0  0.00000000000E+00  0.00000000000E+00 -0.18920063404E+04  0.18920063404E+04  0.25500000920E-02 0. -1.
    10030    2    1    2    0    0  0.00000000000E+00  0.00000000000E+00 -0.18274034540E+04  0.19566092269E+04  0.69922548813E+03 0.  0.
        1    1    3    3  502    0  0.10153620678E+03  0.70864942769E+02 -0.18285959463E+04  0.18327832867E+04  0.50400001928E-02 0. -1.
       -1    1    3    3    0  502 -0.10153620678E+03 -0.70864942769E+02  0.11924922850E+01  0.12382594019E+03  0.50400001928E-02 0.  1.
</event>
<event>
 5   0  0.6689415E-03  0.6968940E+03  0.7818609E-02  0.9722559E-01
       -1   -1    0    0    0  501  0.00000000000E+00  0.00000000000E+00  0.13314562363E+03  0.13314562372E+03  0.50400001928E-02 0.  1.
        1   -1    0    0  501    0  0.00000000000E+00  0.00000000000E+00 -0.91189853891E+03  0.91189853892E+03  0.50400001928E-02 0. -1.
    10030    2    1    2    0    0  0.00000000000E+00  0.00000000000E+00 -0.77875291528E+03  0.10450441626E+04  0.69689396526E+03 0.  0.
        1    1    3    3  502    0  0.10971607877E+03  0.29317673374E+03 -0.61889010956E+03  0.69355258119E+03  0.50400001928E-02 0. -1.
       -1    1    3    3    0  502 -0.10971607877E+03 -0.29317673374E+03 -0.15986280573E+03  0.35149158145E+03  0.50400001928E-02 0.  1.
</event>
<event>
 5   0  0.6785252E-03  0.7030197E+03  0.7818609E-02  0.9712082E-01
       -1   -1    0    0    0  501  0.00000000000E+00  0.00000000000E+00  0.11045902105E+03  0.11045902116E+03  0.50400001928E-02 0.  1.
        1   -1    0    0  501    0  0.00000000000E+00  0.00000000000E+00 -0.11185973254E+04  0.11185973254E+04  0.50400001928E-02 0. -1.
    10030    2    1    2    0    0  0.00000000000E+00  0.00000000000E+00 -0.10081383044E+04  0.12290563466E+04  0.70301967423E+03 0.  0.
        3    1    3    3  502    0 -0.19774456409E+03 -0.28632647784E+03 -0.41712293549E+03  0.54321019693E+03  0.10100000352E+00 0.  1.
       -3    1    3    3    0  502  0.19774456409E+03  0.28632647784E+03 -0.59101536889E+03  0.68584614966E+03  0.10100000352E+00 0. -1.
</event>
<event>
 5   0  0.1100119E-02  0.6998960E+03  0.7818609E-02  0.9717410E-01
       -2   -1    0    0    0  501  0.00000000000E+00  0.00000000000E+00  0.72187398903E+02  0.72187398948E+02  0.25500000920E-02 0.  1.
        2   -1    0    0  501    0  0.00000000000E+00  0.00000000000E+00 -0.16964680558E+04  0.16964680558E+04  0.25500000920E-02 0. -1.
    10030    2    1    2    0    0  0.00000000000E+00  0.00000000000E+00 -0.16242806569E+04  0.17686554547E+04  0.69989603888E+03 0.  0.
        4    1    3    3  502    0 -0.10224935354E+03  0.60266049950E+02  0.19765966249E+02  0.12032968627E+03  0.12699999809E+01 0.  1.
       -4    1    3    3    0  502  0.10224935354E+03 -0.60266049950E+02 -0.16440466231E+04  0.16483257684E+04  0.12699999809E+01 0. -1.
</event>
<event>
 5   0  0.1109788E-02  0.7058863E+03  0.7818609E-02  0.9707219E-01
        2   -1    0    0  501    0  0.00000000000E+00  0.00000000000E+00  0.38115141936E+03  0.38115141937E+03  0.25500000920E-02 0. -1.
       -2   -1    0    0    0  501  0.00000000000E+00  0.00000000000E+00 -0.32682248722E+03  0.32682248723E+03  0.25500000920E-02 0.  1.
    10030    2    1    2    0    0  0.00000000000E+00  0.00000000000E+00  0.54328932146E+02  0.70797390660E+03  0.70588626531E+03 0.  0.
        1    1    3    3  502    0 -0.12481339652E+03  0.32242269946E+03  0.98325509615E+02  0.35944775273E+03  0.50400001928E-02 0.  1.
       -1    1    3    3    0  502  0.12481339652E+03 -0.32242269946E+03 -0.43996577468E+02  0.34852615387E+03  0.50400001928E-02 0. -1.
</event>
<event>
 5   0  0.1099980E-02  0.6988498E+03  0.7818609E-02  0.9719201E-01
        2   -1    0    0  501    0  0.00000000000E+00  0.00000000000E+00  0.10590021170E+04  0.10590021170E+04  0.25500000920E-02 0.  1.
       -2   -1    0    0    0  501  0.00000000000E+00  0.00000000000E+00 -0.11529510778E+03  0.11529510781E+03  0.25500000920E-02 0. -1.
    10030    2    1    2    0    0  0.00000000000E+00  0.00000000000E+00  0.94370700926E+03  0.11742972249E+04  0.69884980716E+03 0.  0.
        5    1    3    3  502    0 -0.43525308155E+02 -0.24246327247E+03  0.88819801508E+03  0.92173786672E+03  0.46999998093E+01 0.  1.
       -5    1    3    3    0  502  0.43525308155E+02  0.24246327247E+03  0.55508994176E+02  0.25255935813E+03  0.46999998093E+01 0. -1.
</event>
<event>
 5   0  0.6246998E-03  0.6997741E+03  0.7818609E-02  0.9717619E-01
       -1   -1    0    0    0  501  0.00000000000E+00  0.00000000000E+00  0.53684916015E+03  0.53684916018E+03  0.50400001928E-02 0.  1.
        1   -1    0    0  501    0  0.00000000000E+00  0.00000000000E+00 -0.22803599235E+03  0.22803599241E+03  0.50400001928E-02 0. -1.
    10030    2    1    2    0    0  0.00000000000E+00  0.00000000000E+00  0.30881316780E+03  0.76488515258E+03  0.69977405213E+03 0.  0.
        4    1    3    3  502    0  0.66583646586E+02  0.20399386442E+03  0.45647598004E+03  0.50439945675E+03  0.12699999809E+01 0. -1.
       -4    1    3    3    0  502 -0.66583646586E+02 -0.20399386442E+03 -0.14766281224E+03  0.26048569583E+03  0.12699999809E+01 0.  1.
</event>
<event>
 5   0  0.6990118E-03  0.6993542E+03  0.7818609E-02  0.9718337E-01
       -1   -1    0    0    0  501  0.00000000000E+00  0.00000000000E+00  0.13097568032E+03  0.13097568042E+03  0.50400001928E-02 0.  1.
        1   -1    0    0  501    0  0.00000000000E+00  0.00000000000E+00 -0.93356309821E+03  0.93356309823E+03  0.50400001928E-02 0. -1.
    10030    2    1    2    0    0  0.00000000000E+00  0.00000000000E+00 -0.80258741789E+03  0.10645387786E+04  0.69935416484E+03 0.  0.
        5    1    3    3  502    0 -0.23832127730E+03 -0.24360995210E+03 -0.52026826016E+03  0.62196783880E+03  0.46999998093E+01 0. -1.
       -5    1    3    3    0  502  0.23832127730E+03  0.24360995210E+03 -0.28231915773E+03  0.44257093985E+03  0.46999998093E+01 0.  1.
</event>
<event>
 5   0  0.1079446E-02  0.6949106E+03  0.7818609E-02  0.9725975E-01
       -2   -1    0    0    0  501  0.00000000000E+00  0.00000000000E+00  0.22018101934E+03  0.22018101936E+03  0.25500000920E-02 0. -1.
        2   -1    0    0  501    0  0.00000000000E+00  0.00000000000E+00 -0.54829974917E+03  0.54829974918E+03  0.25500000920E-02 0.  1.
    10030    2    1    2    0    0  0.00000000000E+00  0.00000000000E+00 -0.32811872983E+03  0.76848076854E+03  0.69491063508E+03 0.  0.
        2    1    3    3  502    0  0.23916810186E+03 -0.24916956260E+03 -0.12211866239E+03  0.36633293544E+03  0.25500000920E-02 0.  1.
       -2    1    3    3    0  502 -0.23916810186E+03  0.24916956260E+03 -0.20600006744E+03  0.40214783310E+03  0.25500000920E-02 0. -1.
</event>
<event>
 5   0  0.6246998E-03  0.6981145E+03  0.7818609E-02  0.9720462E-01
       -1   -1    0    0    0  501  0.00000000000E+00  0.00000000000E+00  0.11728648779E+03  0.11728648790E+03  0.50400001928E-02 0. -1.
        1   -1    0    0  501    0  0.00000000000E+00  0.00000000000E+00 -0.10388321173E+04  0.10388321173E+04  0.50400001928E-02 0.  1.
    10030    2    1    2    0    0  0.00000000000E+00  0.00000000000E+00 -0.92154562950E+03  0.11561186052E+04  0.69811451930E+03 0.  0.
        4    1    3    3  502    0 -0.25947686038E+03 -0.20798816061E+03 -0.28510532954E+03  0.43803421996E+03  0.12699999809E+01 0. -1.
       -4    1    3    3    0  502  0.25947686038E+03  0.20798816061E+03 -0.63644029996E+03  0.71808438525E+03  0.12699999809E+01 0.  1.
</event>
<event>
 5   0  0.1099980E-02  0.6889746E+03  0.7818609E-02  0.9736275E-01
        2   -1    0    0  501    0  0.00000000000E+00  0.00000000000E+00  0.48876749991E+03  0.48876749991E+03  0.25500000920E-02 0. -1.
       -2   -1    0    0    0  501  0.00000000000E+00  0.00000000000E+00 -0.24279742636E+03  0.24279742637E+03  0.25500000920E-02 0.  1.
    10030    2    1    2    0    0  0.00000000000E+00  0.00000000000E+00  0.24597007355E+03  0.73156492628E+03  0.68897457448E+03 0.  0.
        5    1    3    3  502    0  0.23861034583E+03 -0.19011656814E+03  0.29277683031E+03  0.42287062913E+03  0.46999998093E+01 0. -1.
       -5    1    3    3    0  502 -0.23861034583E+03  0.19011656814E+03 -0.46806756758E+02  0.30869429715E+03  0.46999998093E+01 0.  1.
</event>
<event>
 5   0  0.6990118E-03  0.6978359E+03  0.7818609E-02  0.9720940E-01
        1   -1    0    0  501    0  0.00000000000E+00  0.00000000000E+00  0.13400003535E+03  0.13400003544E+03  0.50400001928E-02 0.  1.
       -1   -1    0    0    0  501  0.00000000000E+00  0.00000000000E+00 -0.90853501178E+03  0.90853501180E+03  0.50400001928E-02 0. -1.
    10030    2    1    2    0    0  0.00000000000E+00  0.00000000000E+00 -0.77453497643E+03  0.10425350472E+04  0.69783586537E+03 0.  0.
        5    1    3    3  502    0 -0.25555705133E+03  0.20496980126E+03 -0.20799538662E+03  0.38808014219E+03  0.46999998093E+01 0.  1.
       -5    1    3    3    0  502  0.25555705133E+03 -0.20496980126E+03 -0.56653958981E+03  0.65445490504E+03  0.46999998093E+01 0. -1.
</event>
<event>
 5   0  0.6246998E-03  0.7006051E+03  0.7818609E-02  0.9716198E-01
       -1   -1    0    0    0  501  0.00000000000E+00  0.00000000000E+00  0.41168131269E+03  0.41168131272E+03  0.50400001928E-02 0. -1.
        1   -1    0    0  501    0  0.00000000000E+00  0.00000000000E+00 -0.29807489862E+03  0.29807489866E+03  0.50400001928E-02 0.  1.
    10030    2    1    2    0    0  0.00000000000E+00  0.00000000000E+00  0.11360641406E+03  0.70975621138E+03  0.70060506869E+03 0.  0.
        4    1    3    3  502    0  0.32834689739E+03 -0.11767949899E+03  0.23974641216E+02  0.34962343432E+03  0.12699999809E+01 0.  1.
       -4    1    3    3    0  502 -0.32834689739E+03  0.11767949899E+03  0.89631772848E+02  0.36013277706E+03  0.12699999809E+01 0. -1.
</event>
<event>
 5   0  0.1079446E-02  0.7001029E+03  0.7818609E-02  0.9717056E-01
       -2   -1    0    0    0  501  0.00000000000E+00  0.00000000000E+00  0.63079441551E+02  0.63079441602E+02  0.25500000920E-02 0. -1.
        2   -1    0    0  501    0  0.00000000000E+00  0.00000000000E+00 -0.19425667648E+04  0.19425667648E+04  0.25500000920E-02 0.  1.
    10030    2    1    2    0    0  0.00000000000E+00  0.00000000000E+00 -0.18794873232E+04  0.20056462064E+04  0.70010292601E+03 0.  0.
        2    1    3    3  502    0  0.34119667037E+03  0.58275418410E+02 -0.10892854249E+04  0.11429584109E+04  0.25500000920E-02 0. -1.
       -2    1    3    3    0  502 -0.34119667037E+03 -0.58275418410E+02 -0.79020189838E+03  0.86268779548E+03  0.25500000920E-02 0.  1.
</event>
<event>
 5   0  0.6990118E-03  0.7021280E+03  0.7818609E-02  0.9713600E-01
       -1   -1    0    0    0  501  0.00000000000E+00  0.00000000000E+00  0.31763635521E+03  0.31763635525E+03  0.50400001928E-02 0.  1.
        1   -1    0    0  501    0  0.00000000000E+00  0.00000000000E+00 -0.38800947389E+03  0.38800947392E+03  0.50400001928E-02 0. -1.
    10030    2    1    2    0    0  0.00000000000E+00  0.00000000000E+00 -0.70373118679E+02  0.70564582917E+03  0.70212795158E+03 0.  0.
        5    1    3    3  502    0 -0.99638177212E+01  0.15810985882E+03 -0.35000645149E+03  0.38421948311E+03  0.46999998093E+01 0. -1.
       -5    1    3    3    0  502  0.99638177212E+01 -0.15810985882E+03  0.27963333281E+03  0.32142634605E+03  0.46999998093E+01 0.  1.
</event>
<event>
 5   0  0.1109788E-02  0.7011114E+03  0.7818609E-02  0.9715333E-01
        2   -1    0    0  501    0  0.00000000000E+00  0.00000000000E+00  0.43122965662E+03  0.43122965663E+03  0.25500000920E-02 0.  1.
       -2   -1    0    0    0  501  0.00000000000E+00  0.00000000000E+00 -0.28497413154E+03  0.28497413155E+03  0.25500000920E-02 0. -1.
    10030    2    1    2    0    0  0.00000000000E+00  0.00000000000E+00  0.14625552508E+03  0.71620378818E+03  0.70111139457E+03 0.  0.
        1    1    3    3  502    0  0.28725089422E+03 -0.15944670924E+03 -0.51786861107E+02  0.33259315737E+03  0.50400001928E-02 0. -1.
       -1    1    3    3    0  502 -0.28725089422E+03  0.15944670924E+03  0.19804238618E+03  0.38361063081E+03  0.50400001928E-02 0.  1.
</event>
<event>
 5   0  0.6246998E-03  0.7000723E+03  0.7818609E-02  0.9717109E-01
       -1   -1    0    0    0  501  0.00000000000E+00  0.00000000000E+00  0.27494314343E+03  0.27494314348E+03  0.50400001928E-02 0.  1.
        1   -1    0    0  501    0  0.00000000000E+00  0.00000000000E+00 -0.44563871652E+03  0.44563871655E+03  0.50400001928E-02 0. -1.
    10030    2    1    2    0    0  0.00000000000E+00  0.00000000000E+00 -0.17069557309E+03  0.72058186003E+03  0.70007230935E+03 0.  0.
        4    1    3    3  502    0 -0.18184035043E+03  0.13901549069E+03 -0.35793156921E+03  0.42486214333E+03  0.12699999809E+01 0. -1.
       -4    1    3    3    0  502  0.18184035043E+03 -0.13901549069E+03  0.18723599612E+03  0.29571971669E+03  0.12699999809E+01 0.  1.
</event>
<event>
 5   0  0.6609285E-03  0.7006004E+03  0.7818609E-02  0.9716206E-01
       -1   -1    0    0    0  501  0.00000000000E+00  0.00000000000E+00  0.96467026720E+02  0.96467026852E+02  0.50400001928E-02 0.  1.
        1   -1    0    0  501    0  0.00000000000E+00  0.00000000000E+00 -0.12720431938E+04  0.12720431938E+04  0.50400001928E-02 0. -1.
    10030    2    1    2    0    0  0.00000000000E+00  0.00000000000E+00 -0.11755761671E+04  0.13685102207E+04  0.70060038499E+03 0.  0.
        2    1    3    3  502    0 -0.30982508822E+03  0.13875807417E+03 -0.75655519654E+03  0.82922925290E+03  0.25500000920E-02 0.  1.
       -2    1    3    3    0  502  0.30982508822E+03 -0.13875807417E+03 -0.41902097054E+03  0.53928096777E+03  0.25500000920E-02 0. -1.
</event>
<event>
 5   0  0.1100119E-02  0.6984261E+03  0.7818609E-02  0.9719928E-01
       -2   -1    0    0    0  501  0.00000000000E+00  0.00000000000E+00  0.13678961855E+03  0.13678961857E+03  0.25500000920E-02 0.  1.
        2   -1    0    0  501    0  0.00000000000E+00  0.00000000000E+00 -0.89151325260E+03  0.89151325260E+03  0.25500000920E-02 0. -1.
    10030    2    1    2    0    0  0.00000000000E+00  0.00000000000E+00 -0.75472363406E+03  0.10283028712E+04  0.69842610995E+03 0.  0.
        4    1    3    3  502    0 -0.25119929738E+03  0.23888848247E+03 -0.31525612982E+03  0.46856892166E+03  0.12699999809E+01 0.  1.
       -4    1    3    3    0  502  0.25119929738E+03 -0.23888848247E+03 -0.43946750423E+03  0.55973394951E+03  0.12699999809E+01 0. -1.
</event>
<event>
 5   0  0.1079446E-02  0.7031941E+03  0.7818609E-02  0.9711785E-01
       -2   -1    0    0    0  501  0.00000000000E+00  0.00000000000E+00  0.15076156052E+03  0.15076156054E+03  0.25500000920E-02 0. -1.
        2   -1    0    0  501    0  0.00000000000E+00  0.00000000000E+00 -0.81997346884E+03  0.81997346885E+03  0.25500000920E-02 0.  1.
    10030    2    1    2    0    0  0.00000000000E+00  0.00000000000E+00 -0.66921190832E+03  0.97073502939E+03  0.70319408349E+03 0.  0.
        2    1    3    3  502    0  0.11445048066E+03 -0.31842655838E+03 -0.20272928605E+03  0.39445348146E+03  0.25500000920E-02 0.  1.
       -2    1    3    3    0  502 -0.11445048066E+03  0.31842655838E+03 -0.46648262227E+03  0.57628154793E+03  0.25500000920E-02 0. -1.
</event>
<event>
 5   0  0.1100119E-02  0.6976801E+03  0.7818609E-02  0.9721208E-01
        2   -1    0    0  501    0  0.00000000000E+00  0.00000000000E+00  0.52848074686E+03  0.52848074687E+03  0.25500000920E-02 0. -1.
       -2   -1    0    0    0  501  0.00000000000E+00  0.00000000000E+00 -0.23026264029E+03  0.23026264030E+03  0.25500000920E-02 0.  1.
    10030    2    1    2    0    0  0.00000000000E+00  0.00000000000E+00  0.29821810658E+03  0.75874338717E+03  0.69768007602E+03 0.  0.
        4    1    3    3  502    0  0.81760183471E+01 -0.34698988511E+03  0.18707797486E+03  0.39429507887E+03  0.12699999809E+01 0.  1.
       -4    1    3    3    0  502 -0.81760183471E+01  0.34698988511E+03  0.11114013171E+03  0.36444830830E+03  0.12699999809E+01 0. -1.
</event>
<event>
 5   0  0.4440500E-03  0.6978996E+03  0.7818609E-02  0.9720831E-01
       -4   -1    0    0    0  501  0.00000000000E+00  0.00000000000E+00  0.85964407854E+03  0.85964501666E+03  0.12699999809E+01 0. -1.
        4   -1    0    0  501    0  0.00000000000E+00  0.00000000000E+00 -0.14164310777E+03  0.14164880119E+03  0.12699999809E+01 0.  1.
    10030    2    1    2    0    0  0.00000000000E+00  0.00000000000E+00  0.71800097077E+03  0.10012938179E+04  0.69789964583E+03 0.  0.
        5    1    3    3  502    0  0.55214068475E+02  0.31243257427E+02  0.85125773835E+03  0.85363139679E+03  0.46999998093E+01 0. -1.
       -5    1    3    3    0  502 -0.55214068475E+02 -0.31243257427E+02 -0.13325676758E+03  0.14766242107E+03  0.46999998093E+01 0.  1.
</event>
<event>
 5   0  0.1109788E-02  0.6996417E+03  0.7818609E-02  0.9717845E-01
       -2   -1    0    0    0  501  0.00000000000E+00  0.00000000000E+00  0.11190028631E+03  0.11190028634E+03  0.25500000920E-02 0. -1.
        2   -1    0    0  501    0  0.00000000000E+00  0.00000000000E+00 -0.10936042739E+04  0.10936042739E+04  0.25500000920E-02 0.  1.
    10030    2    1    2    0    0  0.00000000000E+00  0.00000000000E+00 -0.98170398762E+03  0.12055045603E+04  0.69964171226E+03 0.  0.
        1    1    3    3  502    0  0.24473876546E+03 -0.20321204666E+02 -0.92010683545E+03  0.95231644076E+03  0.50400001928E-02 0.  1.
       -1    1    3    3    0  502 -0.24473876546E+03  0.20321204666E+02 -0.61597152167E+02  0.25318811951E+03  0.50400001928E-02 0. -1.
</event>
<event>
 5   0  0.6246998E-03  0.6985719E+03  0.7818609E-02  0.9719678E-01
       -1   -1    0    0    0  501  0.00000000000E+00  0.00000000000E+00  0.70528977889E+03  0.70528977890E+03  0.50400001928E-02 0.  1.
        1   -1    0    0  501    0  0.00000000000E+00  0.00000000000E+00 -0.17297949266E+03  0.17297949273E+03  0.50400001928E-02 0. -1.
    10030    2    1    2    0    0  0.00000000000E+00  0.00000000000E+00  0.53231028623E+03  0.87826927163E+03  0.69857188082E+03 0.  0.
        4    1    3    3  502    0 -0.99401423590E+02  0.33257795679E+03  0.21729549408E+03  0.40952128760E+03  0.12699999809E+01 0. -1.
       -4    1    3    3    0  502  0.99401423590E+02 -0.33257795679E+03  0.31501479215E+03  0.46874798403E+03  0.12699999809E+01 0.  1.
</event>
<event>
 5   0  0.6609285E-03  0.6978057E+03  0.7818609E-02  0.9720992E-01
        1   -1    0    0  501    0  0.00000000000E+00  0.00000000000E+00  0.16867294698E+03  0.16867294706E+03  0.50400001928E-02 0.  1.
       -1   -1    0    0    0  501  0.00000000000E+00  0.00000000000E+00 -0.72171155167E+03  0.72171155169E+03  0.50400001928E-02 0. -1.
    10030    2    1    2    0    0  0.00000000000E+00  0.00000000000E+00 -0.55303860469E+03  0.89038449875E+03  0.69780574470E+03 0.  0.
        2    1    3    3  502    0  0.21267115019E+03  0.27428145840E+03 -0.23097784419E+03  0.41690538622E+03  0.25500000920E-02 0.  1.
       -2    1    3    3    0  502 -0.21267115019E+03 -0.27428145840E+03 -0.32206076050E+03  0.47347911253E+03  0.25500000920E-02 0. -1.
</event>
<event>
 5   0  0.6246998E-03  0.6981436E+03  0.7818609E-02  0.9720412E-01
        1   -1    0    0  501    0  0.00000000000E+00  0.00000000000E+00  0.12672072885E+03  0.12672072895E+03  0.50400001928E-02 0.  1.
       -1   -1    0    0    0  501  0.00000000000E+00  0.00000000000E+00 -0.96157204764E+03  0.96157204765E+03  0.50400001928E-02 0. -1.
    10030    2    1    2    0    0  0.00000000000E+00  0.00000000000E+00 -0.83485131879E+03  0.10882927766E+04  0.69814356912E+03 0.  0.
        4    1    3    3  502    0 -0.24832132857E+03 -0.11352658824E+03 -0.75644240528E+03  0.80421296549E+03  0.12699999809E+01 0. -1.
       -4    1    3    3    0  502  0.24832132857E+03  0.11352658824E+03 -0.78408913511E+02  0.28407981111E+03  0.12699999809E+01 0.  1.
</event>
<event>
 5   0  0.1100119E-02  0.6969386E+03  0.7818609E-02  0.9722482E-01
       -2   -1    0    0    0  501  0.00000000000E+00  0.00000000000E+00  0.75002868033E+02  0.75002868076E+02  0.25500000920E-02 0.  1.
        2   -1    0    0  501    0  0.00000000000E+00  0.00000000000E+00 -0.16190162593E+04  0.16190162594E+04  0.25500000920E-02 0. -1.
    10030    2    1    2    0    0  0.00000000000E+00  0.00000000000E+00 -0.15440133913E+04  0.16940191274E+04  0.69693862823E+03 0.  0.
        4    1    3    3  502    0  0.21551989086E+03 -0.24695091745E+03 -0.10595615052E+04  0.11091013368E+04  0.12699999809E+01 0. -1.
       -4    1    3    3    0  502 -0.21551989086E+03  0.24695091745E+03 -0.48445188611E+03  0.58491779067E+03  0.12699999809E+01 0.  1.
</event>
<event>
 5   0  0.6689415E-03  0.6985930E+03  0.7818609E-02  0.9719641E-01
        1   -1    0    0  501    0  0.00000000000E+00  0.00000000000E+00  0.65477216987E+03  0.65477216989E+03  0.50400001928E-02 0. -1.
       -1   -1    0    0    0  501  0.00000000000E+00  0.00000000000E+00 -0.18633662267E+03  0.18633662273E+03  0.50400001928E-02 0.  1.
    10030    2    1    2    0    0  0.00000000000E+00  0.00000000000E+00  0.46843554721E+03  0.84110879263E+03  0.69859297101E+03 0.  0.
        1    1    3    3  502    0 -0.32817689804E+03  0.64330047499E+02  0.35563490509E+03  0.48817478137E+03  0.50400001928E-02 0. -1.
       -1    1    3    3    0  502  0.32817689804E+03 -0.64330047499E+02  0.11280064212E+03  0.35293401126E+03  0.50400001928E-02 0.  1.
</event>
<event>
 5   0  0.6990118E-03  0.7006272E+03  0.7818609E-02  0.9716160E-01
        1   -1    0    0  501    0  0.00000000000E+00  0.00000000000E+00  0.47935073522E+03  0.47935073525E+03  0.50400001928E-02 0.  1.
       -1   -1    0    0    0  501  0.00000000000E+00  0.00000000000E+00 -0.25601214761E+03  0.25601214766E+03  0.50400001928E-02 0. -1.
    10030    2    1    2    0    0  0.00000000000E+00  0.00000000000E+00  0.22333858761E+03  0.73536288290E+03  0.70062717963E+03 0.  0.
        5    1    3    3  502    0 -0.14313318315E+03 -0.26319411169E+03 -0.78820506661E+02  0.30982738874E+03  0.46999998093E+01 0. -1.
       -5    1    3    3    0  502  0.14313318315E+03  0.26319411169E+03  0.30215909427E+03  0.42553549416E+03  0.46999998093E+01 0.  1.
</event>
<event>
 5   0  0.6785252E-03  0.6994924E+03  0.7818609E-02  0.9718101E-01
        1   -1    0    0  501    0  0.00000000000E+00  0.00000000000E+00  0.61803193010E+03  0.61803193012E+03  0.50400001928E-02 0.  1.
       -1   -1    0    0    0  501  0.00000000000E+00  0.00000000000E+00 -0.19792246172E+03  0.19792246178E+03  0.50400001928E-02 0. -1.
    10030    2    1    2    0    0  0.00000000000E+00  0.00000000000E+00  0.42010946839E+03  0.81595439190E+03  0.69949239041E+03 0.  0.
        3    1    3    3  502    0  0.66392725148E+02  0.14298531031E+03  0.57423589629E+03  0.59548271822E+03  0.10100000352E+00 0.  1.
       -3    1    3    3    0  502 -0.66392725148E+02 -0.14298531031E+03 -0.15412642790E+03  0.22047167368E+03  0.10100000352E+00 0. -1.
</event>
<event>
 5   0  0.1079446E-02  0.6999231E+03  0.7818609E-02  0.9717364E-01
        2   -1    0    0  501    0  0.00000000000E+00  0.00000000000E+00  0.63052070692E+03  0.63052070693E+03  0.25500000920E-02 0.  1.
       -2   -1    0    0    0  501  0.00000000000E+00  0.00000000000E+00 -0.19424115643E+03  0.19424115644E+03  0.25500000920E-02 0. -1.
    10030    2    1    2    0    0  0.00000000000E+00  0.00000000000E+00  0.43627955049E+03  0.82476186337E+03  0.69992305655E+03 0.  0.
        2    1    3    3  502    0 -0.26445541714E+03  0.21194466593E+03  0.11530551943E+03  0.35798403860E+03  0.25500000920E-02 0. -1.
       -2    1    3    3    0  502  0.26445541714E+03 -0.21194466593E+03  0.32097403106E+03  0.46677782477E+03  0.25500000920E-02 0.  1.
</event>
<event>
 5   0  0.1079446E-02  0.6995295E+03  0.7818609E-02  0.9718037E-01
       -2   -1    0    0    0  501  0.00000000000E+00  0.00000000000E+00  0.72630360388E+02  0.72630360433E+02  0.25500000920E-02 0.  1.
        2   -1    0    0  501    0  0.00000000000E+00  0.00000000000E+00 -0.16843560263E+04  0.16843560263E+04  0.25500000920E-02 0. -1.
    10030    2    1    2    0    0  0.00000000000E+00  0.00000000000E+00 -0.16117256659E+04  0.17569863867E+04  0.69952951404E+03 0.  0.
        2    1    3    3  502    0  0.27722700344E+03 -0.15039894522E+03 -0.42610441330E+03  0.53013170553E+03  0.25500000920E-02 0.  1.
       -2    1    3    3    0  502 -0.27722700344E+03  0.15039894522E+03 -0.11856212526E+04  0.12268546812E+04  0.25500000920E-02 0. -1.
</event>
<event>
 5   0  0.4440500E-03  0.7031360E+03  0.7818609E-02  0.9711884E-01
       -3   -1    0    0    0  501  0.00000000000E+00  0.00000000000E+00  0.36106908138E+03  0.36106909551E+03  0.10100000352E+00 0.  1.
        3   -1    0    0  501    0  0.00000000000E+00  0.00000000000E+00 -0.34231691784E+03  0.34231693274E+03  0.10100000352E+00 0. -1.
    10030    2    1    2    0    0  0.00000000000E+00  0.00000000000E+00  0.18752163543E+02  0.70338602824E+03  0.70313601891E+03 0.  0.
        1    1    3    3  502    0  0.17635129822E+02  0.14249155283E+03 -0.31165113414E+03  0.34313447782E+03  0.50400001928E-02 0. -1.
       -1    1    3    3    0  502 -0.17635129822E+02 -0.14249155283E+03  0.33040329769E+03  0.36025155042E+03  0.50400001928E-02 0.  1.
</event>
<event>
 5   0  0.1100119E-02  0.7003541E+03  0.7818609E-02  0.9716627E-01
        2   -1    0    0  501    0  0.00000000000E+00  0.00000000000E+00  0.69786355888E+03  0.69786355889E+03  0.25500000920E-02 0. -1.
       -2   -1    0    0    0  501  0.00000000000E+00  0.00000000000E+00 -0.17571337668E+03  0.17571337670E+03  0.25500000920E-02 0.  1.
    10030    2    1    2    0    0  0.00000000000E+00  0.00000000000E+00  0.52215018220E+03  0.87357693559E+03  0.70035408874E+03 0.  0.
        4    1    3    3  502    0 -0.99957536896E+02 -0.27926769510E+03  0.49322841557E+03  0.57555003044E+03  0.12699999809E+01 0. -1.
       -4    1    3    3    0  502  0.99957536896E+02  0.27926769510E+03  0.28921766634E+02  0.29802690515E+03  0.12699999809E+01 0.  1.
</event>
<event>
 5   0  0.4440500E-03  0.7028422E+03  0.7818609E-02  0.9712384E-01
       -3   -1    0    0    0  501  0.00000000000E+00  0.00000000000E+00  0.10985755467E+04  0.10985755513E+04  0.10100000352E+00 0.  1.
        3   -1    0    0  501    0  0.00000000000E+00  0.00000000000E+00 -0.11241536335E+03  0.11241540872E+03  0.10100000352E+00 0. -1.
    10030    2    1    2    0    0  0.00000000000E+00  0.00000000000E+00  0.98616018333E+03  0.12109909600E+04  0.70284222846E+03 0.  0.
        1    1    3    3  502    0  0.18431977285E+03  0.18641901953E+03  0.89845045885E+02  0.27712445183E+03  0.50400001928E-02 0. -1.
       -1    1    3    3    0  502 -0.18431977285E+03 -0.18641901953E+03  0.89631513745E+03  0.93386650821E+03  0.50400001928E-02 0.  1.
</event>
<event>
 5   0  0.6990118E-03  0.6975555E+03  0.7818609E-02  0.9721422E-01
       -1   -1    0    0    0  501  0.00000000000E+00  0.00000000000E+00  0.19537542920E+03  0.19537542927E+03  0.50400001928E-02 0. -1.
        1   -1    0    0  501    0  0.00000000000E+00  0.00000000000E+00 -0.62262641057E+03  0.62262641059E+03  0.50400001928E-02 0.  1.
    10030    2    1    2    0    0  0.00000000000E+00  0.00000000000E+00 -0.42725098137E+03  0.81800183986E+03  0.69755545222E+03 0.  0.
        5    1    3    3  502    0 -0.32760412275E+03 -0.26527901562E+02 -0.35035903597E+03  0.48041829158E+03  0.46999998093E+01 0.  1.
       -5    1    3    3    0  502  0.32760412275E+03  0.26527901562E+02 -0.76891945397E+02  0.33758354828E+03  0.46999998093E+01 0. -1.
</event>
<event>
 5   0  0.6689415E-03  0.7009561E+03  0.7818609E-02  0.9715598E-01
        1   -1    0    0  501    0  0.00000000000E+00  0.00000000000E+00  0.38257213968E+03  0.38257213971E+03  0.50400001928E-02 0.  1.
       -1   -1    0    0    0  501  0.00000000000E+00  0.00000000000E+00 -0.32107638134E+03  0.32107638138E+03  0.50400001928E-02 0. -1.
    10030    2    1    2    0    0  0.00000000000E+00  0.00000000000E+00  0.61495758338E+02  0.70364852109E+03  0.70095614195E+03 0.  0.
        1    1    3    3  502    0  0.22483670450E+03  0.10042425276E+03  0.28110168911E+03  0.37370407260E+03  0.50400001928E-02 0.  1.
       -1    1    3    3    0  502 -0.22483670450E+03 -0.10042425276E+03 -0.21960593077E+03  0.32994444849E+03  0.50400001928E-02 0. -1.
</event>
<event>
 5   0  0.6609285E-03  0.6983329E+03  0.7818609E-02  0.9720087E-01
        1   -1    0    0  501    0  0.00000000000E+00  0.00000000000E+00  0.10327868443E+04  0.10327868443E+04  0.50400001928E-02 0. -1.
       -1   -1    0    0    0  501  0.00000000000E+00  0.00000000000E+00 -0.11804683303E+03  0.11804683314E+03  0.50400001928E-02 0.  1.
    10030    2    1    2    0    0  0.00000000000E+00  0.00000000000E+00  0.91474001130E+03  0.11508336775E+04  0.69833291841E+03 0.  0.
        2    1    3    3  502    0  0.31398498324E+03  0.54265997365E+02  0.69266594879E+03  0.76244179108E+03  0.25500000920E-02 0. -1.
       -2    1    3    3    0  502 -0.31398498324E+03 -0.54265997365E+02  0.22207406252E+03  0.38839188640E+03  0.25500000920E-02 0.  1.
</event>
<event>
 5   0  0.1099980E-02  0.7018391E+03  0.7818609E-02  0.9714092E-01
       -2   -1    0    0    0  501  0.00000000000E+00  0.00000000000E+00  0.25715383642E+03  0.25715383644E+03  0.25500000920E-02 0. -1.
        2   -1    0    0  501    0  0.00000000000E+00  0.00000000000E+00 -0.47887492400E+03  0.47887492400E+03  0.25500000920E-02 0.  1.
    10030    2    1    2    0    0  0.00000000000E+00  0.00000000000E+00 -0.22172108757E+03  0.73602876044E+03  0.70183908093E+03 0.  0.
        5    1    3    3  502    0  0.51932138429E+02 -0.32032390836E+03 -0.25084754071E+03  0.41018402205E+03  0.46999998093E+01 0.  1.
       -5    1    3    3    0  502 -0.51932138429E+02  0.32032390836E+03  0.29126453138E+02  0.32584473839E+03  0.46999998093E+01 0. -1.
</event>
<event>
 5   0  0.6785252E-03  0.7013360E+03  0.7818609E-02  0.9714950E-01
       -1   -1    0    0    0  501  0.00000000000E+00  0.00000000000E+00  0.39981880343E+03  0.39981880346E+03  0.50400001928E-02 0. -1.
        1   -1    0    0  501    0  0.00000000000E+00  0.00000000000E+00 -0.30755944116E+03  0.30755944120E+03  0.50400001928E-02 0.  1.
    10030    2    1    2    0    0  0.00000000000E+00  0.00000000000E+00  0.92259362275E+02  0.70737824466E+03  0.70133600442E+03 0.  0.
        3    1    3    3  502    0 -0.26701298209E+03  0.83992612124E+02  0.25917766624E+03  0.38147577168E+03  0.10100000352E+00 0. -1.
       -3    1    3    3    0  502  0.26701298209E+03 -0.83992612124E+02 -0.16691830397E+03  0.32590247298E+03  0.10100000352E+00 0.  1.
</event>
<event>
 5   0  0.6609285E-03  0.7000458E+03  0.7818609E-02  0.9717154E-01
       -1   -1    0    0    0  501  0.00000000000E+00  0.00000000000E+00  0.16542517488E+03  0.16542517496E+03  0.50400001928E-02 0.  1.
        1   -1    0    0  501    0  0.00000000000E+00  0.00000000000E+00 -0.74061287348E+03  0.74061287350E+03  0.50400001928E-02 0. -1.
    10030    2    1    2    0    0  0.00000000000E+00  0.00000000000E+00 -0.57518769860E+03  0.90603804846E+03  0.70004575325E+03 0.  0.
        2    1    3    3  502    0  0.25730832755E+03  0.74950615362E+02 -0.57899064491E+03  0.63800888479E+03  0.25500000920E-02 0. -1.
       -2    1    3    3    0  502 -0.25730832755E+03 -0.74950615362E+02  0.38029463155E+01  0.26802916367E+03  0.25500000920E-02 0.  1.
</event>
<event>
 5   0  0.1119786E-02  0.6962944E+03  0.7818609E-02  0.9723590E-01
       -2   -1    0    0    0  501  0.00000000000E+00  0.00000000000E+00  0.93342044396E+02  0.93342044430E+02  0.25500000920E-02 0.  1.
        2   -1    0    0  501    0  0.00000000000E+00  0.00000000000E+00 -0.12985194289E+04  0.12985194289E+04  0.25500000920E-02 0. -1.
    10030    2    1    2    0    0  0.00000000000E+00  0.00000000000E+00 -0.12051773845E+04  0.13918614733E+04  0.69629435789E+03 0.  0.
        3    1    3    3  502    0  0.24618707025E+03 -0.91905252715E+02 -0.14609184271E+03  0.30066174639E+03  0.10100000352E+00 0.  1.
       -3    1    3    3    0  502 -0.24618707025E+03  0.91905252715E+02 -0.10590855418E+04  0.10911997269E+04  0.10100000352E+00 0. -1.
</event>
<event>
 5   0  0.6785252E-03  0.6997674E+03  0.7818609E-02  0.9717630E-01
       -1   -1    0    0    0  501  0.00000000000E+00  0.00000000000E+00  0.39216919774E+03  0.39216919777E+03  0.50400001928E-02 0.  1.
        1   -1    0    0  501    0  0.00000000000E+00  0.00000000000E+00 -0.31215764261E+03  0.31215764265E+03  0.50400001928E-02 0. -1.
    10030    2    1    2    0    0  0.00000000000E+00  0.00000000000E+00  0.80011555125E+02  0.70432684042E+03  0.69976742507E+03 0.  0.
        3    1    3    3  502    0 -0.13287303664E+03 -0.10146784919E+03  0.34936426507E+03  0.38730655584E+03  0.10100000352E+00 0.  1.
       -3    1    3    3    0  502  0.13287303664E+03  0.10146784919E+03 -0.26935270994E+03  0.31702028459E+03  0.10100000352E+00 0. -1.
</event>
<event>
 5   0  0.6785252E-03  0.7003241E+03  0.7818609E-02  0.9716678E-01
       -1   -1    0    0    0  501  0.00000000000E+00  0.00000000000E+00  0.14981179952E+04  0.14981179952E+04  0.50400001928E-02 0. -1.
        1   -1    0    0  501    0  0.00000000000E+00  0.00000000000E+00 -0.81844999988E+02  0.81845000143E+02  0.50400001928E-02 0.  1.
    10030    2    1    2    0    0  0.00000000000E+00  0.00000000000E+00  0.14162729952E+04  0.15799629954E+04  0.70032411762E+03 0.  0.
        3    1    3    3  502    0  0.25273628237E+03  0.69346363491E+02  0.12320488724E+04  0.12596146160E+04  0.10100000352E+00 0. -1.
       -3    1    3    3    0  502 -0.25273628237E+03 -0.69346363491E+02  0.18422412281E+03  0.32034837939E+03  0.10100000352E+00 0.  1.
</event>
<event>
 5   0  0.6689415E-03  0.7162510E+03  0.7818609E-02  0.9689837E-01
       -1   -1    0    0    0  501  0.00000000000E+00  0.00000000000E+00  0.19441736127E+03  0.19441736134E+03  0.50400001928E-02 0. -1.
        1   -1    0    0  501    0  0.00000000000E+00  0.00000000000E+00 -0.65968328731E+03  0.65968328733E+03  0.50400001928E-02 0.  1.
    10030    2    1    2    0    0  0.00000000000E+00  0.00000000000E+00 -0.46526592603E+03  0.85410064867E+03  0.71625102871E+03 0.  0.
        1    1    3    3  502    0  0.86818895412E+02 -0.87832141298E+02  0.16822140859E+03  0.20868744087E+03  0.50400001928E-02 0. -1.
       -1    1    3    3    0  502 -0.86818895412E+02  0.87832141298E+02 -0.63348733462E+03  0.64541320779E+03  0.50400001928E-02 0.  1.
</event>
<event>
 5   0  0.4440500E-03  0.7044825E+03  0.7818609E-02  0.9709597E-01
       -4   -1    0    0    0  501  0.00000000000E+00  0.00000000000E+00  0.12488657017E+04  0.12488663474E+04  0.12699999809E+01 0. -1.
        4   -1    0    0  501    0  0.00000000000E+00  0.00000000000E+00 -0.99344541912E+02  0.99352659288E+02  0.12699999809E+01 0.  1.
    10030    2    1    2    0    0  0.00000000000E+00  0.00000000000E+00  0.11495211598E+04  0.13482190067E+04  0.70448250035E+03 0.  0.
        2    1    3    3  502    0  0.52984616358E+02 -0.68791473389E+02 -0.78546027899E+02  0.11708592950E+03  0.25500000920E-02 0.  1.
       -2    1    3    3    0  502 -0.52984616358E+02  0.68791473389E+02  0.12280671876E+04  0.12311330772E+04  0.25500000920E-02 0. -1.
</event>
<event>
 5   0  0.6246998E-03  0.6990280E+03  0.7818609E-02  0.9718896E-01
       -1   -1    0    0    0  501  0.00000000000E+00  0.00000000000E+00  0.15498529636E+03  0.15498529644E+03  0.50400001928E-02 0. -1.
        1   -1    0    0  501    0  0.00000000000E+00  0.00000000000E+00 -0.78820394026E+03  0.78820394027E+03  0.50400001928E-02 0.  1.
    10030    2    1    2    0    0  0.00000000000E+00  0.00000000000E+00 -0.63321864390E+03  0.94318923671E+03  0.69902795743E+03 0.  0.
        4    1    3    3  502    0  0.34115715037E+03 -0.69584101902E+02 -0.35771852836E+03  0.49919365672E+03  0.12699999809E+01 0.  1.
       -4    1    3    3    0  502 -0.34115715037E+03  0.69584101902E+02 -0.27550011554E+03  0.44399557999E+03  0.12699999809E+01 0. -1.
</event>
<event>
 5   0  0.6609285E-03  0.7023482E+03  0.7818609E-02  0.9713225E-01
        1   -1    0    0  501    0  0.00000000000E+00  0.00000000000E+00  0.22986588441E+03  0.22986588446E+03  0.50400001928E-02 0. -1.
       -1   -1    0    0    0  501  0.00000000000E+00  0.00000000000E+00 -0.53650087758E+03  0.53650087760E+03  0.50400001928E-02 0.  1.
    10030    2    1    2    0    0  0.00000000000E+00  0.00000000000E+00 -0.30663499317E+03  0.76636676206E+03  0.70234820065E+03 0.  0.
        2    1    3    3  502    0 -0.19915000631E+03 -0.13963562039E+02  0.16192372410E+03  0.25705057578E+03  0.25500000920E-02 0. -1.
       -2    1    3    3    0  502  0.19915000631E+03  0.13963562039E+02 -0.46855871727E+03  0.50931618628E+03  0.25500000920E-02 0.  1.
</event>
<event>
 5   0  0.1119786E-02  0.7028243E+03  0.7818609E-02  0.9712414E-01
        2   -1    0    0  501    0  0.00000000000E+00  0.00000000000E+00  0.22543975026E+03  0.22543975027E+03  0.25500000920E-02 0.  1.
       -2   -1    0    0    0  501  0.00000000000E+00  0.00000000000E+00 -0.54777611575E+03  0.54777611576E+03  0.25500000920E-02 0. -1.
    10030    2    1    2    0    0  0.00000000000E+00  0.00000000000E+00 -0.32233636549E+03  0.77321586603E+03  0.70282433293E+03 0.  0.
        3    1    3    3  502    0 -0.11217797634E+03  0.31112315672E+03 -0.29184598773E+03  0.44108458120E+03  0.10100000352E+00 0.  1.
       -3    1    3    3    0  502  0.11217797634E+03 -0.31112315672E+03 -0.30490377763E+02  0.33213128482E+03  0.10100000352E+00 0. -1.
</event>
<event>
 5   0  0.1100119E-02  0.6989551E+03  0.7818609E-02  0.9719021E-01
        2   -1    0    0  501    0  0.00000000000E+00  0.00000000000E+00  0.83258479502E+03  0.83258479502E+03  0.25500000920E-02 0.  1.
       -2   -1    0    0    0  501  0.00000000000E+00  0.00000000000E+00 -0.14669324202E+03  0.14669324204E+03  0.25500000920E-02 0. -1.
    10030    2    1    2    0    0  0.00000000000E+00  0.00000000000E+00  0.68589155300E+03  0.97927803707E+03  0.69895511401E+03 0.  0.
        4    1    3    3  502    0  0.18695165748E+02  0.20569634097E+03 -0.52025073836E+02  0.21299933126E+03  0.12699999809E+01 0. -1.
       -4    1    3    3    0  502 -0.18695165748E+02 -0.20569634097E+03  0.73791662683E+03  0.76627870580E+03  0.12699999809E+01 0.  1.
</event>
<event>
 5   0  0.1100119E-02  0.7025354E+03  0.7818609E-02  0.9712906E-01
       -2   -1    0    0    0  501  0.00000000000E+00  0.00000000000E+00  0.86577872893E+02  0.86577872931E+02  0.25500000920E-02 0. -1.
        2   -1    0    0  501    0  0.00000000000E+00  0.00000000000E+00 -0.14251792164E+04  0.14251792164E+04  0.25500000920E-02 0.  1.
    10030    2    1    2    0    0  0.00000000000E+00  0.00000000000E+00 -0.13386013435E+04  0.15117570893E+04  0.70253536587E+03 0.  0.
        4    1    3    3  502    0  0.30887685463E+02  0.19186773114E+02  0.82512169543E+02  0.90177893070E+02  0.12699999809E+01 0. -1.
       -4    1    3    3    0  502 -0.30887685463E+02 -0.19186773114E+02 -0.14211135130E+04  0.14215791962E+04  0.12699999809E+01 0.  1.
</event>
<event>
 5   0  0.6990118E-03  0.7018243E+03  0.7818609E-02  0.9714118E-01
        1   -1    0    0  501    0  0.00000000000E+00  0.00000000000E+00  0.63841221872E+03  0.63841221874E+03  0.50400001928E-02 0. -1.
       -1   -1    0    0    0  501  0.00000000000E+00  0.00000000000E+00 -0.19288372060E+03  0.19288372066E+03  0.50400001928E-02 0.  1.
    10030    2    1    2    0    0  0.00000000000E+00  0.00000000000E+00  0.44552849812E+03  0.83129593940E+03  0.70182426306E+03 0.  0.
        5    1    3    3  502    0  0.25931619760E+03  0.69164982398E+02  0.49048933373E+03  0.55913376006E+03  0.46999998093E+01 0. -1.
       -5    1    3    3    0  502 -0.25931619760E+03 -0.69164982398E+02 -0.44960835610E+02  0.27216217935E+03  0.46999998093E+01 0.  1.
</event>
<event>
 5   0  0.6785252E-03  0.7087439E+03  0.7818609E-02  0.9702395E-01
        1   -1    0    0  501    0  0.00000000000E+00  0.00000000000E+00  0.46043814436E+03  0.46043814439E+03  0.50400001928E-02 0. -1.
       -1   -1    0    0    0  501  0.00000000000E+00  0.00000000000E+00 -0.27273905994E+03  0.27273905999E+03  0.50400001928E-02 0.  1.
    10030    2    1    2    0    0  0.00000000000E+00  0.00000000000E+00  0.18769908441E+03  0.73317720437E+03  0.70874386539E+03 0.  0.
        3    1    3    3  502    0 -0.28962724464E+03 -0.15006702610E+03  0.23709863970E+03  0.40326148874E+03  0.10100000352E+00 0. -1.
       -3    1    3    3    0  502  0.28962724464E+03  0.15006702610E+03 -0.49399555283E+02  0.32991571563E+03  0.10100000352E+00 0.  1.
</event>
<event>
 5   0  0.1100119E-02  0.6956713E+03  0.7818609E-02  0.9724664E-01
       -2   -1    0    0    0  501  0.00000000000E+00  0.00000000000E+00  0.44517414938E+03  0.44517414939E+03  0.25500000920E-02 0. -1.
        2   -1    0    0  501    0  0.00000000000E+00  0.00000000000E+00 -0.27178046599E+03  0.27178046600E+03  0.25500000920E-02 0.  1.
    10030    2    1    2    0    0  0.00000000000E+00  0.00000000000E+00  0.17339368339E+03  0.71695461539E+03  0.69567129529E+03 0.  0.
        4    1    3    3  502    0 -0.21699488770E+03 -0.37176056969E+02 -0.19083577883E+03  0.29135673646E+03  0.12699999809E+01 0.  1.
       -4    1    3    3    0  502  0.21699488770E+03  0.37176056969E+02  0.36422946222E+03  0.42559787893E+03  0.12699999809E+01 0. -1.
</event>
<event>
 5   0  0.4440500E-03  0.6978839E+03  0.7818609E-02  0.9720858E-01
        3   -1    0    0  501    0  0.00000000000E+00  0.00000000000E+00  0.36172549580E+03  0.36172550990E+03  0.10100000352E+00 0. -1.
       -3   -1    0    0    0  501  0.00000000000E+00  0.00000000000E+00 -0.33661013439E+03  0.33661014955E+03  0.10100000352E+00 0.  1.
    10030    2    1    2    0    0  0.00000000000E+00  0.00000000000E+00  0.25115361405E+02  0.69833565945E+03  0.69788388137E+03 0.  0.
        1    1    3    3  502    0  0.33457609609E+03  0.98625229938E+02  0.29401169346E+01  0.34882193791E+03  0.50400001928E-02 0. -1.
       -1    1    3    3    0  502 -0.33457609609E+03 -0.98625229938E+02  0.22175244470E+02  0.34951372154E+03  0.50400001928E-02 0.  1.
</event>
<event>
 5   0  0.1099980E-02  0.7006166E+03  0.7818609E-02  0.9716178E-01
       -2   -1    0    0    0  501  0.00000000000E+00  0.00000000000E+00  0.16130186979E+03  0.16130186981E+03  0.25500000920E-02 0.  1.
        2   -1    0    0  501    0  0.00000000000E+00  0.00000000000E+00 -0.76078413037E+03  0.76078413037E+03  0.25500000920E-02 0. -1.
    10030    2    1    2    0    0  0.00000000000E+00  0.00000000000E+00 -0.59948226057E+03  0.92208600018E+03  0.70061659343E+03 0.  0.
        5    1    3    3  502    0  0.81479656777E+02  0.83689896877E+02  0.13487475466E+03  0.17848311615E+03  0.46999998093E+01 0.  1.
       -5    1    3    3    0  502 -0.81479656777E+02 -0.83689896877E+02 -0.73435701524E+03  0.74360288403E+03  0.46999998093E+01 0. -1.
</event>
<event>
 5   0  0.6990118E-03  0.7008479E+03  0.7818609E-02  0.9715783E-01
       -1   -1    0    0    0  501  0.00000000000E+00  0.00000000000E+00  0.30449789792E+03  0.30449789796E+03  0.50400001928E-02 0. -1.
        1   -1    0    0  501    0  0.00000000000E+00  0.00000000000E+00 -0.40327677505E+03  0.40327677508E+03  0.50400001928E-02 0.  1.
    10030    2    1    2    0    0  0.00000000000E+00  0.00000000000E+00 -0.98778877131E+02  0.70777467305E+03  0.70084785884E+03 0.  0.
        5    1    3    3  502    0  0.18720461748E+03 -0.27316680085E+03 -0.16501633575E+03  0.37002452750E+03  0.46999998093E+01 0.  1.
       -5    1    3    3    0  502 -0.18720461748E+03  0.27316680085E+03  0.66237458623E+02  0.33775014554E+03  0.46999998093E+01 0. -1.
</event>
<event>
 5   0  0.6689415E-03  0.7004876E+03  0.7818609E-02  0.9716399E-01
        1   -1    0    0  501    0  0.00000000000E+00  0.00000000000E+00  0.35407843128E+03  0.35407843132E+03  0.50400001928E-02 0. -1.
       -1   -1    0    0    0  501  0.00000000000E+00  0.00000000000E+00 -0.34645066171E+03  0.34645066175E+03  0.50400001928E-02 0.  1.
    10030    2    1    2    0    0  0.00000000000E+00  0.00000000000E+00  0.76277695670E+01  0.70052909307E+03  0.70048756403E+03 0.  0.
        1    1    3    3  502    0 -0.17100659688E+03  0.24884625467E+03  0.18131523027E+03  0.35219728477E+03  0.50400001928E-02 0. -1.
       -1    1    3    3    0  502  0.17100659688E+03 -0.24884625467E+03 -0.17368746071E+03  0.34833180830E+03  0.50400001928E-02 0.  1.
</event>
<event>
 5   0  0.1079446E-02  0.6979210E+03  0.7818609E-02  0.9720794E-01
       -2   -1    0    0    0  501  0.00000000000E+00  0.00000000000E+00  0.36930457939E+03  0.36930457940E+03  0.25500000920E-02 0.  1.
        2   -1    0    0  501    0  0.00000000000E+00  0.00000000000E+00 -0.32973711685E+03  0.32973711686E+03  0.25500000920E-02 0. -1.
    10030    2    1    2    0    0  0.00000000000E+00  0.00000000000E+00  0.39567462546E+02  0.69904169626E+03  0.69792099053E+03 0.  0.
        2    1    3    3  502    0 -0.12433128914E+02 -0.27931540737E+03 -0.18936188686E+03  0.33768269676E+03  0.25500000920E-02 0. -1.
       -2    1    3    3    0  502  0.12433128914E+02  0.27931540737E+03  0.22892934941E+03  0.36135899950E+03  0.25500000920E-02 0.  1.
</event>
<event>
 5   0  0.1099980E-02  0.7004762E+03  0.7818609E-02  0.9716418E-01
       -2   -1    0    0    0  501  0.00000000000E+00  0.00000000000E+00  0.14637548282E+03  0.14637548284E+03  0.25500000920E-02 0.  1.
        2   -1    0    0  501    0  0.00000000000E+00  0.00000000000E+00 -0.83802780071E+03  0.83802780071E+03  0.25500000920E-02 0. -1.
    10030    2    1    2    0    0  0.00000000000E+00  0.00000000000E+00 -0.69165231789E+03  0.98440328356E+03  0.70047619220E+03 0.  0.
        5    1    3    3  502    0  0.14504521859E+02 -0.34601913052E+03 -0.27273506819E+03  0.44084705654E+03  0.46999998093E+01 0.  1.
       -5    1    3    3    0  502 -0.14504521859E+02  0.34601913052E+03 -0.41891724970E+03  0.54355622702E+03  0.46999998093E+01 0. -1.
</event>
<event>
 5   0  0.1109788E-02  0.6968946E+03  0.7818609E-02  0.9722558E-01
       -2   -1    0    0    0  501  0.00000000000E+00  0.00000000000E+00  0.81100763717E+02  0.81100763757E+02  0.25500000920E-02 0.  1.
        2   -1    0    0  501    0  0.00000000000E+00  0.00000000000E+00 -0.14970945927E+04  0.14970945927E+04  0.25500000920E-02 0. -1.
    10030    2    1    2    0    0  0.00000000000E+00  0.00000000000E+00 -0.14159938289E+04  0.15781953564E+04  0.69689458271E+03 0.  0.
        1    1    3    3  502    0  0.55617109471E+01 -0.16385423143E+03 -0.11702132190E+02  0.16436569505E+03  0.50400001928E-02 0.  1.
       -1    1    3    3    0  502 -0.55617109471E+01  0.16385423143E+03 -0.14042916968E+04  0.14138296614E+04  0.50400001928E-02 0. -1.
</event>
<event>
 5   0  0.1100119E-02  0.6996082E+03  0.7818609E-02  0.9717902E-01
       -2   -1    0    0    0  501  0.00000000000E+00  0.00000000000E+00  0.11351635793E+03  0.11351635796E+03  0.25500000920E-02 0. -1.
        2   -1    0    0  501    0  0.00000000000E+00  0.00000000000E+00 -0.10779320249E+04  0.10779320249E+04  0.25500000920E-02 0.  1.
    10030    2    1    2    0    0  0.00000000000E+00  0.00000000000E+00 -0.96441566700E+03  0.11914483829E+04  0.69960822632E+03 0.  0.
        4    1    3    3  502    0 -0.27951648315E+03  0.20233813969E+03 -0.38450840517E+03  0.51664157176E+03  0.12699999809E+01 0. -1.
       -4    1    3    3    0  502  0.27951648315E+03 -0.20233813969E+03 -0.57990726183E+03  0.67480681113E+03  0.12699999809E+01 0.  1.
</event>
<event>
 5   0  0.1099980E-02  0.7015029E+03  0.7818609E-02  0.9714665E-01
       -2   -1    0    0    0  501  0.00000000000E+00  0.00000000000E+00  0.63133782803E+03  0.63133782804E+03  0.25500000920E-02 0.  1.
        2   -1    0    0  501    0  0.00000000000E+00  0.00000000000E+00 -0.19486648754E+03  0.19486648756E+03  0.25500000920E-02 0. -1.
    10030    2    1    2    0    0  0.00000000000E+00  0.00000000000E+00  0.43647134049E+03  0.82620431560E+03  0.70150291520E+03 0.  0.
        5    1    3    3  502    0  0.25169631398E+03  0.18764002005E+03  0.40237653889E+03  0.51038101517E+03  0.46999998093E+01 0.  1.
       -5    1    3    3    0  502 -0.25169631398E+03 -0.18764002005E+03  0.34094801600E+02  0.31582330042E+03  0.46999998093E+01 0. -1.
</event>
<event>
 5   0  0.1119786E-02  0.6966818E+03  0.7818609E-02  0.9722924E-01
       -2   -1    0    0    0  501  0.00000000000E+00  0.00000000000E+00  0.14666510098E+03  0.14666510100E+03  0.25500000920E-02 0.  1.
        2   -1    0    0  501    0  0.00000000000E+00  0.00000000000E+00 -0.82733641687E+03  0.82733641687E+03  0.25500000920E-02 0. -1.
    10030    2    1    2    0    0  0.00000000000E+00  0.00000000000E+00 -0.68067131589E+03  0.97400151788E+03  0.69668179003E+03 0.  0.
        3    1    3    3  502    0 -0.95425439313E+02  0.26552618632E+03 -0.54737366325E+02  0.28741322093E+03  0.10100000352E+00 0.  1.
       -3    1    3    3    0  502  0.95425439313E+02 -0.26552618632E+03 -0.62593394956E+03  0.68658829695E+03  0.10100000352E+00 0. -1.
</event>
<event>
 5   0  0.6609285E-03  0.6997997E+03  0.7818609E-02  0.9717575E-01
        1   -1    0    0  501    0  0.00000000000E+00  0.00000000000E+00  0.38249343948E+03  0.38249343952E+03  0.50400001928E-02 0. -1.
       -1   -1    0    0    0  501  0.00000000000E+00  0.00000000000E+00 -0.32008370811E+03  0.32008370815E+03  0.50400001928E-02 0.  1.
    10030    2    1    2    0    0  0.00000000000E+00  0.00000000000E+00  0.62409731376E+02  0.70257714767E+03  0.69979973839E+03 0.  0.
        2    1    3    3  502    0 -0.41841268370E+02  0.34421863780E+03 -0.15807857545E+02  0.34711244679E+03  0.25500000920E-02 0. -1.
       -2    1    3    3    0  502  0.41841268370E+02 -0.34421863780E+03  0.78217588921E+02  0.35546470088E+03  0.25500000920E-02 0.  1.
</event>
<event>
 5   0  0.1099980E-02  0.7007841E+03  0.7818609E-02  0.9715892E-01
       -2   -1    0    0    0  501  0.00000000000E+00  0.00000000000E+00  0.10608080369E+03  0.10608080372E+03  0.25500000920E-02 0. -1.
        2   -1    0    0  501    0  0.00000000000E+00  0.00000000000E+00 -0.11573687344E+04  0.11573687344E+04  0.25500000920E-02 0.  1.
    10030    2    1    2    0    0  0.00000000000E+00  0.00000000000E+00 -0.10512879307E+04  0.12634495381E+04  0.70078414800E+03 0.  0.
        5    1    3    3  502    0  0.39896688013E+02  0.34439204751E+03 -0.61677357623E+03  0.70755166768E+03  0.46999998093E+01 0. -1.
       -5    1    3    3    0  502 -0.39896688013E+02 -0.34439204751E+03 -0.43451435444E+03  0.55589787040E+03  0.46999998093E+01 0.  1.
</event>
<event>
 5   0  0.6990118E-03  0.7229589E+03  0.7818609E-02  0.9678755E-01
        1   -1    0    0  501    0  0.00000000000E+00  0.00000000000E+00  0.12811166117E+03  0.12811166126E+03  0.50400001928E-02 0. -1.
       -1   -1    0    0    0  501  0.00000000000E+00  0.00000000000E+00 -0.10199493567E+04  0.10199493567E+04  0.50400001928E-02 0.  1.
    10030    2    1    2    0    0  0.00000000000E+00  0.00000000000E+00 -0.89183769557E+03  0.11480610180E+04  0.72295893786E+03 0.  0.
        5    1    3    3  502    0 -0.26886482474E+02  0.18286773206E+03 -0.93917680158E+03  0.95720355463E+03  0.46999998093E+01 0.  1.
       -5    1    3    3    0  502  0.26886482474E+02 -0.18286773206E+03  0.47339106017E+02  0.19085746338E+03  0.46999998093E+01 0. -1.
</event>
<event>
 5   0  0.6785252E-03  0.6994958E+03  0.7818609E-02  0.9718095E-01
        1   -1    0    0  501    0  0.00000000000E+00  0.00000000000E+00  0.30756839714E+03  0.30756839718E+03  0.50400001928E-02 0. -1.
       -1   -1    0    0    0  501  0.00000000000E+00  0.00000000000E+00 -0.39771187316E+03  0.39771187319E+03  0.50400001928E-02 0.  1.
    10030    2    1    2    0    0  0.00000000000E+00  0.00000000000E+00 -0.90143476017E+02  0.70528027037E+03  0.69949582808E+03 0.  0.
        3    1    3    3  502    0 -0.65461190951E+02  0.14865309716E+03  0.26723259359E+03  0.31272380800E+03  0.10100000352E+00 0. -1.
       -3    1    3    3    0  502  0.65461190951E+02 -0.14865309716E+03 -0.35737606960E+03  0.39255646236E+03  0.10100000352E+00 0.  1.
</event>
<event>
 5   0  0.6785252E-03  0.6974173E+03  0.7818609E-02  0.9721659E-01
        1   -1    0    0  501    0  0.00000000000E+00  0.00000000000E+00  0.21290600852E+03  0.21290600858E+03  0.50400001928E-02 0. -1.
       -1   -1    0    0    0  501  0.00000000000E+00  0.00000000000E+00 -0.57113327290E+03  0.57113327293E+03  0.50400001928E-02 0.  1.
    10030    2    1    2    0    0  0.00000000000E+00  0.00000000000E+00 -0.35822726438E+03  0.78403928151E+03  0.69741725100E+03 0.  0.
        3    1    3    3  502    0  0.11773009895E+03 -0.15248130952E+03 -0.50588160822E+03  0.54131981091E+03  0.10100000352E+00 0.  1.
       -3    1    3    3    0  502 -0.11773009895E+03  0.15248130952E+03  0.14765434383E+03  0.24271947060E+03  0.10100000352E+00 0. -1.
</event>
<event>
 5   0  0.6246998E-03  0.6960734E+03  0.7818609E-02  0.9723971E-01
       -1   -1    0    0    0  501  0.00000000000E+00  0.00000000000E+00  0.19747611226E+03  0.19747611232E+03  0.50400001928E-02 0. -1.
        1   -1    0    0  501    0  0.00000000000E+00  0.00000000000E+00 -0.61338826665E+03  0.61338826667E+03  0.50400001928E-02 0.  1.
    10030    2    1    2    0    0  0.00000000000E+00  0.00000000000E+00 -0.41591215439E+03  0.81086437899E+03  0.69607335888E+03 0.  0.
        4    1    3    3  502    0 -0.21750347175E+03 -0.12786367683E+03  0.71309706418E+02  0.26218994490E+03  0.12699999809E+01 0. -1.
       -4    1    3    3    0  502  0.21750347175E+03  0.12786367683E+03 -0.48722186081E+03  0.54867443409E+03  0.12699999809E+01 0.  1.
</event>
<event>
 5   0  0.1119786E-02  0.6985116E+03  0.7818609E-02  0.9719781E-01
        2   -1    0    0  501    0  0.00000000000E+00  0.00000000000E+00  0.10857633076E+04  0.10857633076E+04  0.25500000920E-02 0.  1.
       -2   -1    0    0    0  501  0.00000000000E+00  0.00000000000E+00 -0.11234456879E+03  0.11234456882E+03  0.25500000920E-02 0. -1.
    10030    2    1    2    0    0  0.00000000000E+00  0.00000000000E+00  0.97341873876E+03  0.11981078764E+04  0.69851159079E+03 0.  0.
        3    1    3    3  502    0 -0.31205346868E+03 -0.14602713923E+03  0.58491743660E+03  0.67884439347E+03  0.10100000352E+00 0.  1.
       -3    1    3    3    0  502  0.31205346868E+03  0.14602713923E+03  0.38850130216E+03  0.51926348291E+03  0.10100000352E+00 0. -1.
</event>
<event>
 5   0  0.1099980E-02  0.7018566E+03  0.7818609E-02  0.9714062E-01
        2   -1    0    0  501    0  0.00000000000E+00  0.00000000000E+00  0.47836153321E+03  0.47836153321E+03  0.25500000920E-02 0.  1.
       -2   -1    0    0    0  501  0.00000000000E+00  0.00000000000E+00 -0.25744269008E+03  0.25744269009E+03  0.25500000920E-02 0. -1.
    10030    2    1    2    0    0  0.00000000000E+00  0.00000000000E+00  0.22091884313E+03  0.73580422331E+03  0.70185662338E+03 0.  0.
        5    1    3    3  502    0  0.82901031952E+02  0.33997626626E+03  0.83279632544E+02  0.35974161548E+03  0.46999998093E+01 0.  1.
       -5    1    3    3    0  502 -0.82901031952E+02 -0.33997626626E+03  0.13763921058E+03  0.37606260782E+03  0.46999998093E+01 0. -1.
</event>
<event>
 5   0  0.6246998E-03  0.6977310E+03  0.7818609E-02  0.9721120E-01
        1   -1    0    0  501    0  0.00000000000E+00  0.00000000000E+00  0.32224120719E+03  0.32224120723E+03  0.50400001928E-02 0.  1.
       -1   -1    0    0    0  501  0.00000000000E+00  0.00000000000E+00 -0.37768958388E+03  0.37768958391E+03  0.50400001928E-02 0. -1.
    10030    2    1    2    0    0  0.00000000000E+00  0.00000000000E+00 -0.55448376684E+02  0.69993079114E+03  0.69773102978E+03 0.  0.
        4    1    3    3  502    0  0.12471167044E+03  0.12917319183E+03  0.27232887373E+03  0.32619525226E+03  0.12699999809E+01 0.  1.
       -4    1    3    3    0  502 -0.12471167044E+03 -0.12917319183E+03 -0.32777725042E+03  0.37373553888E+03  0.12699999809E+01 0. -1.
</event>
<event>
 5   0  0.1079446E-02  0.7009898E+03  0.7818609E-02  0.9715541E-01
        2   -1    0    0  501    0  0.00000000000E+00  0.00000000000E+00  0.79032839072E+03  0.79032839072E+03  0.25500000920E-02 0.  1.
       -2   -1    0    0    0  501  0.00000000000E+00  0.00000000000E+00 -0.15543752045E+03  0.15543752047E+03  0.25500000920E-02 0. -1.
    10030    2    1    2    0    0  0.00000000000E+00  0.00000000000E+00  0.63489087027E+03  0.94576591119E+03  0.70098982989E+03 0.  0.
        2    1    3    3  502    0  0.15484284797E+03  0.40859412847E+02 -0.10319115822E+03  0.19051040477E+03  0.25500000920E-02 0. -1.
       -2    1    3    3    0  502 -0.15484284797E+03 -0.40859412847E+02  0.73808202849E+03  0.75525550641E+03  0.25500000920E-02 0.  1.
</event>
<event>
 5   0  0.1079446E-02  0.7012718E+03  0.7818609E-02  0.9715060E-01
       -2   -1    0    0    0  501  0.00000000000E+00  0.00000000000E+00  0.91922725874E+03  0.91922725875E+03  0.25500000920E-02 0. -1.
        2   -1    0    0  501    0  0.00000000000E+00  0.00000000000E+00 -0.13374879774E+03  0.13374879776E+03  0.25500000920E-02 0.  1.
    10030    2    1    2    0    0  0.00000000000E+00  0.00000000000E+00  0.78547846101E+03  0.10529760565E+04  0.70127181811E+03 0.  0.
        2    1    3    3  502    0  0.32471088214E+02 -0.34262855915E+03  0.29204935406E+03  0.45137736577E+03  0.25500000920E-02 0. -1.
       -2    1    3    3    0  502 -0.32471088214E+02  0.34262855915E+03  0.49342910695E+03  0.60159869074E+03  0.25500000920E-02 0.  1.
</event>
<event>
 5   0  0.6246998E-03  0.7005737E+03  0.7818609E-02  0.9716252E-01
       -1   -1    0    0    0  501  0.00000000000E+00  0.00000000000E+00  0.23504073818E+03  0.23504073823E+03  0.50400001928E-02 0.  1.
        1   -1    0    0  501    0  0.00000000000E+00  0.00000000000E+00 -0.52204091577E+03  0.52204091580E+03  0.50400001928E-02 0. -1.
    10030    2    1    2    0    0  0.00000000000E+00  0.00000000000E+00 -0.28700017760E+03  0.75708165403E+03  0.70057371413E+03 0.  0.
        4    1    3    3  502    0 -0.10390580342E+02  0.16227869697E+03 -0.47877795691E+03  0.50564046967E+03  0.12699999809E+01 0. -1.
       -4    1    3    3    0  502  0.10390580342E+02 -0.16227869697E+03  0.19177777931E+03  0.25144118435E+03  0.12699999809E+01 0.  1.
</event>
<event>
 5   0  0.1099980E-02  0.6992963E+03  0.7818609E-02  0.9718436E-01
       -2   -1    0    0    0  501  0.00000000000E+00  0.00000000000E+00  0.15455272611E+03  0.15455272613E+03  0.25500000920E-02 0. -1.
        2   -1    0    0  501    0  0.00000000000E+00  0.00000000000E+00 -0.79101690894E+03  0.79101690895E+03  0.25500000920E-02 0.  1.
    10030    2    1    2    0    0  0.00000000000E+00  0.00000000000E+00 -0.63646418283E+03  0.94556963508E+03  0.69929627395E+03 0.  0.
        5    1    3    3  502    0  0.96889454651E+02  0.22129288981E+03  0.23505747647E+02  0.24276062216E+03  0.46999998093E+01 0. -1.
       -5    1    3    3    0  502 -0.96889454651E+02 -0.22129288981E+03 -0.65996993048E+03  0.70280901292E+03  0.46999998093E+01 0.  1.
</event>
<event>
 5   0  0.4440500E-03  0.7008922E+03  0.7818609E-02  0.9715708E-01
        3   -1    0    0  501    0  0.00000000000E+00  0.00000000000E+00  0.28936986162E+03  0.28936987925E+03  0.10100000352E+00 0.  1.
       -3   -1    0    0    0  501  0.00000000000E+00  0.00000000000E+00 -0.42441341346E+03  0.42441342548E+03  0.10100000352E+00 0. -1.
    10030    2    1    2    0    0  0.00000000000E+00  0.00000000000E+00 -0.13504355184E+03  0.71378330473E+03  0.70089217802E+03 0.  0.
        3    1    3    3  502    0  0.28320204628E+03  0.17987742182E+03  0.35598519833E+02  0.33738190632E+03  0.10100000352E+00 0. -1.
       -3    1    3    3    0  502 -0.28320204628E+03 -0.17987742182E+03 -0.17064207168E+03  0.37640139841E+03  0.10100000352E+00 0.  1.
</event>
<event>
 5   0  0.6689415E-03  0.7114532E+03  0.7818609E-02  0.9697844E-01
       -1   -1    0    0    0  501  0.00000000000E+00  0.00000000000E+00  0.31128533840E+03  0.31128533844E+03  0.50400001928E-02 0. -1.
        1   -1    0    0  501    0  0.00000000000E+00  0.00000000000E+00 -0.40651256978E+03  0.40651256981E+03  0.50400001928E-02 0.  1.
    10030    2    1    2    0    0  0.00000000000E+00  0.00000000000E+00 -0.95227231376E+02  0.71779790825E+03  0.71145316887E+03 0.  0.
        1    1    3    3  502    0 -0.28538196215E+03  0.17456060597E+03 -0.16963486886E+03  0.37508700089E+03  0.50400001928E-02 0.  1.
       -1    1    3    3    0  502  0.28538196215E+03 -0.17456060597E+03  0.74407637485E+02  0.34271090736E+03  0.50400001928E-02 0. -1.
</event>
<event>
 5   0  0.1100119E-02  0.6971232E+03  0.7818609E-02  0.9722165E-01
        2   -1    0    0  501    0  0.00000000000E+00  0.00000000000E+00  0.14707374930E+04  0.14707374930E+04  0.25500000920E-02 0. -1.
       -2   -1    0    0    0  501  0.00000000000E+00  0.00000000000E+00 -0.82608335178E+02  0.82608335217E+02  0.25500000920E-02 0.  1.
    10030    2    1    2    0    0  0.00000000000E+00  0.00000000000E+00  0.13881291578E+04  0.15533458282E+04  0.69712316218E+03 0.  0.
        4    1    3    3  502    0 -0.33318946441E+03 -0.97774014733E+02  0.62653119731E+03  0.71632250506E+03  0.12699999809E+01 0. -1.
       -4    1    3    3    0  502  0.33318946441E+03  0.97774014733E+02  0.76159796048E+03  0.83702332313E+03  0.12699999809E+01 0.  1.
</event>
<event>
 5   0  0.6990118E-03  0.6970121E+03  0.7818609E-02  0.9722356E-01
        1   -1    0    0  501    0  0.00000000000E+00  0.00000000000E+00  0.84988744295E+03  0.84988744297E+03  0.50400001928E-02 0.  1.
       -1   -1    0    0    0  501  0.00000000000E+00  0.00000000000E+00 -0.14290888542E+03  0.14290888551E+03  0.50400001928E-02 0. -1.
    10030    2    1    2    0    0  0.00000000000E+00  0.00000000000E+00  0.70697855754E+03  0.99279632847E+03  0.69701210106E+03 0.  0.
        5    1    3    3  502    0 -0.16730176464E+03 -0.14617925855E+03 -0.28908664435E+02  0.22408939502E+03  0.46999998093E+01 0. -1.
       -5    1    3    3    0  502  0.16730176464E+03  0.14617925855E+03  0.73588722197E+03  0.76870693345E+03  0.46999998093E+01 0.  1.
</event>
<event>
 5   0  0.1099980E-02  0.6969017E+03  0.7818609E-02  0.9722545E-01
       -2   -1    0    0    0  501  0.00000000000E+00  0.00000000000E+00  0.35394756227E+03  0.35394756228E+03  0.25500000920E-02 0.  1.
        2   -1    0    0  501    0  0.00000000000E+00  0.00000000000E+00 -0.34303947056E+03  0.34303947056E+03  0.25500000920E-02 0. -1.
    10030    2    1    2    0    0  0.00000000000E+00  0.00000000000E+00  0.10908091713E+02  0.69698703284E+03  0.69690166988E+03 0.  0.
        5    1    3    3  502    0 -0.11843448119E+03 -0.31978424471E+03  0.76927510206E+02  0.34961210123E+03  0.46999998093E+01 0.  1.
       -5    1    3    3    0  502  0.11843448119E+03  0.31978424471E+03 -0.66019418493E+02  0.34737493162E+03  0.46999998093E+01 0. -1.
</event>
<event>
 5   0  0.6689415E-03  0.7018973E+03  0.7818609E-02  0.9713993E-01
        1   -1    0    0  501    0  0.00000000000E+00  0.00000000000E+00  0.84399104431E+03  0.84399104432E+03  0.50400001928E-02 0.  1.
       -1   -1    0    0    0  501  0.00000000000E+00  0.00000000000E+00 -0.14593157396E+03  0.14593157405E+03  0.50400001928E-02 0. -1.
    10030    2    1    2    0    0  0.00000000000E+00  0.00000000000E+00  0.69805947034E+03  0.98992261837E+03  0.70189726188E+03 0.  0.
        1    1    3    3  502    0  0.19742139112E+03  0.20817472221E+03  0.63967433619E+02  0.29394515344E+03  0.50400001928E-02 0. -1.
       -1    1    3    3    0  502 -0.19742139112E+03 -0.20817472221E+03  0.63409203672E+03  0.69597746494E+03  0.50400001928E-02 0.  1.
</event>
<event>
 5   0  0.6689415E-03  0.6993372E+03  0.7818609E-02  0.9718366E-01
        1   -1    0    0  501    0  0.00000000000E+00  0.00000000000E+00  0.48069477247E+03  0.48069477250E+03  0.50400001928E-02 0. -1.
       -1   -1    0    0    0  501  0.00000000000E+00  0.00000000000E+00 -0.25435710310E+03  0.25435710315E+03  0.50400001928E-02 0.  1.
    10030    2    1    2    0    0  0.00000000000E+00  0.00000000000E+00  0.22633766937E+03  0.73505187565E+03  0.69933720001E+03 0.  0.
        1    1    3    3  502    0  0.11380828804E+03 -0.85651277506E+02 -0.22248231874E+03  0.26417200825E+03  0.50400001928E-02 0.  1.
       -1    1    3    3    0  502 -0.11380828804E+03  0.85651277506E+02  0.44881998811E+03  0.47087986740E+03  0.50400001928E-02 0. -1.
</event>
<event>
 5   0  0.6785252E-03  0.7009019E+03  0.7818609E-02  0.9715691E-01
        1   -1    0    0  501    0  0.00000000000E+00  0.00000000000E+00  0.25768636478E+03  0.25768636483E+03  0.50400001928E-02 0.  1.
       -1   -1    0    0    0  501  0.00000000000E+00  0.00000000000E+00 -0.47660985721E+03  0.47660985723E+03  0.50400001928E-02 0. -1.
    10030    2    1    2    0    0  0.00000000000E+00  0.00000000000E+00 -0.21892349243E+03  0.73429622206E+03  0.70090188058E+03 0.  0.
        3    1    3    3  502    0  0.82822527502E+02 -0.12760412173E+03 -0.44021479344E+03  0.46575901226E+03  0.10100000352E+00 0. -1.
       -3    1    3    3    0  502 -0.82822527502E+02  0.12760412173E+03  0.22129130101E+03  0.26853720980E+03  0.10100000352E+00 0.  1.
</event>
<event>
 5   0  0.1100119E-02  0.7000784E+03  0.7818609E-02  0.9717098E-01
       -2   -1    0    0    0  501  0.00000000000E+00  0.00000000000E+00  0.12098365685E+03  0.12098365688E+03  0.25500000920E-02 0.  1.
        2   -1    0    0  501    0  0.00000000000E+00  0.00000000000E+00 -0.10127603241E+04  0.10127603241E+04  0.25500000920E-02 0. -1.
    10030    2    1    2    0    0  0.00000000000E+00  0.00000000000E+00 -0.89177666720E+03  0.11337439809E+04  0.70007841714E+03 0.  0.
        4    1    3    3  502    0 -0.10323207525E+02  0.34153934222E+03 -0.56890433932E+03  0.66363352167E+03  0.12699999809E+01 0.  1.
       -4    1    3    3    0  502  0.10323207525E+02 -0.34153934222E+03 -0.32287232789E+03  0.47011045927E+03  0.12699999809E+01 0. -1.
</event>
<event>
 5   0  0.1109788E-02  0.7017406E+03  0.7818609E-02  0.9714260E-01
       -2   -1    0    0    0  501  0.00000000000E+00  0.00000000000E+00  0.22587098089E+03  0.22587098091E+03  0.25500000920E-02 0. -1.
        2   -1    0    0  501    0  0.00000000000E+00  0.00000000000E+00 -0.54504557500E+03  0.54504557501E+03  0.25500000920E-02 0.  1.
    10030    2    1    2    0    0  0.00000000000E+00  0.00000000000E+00 -0.31917459411E+03  0.77091655591E+03  0.70174063204E+03 0.  0.
        1    1    3    3  502    0 -0.33571760914E+02 -0.11940840325E+03  0.20098145815E+03  0.23617573212E+03  0.50400001928E-02 0. -1.
       -1    1    3    3    0  502  0.33571760914E+02  0.11940840325E+03 -0.52015605226E+03  0.53474082379E+03  0.50400001928E-02 0.  1.
</event>
<event>
 5   0  0.1099980E-02  0.7016348E+03  0.7818609E-02  0.9714441E-01
       -2   -1    0    0    0  501  0.00000000000E+00  0.00000000000E+00  0.17646283550E+03  0.17646283552E+03  0.25500000920E-02 0.  1.
        2   -1    0    0  501    0  0.00000000000E+00  0.00000000000E+00 -0.69744349595E+03  0.69744349595E+03  0.25500000920E-02 0. -1.
    10030    2    1    2    0    0  0.00000000000E+00  0.00000000000E+00 -0.52098066045E+03  0.87390633147E+03  0.70163482498E+03 0.  0.
        5    1    3    3  502    0 -0.78425655185E+00 -0.29840145640E+03 -0.49017718404E+03  0.57388135184E+03  0.46999998093E+01 0. -1.
       -5    1    3    3    0  502  0.78425655185E+00  0.29840145640E+03 -0.30803476407E+02  0.30002497962E+03  0.46999998093E+01 0.  1.
</event>
<event>
 5   0  0.4440500E-03  0.6988427E+03  0.7818609E-02  0.9719213E-01
        4   -1    0    0  501    0  0.00000000000E+00  0.00000000000E+00  0.53925553060E+03  0.53925702608E+03  0.12699999809E+01 0. -1.
       -4   -1    0    0    0  501  0.00000000000E+00  0.00000000000E+00 -0.22641092869E+03  0.22641449055E+03  0.12699999809E+01 0.  1.
    10030    2    1    2    0    0  0.00000000000E+00  0.00000000000E+00  0.31284460190E+03  0.76567151663E+03  0.69884270508E+03 0.  0.
        5    1    3    3  502    0  0.17681167593E+02  0.34805734611E+03  0.18362945002E+03  0.39395228745E+03  0.46999998093E+01 0. -1.
       -5    1    3    3    0  502 -0.17681167593E+02 -0.34805734611E+03  0.12921515188E+03  0.37171922918E+03  0.46999998093E+01 0.  1.
</event>
<event>
 5   0  0.4440500E-03  0.6984650E+03  0.7818609E-02  0.9719861E-01
       -3   -1    0    0    0  501  0.00000000000E+00  0.00000000000E+00  0.71820630326E+03  0.71820631037E+03  0.10100000352E+00 0. -1.
        3   -1    0    0  501    0  0.00000000000E+00  0.00000000000E+00 -0.16981656768E+03  0.16981659771E+03  0.10100000352E+00 0.  1.
    10030    2    1    2    0    0  0.00000000000E+00  0.00000000000E+00  0.54838973559E+03  0.88802290808E+03  0.69846501929E+03 0.  0.
        1    1    3    3  502    0  0.30834598355E+03 -0.10815938506E+03  0.43087890917E+03  0.54077012911E+03  0.50400001928E-02 0. -1.
       -1    1    3    3    0  502 -0.30834598355E+03  0.10815938506E+03  0.11751082642E+03  0.34725277896E+03  0.50400001928E-02 0.  1.
</event>
<event>
 5   0  0.6990118E-03  0.6997403E+03  0.7818609E-02  0.9717676E-01
       -1   -1    0    0    0  501  0.00000000000E+00  0.00000000000E+00  0.32115046922E+03  0.32115046926E+03  0.50400001928E-02 0. -1.
        1   -1    0    0  501    0  0.00000000000E+00  0.00000000000E+00 -0.38115815598E+03  0.38115815601E+03  0.50400001928E-02 0.  1.
    10030    2    1    2    0    0  0.00000000000E+00  0.00000000000E+00 -0.60007686758E+02  0.70230862527E+03  0.69974029659E+03 0.  0.
        5    1    3    3  502    0 -0.94894054681E+01  0.65200638470E+02 -0.37484293712E+03  0.38061856179E+03  0.46999998093E+01 0.  1.
       -5    1    3    3    0  502  0.94894054681E+01 -0.65200638470E+02  0.31483525036E+03  0.32169006348E+03  0.46999998093E+01 0. -1.
</event>
<event>
 5   0  0.1100119E-02  0.7012930E+03  0.7818609E-02  0.9715023E-01
       -2   -1    0    0    0  501  0.00000000000E+00  0.00000000000E+00  0.10999197001E+03  0.10999197004E+03  0.25500000920E-02 0.  1.
        2   -1    0    0  501    0  0.00000000000E+00  0.00000000000E+00 -0.11178359699E+04  0.11178359699E+04  0.25500000920E-02 0. -1.
    10030    2    1    2    0    0  0.00000000000E+00  0.00000000000E+00 -0.10078439999E+04  0.12278279400E+04  0.70129303575E+03 0.  0.
        4    1    3    3  502    0  0.13008607182E+03  0.60737086929E+02  0.56171672148E+02  0.15416954778E+03  0.12699999809E+01 0.  1.
       -4    1    3    3    0  502 -0.13008607182E+03 -0.60737086929E+02 -0.10640156721E+04  0.10736583922E+04  0.12699999809E+01 0. -1.
</event>
<event>
 5   0  0.6785252E-03  0.7002417E+03  0.7818609E-02  0.9716819E-01
       -1   -1    0    0    0  501  0.00000000000E+00  0.00000000000E+00  0.17470429519E+03  0.17470429526E+03  0.50400001928E-02 0. -1.
        1   -1    0    0  501    0  0.00000000000E+00  0.00000000000E+00 -0.70166917099E+03  0.70166917101E+03  0.50400001928E-02 0.  1.
    10030    2    1    2    0    0  0.00000000000E+00  0.00000000000E+00 -0.52696487581E+03  0.87637346627E+03  0.70024172402E+03 0.  0.
        3    1    3    3  502    0 -0.95373162254E+02  0.85365611442E+02  0.14437286296E+03  0.19294263774E+03  0.10100000352E+00 0. -1.
       -3    1    3    3    0  502  0.95373162254E+02 -0.85365611442E+02 -0.67133773877E+03  0.68343082854E+03  0.10100000352E+00 0.  1.
</event>
<event>
 5   0  0.1100119E-02  0.6996794E+03  0.7818609E-02  0.9717781E-01
       -2   -1    0    0    0  501  0.00000000000E+00  0.00000000000E+00  0.28875646991E+03  0.28875646992E+03  0.25500000920E-02 0. -1.
        2   -1    0    0  501    0  0.00000000000E+00  0.00000000000E+00 -0.42384437122E+03  0.42384437123E+03  0.25500000920E-02 0.  1.
    10030    2    1    2    0    0  0.00000000000E+00  0.00000000000E+00 -0.13508790131E+03  0.71260084115E+03  0.69967936780E+03 0.  0.
        4    1    3    3  502    0  0.25005883447E+03 -0.16196137927E+03 -0.25430238896E+03  0.39170425962E+03  0.12699999809E+01 0.  1.
       -4    1    3    3    0  502 -0.25005883447E+03  0.16196137927E+03  0.11921448765E+03  0.32089658153E+03  0.12699999809E+01 0. -1.
</event>
<event>
 5   0  0.6689415E-03  0.6891785E+03  0.7818609E-02  0.9735920E-01
        1   -1    0    0  501    0  0.00000000000E+00  0.00000000000E+00  0.98782774502E+03  0.98782774503E+03  0.50400001928E-02 0.  1.
       -1   -1    0    0    0  501  0.00000000000E+00  0.00000000000E+00 -0.12020489948E+03  0.12020489958E+03  0.50400001928E-02 0. -1.
    10030    2    1    2    0    0  0.00000000000E+00  0.00000000000E+00  0.86762284554E+03  0.11080326446E+04  0.68917845252E+03 0.  0.
        1    1    3    3  502    0  0.23013415970E+03 -0.15583866165E+03  0.10630851192E+03  0.29757170507E+03  0.50400001928E-02 0. -1.
       -1    1    3    3    0  502 -0.23013415970E+03  0.15583866165E+03  0.76131433363E+03  0.81046093955E+03  0.50400001928E-02 0.  1.
</event>
<event>
 5   0  0.6689415E-03  0.7048662E+03  0.7818609E-02  0.9708946E-01
        1   -1    0    0  501    0  0.00000000000E+00  0.00000000000E+00  0.30985785822E+03  0.30985785826E+03  0.50400001928E-02 0.  1.
       -1   -1    0    0    0  501  0.00000000000E+00  0.00000000000E+00 -0.40085825513E+03  0.40085825516E+03  0.50400001928E-02 0. -1.
    10030    2    1    2    0    0  0.00000000000E+00  0.00000000000E+00 -0.91000396910E+02  0.71071611341E+03  0.70486617285E+03 0.  0.
        1    1    3    3  502    0  0.31172480748E+03 -0.16040882853E+03 -0.81935016290E+02  0.36002318646E+03  0.50400001928E-02 0.  1.
       -1    1    3    3    0  502 -0.31172480748E+03  0.16040882853E+03 -0.90653806206E+01  0.35069292696E+03  0.50400001928E-02 0. -1.
</event>
<event>
 5   0  0.1100119E-02  0.7025974E+03  0.7818609E-02  0.9712801E-01
        2   -1    0    0  501    0  0.00000000000E+00  0.00000000000E+00  0.55366246319E+03  0.55366246320E+03  0.25500000920E-02 0.  1.
       -2   -1    0    0    0  501  0.00000000000E+00  0.00000000000E+00 -0.22289893707E+03  0.22289893708E+03  0.25500000920E-02 0. -1.
    10030    2    1    2    0    0  0.00000000000E+00  0.00000000000E+00  0.33076352612E+03  0.77656140028E+03  0.70259739410E+03 0.  0.
        4    1    3    3  502    0  0.46207486438E+02  0.13938527318E+03 -0.18734691821E+03  0.23804173341E+03  0.12699999809E+01 0. -1.
       -4    1    3    3    0  502 -0.46207486438E+02 -0.13938527318E+03  0.51811044433E+03  0.53851966687E+03  0.12699999809E+01 0.  1.
</event>
<event>
 5   0  0.1109788E-02  0.6965385E+03  0.7818609E-02  0.9723170E-01
        2   -1    0    0  501    0  0.00000000000E+00  0.00000000000E+00  0.39702757746E+03  0.39702757747E+03  0.25500000920E-02 0.  1.
       -2   -1    0    0    0  501  0.00000000000E+00  0.00000000000E+00 -0.30549886419E+03  0.30549886420E+03  0.25500000920E-02 0. -1.
    10030    2    1    2    0    0  0.00000000000E+00  0.00000000000E+00  0.91528713272E+02  0.70252644167E+03  0.69653850999E+03 0.  0.
        1    1    3    3  502    0 -0.16180858170E+03  0.16230216456E+03  0.31025422920E+03  0.38572230490E+03  0.50400001928E-02 0.  1.
       -1    1    3    3    0  502  0.16180858170E+03 -0.16230216456E+03 -0.21872551592E+03  0.31680413677E+03  0.50400001928E-02 0. -1.
</event>
<event>
 5   0  0.1079446E-02  0.7021062E+03  0.7818609E-02  0.9713637E-01
        2   -1    0    0  501    0  0.00000000000E+00  0.00000000000E+00  0.59805975979E+03  0.59805975980E+03  0.25500000920E-02 0.  1.
       -2   -1    0    0    0  501  0.00000000000E+00  0.00000000000E+00 -0.20606347098E+03  0.20606347100E+03  0.25500000920E-02 0. -1.
    10030    2    1    2    0    0  0.00000000000E+00  0.00000000000E+00  0.39199628881E+03  0.80412323080E+03  0.70210617421E+03 0.  0.
        2    1    3    3  502    0  0.33977875534E+03 -0.67097478836E+02  0.26165694712E+03  0.43406915604E+03  0.25500000920E-02 0.  1.
       -2    1    3    3    0  502 -0.33977875534E+03  0.67097478836E+02  0.13033934170E+03  0.37005407476E+03  0.25500000920E-02 0. -1.
</event>
<event>
 5   0  0.1100119E-02  0.6997237E+03  0.7818609E-02  0.9717705E-01
        2   -1    0    0  501    0  0.00000000000E+00  0.00000000000E+00  0.35268942045E+03  0.35268942046E+03  0.25500000920E-02 0.  1.
       -2   -1    0    0    0  501  0.00000000000E+00  0.00000000000E+00 -0.34705692582E+03  0.34705692583E+03  0.25500000920E-02 0. -1.
    10030    2    1    2    0    0  0.00000000000E+00  0.00000000000E+00  0.56324946293E+01  0.69974634629E+03  0.69972367700E+03 0.  0.
        4    1    3    3  502    0  0.13890139782E+03  0.13495072568E+03  0.29419554893E+03  0.35221858354E+03  0.12699999809E+01 0.  1.
       -4    1    3    3    0  502 -0.13890139782E+03 -0.13495072568E+03 -0.28856305430E+03  0.34752776276E+03  0.12699999809E+01 0. -1.
</event>
<event>
 5   0  0.6689415E-03  0.6999382E+03  0.7818609E-02  0.9717338E-01
       -1   -1    0    0    0  501  0.00000000000E+00  0.00000000000E+00  0.10724178059E+03  0.10724178071E+03  0.50400001928E-02 0. -1.
        1   -1    0    0  501    0  0.00000000000E+00  0.00000000000E+00 -0.11420769232E+04  0.11420769232E+04  0.50400001928E-02 0.  1.
    10030    2    1    2    0    0  0.00000000000E+00  0.00000000000E+00 -0.10348351426E+04  0.12493187039E+04  0.69993817698E+03 0.  0.
        1    1    3    3  502    0 -0.12711281703E+03 -0.30367604384E+03 -0.72937422918E+03  0.80022720153E+03  0.50400001928E-02 0.  1.
       -1    1    3    3    0  502  0.12711281703E+03  0.30367604384E+03 -0.30546091342E+03  0.44909150238E+03  0.50400001928E-02 0. -1.
</event>
<event>
 5   0  0.6785252E-03  0.6620882E+03  0.7818609E-02  0.9784357E-01
        1   -1    0    0  501    0  0.00000000000E+00  0.00000000000E+00  0.54872693301E+03  0.54872693303E+03  0.50400001928E-02 0. -1.
       -1   -1    0    0    0  501  0.00000000000E+00  0.00000000000E+00 -0.19971715819E+03  0.19971715825E+03  0.50400001928E-02 0.  1.
    10030    2    1    2    0    0  0.00000000000E+00  0.00000000000E+00  0.34900977482E+03  0.74844409128E+03  0.66208816245E+03 0.  0.
        3    1    3    3  502    0  0.15520100335E+03  0.27220146804E+03  0.53759427068E+02  0.31791677660E+03  0.10100000352E+00 0. -1.
       -3    1    3    3    0  502 -0.15520100335E+03 -0.27220146804E+03  0.29525034775E+03  0.43052731469E+03  0.10100000352E+00 0.  1.
</event>
<event>
 5   0  0.1079446E-02  0.6995620E+03  0.7818609E-02  0.9717982E-01
        2   -1    0    0  501    0  0.00000000000E+00  0.00000000000E+00  0.13411807949E+04  0.13411807949E+04  0.25500000920E-02 0. -1.
       -2   -1    0    0    0  501  0.00000000000E+00  0.00000000000E+00 -0.91223153916E+02  0.91223153952E+02  0.25500000920E-02 0.  1.
    10030    2    1    2    0    0  0.00000000000E+00  0.00000000000E+00  0.12499576410E+04  0.14324039489E+04  0.69956198327E+03 0.  0.
        2    1    3    3  502    0 -0.20600163719E+03  0.17599106797E+02  0.12026713720E+04  0.12203134155E+04  0.25500000920E-02 0. -1.
       -2    1    3    3    0  502  0.20600163719E+03 -0.17599106797E+02  0.47286268983E+02  0.21209053332E+03  0.25500000920E-02 0.  1.
</event>
<event>
 5   0  0.4440500E-03  0.6958310E+03  0.7818609E-02  0.9724388E-01
        3   -1    0    0  501    0  0.00000000000E+00  0.00000000000E+00  0.39694858619E+03  0.39694859903E+03  0.10100000352E+00 0.  1.
       -3   -1    0    0    0  501  0.00000000000E+00  0.00000000000E+00 -0.30493923248E+03  0.30493924921E+03  0.10100000352E+00 0. -1.
    10030    2    1    2    0    0  0.00000000000E+00  0.00000000000E+00  0.92009353706E+02  0.70188784824E+03  0.69583103577E+03 0.  0.
        4    1    3    3  502    0 -0.82456478220E+02 -0.25098415332E+03  0.27436314866E+03  0.38087907039E+03  0.12699999809E+01 0.  1.
       -4    1    3    3    0  502  0.82456478220E+02  0.25098415332E+03 -0.18235379496E+03  0.32100877785E+03  0.12699999809E+01 0. -1.
</event>
<event>
 5   0  0.6609285E-03  0.7010655E+03  0.7818609E-02  0.9715412E-01
       -1   -1    0    0    0  501  0.00000000000E+00  0.00000000000E+00  0.69662632367E+02  0.69662632549E+02  0.50400001928E-02 0.  1.
        1   -1    0    0  501    0  0.00000000000E+00  0.00000000000E+00 -0.17638323551E+04  0.17638323551E+04  0.50400001928E-02 0. -1.
    10030    2    1    2    0    0  0.00000000000E+00  0.00000000000E+00 -0.16941697227E+04  0.18334949877E+04  0.70106548934E+03 0.  0.
        2    1    3    3  502    0 -0.62616920518E+02 -0.22578077420E+03 -0.15289475440E+04  0.15467961822E+04  0.25500000920E-02 0. -1.
       -2    1    3    3    0  502  0.62616920518E+02  0.22578077420E+03 -0.16522217870E+03  0.28669880550E+03  0.25500000920E-02 0.  1.
</event>
<event>
 5   0  0.6609285E-03  0.7051764E+03  0.7818609E-02  0.9708421E-01
       -1   -1    0    0    0  501  0.00000000000E+00  0.00000000000E+00  0.25192093672E+03  0.25192093677E+03  0.50400001928E-02 0.  1.
        1   -1    0    0  501    0  0.00000000000E+00  0.00000000000E+00 -0.49348201132E+03  0.49348201135E+03  0.50400001928E-02 0. -1.
    10030    2    1    2    0    0  0.00000000000E+00  0.00000000000E+00 -0.24156107461E+03  0.74540294811E+03  0.70517643345E+03 0.  0.
        2    1    3    3  502    0 -0.22080840138E+03 -0.20349167072E+03  0.74567599598E+02  0.30939543805E+03  0.25500000920E-02 0.  1.
       -2    1    3    3    0  502  0.22080840138E+03  0.20349167072E+03 -0.31612867421E+03  0.43600751006E+03  0.25500000920E-02 0. -1.
</event>
<event>
 5   0  0.6246998E-03  0.6990085E+03  0.7818609E-02  0.9718929E-01
        1   -1    0    0  501    0  0.00000000000E+00  0.00000000000E+00  0.26386631757E+03  0.26386631762E+03  0.50400001928E-02 0.  1.
       -1   -1    0    0    0  501  0.00000000000E+00  0.00000000000E+00 -0.46293597934E+03  0.46293597937E+03  0.50400001928E-02 0. -1.
    10030    2    1    2    0    0  0.00000000000E+00  0.00000000000E+00 -0.19906966177E+03  0.72680229699E+03  0.69900847539E+03 0.  0.
        4    1    3    3  502    0 -0.46525097055E+02 -0.34104097183E+03 -0.36476299325E+02  0.34612954574E+03  0.12699999809E+01 0.  1.
       -4    1    3    3    0  502  0.46525097055E+02  0.34104097183E+03 -0.16259336245E+03  0.38067275124E+03  0.12699999809E+01 0. -1.
</event>
<event>
 5   0  0.1079446E-02  0.6992067E+03  0.7818609E-02  0.9718590E-01
       -2   -1    0    0    0  501  0.00000000000E+00  0.00000000000E+00  0.16110386377E+03  0.16110386379E+03  0.25500000920E-02 0. -1.
        2   -1    0    0  501    0  0.00000000000E+00  0.00000000000E+00 -0.75865660611E+03  0.75865660612E+03  0.25500000920E-02 0.  1.
    10030    2    1    2    0    0  0.00000000000E+00  0.00000000000E+00 -0.59755274234E+03  0.91976046991E+03  0.69920672346E+03 0.  0.
        2    1    3    3  502    0 -0.49726109089E+02  0.16953192440E+03 -0.69561205927E+03  0.71769763572E+03  0.25500000920E-02 0.  1.
       -2    1    3    3    0  502  0.49726109089E+02 -0.16953192440E+03  0.98059316930E+02  0.20206283419E+03  0.25500000920E-02 0. -1.
</event>
<event>
 5   0  0.6689415E-03  0.6957627E+03  0.7818609E-02  0.9724506E-01
        1   -1    0    0  501    0  0.00000000000E+00  0.00000000000E+00  0.71334561093E+03  0.71334561094E+03  0.50400001928E-02 0.  1.
       -1   -1    0    0    0  501  0.00000000000E+00  0.00000000000E+00 -0.16965331567E+03  0.16965331575E+03  0.50400001928E-02 0. -1.
    10030    2    1    2    0    0  0.00000000000E+00  0.00000000000E+00  0.54369229525E+03  0.88299892669E+03  0.69576274162E+03 0.  0.
        1    1    3    3  502    0  0.52726949027E+02 -0.25944122774E+03  0.55825901392E+03  0.61785354936E+03  0.50400001928E-02 0.  1.
       -1    1    3    3    0  502 -0.52726949027E+02  0.25944122774E+03 -0.14566718666E+02  0.26514537734E+03  0.50400001928E-02 0. -1.
</event>
<event>
 5   0  0.1079446E-02  0.7007844E+03  0.7818609E-02  0.9715892E-01
        2   -1    0    0  501    0  0.00000000000E+00  0.00000000000E+00  0.13940623295E+04  0.13940623295E+04  0.25500000920E-02 0. -1.
       -2   -1    0    0    0  501  0.00000000000E+00  0.00000000000E+00 -0.88069726839E+02  0.88069726876E+02  0.25500000920E-02 0.  1.
    10030    2    1    2    0    0  0.00000000000E+00  0.00000000000E+00  0.13059926027E+04  0.14821320564E+04  0.70078438506E+03 0.  0.
        2    1    3    3  502    0 -0.32105603522E+03 -0.66999567098E+02  0.91382148008E+03  0.97089423585E+03  0.25500000920E-02 0. -1.
       -2    1    3    3    0  502  0.32105603522E+03  0.66999567098E+02  0.39217112257E+03  0.51123782052E+03  0.25500000920E-02 0.  1.
</event>
<event>
 5   0  0.1079446E-02  0.7001099E+03  0.7818609E-02  0.9717044E-01
       -2   -1    0    0    0  501  0.00000000000E+00  0.00000000000E+00  0.25961400150E+03  0.25961400151E+03  0.25500000920E-02 0.  1.
        2   -1    0    0  501    0  0.00000000000E+00  0.00000000000E+00 -0.47200255736E+03  0.47200255737E+03  0.25500000920E-02 0. -1.
    10030    2    1    2    0    0  0.00000000000E+00  0.00000000000E+00 -0.21238855586E+03  0.73161655888E+03  0.70010991320E+03 0.  0.
        2    1    3    3  502    0 -0.73404765986E+02 -0.98611950921E+02 -0.44870312341E+03  0.46523872313E+03  0.25500000920E-02 0. -1.
       -2    1    3    3    0  502  0.73404765986E+02  0.98611950921E+02  0.23631456755E+03  0.26637783575E+03  0.25500000920E-02 0.  1.
</event>
<event>
 5   0  0.1079446E-02  0.6974538E+03  0.7818609E-02  0.9721596E-01
       -2   -1    0    0    0  501  0.00000000000E+00  0.00000000000E+00  0.19496253960E+03  0.19496253961E+03  0.25500000920E-02 0. -1.
        2   -1    0    0  501    0  0.00000000000E+00  0.00000000000E+00 -0.62376321894E+03  0.62376321894E+03  0.25500000920E-02 0.  1.
    10030    2    1    2    0    0  0.00000000000E+00  0.00000000000E+00 -0.42880067934E+03  0.81872575855E+03  0.69745383010E+03 0.  0.
        2    1    3    3  502    0  0.42003153883E+02 -0.26822057077E+03  0.42525938260E+02  0.27479991804E+03  0.25500000920E-02 0. -1.
       -2    1    3    3    0  502 -0.42003153883E+02  0.26822057077E+03 -0.47132661760E+03  0.54392584052E+03  0.25500000920E-02 0.  1.
</event>
<event>
 5   0  0.1109788E-02  0.7014194E+03  0.7818609E-02  0.9714808E-01
        2   -1    0    0  501    0  0.00000000000E+00  0.00000000000E+00  0.25930419070E+03  0.25930419071E+03  0.25500000920E-02 0. -1.
       -2   -1    0    0    0  501  0.00000000000E+00  0.00000000000E+00 -0.47433587923E+03  0.47433587924E+03  0.25500000920E-02 0.  1.
    10030    2    1    2    0    0  0.00000000000E+00  0.00000000000E+00 -0.21503168853E+03  0.73364006995E+03  0.70141936469E+03 0.  0.
        1    1    3    3  502    0 -0.32135949715E+03 -0.77716632753E+02  0.14842983241E+02  0.33095636509E+03  0.50400001928E-02 0. -1.
       -1    1    3    3    0  502  0.32135949715E+03  0.77716632753E+02 -0.22987467177E+03  0.40268370486E+03  0.50400001928E-02 0.  1.
</event>
<event>
 5   0  0.6609285E-03  0.6983084E+03  0.7818609E-02  0.9720129E-01
       -1   -1    0    0    0  501  0.00000000000E+00  0.00000000000E+00  0.45149656079E+03  0.45149656082E+03  0.50400001928E-02 0. -1.
        1   -1    0    0  501    0  0.00000000000E+00  0.00000000000E+00 -0.27001014391E+03  0.27001014396E+03  0.50400001928E-02 0.  1.
    10030    2    1    2    0    0  0.00000000000E+00  0.00000000000E+00  0.18148641688E+03  0.72150670478E+03  0.69830838855E+03 0.  0.
        2    1    3    3  502    0 -0.11148165873E+02  0.17520789108E+03 -0.22108849965E+03  0.28231580081E+03  0.25500000920E-02 0.  1.
       -2    1    3    3    0  502  0.11148165873E+02 -0.17520789108E+03  0.40257491654E+03  0.43919090397E+03  0.25500000920E-02 0. -1.
</event>
<event>
 5   0  0.1100119E-02  0.7121579E+03  0.7818609E-02  0.9696664E-01
        2   -1    0    0  501    0  0.00000000000E+00  0.00000000000E+00  0.44007271244E+03  0.44007271245E+03  0.25500000920E-02 0.  1.
       -2   -1    0    0    0  501  0.00000000000E+00  0.00000000000E+00 -0.28811653523E+03  0.28811653524E+03  0.25500000920E-02 0. -1.
    10030    2    1    2    0    0  0.00000000000E+00  0.00000000000E+00  0.15195617721E+03  0.72818924769E+03  0.71215791834E+03 0.  0.
        4    1    3    3  502    0 -0.15326879527E+03  0.24659577969E+03  0.28674884277E+03  0.40807758318E+03  0.12699999809E+01 0.  1.
       -4    1    3    3    0  502  0.15326879527E+03 -0.24659577969E+03 -0.13479266556E+03  0.32011166451E+03  0.12699999809E+01 0. -1.
</event>
<event>
 5   0  0.1099980E-02  0.6990980E+03  0.7818609E-02  0.9718776E-01
        2   -1    0    0  501    0  0.00000000000E+00  0.00000000000E+00  0.53199120926E+03  0.53199120927E+03  0.25500000920E-02 0. -1.
       -2   -1    0    0    0  501  0.00000000000E+00  0.00000000000E+00 -0.22967391724E+03  0.22967391726E+03  0.25500000920E-02 0.  1.
    10030    2    1    2    0    0  0.00000000000E+00  0.00000000000E+00  0.30231729202E+03  0.76166512652E+03  0.69909800451E+03 0.  0.
        5    1    3    3  502    0  0.27140565519E+03  0.15606611851E+03  0.32045101533E+03  0.44802746148E+03  0.46999998093E+01 0. -1.
       -5    1    3    3    0  502 -0.27140565519E+03 -0.15606611851E+03 -0.18133723313E+02  0.31363766504E+03  0.46999998093E+01 0.  1.
</event>
<event>
 5   0  0.6785252E-03  0.7004769E+03  0.7818609E-02  0.9716417E-01
        1   -1    0    0  501    0  0.00000000000E+00  0.00000000000E+00  0.62312808421E+03  0.62312808423E+03  0.50400001928E-02 0. -1.
       -1   -1    0    0    0  501  0.00000000000E+00  0.00000000000E+00 -0.19685677581E+03  0.19685677587E+03  0.50400001928E-02 0.  1.
    10030    2    1    2    0    0  0.00000000000E+00  0.00000000000E+00  0.42627130840E+03  0.81998486011E+03  0.70047693926E+03 0.  0.
        3    1    3    3  502    0  0.58547826527E+02 -0.28079111208E+03  0.44841205704E+03  0.53230149325E+03  0.10100000352E+00 0. -1.
       -3    1    3    3    0  502 -0.58547826527E+02  0.28079111208E+03 -0.22140748638E+02  0.28768336686E+03  0.10100000352E+00 0.  1.
</event>
<event>
 5   0  0.1099980E-02  0.6984552E+03  0.7818609E-02  0.9719878E-01
        2   -1    0    0  501    0  0.00000000000E+00  0.00000000000E+00  0.94579626673E+03  0.94579626673E+03  0.25500000920E-02 0.  1.
       -2   -1    0    0    0  501  0.00000000000E+00  0.00000000000E+00 -0.12894944604E+03  0.12894944606E+03  0.25500000920E-02 0. -1.
    10030    2    1    2    0    0  0.00000000000E+00  0.00000000000E+00  0.81684682069E+03  0.10747457128E+04  0.69845516585E+03 0.  0.
        5    1    3    3  502    0  0.11849237583E+03 -0.13815741376E+03  0.86698521672E+03  0.88589692974E+03  0.46999998093E+01 0.  1.
       -5    1    3    3    0  502 -0.11849237583E+03  0.13815741376E+03 -0.50138396031E+02  0.18884878306E+03  0.46999998093E+01 0. -1.
</event>
<event>
 5   0  0.6785252E-03  0.6943857E+03  0.7818609E-02  0.9726882E-01
        1   -1    0    0  501    0  0.00000000000E+00  0.00000000000E+00  0.48711402300E+03  0.48711402303E+03  0.50400001928E-02 0. -1.
       -1   -1    0    0    0  501  0.00000000000E+00  0.00000000000E+00 -0.24746336343E+03  0.24746336348E+03  0.50400001928E-02 0.  1.
    10030    2    1    2    0    0  0.00000000000E+00  0.00000000000E+00  0.23965065957E+03  0.73457738651E+03  0.69438569840E+03 0.  0.
        3    1    3    3  502    0 -0.15401189415E+02  0.32806606946E+03  0.70999600522E+00  0.32842816089E+03  0.10100000352E+00 0. -1.
       -3    1    3    3    0  502  0.15401189415E+02 -0.32806606946E+03  0.23894066356E+03  0.40614922562E+03  0.10100000352E+00 0.  1.
</event>
<event>
 5   0  0.1099980E-02  0.7092498E+03  0.7818609E-02  0.9701543E-01
       -2   -1    0    0    0  501  0.00000000000E+00  0.00000000000E+00  0.12618812157E+03  0.12618812160E+03  0.25500000920E-02 0.  1.
        2   -1    0    0  501    0  0.00000000000E+00  0.00000000000E+00 -0.99659780871E+03  0.99659780872E+03  0.25500000920E-02 0. -1.
    10030    2    1    2    0    0  0.00000000000E+00  0.00000000000E+00 -0.87040968714E+03  0.11227859303E+04  0.70924975985E+03 0.  0.
        5    1    3    3  502    0 -0.84986751963E+02 -0.39730828219E+01 -0.98015101815E+03  0.98384787532E+03  0.46999998093E+01 0. -1.
       -5    1    3    3    0  502  0.84986751963E+02  0.39730828219E+01  0.10974133101E+03  0.13893805500E+03  0.46999998093E+01 0.  1.
</event>
<event>
 5   0  0.1079446E-02  0.6973500E+03  0.7818609E-02  0.9721775E-01
       -2   -1    0    0    0  501  0.00000000000E+00  0.00000000000E+00  0.59409188449E+03  0.59409188450E+03  0.25500000920E-02 0.  1.
        2   -1    0    0  501    0  0.00000000000E+00  0.00000000000E+00 -0.20463878373E+03  0.20463878375E+03  0.25500000920E-02 0. -1.
    10030    2    1    2    0    0  0.00000000000E+00  0.00000000000E+00  0.38945310076E+03  0.79873066824E+03  0.69734995713E+03 0.  0.
        2    1    3    3  502    0 -0.22248649380E+03  0.16742886477E+03 -0.45643861246E+02  0.28216312084E+03  0.25500000920E-02 0. -1.
       -2    1    3    3    0  502  0.22248649380E+03 -0.16742886477E+03  0.43509696201E+03  0.51656754741E+03  0.25500000920E-02 0.  1.
</event>
<event>
 5   0  0.6246998E-03  0.6938787E+03  0.7818609E-02  0.9727758E-01
       -1   -1    0    0    0  501  0.00000000000E+00  0.00000000000E+00  0.24397173050E+03  0.24397173056E+03  0.50400001928E-02 0. -1.
        1   -1    0    0  501    0  0.00000000000E+00  0.00000000000E+00 -0.49336424611E+03  0.49336424613E+03  0.50400001928E-02 0.  1.
    10030    2    1    2    0    0  0.00000000000E+00  0.00000000000E+00 -0.24939251560E+03  0.73733597669E+03  0.69387874710E+03 0.  0.
        4    1    3    3  502    0 -0.33718483645E+03  0.78768919458E+02 -0.10172872246E+03  0.36089957395E+03  0.12699999809E+01 0.  1.
       -4    1    3    3    0  502  0.33718483645E+03 -0.78768919458E+02 -0.14766379314E+03  0.37643640274E+03  0.12699999809E+01 0. -1.
</event>
<event>
 5   0  0.6689415E-03  0.6951730E+03  0.7818609E-02  0.9725523E-01
       -1   -1    0    0    0  501  0.00000000000E+00  0.00000000000E+00  0.14848512202E+03  0.14848512210E+03  0.50400001928E-02 0.  1.
        1   -1    0    0  501    0  0.00000000000E+00  0.00000000000E+00 -0.81365981034E+03  0.81365981036E+03  0.50400001928E-02 0. -1.
    10030    2    1    2    0    0  0.00000000000E+00  0.00000000000E+00 -0.66517468832E+03  0.96214493246E+03  0.69517300370E+03 0.  0.
        1    1    3    3  502    0  0.11429791459E+03  0.27920324009E+03 -0.93673933982E+02  0.31590072568E+03  0.50400001928E-02 0.  1.
       -1    1    3    3    0  502 -0.11429791459E+03 -0.27920324009E+03 -0.57150075434E+03  0.64624420678E+03  0.50400001928E-02 0. -1.
</event>
<event>
 5   0  0.1100119E-02  0.7002366E+03  0.7818609E-02  0.9716828E-01
       -2   -1    0    0    0  501  0.00000000000E+00  0.00000000000E+00  0.48270277887E+03  0.48270277887E+03  0.25500000920E-02 0.  1.
        2   -1    0    0  501    0  0.00000000000E+00  0.00000000000E+00 -0.25395093630E+03  0.25395093631E+03  0.25500000920E-02 0. -1.
    10030    2    1    2    0    0  0.00000000000E+00  0.00000000000E+00  0.22875184257E+03  0.73665371519E+03  0.70023659617E+03 0.  0.
        4    1    3    3  502    0 -0.51589615577E+02 -0.18236922689E+03 -0.19531672585E+03  0.27215851934E+03  0.12699999809E+01 0. -1.
       -4    1    3    3    0  502  0.51589615577E+02  0.18236922689E+03  0.42406856842E+03  0.46449519585E+03  0.12699999809E+01 0.  1.
</event>
<event>
 5   0  0.1100119E-02  0.7020910E+03  0.7818609E-02  0.9713663E-01
       -2   -1    0    0    0  501  0.00000000000E+00  0.00000000000E+00  0.21946985561E+03  0.21946985563E+03  0.25500000920E-02 0. -1.
        2   -1    0    0  501    0  0.00000000000E+00  0.00000000000E+00 -0.56150289544E+03  0.56150289545E+03  0.25500000920E-02 0.  1.
    10030    2    1    2    0    0  0.00000000000E+00  0.00000000000E+00 -0.34203303983E+03  0.78097275107E+03  0.70209104651E+03 0.  0.
        4    1    3    3  502    0 -0.49456382667E+02 -0.15709005322E+03  0.17382734611E+03  0.23945934470E+03  0.12699999809E+01 0. -1.
       -4    1    3    3    0  502  0.49456382667E+02  0.15709005322E+03 -0.51586038594E+03  0.54151340638E+03  0.12699999809E+01 0.  1.
</event>
<event>
 5   0  0.1109788E-02  0.6962766E+03  0.7818609E-02  0.9723621E-01
        2   -1    0    0  501    0  0.00000000000E+00  0.00000000000E+00  0.21636806890E+03  0.21636806891E+03  0.25500000920E-02 0. -1.
       -2   -1    0    0    0  501  0.00000000000E+00  0.00000000000E+00 -0.56015783201E+03  0.56015783201E+03  0.25500000920E-02 0.  1.
    10030    2    1    2    0    0  0.00000000000E+00  0.00000000000E+00 -0.34378976311E+03  0.77652590092E+03  0.69627657837E+03 0.  0.
        1    1    3    3  502    0  0.92185304855E+02  0.33571138547E+03 -0.17182792277E+03  0.38823330593E+03  0.50400001928E-02 0.  1.
       -1    1    3    3    0  502 -0.92185304855E+02 -0.33571138547E+03 -0.17196184034E+03  0.38829259499E+03  0.50400001928E-02 0. -1.
</event>
<event>
 5   0  0.1099980E-02  0.6980998E+03  0.7818609E-02  0.9720487E-01
       -2   -1    0    0    0  501  0.00000000000E+00  0.00000000000E+00  0.72118321059E+02  0.72118321104E+02  0.25500000920E-02 0.  1.
        2   -1    0    0  501    0  0.00000000000E+00  0.00000000000E+00 -0.16893881595E+04  0.16893881595E+04  0.25500000920E-02 0. -1.
    10030    2    1    2    0    0  0.00000000000E+00  0.00000000000E+00 -0.16172698385E+04  0.17615064807E+04  0.69809981442E+03 0.  0.
        5    1    3    3  502    0  0.53126667171E+02  0.26495451218E+03 -0.25127727366E+03  0.36903345992E+03  0.46999998093E+01 0.  1.
       -5    1    3    3    0  502 -0.53126667171E+02 -0.26495451218E+03 -0.13659925648E+04  0.13924730207E+04  0.46999998093E+01 0. -1.
</event>
<event>
 5   0  0.6785252E-03  0.6966258E+03  0.7818609E-02  0.9723020E-01
        1   -1    0    0  501    0  0.00000000000E+00  0.00000000000E+00  0.21960672644E+04  0.21960672644E+04  0.50400001928E-02 0. -1.
       -1   -1    0    0    0  501  0.00000000000E+00  0.00000000000E+00 -0.55245060450E+02  0.55245060680E+02  0.50400001928E-02 0.  1.
    10030    2    1    2    0    0  0.00000000000E+00  0.00000000000E+00  0.21408222039E+04  0.22513123250E+04  0.69662577913E+03 0.  0.
        3    1    3    3  502    0 -0.26711220333E+03  0.16134520624E+03  0.15704504877E+04  0.16011545676E+04  0.10100000352E+00 0.  1.
       -3    1    3    3    0  502  0.26711220333E+03 -0.16134520624E+03  0.57037171619E+03  0.65015775745E+03  0.10100000352E+00 0. -1.
</event>
<event>
 5   0  0.6689415E-03  0.6953578E+03  0.7818609E-02  0.9725204E-01
        1   -1    0    0  501    0  0.00000000000E+00  0.00000000000E+00  0.65888642465E+03  0.65888642467E+03  0.50400001928E-02 0.  1.
       -1   -1    0    0    0  501  0.00000000000E+00  0.00000000000E+00 -0.18346199407E+03  0.18346199414E+03  0.50400001928E-02 0. -1.
    10030    2    1    2    0    0  0.00000000000E+00  0.00000000000E+00  0.47542443058E+03  0.84234841880E+03  0.69535779960E+03 0.  0.
        1    1    3    3  502    0 -0.69499724477E+02 -0.18459278049E+03 -0.10912569469E+03  0.22541766475E+03  0.50400001928E-02 0. -1.
       -1    1    3    3    0  502  0.69499724477E+02  0.18459278049E+03  0.58455012528E+03  0.61693075406E+03  0.50400001928E-02 0.  1.
</event>
<event>
 5   0  0.1079446E-02  0.6987246E+03  0.7818609E-02  0.9719416E-01
        2   -1    0    0  501    0  0.00000000000E+00  0.00000000000E+00  0.11189222213E+04  0.11189222213E+04  0.25500000920E-02 0.  1.
       -2   -1    0    0    0  501  0.00000000000E+00  0.00000000000E+00 -0.10908178571E+03  0.10908178574E+03  0.25500000920E-02 0. -1.
    10030    2    1    2    0    0  0.00000000000E+00  0.00000000000E+00  0.10098404356E+04  0.12280040071E+04  0.69872464962E+03 0.  0.
        2    1    3    3  502    0  0.17271765243E+03 -0.11527417126E+03  0.99869304144E+03  0.10200526031E+04  0.25500000920E-02 0.  1.
       -2    1    3    3    0  502 -0.17271765243E+03  0.11527417126E+03  0.11147394182E+02  0.20795140400E+03  0.25500000920E-02 0. -1.
</event>
<event>
 5   0  0.6990118E-03  0.7018980E+03  0.7818609E-02  0.9713992E-01
       -1   -1    0    0    0  501  0.00000000000E+00  0.00000000000E+00  0.79287550953E+02  0.79287551113E+02  0.50400001928E-02 0. -1.
        1   -1    0    0  501    0  0.00000000000E+00  0.00000000000E+00 -0.15533988677E+04  0.15533988677E+04  0.50400001928E-02 0.  1.
    10030    2    1    2    0    0  0.00000000000E+00  0.00000000000E+00 -0.14741113167E+04  0.16326864188E+04  0.70189797552E+03 0.  0.
        5    1    3    3  502    0  0.33017203089E+02  0.10598861446E+03  0.37293174800E+02  0.11720321233E+03  0.46999998093E+01 0. -1.
       -5    1    3    3    0  502 -0.33017203089E+02 -0.10598861446E+03 -0.15114044915E+04  0.15154832065E+04  0.46999998093E+01 0.  1.
</event>
<event>
 5   0  0.6689415E-03  0.7044429E+03  0.7818609E-02  0.9709664E-01
       -1   -1    0    0    0  501  0.00000000000E+00  0.00000000000E+00  0.56251151201E+03  0.56251151203E+03  0.50400001928E-02 0.  1.
        1   -1    0    0  501    0  0.00000000000E+00  0.00000000000E+00 -0.22054650124E+03  0.22054650130E+03  0.50400001928E-02 0. -1.
    10030    2    1    2    0    0  0.00000000000E+00  0.00000000000E+00  0.34196501076E+03  0.78305801333E+03  0.70444288885E+03 0.  0.
        1    1    3    3  502    0 -0.16794950053E+03 -0.29917837334E+03  0.82436041910E+02  0.35286036166E+03  0.50400001928E-02 0.  1.
       -1    1    3    3    0  502  0.16794950053E+03  0.29917837334E+03  0.25952896885E+03  0.43019765167E+03  0.50400001928E-02 0. -1.
</event>
<event>
 5   0  0.6609285E-03  0.7002361E+03  0.7818609E-02  0.9716828E-01
       -1   -1    0    0    0  501  0.00000000000E+00  0.00000000000E+00  0.40122128738E+03  0.40122128741E+03  0.50400001928E-02 0. -1.
        1   -1    0    0  501    0  0.00000000000E+00  0.00000000000E+00 -0.30552382659E+03  0.30552382663E+03  0.50400001928E-02 0.  1.
    10030    2    1    2    0    0  0.00000000000E+00  0.00000000000E+00  0.95697460789E+02  0.70674511404E+03  0.70023614032E+03 0.  0.
        2    1    3    3  502    0  0.13501119874E+03  0.16200924594E+03 -0.23422657095E+03  0.31517789596E+03  0.25500000920E-02 0.  1.
       -2    1    3    3    0  502 -0.13501119874E+03 -0.16200924594E+03  0.32992403173E+03  0.39156721808E+03  0.25500000920E-02 0. -1.
</event>
<event>
 5   0  0.1079446E-02  0.6938013E+03  0.7818609E-02  0.9727892E-01
        2   -1    0    0  501    0  0.00000000000E+00  0.00000000000E+00  0.21120343665E+03  0.21120343667E+03  0.25500000920E-02 0.  1.
       -2   -1    0    0    0  501  0.00000000000E+00  0.00000000000E+00 -0.56978266310E+03  0.56978266311E+03  0.25500000920E-02 0. -1.
    10030    2    1    2    0    0  0.00000000000E+00  0.00000000000E+00 -0.35857922645E+03  0.78098609978E+03  0.69380128740E+03 0.  0.
        2    1    3    3  502    0 -0.28571499924E+03  0.19099632810E+03 -0.23241561842E+03  0.41488513811E+03  0.25500000920E-02 0. -1.
       -2    1    3    3    0  502  0.28571499924E+03 -0.19099632810E+03 -0.12616360803E+03  0.36610096167E+03  0.25500000920E-02 0.  1.
</event>
<event>
 5   0  0.1119786E-02  0.7040048E+03  0.7818609E-02  0.9710408E-01
        2   -1    0    0  501    0  0.00000000000E+00  0.00000000000E+00  0.58277428520E+03  0.58277428520E+03  0.25500000920E-02 0.  1.
       -2   -1    0    0    0  501  0.00000000000E+00  0.00000000000E+00 -0.21261351637E+03  0.21261351639E+03  0.25500000920E-02 0. -1.
    10030    2    1    2    0    0  0.00000000000E+00  0.00000000000E+00  0.37016076882E+03  0.79538780159E+03  0.70400480122E+03 0.  0.
        3    1    3    3  502    0 -0.24577426787E+03  0.16202343555E+03 -0.32972165896E+02  0.29621572939E+03  0.10100000352E+00 0. -1.
       -3    1    3    3    0  502  0.24577426787E+03 -0.16202343555E+03  0.40313293472E+03  0.49917207220E+03  0.10100000352E+00 0.  1.
</event>
<event>
 5   0  0.6990118E-03  0.7002843E+03  0.7818609E-02  0.9716746E-01
        1   -1    0    0  501    0  0.00000000000E+00  0.00000000000E+00  0.35415978246E+03  0.35415978249E+03  0.50400001928E-02 0.  1.
       -1   -1    0    0    0  501  0.00000000000E+00  0.00000000000E+00 -0.34617008503E+03  0.34617008506E+03  0.50400001928E-02 0. -1.
    10030    2    1    2    0    0  0.00000000000E+00  0.00000000000E+00  0.79896974289E+01  0.70032986756E+03  0.70028429093E+03 0.  0.
        5    1    3    3  502    0  0.58334587191E+02 -0.56614181334E+01  0.34918749800E+03  0.35410305630E+03  0.46999998093E+01 0.  1.
       -5    1    3    3    0  502 -0.58334587191E+02  0.56614181334E+01 -0.34119780058E+03  0.34622681126E+03  0.46999998093E+01 0. -1.
</event>
<event>
 5   0  0.6689415E-03  0.6955446E+03  0.7818609E-02  0.9724882E-01
        1   -1    0    0  501    0  0.00000000000E+00  0.00000000000E+00  0.55707413671E+03  0.55707413673E+03  0.50400001928E-02 0.  1.
       -1   -1    0    0    0  501  0.00000000000E+00  0.00000000000E+00 -0.21710855361E+03  0.21710855367E+03  0.50400001928E-02 0. -1.
    10030    2    1    2    0    0  0.00000000000E+00  0.00000000000E+00  0.33996558310E+03  0.77418269041E+03  0.69554456394E+03 0.  0.
        1    1    3    3  502    0  0.84431209618E+02 -0.18348066502E+03 -0.14513655879E+03  0.24871349846E+03  0.50400001928E-02 0. -1.
       -1    1    3    3    0  502 -0.84431209618E+02  0.18348066502E+03  0.48510214189E+03  0.52546919195E+03  0.50400001928E-02 0.  1.
</event>
<event>
 5   0  0.6785252E-03  0.6927705E+03  0.7818609E-02  0.9729676E-01
        1   -1    0    0  501    0  0.00000000000E+00  0.00000000000E+00  0.20396857973E+03  0.20396857979E+03  0.50400001928E-02 0.  1.
       -1   -1    0    0    0  501  0.00000000000E+00  0.00000000000E+00 -0.58824127072E+03  0.58824127075E+03  0.50400001928E-02 0. -1.
    10030    2    1    2    0    0  0.00000000000E+00  0.00000000000E+00 -0.38427269100E+03  0.79220985053E+03  0.69277048597E+03 0.  0.
        3    1    3    3  502    0 -0.15431976065E+03  0.31006298791E+03 -0.19830312175E+03  0.39909620807E+03  0.10100000352E+00 0. -1.
       -3    1    3    3    0  502  0.15431976065E+03 -0.31006298791E+03 -0.18596956925E+03  0.39311364246E+03  0.10100000352E+00 0.  1.
</event>
<event>
 5   0  0.1099980E-02  0.6993800E+03  0.7818609E-02  0.9718293E-01
       -2   -1    0    0    0  501  0.00000000000E+00  0.00000000000E+00  0.26525102245E+03  0.26525102246E+03  0.25500000920E-02 0. -1.
        2   -1    0    0  501    0  0.00000000000E+00  0.00000000000E+00 -0.46100899594E+03  0.46100899595E+03  0.25500000920E-02 0.  1.
    10030    2    1    2    0    0  0.00000000000E+00  0.00000000000E+00 -0.19575797349E+03  0.72626001841E+03  0.69938003271E+03 0.  0.
        5    1    3    3  502    0  0.34720479045E+03 -0.10911820502E+02 -0.13929653680E+03  0.37429380104E+03  0.46999998093E+01 0.  1.
       -5    1    3    3    0  502 -0.34720479045E+03  0.10911820502E+02 -0.56461436695E+02  0.35196621737E+03  0.46999998093E+01 0. -1.
</event>
<event>
 5   0  0.6990118E-03  0.6611662E+03  0.7818609E-02  0.9786049E-01
        1   -1    0    0  501    0  0.00000000000E+00  0.00000000000E+00  0.40526838778E+03  0.40526838781E+03  0.50400001928E-02 0. -1.
       -1   -1    0    0    0  501  0.00000000000E+00  0.00000000000E+00 -0.26966125889E+03  0.26966125894E+03  0.50400001928E-02 0.  1.
    10030    2    1    2    0    0  0.00000000000E+00  0.00000000000E+00  0.13560712889E+03  0.67492964675E+03  0.66116619292E+03 0.  0.
        5    1    3    3  502    0  0.33057629098E+02  0.19684459674E+03  0.33676992379E+03  0.39150564961E+03  0.46999998093E+01 0. -1.
       -5    1    3    3    0  502 -0.33057629098E+02 -0.19684459674E+03 -0.20116279490E+03  0.28342399714E+03  0.46999998093E+01 0.  1.
</event>
<event>
 5   0  0.1079446E-02  0.6998591E+03  0.7818609E-02  0.9717473E-01
       -2   -1    0    0    0  501  0.00000000000E+00  0.00000000000E+00  0.12528492950E+03  0.12528492953E+03  0.25500000920E-02 0. -1.
        2   -1    0    0  501    0  0.00000000000E+00  0.00000000000E+00 -0.97737752728E+03  0.97737752728E+03  0.25500000920E-02 0.  1.
    10030    2    1    2    0    0  0.00000000000E+00  0.00000000000E+00 -0.85209259778E+03  0.11026624568E+04  0.69985905614E+03 0.  0.
        2    1    3    3  502    0 -0.17390779859E+03 -0.28236128223E+03 -0.25004355791E+03  0.41532348473E+03  0.25500000920E-02 0. -1.
       -2    1    3    3    0  502  0.17390779859E+03  0.28236128223E+03 -0.60204903987E+03  0.68733897207E+03  0.25500000920E-02 0.  1.
</event>
<event>
 5   0  0.1079446E-02  0.6977006E+03  0.7818609E-02  0.9721173E-01
        2   -1    0    0  501    0  0.00000000000E+00  0.00000000000E+00  0.30051943776E+03  0.30051943777E+03  0.25500000920E-02 0.  1.
       -2   -1    0    0    0  501  0.00000000000E+00  0.00000000000E+00 -0.40495396513E+03  0.40495396514E+03  0.25500000920E-02 0. -1.
    10030    2    1    2    0    0  0.00000000000E+00  0.00000000000E+00 -0.10443452737E+03  0.70547340290E+03  0.69770061753E+03 0.  0.
        2    1    3    3  502    0 -0.18474123561E+03  0.42761248403E+01  0.24696576573E+03  0.30844723831E+03  0.25500000920E-02 0.  1.
       -2    1    3    3    0  502  0.18474123561E+03 -0.42761248403E+01 -0.35140029309E+03  0.39702616459E+03  0.25500000920E-02 0. -1.
</event>
<event>
 5   0  0.1099980E-02  0.6926104E+03  0.7818609E-02  0.9729953E-01
        2   -1    0    0  501    0  0.00000000000E+00  0.00000000000E+00  0.16382328676E+04  0.16382328676E+04  0.25500000920E-02 0.  1.
       -2   -1    0    0    0  501  0.00000000000E+00  0.00000000000E+00 -0.73205279630E+02  0.73205279674E+02  0.25500000920E-02 0. -1.
    10030    2    1    2    0    0  0.00000000000E+00  0.00000000000E+00  0.15650275879E+04  0.17114381472E+04  0.69261041057E+03 0.  0.
        5    1    3    3  502    0  0.35792301119E+01  0.25123686752E+03  0.13712773740E+04  0.13941149526E+04  0.46999998093E+01 0.  1.
       -5    1    3    3    0  502 -0.35792301119E+01 -0.25123686752E+03  0.19375021393E+03  0.31732319468E+03  0.46999998093E+01 0. -1.
</event>
<event>
 5   0  0.1109788E-02  0.6992965E+03  0.7818609E-02  0.9718436E-01
       -2   -1    0    0    0  501  0.00000000000E+00  0.00000000000E+00  0.89963183002E+03  0.89963183003E+03  0.25500000920E-02 0. -1.
        2   -1    0    0  501    0  0.00000000000E+00  0.00000000000E+00 -0.13589327154E+03  0.13589327156E+03  0.25500000920E-02 0.  1.
    10030    2    1    2    0    0  0.00000000000E+00  0.00000000000E+00  0.76373855849E+03  0.10355251016E+04  0.69929653960E+03 0.  0.
        1    1    3    3  502    0  0.33962072148E+03 -0.30325784971E+02  0.26724250926E+03  0.43322101342E+03  0.50400001928E-02 0.  1.
       -1    1    3    3    0  502 -0.33962072148E+03  0.30325784971E+02  0.49649604923E+03  0.60230408816E+03  0.50400001928E-02 0. -1.
</event>
<event>
 5   0  0.1079446E-02  0.7027264E+03  0.7818609E-02  0.9712581E-01
        2   -1    0    0  501    0  0.00000000000E+00  0.00000000000E+00  0.63899544405E+03  0.63899544405E+03  0.25500000920E-02 0. -1.
       -2   -1    0    0    0  501  0.00000000000E+00  0.00000000000E+00 -0.19320338279E+03  0.19320338280E+03  0.25500000920E-02 0.  1.
    10030    2    1    2    0    0  0.00000000000E+00  0.00000000000E+00  0.44579206126E+03  0.83219882686E+03  0.70272635181E+03 0.  0.
        2    1    3    3  502    0 -0.93000175605E+02 -0.32575404004E+03  0.11249208817E+03  0.35695825690E+03  0.25500000920E-02 0. -1.
       -2    1    3    3    0  502  0.93000175605E+02  0.32575404004E+03  0.33329997309E+03  0.47524056996E+03  0.25500000920E-02 0.  1.
</event>
<event>
 5   0  0.1109788E-02  0.7013472E+03  0.7818609E-02  0.9714931E-01
        2   -1    0    0  501    0  0.00000000000E+00  0.00000000000E+00  0.11882872777E+04  0.11882872777E+04  0.25500000920E-02 0. -1.
       -2   -1    0    0    0  501  0.00000000000E+00  0.00000000000E+00 -0.10348673371E+03  0.10348673374E+03  0.25500000920E-02 0.  1.
    10030    2    1    2    0    0  0.00000000000E+00  0.00000000000E+00  0.10848005440E+04  0.12917740114E+04  0.70134718676E+03 0.  0.
        1    1    3    3  502    0 -0.43045086089E+02  0.53557124147E+02 -0.90966664154E+02  0.11400078507E+03  0.50400001928E-02 0.  1.
       -1    1    3    3    0  502  0.43045086089E+02 -0.53557124147E+02  0.11757672081E+04  0.11777732263E+04  0.50400001928E-02 0. -1.
</event>
<event>
 5   0  0.6609285E-03  0.6997794E+03  0.7818609E-02  0.9717610E-01
       -1   -1    0    0    0  501  0.00000000000E+00  0.00000000000E+00  0.30492145854E+03  0.30492145859E+03  0.50400001928E-02 0. -1.
        1   -1    0    0  501    0  0.00000000000E+00  0.00000000000E+00 -0.40148962026E+03  0.40148962029E+03  0.50400001928E-02 0.  1.
    10030    2    1    2    0    0  0.00000000000E+00  0.00000000000E+00 -0.96568161716E+02  0.70641107888E+03  0.69977939560E+03 0.  0.
        2    1    3    3  502    0 -0.16645337415E+02 -0.31617789734E+03  0.10204756030E+03  0.33265482801E+03  0.25500000920E-02 0.  1.
       -2    1    3    3    0  502  0.16645337415E+02  0.31617789734E+03 -0.19861572201E+03  0.37375625087E+03  0.25500000920E-02 0. -1.
</event>
<event>
 5   0  0.6246998E-03  0.7006555E+03  0.7818609E-02  0.9716112E-01
        1   -1    0    0  501    0  0.00000000000E+00  0.00000000000E+00  0.84136364972E+03  0.84136364973E+03  0.50400001928E-02 0.  1.
       -1   -1    0    0    0  501  0.00000000000E+00  0.00000000000E+00 -0.14586980305E+03  0.14586980313E+03  0.50400001928E-02 0. -1.
    10030    2    1    2    0    0  0.00000000000E+00  0.00000000000E+00  0.69549384667E+03  0.98723345287E+03  0.70065554997E+03 0.  0.
        4    1    3    3  502    0  0.20814861485E+03  0.25474958103E+03  0.17805143236E+03  0.37406833650E+03  0.12699999809E+01 0. -1.
       -4    1    3    3    0  502 -0.20814861485E+03 -0.25474958103E+03  0.51744241431E+03  0.61316511637E+03  0.12699999809E+01 0.  1.
</event>
<event>
 5   0  0.6246998E-03  0.6998768E+03  0.7818609E-02  0.9717443E-01
        1   -1    0    0  501    0  0.00000000000E+00  0.00000000000E+00  0.80943297379E+03  0.80943297381E+03  0.50400001928E-02 0.  1.
       -1   -1    0    0    0  501  0.00000000000E+00  0.00000000000E+00 -0.15128726078E+03  0.15128726086E+03  0.50400001928E-02 0. -1.
    10030    2    1    2    0    0  0.00000000000E+00  0.00000000000E+00  0.65814571302E+03  0.96072023467E+03  0.69987683898E+03 0.  0.
        4    1    3    3  502    0 -0.24408351444E+03  0.31598085690E+02 -0.12395733885E+02  0.24643552536E+03  0.12699999809E+01 0. -1.
       -4    1    3    3    0  502  0.24408351444E+03 -0.31598085690E+02  0.67054144690E+03  0.71428470931E+03  0.12699999809E+01 0.  1.
</event>
<event>
 5   0  0.1100119E-02  0.6940813E+03  0.7818609E-02  0.9727408E-01
        2   -1    0    0  501    0  0.00000000000E+00  0.00000000000E+00  0.16453979254E+04  0.16453979254E+04  0.25500000920E-02 0. -1.
       -2   -1    0    0    0  501  0.00000000000E+00  0.00000000000E+00 -0.73196405026E+02  0.73196405071E+02  0.25500000920E-02 0.  1.
    10030    2    1    2    0    0  0.00000000000E+00  0.00000000000E+00  0.15722015203E+04  0.17185943304E+04  0.69408130075E+03 0.  0.
        4    1    3    3  502    0  0.27186327868E+03  0.14370699162E+03  0.11843885438E+04  0.12236581130E+04  0.12699999809E+01 0. -1.
       -4    1    3    3    0  502 -0.27186327868E+03 -0.14370699162E+03  0.38781297650E+03  0.49493621748E+03  0.12699999809E+01 0.  1.
</event>
<event>
 5   0  0.6990118E-03  0.6996353E+03  0.7818609E-02  0.9717856E-01
        1   -1    0    0  501    0  0.00000000000E+00  0.00000000000E+00  0.16260722187E+04  0.16260722187E+04  0.50400001928E-02 0.  1.
       -1   -1    0    0    0  501  0.00000000000E+00  0.00000000000E+00 -0.75256419071E+02  0.75256419240E+02  0.50400001928E-02 0. -1.
    10030    2    1    2    0    0  0.00000000000E+00  0.00000000000E+00  0.15508157996E+04  0.17013286379E+04  0.69963525491E+03 0.  0.
        5    1    3    3  502    0  0.75837814704E+02 -0.83507060199E+02 -0.29733724151E+02  0.11675182051E+03  0.46999998093E+01 0. -1.
       -5    1    3    3    0  502 -0.75837814704E+02  0.83507060199E+02  0.15805495238E+04  0.15845768174E+04  0.46999998093E+01 0.  1.
</event>
<event>
 5   0  0.6609285E-03  0.6827253E+03  0.7818609E-02  0.9747239E-01
        1   -1    0    0  501    0  0.00000000000E+00  0.00000000000E+00  0.52910828748E+03  0.52910828750E+03  0.50400001928E-02 0.  1.
       -1   -1    0    0    0  501  0.00000000000E+00  0.00000000000E+00 -0.22023553526E+03  0.22023553531E+03  0.50400001928E-02 0. -1.
    10030    2    1    2    0    0  0.00000000000E+00  0.00000000000E+00  0.30887275222E+03  0.74934382281E+03  0.68272526519E+03 0.  0.
        2    1    3    3  502    0 -0.14746409026E+03 -0.70858773868E+02  0.48327361222E+03  0.51021564855E+03  0.25500000920E-02 0.  1.
       -2    1    3    3    0  502  0.14746409026E+03  0.70858773868E+02 -0.17440086000E+03  0.23912817426E+03  0.25500000920E-02 0. -1.
</event>
<event>
 5   0  0.6246998E-03  0.7042085E+03  0.7818609E-02  0.9710062E-01
       -1   -1    0    0    0  501  0.00000000000E+00  0.00000000000E+00  0.73184558381E+03  0.73184558382E+03  0.50400001928E-02 0. -1.
        1   -1    0    0  501    0  0.00000000000E+00  0.00000000000E+00 -0.16940377668E+03  0.16940377676E+03  0.50400001928E-02 0.  1.
    10030    2    1    2    0    0  0.00000000000E+00  0.00000000000E+00  0.56244180712E+03  0.90124936058E+03  0.70420850857E+03 0.  0.
        4    1    3    3  502    0  0.18007807202E+03 -0.29801071616E+03  0.21426260251E+03  0.40883807883E+03  0.12699999809E+01 0.  1.
       -4    1    3    3    0  502 -0.18007807202E+03  0.29801071616E+03  0.34817920462E+03  0.49241128175E+03  0.12699999809E+01 0. -1.
</event>
<event>
 5   0  0.6246998E-03  0.6997750E+03  0.7818609E-02  0.9717617E-01
       -1   -1    0    0    0  501  0.00000000000E+00  0.00000000000E+00  0.19326776757E+03  0.19326776763E+03  0.50400001928E-02 0. -1.
        1   -1    0    0  501    0  0.00000000000E+00  0.00000000000E+00 -0.63342823209E+03  0.63342823211E+03  0.50400001928E-02 0.  1.
    10030    2    1    2    0    0  0.00000000000E+00  0.00000000000E+00 -0.44016046453E+03  0.82669599975E+03  0.69977499345E+03 0.  0.
        4    1    3    3  502    0  0.24084496622E+03  0.25371365502E+03 -0.22780274763E+03  0.41745972408E+03  0.12699999809E+01 0. -1.
       -4    1    3    3    0  502 -0.24084496622E+03 -0.25371365502E+03 -0.21235771689E+03  0.40923627567E+03  0.12699999809E+01 0.  1.
</event>
<event>
 5   0  0.1119786E-02  0.7363191E+03  0.7818609E-02  0.9657061E-01
        2   -1    0    0  501    0  0.00000000000E+00  0.00000000000E+00  0.73632395117E+03  0.73632395118E+03  0.25500000920E-02 0.  1.
       -2   -1    0    0    0  501  0.00000000000E+00  0.00000000000E+00 -0.18407855655E+03  0.18407855656E+03  0.25500000920E-02 0. -1.
    10030    2    1    2    0    0  0.00000000000E+00  0.00000000000E+00  0.55224539463E+03  0.92040250774E+03  0.73631908869E+03 0.  0.
        3    1    3    3  502    0 -0.22812583591E+03  0.25373080934E+03  0.10327490119E+03  0.35649184567E+03  0.10100000352E+00 0. -1.
       -3    1    3    3    0  502  0.22812583591E+03 -0.25373080934E+03  0.44897049344E+03  0.56391066207E+03  0.10100000352E+00 0.  1.
</event>
<event>
 5   0  0.6609285E-03  0.6980215E+03  0.7818609E-02  0.9720622E-01
        1   -1    0    0  501    0  0.00000000000E+00  0.00000000000E+00  0.71858927879E+03  0.71858927881E+03  0.50400001928E-02 0. -1.
       -1   -1    0    0    0  501  0.00000000000E+00  0.00000000000E+00 -0.16951060899E+03  0.16951060907E+03  0.50400001928E-02 0.  1.
    10030    2    1    2    0    0  0.00000000000E+00  0.00000000000E+00  0.54907866980E+03  0.88809988788E+03  0.69802150770E+03 0.  0.
        2    1    3    3  502    0 -0.28065671578E+03  0.14538611911E+03  0.86240903810E+02  0.32763212486E+03  0.25500000920E-02 0.  1.
       -2    1    3    3    0  502  0.28065671578E+03 -0.14538611911E+03  0.46283776599E+03  0.56046776301E+03  0.25500000920E-02 0. -1.
</event>
<event>
 5   0  0.1119786E-02  0.6993764E+03  0.7818609E-02  0.9718299E-01
       -2   -1    0    0    0  501  0.00000000000E+00  0.00000000000E+00  0.14318366317E+03  0.14318366319E+03  0.25500000920E-02 0.  1.
        2   -1    0    0  501    0  0.00000000000E+00  0.00000000000E+00 -0.85402099215E+03  0.85402099216E+03  0.25500000920E-02 0. -1.
    10030    2    1    2    0    0  0.00000000000E+00  0.00000000000E+00 -0.71083732899E+03  0.99720465534E+03  0.69937644825E+03 0.  0.
        3    1    3    3  502    0 -0.33394344453E+02 -0.24948611531E+03 -0.70153091556E+03  0.74532150087E+03  0.10100000352E+00 0. -1.
       -3    1    3    3    0  502  0.33394344453E+02  0.24948611531E+03 -0.93064134301E+01  0.25188315447E+03  0.10100000352E+00 0.  1.
</event>
<event>
 5   0  0.6990118E-03  0.7002826E+03  0.7818609E-02  0.9716749E-01
        1   -1    0    0  501    0  0.00000000000E+00  0.00000000000E+00  0.12237251781E+04  0.12237251781E+04  0.50400001928E-02 0. -1.
       -1   -1    0    0    0  501  0.00000000000E+00  0.00000000000E+00 -0.10018502994E+03  0.10018503006E+03  0.50400001928E-02 0.  1.
    10030    2    1    2    0    0  0.00000000000E+00  0.00000000000E+00  0.11235401481E+04  0.13239102082E+04  0.70028263920E+03 0.  0.
        5    1    3    3  502    0 -0.33101559479E+03  0.61307250174E+02  0.37997402362E+03  0.50767337092E+03  0.46999998093E+01 0.  1.
       -5    1    3    3    0  502  0.33101559479E+03 -0.61307250174E+02  0.74356612453E+03  0.81623683724E+03  0.46999998093E+01 0. -1.
</event>
<event>
 5   0  0.1119786E-02  0.7000890E+03  0.7818609E-02  0.9717080E-01
       -2   -1    0    0    0  501  0.00000000000E+00  0.00000000000E+00  0.54705263965E+02  0.54705264025E+02  0.25500000920E-02 0. -1.
        2   -1    0    0  501    0  0.00000000000E+00  0.00000000000E+00 -0.22398418412E+04  0.22398418412E+04  0.25500000920E-02 0.  1.
    10030    2    1    2    0    0  0.00000000000E+00  0.00000000000E+00 -0.21851365772E+04  0.22945471052E+04  0.70008896358E+03 0.  0.
        3    1    3    3  502    0 -0.22113205016E+03  0.39713816115E+02 -0.21278749560E+03  0.30944320849E+03  0.10100000352E+00 0. -1.
       -3    1    3    3    0  502  0.22113205016E+03 -0.39713816115E+02 -0.19723490816E+04  0.19851038967E+04  0.10100000352E+00 0.  1.
</event>
<event>
 5   0  0.6689415E-03  0.6959485E+03  0.7818609E-02  0.9724186E-01
       -1   -1    0    0    0  501  0.00000000000E+00  0.00000000000E+00  0.14544484253E+03  0.14544484262E+03  0.50400001928E-02 0. -1.
        1   -1    0    0  501    0  0.00000000000E+00  0.00000000000E+00 -0.83252225466E+03  0.83252225467E+03  0.50400001928E-02 0.  1.
    10030    2    1    2    0    0  0.00000000000E+00  0.00000000000E+00 -0.68707741213E+03  0.97796709729E+03  0.69594847016E+03 0.  0.
        1    1    3    3  502    0 -0.21073102985E+03 -0.11377268205E+03  0.11220516724E+02  0.23974505238E+03  0.50400001928E-02 0.  1.
       -1    1    3    3    0  502  0.21073102985E+03  0.11377268205E+03 -0.69829792885E+03  0.73822204491E+03  0.50400001928E-02 0. -1.
</event>
<event>
 5   0  0.6990118E-03  0.6913711E+03  0.7818609E-02  0.9732104E-01
        1   -1    0    0  501    0  0.00000000000E+00  0.00000000000E+00  0.15066991877E+04  0.15066991877E+04  0.50400001928E-02 0.  1.
       -1   -1    0    0    0  501  0.00000000000E+00  0.00000000000E+00 -0.79311461531E+02  0.79311461691E+02  0.50400001928E-02 0. -1.
    10030    2    1    2    0    0  0.00000000000E+00  0.00000000000E+00  0.14273877262E+04  0.15860106494E+04  0.69137114432E+03 0.  0.
        5    1    3    3  502    0  0.18106485169E+02 -0.34110809707E+03  0.59243985878E+03  0.68387839194E+03  0.46999998093E+01 0. -1.
       -5    1    3    3    0  502 -0.18106485169E+02  0.34110809707E+03  0.83494786740E+03  0.90213225747E+03  0.46999998093E+01 0.  1.
</event>
<event>
 5   0  0.1099980E-02  0.7022034E+03  0.7818609E-02  0.9713471E-01
        2   -1    0    0  501    0  0.00000000000E+00  0.00000000000E+00  0.19518027484E+04  0.19518027484E+04  0.25500000920E-02 0. -1.
       -2   -1    0    0    0  501  0.00000000000E+00  0.00000000000E+00 -0.63158235451E+02  0.63158235502E+02  0.25500000920E-02 0.  1.
    10030    2    1    2    0    0  0.00000000000E+00  0.00000000000E+00  0.18886445129E+04  0.20149609839E+04  0.70220343944E+03 0.  0.
        5    1    3    3  502    0  0.23419246897E+03  0.64562254529E+02  0.16715872745E+04  0.16891537832E+04  0.46999998093E+01 0. -1.
       -5    1    3    3    0  502 -0.23419246897E+03 -0.64562254529E+02  0.21705723845E+03  0.32580720064E+03  0.46999998093E+01 0.  1.
</event>
<event>
 5   0  0.6689415E-03  0.7012471E+03  0.7818609E-02  0.9715102E-01
       -1   -1    0    0    0  501  0.00000000000E+00  0.00000000000E+00  0.37702378673E+03  0.37702378677E+03  0.50400001928E-02 0. -1.
        1   -1    0    0  501    0  0.00000000000E+00  0.00000000000E+00 -0.32607197111E+03  0.32607197115E+03  0.50400001928E-02 0.  1.
    10030    2    1    2    0    0  0.00000000000E+00  0.00000000000E+00  0.50951815625E+02  0.70309575791E+03  0.70124714422E+03 0.  0.
        1    1    3    3  502    0 -0.30743575678E+03  0.14086945155E+03 -0.67374603342E+02  0.34481920499E+03  0.50400001928E-02 0.  1.
       -1    1    3    3    0  502  0.30743575678E+03 -0.14086945155E+03  0.11832641897E+03  0.35827655293E+03  0.50400001928E-02 0. -1.
</event>
<event>
 5   0  0.6609285E-03  0.6979378E+03  0.7818609E-02  0.9720765E-01
        1   -1    0    0  501    0  0.00000000000E+00  0.00000000000E+00  0.13059408038E+04  0.13059408039E+04  0.50400001928E-02 0.  1.
       -1   -1    0    0    0  501  0.00000000000E+00  0.00000000000E+00 -0.93250232151E+02  0.93250232287E+02  0.50400001928E-02 0. -1.
    10030    2    1    2    0    0  0.00000000000E+00  0.00000000000E+00  0.12126905717E+04  0.13991910361E+04  0.69793777154E+03 0.  0.
        2    1    3    3  502    0 -0.22072816204E+03 -0.27011389229E+03  0.62607419997E+03  0.71669473293E+03  0.25500000920E-02 0. -1.
       -2    1    3    3    0  502  0.22072816204E+03  0.27011389229E+03  0.58661637172E+03  0.68249630321E+03  0.25500000920E-02 0.  1.
</event>
<event>
 5   0  0.1079446E-02  0.6973294E+03  0.7818609E-02  0.9721810E-01
       -2   -1    0    0    0  501  0.00000000000E+00  0.00000000000E+00  0.92541807278E+02  0.92541807313E+02  0.25500000920E-02 0.  1.
        2   -1    0    0  501    0  0.00000000000E+00  0.00000000000E+00 -0.13136448189E+04  0.13136448189E+04  0.25500000920E-02 0. -1.
    10030    2    1    2    0    0  0.00000000000E+00  0.00000000000E+00 -0.12211030116E+04  0.14061866262E+04  0.69732937896E+03 0.  0.
        2    1    3    3  502    0  0.20935957271E+03 -0.26662835190E+03 -0.44617070696E+03  0.56034847057E+03  0.25500000920E-02 0.  1.
       -2    1    3    3    0  502 -0.20935957271E+03  0.26662835190E+03 -0.77493230468E+03  0.84583815566E+03  0.25500000920E-02 0. -1.
</event>
<event>
 5   0  0.1079446E-02  0.7001884E+03  0.7818609E-02  0.9716910E-01
       -2   -1    0    0    0  501  0.00000000000E+00  0.00000000000E+00  0.96664841958E+02  0.96664841991E+02  0.25500000920E-02 0. -1.
        2   -1    0    0  501    0  0.00000000000E+00  0.00000000000E+00 -0.12679475401E+04  0.12679475401E+04  0.25500000920E-02 0.  1.
    10030    2    1    2    0    0  0.00000000000E+00  0.00000000000E+00 -0.11712826982E+04  0.13646123821E+04  0.70018839922E+03 0.  0.
        2    1    3    3  502    0 -0.18933603133E+03 -0.24586630534E+03 -0.90150844906E+03  0.95342323057E+03  0.25500000920E-02 0.  1.
       -2    1    3    3    0  502  0.18933603133E+03  0.24586630534E+03 -0.26977424911E+03  0.41118915155E+03  0.25500000920E-02 0. -1.
</event>
<event>
 5   0  0.1100119E-02  0.6992187E+03  0.7818609E-02  0.9718569E-01
        2   -1    0    0  501    0  0.00000000000E+00  0.00000000000E+00  0.16355923053E+04  0.16355923053E+04  0.25500000920E-02 0.  1.
       -2   -1    0    0    0  501  0.00000000000E+00  0.00000000000E+00 -0.74729316198E+02  0.74729316242E+02  0.25500000920E-02 0. -1.
    10030    2    1    2    0    0  0.00000000000E+00  0.00000000000E+00  0.15608629891E+04  0.17103216216E+04  0.69921869138E+03 0.  0.
        4    1    3    3  502    0 -0.21118374534E+03 -0.15313400763E+03  0.21109350774E+03  0.33557514881E+03  0.12699999809E+01 0. -1.
       -4    1    3    3    0  502  0.21118374534E+03  0.15313400763E+03  0.13497694814E+04  0.13747464728E+04  0.12699999809E+01 0.  1.
</event>
<event>
 5   0  0.1109788E-02  0.7120391E+03  0.7818609E-02  0.9696862E-01
        2   -1    0    0  501    0  0.00000000000E+00  0.00000000000E+00  0.15863654379E+03  0.15863654381E+03  0.25500000920E-02 0.  1.
       -2   -1    0    0    0  501  0.00000000000E+00  0.00000000000E+00 -0.79899571419E+03  0.79899571420E+03  0.25500000920E-02 0. -1.
    10030    2    1    2    0    0  0.00000000000E+00  0.00000000000E+00 -0.64035917041E+03  0.95763225800E+03  0.71203909615E+03 0.  0.
        1    1    3    3  502    0  0.22883276473E+02 -0.34142104741E+03 -0.45235090826E+03  0.56719777872E+03  0.50400001928E-02 0. -1.
       -1    1    3    3    0  502 -0.22883276473E+02  0.34142104741E+03 -0.18800826214E+03  0.39043447928E+03  0.50400001928E-02 0.  1.
</event>
<event>
 5   0  0.1099980E-02  0.6985377E+03  0.7818609E-02  0.9719736E-01
       -2   -1    0    0    0  501  0.00000000000E+00  0.00000000000E+00  0.94023985548E+02  0.94023985583E+02  0.25500000920E-02 0.  1.
        2   -1    0    0  501    0  0.00000000000E+00  0.00000000000E+00 -0.12974214824E+04  0.12974214824E+04  0.25500000920E-02 0. -1.
    10030    2    1    2    0    0  0.00000000000E+00  0.00000000000E+00 -0.12033974969E+04  0.13914454680E+04  0.69853772623E+03 0.  0.
        5    1    3    3  502    0  0.18059167481E+03 -0.85413924611E+01 -0.65106436265E+01  0.18097178475E+03  0.46999998093E+01 0.  1.
       -5    1    3    3    0  502 -0.18059167481E+03  0.85413924611E+01 -0.11968868533E+04  0.12104736833E+04  0.46999998093E+01 0. -1.
</event>
<event>
 5   0  0.1079446E-02  0.7016175E+03  0.7818609E-02  0.9714470E-01
       -2   -1    0    0    0  501  0.00000000000E+00  0.00000000000E+00  0.11223563264E+03  0.11223563267E+03  0.25500000920E-02 0.  1.
        2   -1    0    0  501    0  0.00000000000E+00  0.00000000000E+00 -0.10965035246E+04  0.10965035246E+04  0.25500000920E-02 0. -1.
    10030    2    1    2    0    0  0.00000000000E+00  0.00000000000E+00 -0.98426789198E+03  0.12087391573E+04  0.70161746500E+03 0.  0.
        2    1    3    3  502    0  0.20076040570E+03 -0.18203292085E+03 -0.10834980928E+03  0.29185682440E+03  0.25500000920E-02 0.  1.
       -2    1    3    3    0  502 -0.20076040570E+03  0.18203292085E+03 -0.87591808270E+03  0.91688233290E+03  0.25500000920E-02 0. -1.
</event>
<event>
 5   0  0.1109788E-02  0.7016220E+03  0.7818609E-02  0.9714462E-01
       -2   -1    0    0    0  501  0.00000000000E+00  0.00000000000E+00  0.99870324270E+02  0.99870324302E+02  0.25500000920E-02 0. -1.
        2   -1    0    0  501    0  0.00000000000E+00  0.00000000000E+00 -0.12322816191E+04  0.12322816191E+04  0.25500000920E-02 0.  1.
    10030    2    1    2    0    0  0.00000000000E+00  0.00000000000E+00 -0.11324112949E+04  0.13321519434E+04  0.70162202051E+03 0.  0.
        1    1    3    3  502    0  0.51990509482E+02 -0.13943874273E+03 -0.11693814105E+04  0.11788125632E+04  0.50400001928E-02 0.  1.
       -1    1    3    3    0  502 -0.51990509482E+02  0.13943874273E+03  0.36970115604E+02  0.15333938021E+03  0.50400001928E-02 0. -1.
</event>
<event>
 5   0  0.6990118E-03  0.6976121E+03  0.7818609E-02  0.9721325E-01
       -1   -1    0    0    0  501  0.00000000000E+00  0.00000000000E+00  0.34876257609E+03  0.34876257613E+03  0.50400001928E-02 0. -1.
        1   -1    0    0  501    0  0.00000000000E+00  0.00000000000E+00 -0.34884951819E+03  0.34884951823E+03  0.50400001928E-02 0.  1.
    10030    2    1    2    0    0  0.00000000000E+00  0.00000000000E+00 -0.86942099863E-01  0.69761209435E+03  0.69761208893E+03 0.  0.
        5    1    3    3  502    0 -0.53500100674E+01 -0.12386051474E+03  0.32595272308E+03  0.34876541888E+03  0.46999998093E+01 0. -1.
       -5    1    3    3    0  502  0.53500100674E+01  0.12386051474E+03 -0.32603966518E+03  0.34884667548E+03  0.46999998093E+01 0.  1.
</event>
<event>
 5   0  0.6990118E-03  0.7057049E+03  0.7818609E-02  0.9707526E-01
       -1   -1    0    0    0  501  0.00000000000E+00  0.00000000000E+00  0.30164640623E+03  0.30164640627E+03  0.50400001928E-02 0. -1.
        1   -1    0    0  501    0  0.00000000000E+00  0.00000000000E+00 -0.41275096550E+03  0.41275096553E+03  0.50400001928E-02 0.  1.
    10030    2    1    2    0    0  0.00000000000E+00  0.00000000000E+00 -0.11110455927E+03  0.71439737180E+03  0.70570488290E+03 0.  0.
        5    1    3    3  502    0 -0.69212465527E+02  0.92527974908E+02 -0.39302157632E+03  0.40968261005E+03  0.46999998093E+01 0.  1.
       -5    1    3    3    0  502  0.69212465527E+02 -0.92527974908E+02  0.28191701705E+03  0.30471476175E+03  0.46999998093E+01 0. -1.
</event>
<event>
 5   0  0.6689415E-03  0.6999653E+03  0.7818609E-02  0.9717292E-01
        1   -1    0    0  501    0  0.00000000000E+00  0.00000000000E+00  0.91087468383E+03  0.91087468384E+03  0.50400001928E-02 0. -1.
       -1   -1    0    0    0  501  0.00000000000E+00  0.00000000000E+00 -0.13447278894E+03  0.13447278904E+03  0.50400001928E-02 0.  1.
    10030    2    1    2    0    0  0.00000000000E+00  0.00000000000E+00  0.77640189488E+03  0.10453474729E+04  0.69996531105E+03 0.  0.
        1    1    3    3  502    0  0.27820044241E+03  0.73115185792E+02  0.68593865103E+03  0.74380988804E+03  0.50400001928E-02 0. -1.
       -1    1    3    3    0  502 -0.27820044241E+03 -0.73115185792E+02  0.90463243857E+02  0.30153758483E+03  0.50400001928E-02 0.  1.
</event>
<event>
 5   0  0.4440500E-03  0.6987075E+03  0.7818609E-02  0.9719445E-01
        3   -1    0    0  501    0  0.00000000000E+00  0.00000000000E+00  0.57581425807E+02  0.57581514386E+02  0.10100000352E+00 0. -1.
       -3   -1    0    0    0  501  0.00000000000E+00  0.00000000000E+00 -0.21195711222E+04  0.21195711247E+04  0.10100000352E+00 0.  1.
    10030    2    1    2    0    0  0.00000000000E+00  0.00000000000E+00 -0.20619896964E+04  0.21771526390E+04  0.69870745341E+03 0.  0.
        3    1    3    3  502    0  0.87899916878E+02  0.30153783634E+03 -0.55437793393E+03  0.63717059408E+03  0.10100000352E+00 0. -1.
       -3    1    3    3    0  502 -0.87899916878E+02 -0.30153783634E+03 -0.15076117625E+04  0.15399820450E+04  0.10100000352E+00 0.  1.
</event>
<event>
 5   0  0.1099980E-02  0.6905647E+03  0.7818609E-02  0.9733505E-01
       -2   -1    0    0    0  501  0.00000000000E+00  0.00000000000E+00  0.11961407829E+03  0.11961407832E+03  0.25500000920E-02 0. -1.
        2   -1    0    0  501    0  0.00000000000E+00  0.00000000000E+00 -0.99670452920E+03  0.99670452920E+03  0.25500000920E-02 0.  1.
    10030    2    1    2    0    0  0.00000000000E+00  0.00000000000E+00 -0.87709045091E+03  0.11163186075E+04  0.69056467794E+03 0.  0.
        5    1    3    3  502    0 -0.12996709234E+03 -0.27146220896E+03 -0.16509527278E+03  0.34330994025E+03  0.46999998093E+01 0. -1.
       -5    1    3    3    0  502  0.12996709234E+03  0.27146220896E+03 -0.71199517814E+03  0.77300866727E+03  0.46999998093E+01 0.  1.
</event>
<event>
 5   0  0.6246998E-03  0.7023704E+03  0.7818609E-02  0.9713187E-01
        1   -1    0    0  501    0  0.00000000000E+00  0.00000000000E+00  0.79358260886E+03  0.79358260887E+03  0.50400001928E-02 0. -1.
       -1   -1    0    0    0  501  0.00000000000E+00  0.00000000000E+00 -0.15541046299E+03  0.15541046307E+03  0.50400001928E-02 0.  1.
    10030    2    1    2    0    0  0.00000000000E+00  0.00000000000E+00  0.63817214586E+03  0.94899307195E+03  0.70237038865E+03 0.  0.
        4    1    3    3  502    0  0.16382305931E+01  0.46544209687E+02 -0.15121629187E+03  0.15823092959E+03  0.12699999809E+01 0.  1.
       -4    1    3    3    0  502 -0.16382305931E+01 -0.46544209687E+02  0.78938843773E+03  0.79076214235E+03  0.12699999809E+01 0. -1.
</event>
<event>
 5   0  0.1109788E-02  0.7189613E+03  0.7818609E-02  0.9685344E-01
       -2   -1    0    0    0  501  0.00000000000E+00  0.00000000000E+00  0.90879485528E+02  0.90879485563E+02  0.25500000920E-02 0. -1.
        2   -1    0    0  501    0  0.00000000000E+00  0.00000000000E+00 -0.14219528228E+04  0.14219528228E+04  0.25500000920E-02 0.  1.
    10030    2    1    2    0    0  0.00000000000E+00  0.00000000000E+00 -0.13310733373E+04  0.15128323084E+04  0.71896130914E+03 0.  0.
        1    1    3    3  502    0 -0.32596021644E+02  0.13444746695E+03 -0.13636962587E+04  0.13706954834E+04  0.50400001928E-02 0.  1.
       -1    1    3    3    0  502  0.32596021644E+02 -0.13444746695E+03  0.32622921451E+02  0.14213682502E+03  0.50400001928E-02 0. -1.
</event>
<event>
 5   0  0.4440500E-03  0.6992139E+03  0.7818609E-02  0.9718577E-01
       -3   -1    0    0    0  501  0.00000000000E+00  0.00000000000E+00  0.30439221900E+03  0.30439223575E+03  0.10100000352E+00 0. -1.
        3   -1    0    0  501    0  0.00000000000E+00  0.00000000000E+00 -0.40153793957E+03  0.40153795227E+03  0.10100000352E+00 0.  1.
    10030    2    1    2    0    0  0.00000000000E+00  0.00000000000E+00 -0.97145720568E+02  0.70593018802E+03  0.69921394389E+03 0.  0.
        2    1    3    3  502    0  0.19280586742E+03 -0.15672815908E+03 -0.29687672170E+03  0.38713512661E+03  0.25500000920E-02 0.  1.
       -2    1    3    3    0  502 -0.19280586742E+03  0.15672815908E+03  0.19973100113E+03  0.31879506141E+03  0.25500000920E-02 0. -1.
</event>
<event>
 5   0  0.1079446E-02  0.7014924E+03  0.7818609E-02  0.9714683E-01
        2   -1    0    0  501    0  0.00000000000E+00  0.00000000000E+00  0.25894504356E+03  0.25894504358E+03  0.25500000920E-02 0.  1.
       -2   -1    0    0    0  501  0.00000000000E+00  0.00000000000E+00 -0.47509262134E+03  0.47509262134E+03  0.25500000920E-02 0. -1.
    10030    2    1    2    0    0  0.00000000000E+00  0.00000000000E+00 -0.21614757777E+03  0.73403766492E+03  0.70149235074E+03 0.  0.
        2    1    3    3  502    0 -0.25886004716E+03 -0.18355674812E+03 -0.26440831855E+03  0.41305370441E+03  0.25500000920E-02 0.  1.
       -2    1    3    3    0  502  0.25886004716E+03  0.18355674812E+03  0.48260740775E+02  0.32098396051E+03  0.25500000920E-02 0. -1.
</event>
<event>
 5   0  0.6990118E-03  0.7002764E+03  0.7818609E-02  0.9716760E-01
        1   -1    0    0  501    0  0.00000000000E+00  0.00000000000E+00  0.77479519818E+03  0.77479519820E+03  0.50400001928E-02 0. -1.
       -1   -1    0    0    0  501  0.00000000000E+00  0.00000000000E+00 -0.15823120199E+03  0.15823120207E+03  0.50400001928E-02 0.  1.
    10030    2    1    2    0    0  0.00000000000E+00  0.00000000000E+00  0.61656399619E+03  0.93302640027E+03  0.70027644698E+03 0.  0.
        5    1    3    3  502    0 -0.76589580265E+02 -0.33124804902E+03  0.19693987925E+03  0.39293592331E+03  0.46999998093E+01 0.  1.
       -5    1    3    3    0  502  0.76589580265E+02  0.33124804902E+03  0.41962411694E+03  0.54009047696E+03  0.46999998093E+01 0. -1.
</event>
<event>
 5   0  0.1100119E-02  0.6998660E+03  0.7818609E-02  0.9717461E-01
       -2   -1    0    0    0  501  0.00000000000E+00  0.00000000000E+00  0.62965870120E+02  0.62965870172E+02  0.25500000920E-02 0. -1.
        2   -1    0    0  501    0  0.00000000000E+00  0.00000000000E+00 -0.19447537606E+04  0.19447537606E+04  0.25500000920E-02 0.  1.
    10030    2    1    2    0    0  0.00000000000E+00  0.00000000000E+00 -0.18817878905E+04  0.20077196308E+04  0.69986602363E+03 0.  0.
        4    1    3    3  502    0 -0.23612681082E+03  0.24315389438E+03 -0.11905189504E+04  0.12378273996E+04  0.12699999809E+01 0.  1.
       -4    1    3    3    0  502  0.23612681082E+03 -0.24315389438E+03 -0.69126894008E+03  0.76989223113E+03  0.12699999809E+01 0. -1.
</event>
<event>
 5   0  0.1099980E-02  0.7014889E+03  0.7818609E-02  0.9714689E-01
       -2   -1    0    0    0  501  0.00000000000E+00  0.00000000000E+00  0.10877251693E+03  0.10877251696E+03  0.25500000920E-02 0.  1.
        2   -1    0    0  501    0  0.00000000000E+00  0.00000000000E+00 -0.11309996257E+04  0.11309996257E+04  0.25500000920E-02 0. -1.
    10030    2    1    2    0    0  0.00000000000E+00  0.00000000000E+00 -0.10222271088E+04  0.12397721427E+04  0.70148891925E+03 0.  0.
        5    1    3    3  502    0 -0.32540113265E+03 -0.72660839099E+02 -0.70337336757E+03  0.77840971145E+03  0.46999998093E+01 0. -1.
       -5    1    3    3    0  502  0.32540113265E+03  0.72660839099E+02 -0.31885374118E+03  0.46136243121E+03  0.46999998093E+01 0.  1.
</event>
<event>
 5   0  0.6246998E-03  0.7006180E+03  0.7818609E-02  0.9716176E-01
        1   -1    0    0  501    0  0.00000000000E+00  0.00000000000E+00  0.10557870834E+03  0.10557870846E+03  0.50400001928E-02 0. -1.
       -1   -1    0    0    0  501  0.00000000000E+00  0.00000000000E+00 -0.11623215699E+04  0.11623215699E+04  0.50400001928E-02 0.  1.
    10030    2    1    2    0    0  0.00000000000E+00  0.00000000000E+00 -0.10567428615E+04  0.12679002783E+04  0.70061804175E+03 0.  0.
        4    1    3    3  502    0 -0.27945383630E+03 -0.16212206439E+03 -0.28331539795E+03  0.42970599019E+03  0.12699999809E+01 0. -1.
       -4    1    3    3    0  502  0.27945383630E+03  0.16212206439E+03 -0.77342746356E+03  0.83819428814E+03  0.12699999809E+01 0.  1.
</event>
<event>
 5   0  0.1109788E-02  0.7002420E+03  0.7818609E-02  0.9716818E-01
        2   -1    0    0  501    0  0.00000000000E+00  0.00000000000E+00  0.14741935773E+03  0.14741935775E+03  0.25500000920E-02 0. -1.
       -2   -1    0    0    0  501  0.00000000000E+00  0.00000000000E+00 -0.83153738547E+03  0.83153738547E+03  0.25500000920E-02 0.  1.
    10030    2    1    2    0    0  0.00000000000E+00  0.00000000000E+00 -0.68411802774E+03  0.97895674322E+03  0.70024197904E+03 0.  0.
        1    1    3    3  502    0 -0.16070215243E+03  0.32818670639E+02  0.90386629669E+02  0.18727517130E+03  0.50400001928E-02 0. -1.
       -1    1    3    3    0  502  0.16070215243E+03 -0.32818670639E+02 -0.77450465741E+03  0.79168157192E+03  0.50400001928E-02 0.  1.
</event>
<event>
 5   0  0.6990118E-03  0.7001868E+03  0.7818609E-02  0.9716913E-01
        1   -1    0    0  501    0  0.00000000000E+00  0.00000000000E+00  0.59315091038E+03  0.59315091040E+03  0.50400001928E-02 0. -1.
       -1   -1    0    0    0  501  0.00000000000E+00  0.00000000000E+00 -0.20663438837E+03  0.20663438843E+03  0.50400001928E-02 0.  1.
    10030    2    1    2    0    0  0.00000000000E+00  0.00000000000E+00  0.38651652201E+03  0.79978529883E+03  0.70018676254E+03 0.  0.
        5    1    3    3  502    0  0.27840803266E+03 -0.17297479688E+03  0.52841128535E+02  0.33203251026E+03  0.46999998093E+01 0.  1.
       -5    1    3    3    0  502 -0.27840803266E+03  0.17297479688E+03  0.33367539348E+03  0.46775278857E+03  0.46999998093E+01 0. -1.
</event>
<event>
 5   0  0.6689415E-03  0.7096784E+03  0.7818609E-02  0.9700823E-01
       -1   -1    0    0    0  501  0.00000000000E+00  0.00000000000E+00  0.70287588024E+03  0.70287588026E+03  0.50400001928E-02 0.  1.
        1   -1    0    0  501    0  0.00000000000E+00  0.00000000000E+00 -0.17913668504E+03  0.17913668511E+03  0.50400001928E-02 0. -1.
    10030    2    1    2    0    0  0.00000000000E+00  0.00000000000E+00  0.52373919521E+03  0.88201256537E+03  0.70967839256E+03 0.  0.
        1    1    3    3  502    0 -0.18971273369E+03  0.17010478213E+03 -0.45048290016E+02  0.25875839443E+03  0.50400001928E-02 0. -1.
       -1    1    3    3    0  502  0.18971273369E+03 -0.17010478213E+03  0.56878748522E+03  0.62325417094E+03  0.50400001928E-02 0.  1.
</event>
<event>
 5   0  0.6785252E-03  0.7019624E+03  0.7818609E-02  0.9713882E-01
        1   -1    0    0  501    0  0.00000000000E+00  0.00000000000E+00  0.37413001053E+03  0.37413001056E+03  0.50400001928E-02 0.  1.
       -1   -1    0    0    0  501  0.00000000000E+00  0.00000000000E+00 -0.32926467504E+03  0.32926467508E+03  0.50400001928E-02 0. -1.
    10030    2    1    2    0    0  0.00000000000E+00  0.00000000000E+00  0.44865335491E+02  0.70339468564E+03  0.70196238179E+03 0.  0.
        3    1    3    3  502    0 -0.25272741987E+03 -0.76354670304E+02 -0.20931093099E+03  0.33691580620E+03  0.10100000352E+00 0.  1.
       -3    1    3    3    0  502  0.25272741987E+03  0.76354670304E+02  0.25417626649E+03  0.36647887944E+03  0.10100000352E+00 0. -1.
</event>
<event>
 5   0  0.6246998E-03  0.6913512E+03  0.7818609E-02  0.9732138E-01
       -1   -1    0    0    0  501  0.00000000000E+00  0.00000000000E+00  0.10767366559E+03  0.10767366571E+03  0.50400001928E-02 0.  1.
        1   -1    0    0  501    0  0.00000000000E+00  0.00000000000E+00 -0.11097570598E+04  0.11097570598E+04  0.50400001928E-02 0. -1.
    10030    2    1    2    0    0  0.00000000000E+00  0.00000000000E+00 -0.10020833942E+04  0.12174307255E+04  0.69135117162E+03 0.  0.
        4    1    3    3  502    0  0.11677614967E+03  0.19804542858E+03 -0.46488393606E+02  0.23456650347E+03  0.12699999809E+01 0.  1.
       -4    1    3    3    0  502 -0.11677614967E+03 -0.19804542858E+03 -0.95559500061E+03  0.98286422206E+03  0.12699999809E+01 0. -1.
</event>
<event>
 5   0  0.1119786E-02  0.6984942E+03  0.7818609E-02  0.9719811E-01
       -2   -1    0    0    0  501  0.00000000000E+00  0.00000000000E+00  0.59151849385E+03  0.59151849386E+03  0.25500000920E-02 0. -1.
        2   -1    0    0  501    0  0.00000000000E+00  0.00000000000E+00 -0.20620410835E+03  0.20620410836E+03  0.25500000920E-02 0.  1.
    10030    2    1    2    0    0  0.00000000000E+00  0.00000000000E+00  0.38531438550E+03  0.79772260222E+03  0.69849421932E+03 0.  0.
        3    1    3    3  502    0  0.30641279377E+03  0.15302257610E+03  0.27069280677E+03  0.43655390826E+03  0.10100000352E+00 0. -1.
       -3    1    3    3    0  502 -0.30641279377E+03 -0.15302257610E+03  0.11462157873E+03  0.36116869396E+03  0.10100000352E+00 0.  1.
</event>
<event>
 5   0  0.6990118E-03  0.7028680E+03  0.7818609E-02  0.9712340E-01
        1   -1    0    0  501    0  0.00000000000E+00  0.00000000000E+00  0.28806887337E+03  0.28806887341E+03  0.50400001928E-02 0. -1.
       -1   -1    0    0    0  501  0.00000000000E+00  0.00000000000E+00 -0.42873730879E+03  0.42873730882E+03  0.50400001928E-02 0.  1.
    10030    2    1    2    0    0  0.00000000000E+00  0.00000000000E+00 -0.14066843542E+03  0.71680618224E+03  0.70286804890E+03 0.  0.
        5    1    3    3  502    0  0.47343765201E+01 -0.34778263130E+03 -0.19254961334E+02  0.34837912752E+03  0.46999998093E+01 0.  1.
       -5    1    3    3    0  502 -0.47343765201E+01  0.34778263130E+03 -0.12141347409E+03  0.36842705472E+03  0.46999998093E+01 0. -1.
</event>
<event>
 5   0  0.1119786E-02  0.6993052E+03  0.7818609E-02  0.9718421E-01
        2   -1    0    0  501    0  0.00000000000E+00  0.00000000000E+00  0.44414126330E+03  0.44414126331E+03  0.25500000920E-02 0. -1.
       -2   -1    0    0    0  501  0.00000000000E+00  0.00000000000E+00 -0.27526591155E+03  0.27526591156E+03  0.25500000920E-02 0.  1.
    10030    2    1    2    0    0  0.00000000000E+00  0.00000000000E+00  0.16887535175E+03  0.71940717487E+03  0.69930522579E+03 0.  0.
        3    1    3    3  502    0 -0.50786915348E+02  0.33588649991E+03 -0.75518103710E+00  0.33970521352E+03  0.10100000352E+00 0.  1.
       -3    1    3    3    0  502  0.50786915348E+02 -0.33588649991E+03  0.16963053279E+03  0.37970196134E+03  0.10100000352E+00 0. -1.
</event>
<event>
 5   0  0.1099980E-02  0.7027392E+03  0.7818609E-02  0.9712559E-01
       -2   -1    0    0    0  501  0.00000000000E+00  0.00000000000E+00  0.12911641091E+03  0.12911641094E+03  0.25500000920E-02 0. -1.
        2   -1    0    0  501    0  0.00000000000E+00  0.00000000000E+00 -0.95619605481E+03  0.95619605481E+03  0.25500000920E-02 0.  1.
    10030    2    1    2    0    0  0.00000000000E+00  0.00000000000E+00 -0.82707964389E+03  0.10853124657E+04  0.70273921974E+03 0.  0.
        5    1    3    3  502    0  0.21340824261E+03 -0.21906974908E+03 -0.14647027598E+03  0.33913163333E+03  0.46999998093E+01 0. -1.
       -5    1    3    3    0  502 -0.21340824261E+03  0.21906974908E+03 -0.68060936791E+03  0.74618083242E+03  0.46999998093E+01 0.  1.
</event>
<event>
 5   0  0.6609285E-03  0.7226333E+03  0.7818609E-02  0.9679290E-01
        1   -1    0    0  501    0  0.00000000000E+00  0.00000000000E+00  0.14025538714E+04  0.14025538714E+04  0.50400001928E-02 0. -1.
       -1   -1    0    0    0  501  0.00000000000E+00  0.00000000000E+00 -0.93079993377E+02  0.93079993514E+02  0.50400001928E-02 0.  1.
    10030    2    1    2    0    0  0.00000000000E+00  0.00000000000E+00  0.13094738780E+04  0.14956338649E+04  0.72263325462E+03 0.  0.
        2    1    3    3  502    0 -0.21050695617E+03 -0.27427879431E+03  0.87188454153E+03  0.93793639943E+03  0.25500000920E-02 0.  1.
       -2    1    3    3    0  502  0.21050695617E+03  0.27427879431E+03  0.43758933649E+03  0.55769746549E+03  0.25500000920E-02 0. -1.
</event>
<event>
 5   0  0.6246998E-03  0.6993781E+03  0.7818609E-02  0.9718296E-01
       -1   -1    0    0    0  501  0.00000000000E+00  0.00000000000E+00  0.23865197886E+03  0.23865197891E+03  0.50400001928E-02 0. -1.
        1   -1    0    0  501    0  0.00000000000E+00  0.00000000000E+00 -0.51238815792E+03  0.51238815795E+03  0.50400001928E-02 0.  1.
    10030    2    1    2    0    0  0.00000000000E+00  0.00000000000E+00 -0.27373617906E+03  0.75104013686E+03  0.69937814624E+03 0.  0.
        4    1    3    3  502    0 -0.34087211862E+02 -0.29880645294E+03 -0.32846741297E+03  0.44535344235E+03  0.12699999809E+01 0.  1.
       -4    1    3    3    0  502  0.34087211862E+02  0.29880645294E+03  0.54731233906E+02  0.30568669451E+03  0.12699999809E+01 0. -1.
</event>
<event>
 5   0  0.1079446E-02  0.6970102E+03  0.7818609E-02  0.9722359E-01
        2   -1    0    0  501    0  0.00000000000E+00  0.00000000000E+00  0.54476231704E+03  0.54476231704E+03  0.25500000920E-02 0. -1.
       -2   -1    0    0    0  501  0.00000000000E+00  0.00000000000E+00 -0.22295192262E+03  0.22295192263E+03  0.25500000920E-02 0.  1.
    10030    2    1    2    0    0  0.00000000000E+00  0.00000000000E+00  0.32181039442E+03  0.76771423967E+03  0.69701020354E+03 0.  0.
        2    1    3    3  502    0 -0.56332310559E+02 -0.22904998679E+03 -0.12167043986E+03  0.26540708658E+03  0.25500000920E-02 0.  1.
       -2    1    3    3    0  502  0.56332310559E+02  0.22904998679E+03  0.44348083429E+03  0.50230715309E+03  0.25500000920E-02 0. -1.
</event>
<event>
 5   0  0.1119786E-02  0.6992665E+03  0.7818609E-02  0.9718487E-01
       -2   -1    0    0    0  501  0.00000000000E+00  0.00000000000E+00  0.63272219735E+03  0.63272219735E+03  0.25500000920E-02 0.  1.
        2   -1    0    0  501    0  0.00000000000E+00  0.00000000000E+00 -0.19320232411E+03  0.19320232412E+03  0.25500000920E-02 0. -1.
    10030    2    1    2    0    0  0.00000000000E+00  0.00000000000E+00  0.43951987324E+03  0.82592452148E+03  0.69926647010E+03 0.  0.
        3    1    3    3  502    0 -0.34577885305E+03 -0.50528393813E+02  0.20643591989E+03  0.40587181846E+03  0.10100000352E+00 0.  1.
       -3    1    3    3    0  502  0.34577885305E+03  0.50528393813E+02  0.23308395335E+03  0.42005270302E+03  0.10100000352E+00 0. -1.
</event>
<event>
 5   0  0.6689415E-03  0.6986343E+03  0.7818609E-02  0.9719571E-01
        1   -1    0    0  501    0  0.00000000000E+00  0.00000000000E+00  0.73444789119E+03  0.73444789120E+03  0.50400001928E-02 0.  1.
       -1   -1    0    0    0  501  0.00000000000E+00  0.00000000000E+00 -0.16614176497E+03  0.16614176505E+03  0.50400001928E-02 0. -1.
    10030    2    1    2    0    0  0.00000000000E+00  0.00000000000E+00  0.56830612622E+03  0.90058965625E+03  0.69863429336E+03 0.  0.
        1    1    3    3  502    0  0.31411035952E+03 -0.56092984695E+02  0.10089291467E+03  0.33465074502E+03  0.50400001928E-02 0. -1.
       -1    1    3    3    0  502 -0.31411035952E+03  0.56092984695E+02  0.46741321155E+03  0.56593891123E+03  0.50400001928E-02 0.  1.
</event>
<event>
 5   0  0.1099980E-02  0.7031704E+03  0.7818609E-02  0.9711826E-01
       -2   -1    0    0    0  501  0.00000000000E+00  0.00000000000E+00  0.25073982998E+03  0.25073982999E+03  0.25500000920E-02 0.  1.
        2   -1    0    0  501    0  0.00000000000E+00  0.00000000000E+00 -0.49298967861E+03  0.49298967861E+03  0.25500000920E-02 0. -1.
    10030    2    1    2    0    0  0.00000000000E+00  0.00000000000E+00 -0.24224984863E+03  0.74372950861E+03  0.70317038676E+03 0.  0.
        5    1    3    3  502    0 -0.79916721279E+01 -0.31832389268E+02  0.24908267857E+03  0.25127960242E+03  0.46999998093E+01 0.  1.
       -5    1    3    3    0  502  0.79916721279E+01  0.31832389268E+02 -0.49133252719E+03  0.49244990619E+03  0.46999998093E+01 0. -1.
</event>
<event>
 5   0  0.6246998E-03  0.7007198E+03  0.7818609E-02  0.9716002E-01
       -1   -1    0    0    0  501  0.00000000000E+00  0.00000000000E+00  0.25692704393E+03  0.25692704398E+03  0.50400001928E-02 0.  1.
        1   -1    0    0  501    0  0.00000000000E+00  0.00000000000E+00 -0.47777008434E+03  0.47777008436E+03  0.50400001928E-02 0. -1.
    10030    2    1    2    0    0  0.00000000000E+00  0.00000000000E+00 -0.22084304041E+03  0.73469712835E+03  0.70071978843E+03 0.  0.
        4    1    3    3  502    0  0.24708467092E+03 -0.41361658110E+02  0.14638090698E+03  0.29015617208E+03  0.12699999809E+01 0.  1.
       -4    1    3    3    0  502 -0.24708467092E+03  0.41361658110E+02 -0.36722394739E+03  0.44454095627E+03  0.12699999809E+01 0. -1.
</event>
<event>
 5   0  0.6990118E-03  0.6981282E+03  0.7818609E-02  0.9720439E-01
        1   -1    0    0  501    0  0.00000000000E+00  0.00000000000E+00  0.43137242481E+03  0.43137242484E+03  0.50400001928E-02 0.  1.
       -1   -1    0    0    0  501  0.00000000000E+00  0.00000000000E+00 -0.28246070259E+03  0.28246070263E+03  0.50400001928E-02 0. -1.
    10030    2    1    2    0    0  0.00000000000E+00  0.00000000000E+00  0.14891172222E+03  0.71383312747E+03  0.69812823526E+03 0.  0.
        5    1    3    3  502    0  0.12942074560E+03  0.27027101411E+03 -0.10853236033E+03  0.31874364887E+03  0.46999998093E+01 0. -1.
       -5    1    3    3    0  502 -0.12942074560E+03 -0.27027101411E+03  0.25744408256E+03  0.39508947860E+03  0.46999998093E+01 0.  1.
</event>
<event>
 5   0  0.1079446E-02  0.7014988E+03  0.7818609E-02  0.9714673E-01
       -2   -1    0    0    0  501  0.00000000000E+00  0.00000000000E+00  0.21365820571E+03  0.21365820572E+03  0.25500000920E-02 0.  1.
        2   -1    0    0  501    0  0.00000000000E+00  0.00000000000E+00 -0.57580345627E+03  0.57580345627E+03  0.25500000920E-02 0. -1.
    10030    2    1    2    0    0  0.00000000000E+00  0.00000000000E+00 -0.36214525056E+03  0.78946166200E+03  0.70149877638E+03 0.  0.
        2    1    3    3  502    0  0.10935261176E+03  0.30463880851E+03 -0.28989058036E+02  0.32496640263E+03  0.25500000920E-02 0.  1.
       -2    1    3    3    0  502 -0.10935261176E+03 -0.30463880851E+03 -0.33315619252E+03  0.46449525936E+03  0.25500000920E-02 0. -1.
</event>
<event>
 5   0  0.6689415E-03  0.7007351E+03  0.7818609E-02  0.9715976E-01
       -1   -1    0    0    0  501  0.00000000000E+00  0.00000000000E+00  0.22344560551E+03  0.22344560557E+03  0.50400001928E-02 0.  1.
        1   -1    0    0  501    0  0.00000000000E+00  0.00000000000E+00 -0.54938383833E+03  0.54938383835E+03  0.50400001928E-02 0. -1.
    10030    2    1    2    0    0  0.00000000000E+00  0.00000000000E+00 -0.32593823282E+03  0.77282944392E+03  0.70073505534E+03 0.  0.
        1    1    3    3  502    0 -0.70072479378E+02  0.26984419164E+03 -0.39700764981E+03  0.48511969055E+03  0.50400001928E-02 0. -1.
       -1    1    3    3    0  502  0.70072479378E+02 -0.26984419164E+03  0.71069416991E+02  0.28770975337E+03  0.50400001928E-02 0.  1.
</event>
<event>
 5   0  0.6609285E-03  0.7012958E+03  0.7818609E-02  0.9715019E-01
        1   -1    0    0  501    0  0.00000000000E+00  0.00000000000E+00  0.21251857068E+03  0.21251857074E+03  0.50400001928E-02 0. -1.
       -1   -1    0    0    0  501  0.00000000000E+00  0.00000000000E+00 -0.57855617939E+03  0.57855617941E+03  0.50400001928E-02 0.  1.
    10030    2    1    2    0    0  0.00000000000E+00  0.00000000000E+00 -0.36603760871E+03  0.79107475015E+03  0.70129575026E+03 0.  0.
        2    1    3    3  502    0  0.18749357883E+03 -0.24770252400E+03  0.41365682434E+00  0.31066147752E+03  0.25500000920E-02 0. -1.
       -2    1    3    3    0  502 -0.18749357883E+03  0.24770252400E+03 -0.36645126553E+03  0.48041327263E+03  0.25500000920E-02 0.  1.
</event>
<event>
 5   0  0.1099980E-02  0.6982338E+03  0.7818609E-02  0.9720257E-01
       -2   -1    0    0    0  501  0.00000000000E+00  0.00000000000E+00  0.30736048645E+03  0.30736048646E+03  0.25500000920E-02 0. -1.
        2   -1    0    0  501    0  0.00000000000E+00  0.00000000000E+00 -0.39654616070E+03  0.39654616070E+03  0.25500000920E-02 0.  1.
    10030    2    1    2    0    0  0.00000000000E+00  0.00000000000E+00 -0.89185674244E+02  0.70390664717E+03  0.69823383149E+03 0.  0.
        5    1    3    3  502    0 -0.34410360365E+02  0.65448249066E+02 -0.38852879349E+03  0.39553035228E+03  0.46999998093E+01 0.  1.
       -5    1    3    3    0  502  0.34410360365E+02 -0.65448249066E+02  0.29934311925E+03  0.30837629488E+03  0.46999998093E+01 0. -1.
</event>
<event>
 5   0  0.1100119E-02  0.6959144E+03  0.7818609E-02  0.9724245E-01
        2   -1    0    0  501    0  0.00000000000E+00  0.00000000000E+00  0.61565832782E+03  0.61565832782E+03  0.25500000920E-02 0.  1.
       -2   -1    0    0    0  501  0.00000000000E+00  0.00000000000E+00 -0.19665814648E+03  0.19665814649E+03  0.25500000920E-02 0. -1.
    10030    2    1    2    0    0  0.00000000000E+00  0.00000000000E+00  0.41900018134E+03  0.81231647432E+03  0.69591443618E+03 0.  0.
        4    1    3    3  502    0  0.28906159598E+03 -0.13720107303E+03  0.49913713887E+02  0.32384214124E+03  0.12699999809E+01 0.  1.
       -4    1    3    3    0  502 -0.28906159598E+03  0.13720107303E+03  0.36908646746E+03  0.48847433307E+03  0.12699999809E+01 0. -1.
</event>
<event>
 5   0  0.6609285E-03  0.6996525E+03  0.7818609E-02  0.9717827E-01
       -1   -1    0    0    0  501  0.00000000000E+00  0.00000000000E+00  0.41922687827E+03  0.41922687830E+03  0.50400001928E-02 0.  1.
        1   -1    0    0  501    0  0.00000000000E+00  0.00000000000E+00 -0.29191452838E+03  0.29191452842E+03  0.50400001928E-02 0. -1.
    10030    2    1    2    0    0  0.00000000000E+00  0.00000000000E+00  0.12731234989E+03  0.71114140673E+03  0.69965253228E+03 0.  0.
        2    1    3    3  502    0 -0.15077331840E+03  0.15964252150E+03  0.34045145179E+03  0.40512407883E+03  0.25500000920E-02 0.  1.
       -2    1    3    3    0  502  0.15077331840E+03 -0.15964252150E+03 -0.21313910190E+03  0.30601732790E+03  0.25500000920E-02 0. -1.
</event>
<event>
 5   0  0.6785252E-03  0.6990995E+03  0.7818609E-02  0.9718773E-01
        1   -1    0    0  501    0  0.00000000000E+00  0.00000000000E+00  0.39880314003E+03  0.39880314006E+03  0.50400001928E-02 0.  1.
       -1   -1    0    0    0  501  0.00000000000E+00  0.00000000000E+00 -0.30637932883E+03  0.30637932888E+03  0.50400001928E-02 0. -1.
    10030    2    1    2    0    0  0.00000000000E+00  0.00000000000E+00  0.92423811191E+02  0.70518246893E+03  0.69909953055E+03 0.  0.
        3    1    3    3  502    0 -0.19036605448E+03  0.10615807839E+03 -0.22943540794E+03  0.31646388249E+03  0.10100000352E+00 0. -1.
       -3    1    3    3    0  502  0.19036605448E+03 -0.10615807839E+03  0.32185921913E+03  0.38871858644E+03  0.10100000352E+00 0.  1.
</event>
<event>
 5   0  0.6609285E-03  0.6951117E+03  0.7818609E-02  0.9725628E-01
       -1   -1    0    0    0  501  0.00000000000E+00  0.00000000000E+00  0.94854907056E+02  0.94854907190E+02  0.50400001928E-02 0.  1.
        1   -1    0    0  501    0  0.00000000000E+00  0.00000000000E+00 -0.12734720852E+04  0.12734720853E+04  0.50400001928E-02 0. -1.
    10030    2    1    2    0    0  0.00000000000E+00  0.00000000000E+00 -0.11786171782E+04  0.13683269924E+04  0.69511172162E+03 0.  0.
        2    1    3    3  502    0  0.25490159491E+03  0.22023492289E+03 -0.42092613895E+03  0.53912619933E+03  0.25500000920E-02 0.  1.
       -2    1    3    3    0  502 -0.25490159491E+03 -0.22023492289E+03 -0.75769103924E+03  0.82920079311E+03  0.25500000920E-02 0. -1.
</event>
<event>
 5   0  0.1119786E-02  0.7055458E+03  0.7818609E-02  0.9707795E-01
       -2   -1    0    0    0  501  0.00000000000E+00  0.00000000000E+00  0.22254629942E+03  0.22254629943E+03  0.25500000920E-02 0. -1.
        2   -1    0    0  501    0  0.00000000000E+00  0.00000000000E+00 -0.55920367925E+03  0.55920367926E+03  0.25500000920E-02 0.  1.
    10030    2    1    2    0    0  0.00000000000E+00  0.00000000000E+00 -0.33665737983E+03  0.78174997869E+03  0.70554577299E+03 0.  0.
        3    1    3    3  502    0  0.28991618915E+03  0.19614768023E+03 -0.11973539288E+03  0.36994848790E+03  0.10100000352E+00 0. -1.
       -3    1    3    3    0  502 -0.28991618915E+03 -0.19614768023E+03 -0.21692198696E+03  0.41180149079E+03  0.10100000352E+00 0.  1.
</event>
<event>
 5   0  0.6990118E-03  0.7134887E+03  0.7818609E-02  0.9694439E-01
        1   -1    0    0  501    0  0.00000000000E+00  0.00000000000E+00  0.62310890086E+03  0.62310890088E+03  0.50400001928E-02 0. -1.
       -1   -1    0    0    0  501  0.00000000000E+00  0.00000000000E+00 -0.20424444977E+03  0.20424444983E+03  0.50400001928E-02 0.  1.
    10030    2    1    2    0    0  0.00000000000E+00  0.00000000000E+00  0.41886445110E+03  0.82735335071E+03  0.71348870947E+03 0.  0.
        5    1    3    3  502    0 -0.12805494351E+03  0.22601759875E+03 -0.74044897698E+02  0.27016061958E+03  0.46999998093E+01 0.  1.
       -5    1    3    3    0  502  0.12805494351E+03 -0.22601759875E+03  0.49290934879E+03  0.55719273113E+03  0.46999998093E+01 0. -1.
</event>
<event>
 5   0  0.6246998E-03  0.6960012E+03  0.7818609E-02  0.9724095E-01
        1   -1    0    0  501    0  0.00000000000E+00  0.00000000000E+00  0.16461514215E+04  0.16461514215E+04  0.50400001928E-02 0.  1.
       -1   -1    0    0    0  501  0.00000000000E+00  0.00000000000E+00 -0.73568216417E+02  0.73568216590E+02  0.50400001928E-02 0. -1.
    10030    2    1    2    0    0  0.00000000000E+00  0.00000000000E+00  0.15725832051E+04  0.17197196381E+04  0.69600121894E+03 0.  0.
        4    1    3    3  502    0 -0.14114038373E+03 -0.25035004179E+03  0.12711532480E+04  0.13032374857E+04  0.12699999809E+01 0.  1.
       -4    1    3    3    0  502  0.14114038373E+03  0.25035004179E+03  0.30142995714E+03  0.41648215245E+03  0.12699999809E+01 0. -1.
</event>
<event>
 5   0  0.6689415E-03  0.6997443E+03  0.7818609E-02  0.9717670E-01
        1   -1    0    0  501    0  0.00000000000E+00  0.00000000000E+00  0.29742425226E+03  0.29742425231E+03  0.50400001928E-02 0.  1.
       -1   -1    0    0    0  501  0.00000000000E+00  0.00000000000E+00 -0.41156873156E+03  0.41156873159E+03  0.50400001928E-02 0. -1.
    10030    2    1    2    0    0  0.00000000000E+00  0.00000000000E+00 -0.11414447929E+03  0.70899298389E+03  0.69974430263E+03 0.  0.
        1    1    3    3  502    0 -0.66923894207E+02  0.76801607345E+02 -0.39620987724E+03  0.40909602950E+03  0.50400001928E-02 0. -1.
       -1    1    3    3    0  502  0.66923894207E+02 -0.76801607345E+02  0.28206539795E+03  0.29989695439E+03  0.50400001928E-02 0.  1.
</event>
<event>
 5   0  0.1109788E-02  0.6990691E+03  0.7818609E-02  0.9718826E-01
        2   -1    0    0  501    0  0.00000000000E+00  0.00000000000E+00  0.27428853706E+03  0.27428853707E+03  0.25500000920E-02 0.  1.
       -2   -1    0    0    0  501  0.00000000000E+00  0.00000000000E+00 -0.44542290663E+03  0.44542290663E+03  0.25500000920E-02 0. -1.
    10030    2    1    2    0    0  0.00000000000E+00  0.00000000000E+00 -0.17113436957E+03  0.71971144370E+03  0.69906908797E+03 0.  0.
        1    1    3    3  502    0 -0.61875351587E+02 -0.75002778760E+02  0.26008524299E+03  0.27766582362E+03  0.50400001928E-02 0.  1.
       -1    1    3    3    0  502  0.61875351587E+02  0.75002778760E+02 -0.43121961256E+03  0.44204562009E+03  0.50400001928E-02 0. -1.
</event>
<event>
 5   0  0.6689415E-03  0.6981392E+03  0.7818609E-02  0.9720420E-01
       -1   -1    0    0    0  501  0.00000000000E+00  0.00000000000E+00  0.20078944014E+03  0.20078944020E+03  0.50400001928E-02 0. -1.
        1   -1    0    0  501    0  0.00000000000E+00  0.00000000000E+00 -0.60685254900E+03  0.60685254902E+03  0.50400001928E-02 0.  1.
    10030    2    1    2    0    0  0.00000000000E+00  0.00000000000E+00 -0.40606310886E+03  0.80764198922E+03  0.69813919413E+03 0.  0.
        1    1    3    3  502    0 -0.21290219246E+03  0.10740582873E+03  0.91877111333E+02  0.25554795873E+03  0.50400001928E-02 0. -1.
       -1    1    3    3    0  502  0.21290219246E+03 -0.10740582873E+03 -0.49794022019E+03  0.55209403050E+03  0.50400001928E-02 0.  1.
</event>
<event>
 5   0  0.1119786E-02  0.6970338E+03  0.7818609E-02  0.9722318E-01
        2   -1    0    0  501    0  0.00000000000E+00  0.00000000000E+00  0.16492698816E+03  0.16492698818E+03  0.25500000920E-02 0. -1.
       -2   -1    0    0    0  501  0.00000000000E+00  0.00000000000E+00 -0.73647147992E+03  0.73647147993E+03  0.25500000920E-02 0.  1.
    10030    2    1    2    0    0  0.00000000000E+00  0.00000000000E+00 -0.57154449177E+03  0.90139846810E+03  0.69703378127E+03 0.  0.
        3    1    3    3  502    0 -0.22410849730E+03  0.26623598444E+03 -0.26131091669E+03  0.43518918111E+03  0.10100000352E+00 0.  1.
       -3    1    3    3    0  502  0.22410849730E+03 -0.26623598444E+03 -0.31023357508E+03  0.46620928700E+03  0.10100000352E+00 0. -1.
</event>
<event>
 5   0  0.1119786E-02  0.6987683E+03  0.7818609E-02  0.9719341E-01
       -2   -1    0    0    0  501  0.00000000000E+00  0.00000000000E+00  0.98310300258E+02  0.98310300291E+02  0.25500000920E-02 0. -1.
        2   -1    0    0  501    0  0.00000000000E+00  0.00000000000E+00 -0.12416732529E+04  0.12416732529E+04  0.25500000920E-02 0.  1.
    10030    2    1    2    0    0  0.00000000000E+00  0.00000000000E+00 -0.11433629526E+04  0.13399835531E+04  0.69876826011E+03 0.  0.
        3    1    3    3  502    0 -0.36361046393E+02  0.26488015143E+03 -0.14038101599E+03  0.30197758223E+03  0.10100000352E+00 0. -1.
       -3    1    3    3    0  502  0.36361046393E+02 -0.26488015143E+03 -0.10029819366E+04  0.10380059709E+04  0.10100000352E+00 0.  1.
</event>
<event>
 5   0  0.1100119E-02  0.7002131E+03  0.7818609E-02  0.9716868E-01
        2   -1    0    0  501    0  0.00000000000E+00  0.00000000000E+00  0.87903633566E+03  0.87903633566E+03  0.25500000920E-02 0.  1.
       -2   -1    0    0    0  501  0.00000000000E+00  0.00000000000E+00 -0.13944201657E+03  0.13944201659E+03  0.25500000920E-02 0. -1.
    10030    2    1    2    0    0  0.00000000000E+00  0.00000000000E+00  0.73959431909E+03  0.10184783523E+04  0.70021310841E+03 0.  0.
        4    1    3    3  502    0 -0.17786436831E+03 -0.13140586426E+03 -0.24992863515E+02  0.22255222040E+03  0.12699999809E+01 0. -1.
       -4    1    3    3    0  502  0.17786436831E+03  0.13140586426E+03  0.76458718260E+03  0.79592613186E+03  0.12699999809E+01 0.  1.
</event>
<event>
 5   0  0.6785252E-03  0.7000741E+03  0.7818609E-02  0.9717106E-01
        1   -1    0    0  501    0  0.00000000000E+00  0.00000000000E+00  0.12140180033E+04  0.12140180033E+04  0.50400001928E-02 0. -1.
       -1   -1    0    0    0  501  0.00000000000E+00  0.00000000000E+00 -0.10092595568E+03  0.10092595581E+03  0.50400001928E-02 0.  1.
    10030    2    1    2    0    0  0.00000000000E+00  0.00000000000E+00  0.11130920476E+04  0.13149439591E+04  0.70007407404E+03 0.  0.
        3    1    3    3  502    0 -0.32867101036E+03 -0.11176452266E+03  0.64075504758E+03  0.72875440498E+03  0.10100000352E+00 0. -1.
       -3    1    3    3    0  502  0.32867101036E+03  0.11176452266E+03  0.47233700000E+03  0.58618955410E+03  0.10100000352E+00 0.  1.
</event>
<event>
 5   0  0.1100119E-02  0.7015692E+03  0.7818609E-02  0.9714552E-01
        2   -1    0    0  501    0  0.00000000000E+00  0.00000000000E+00  0.13943847266E+04  0.13943847267E+04  0.25500000920E-02 0.  1.
       -2   -1    0    0    0  501  0.00000000000E+00  0.00000000000E+00 -0.88246679528E+02  0.88246679565E+02  0.25500000920E-02 0. -1.
    10030    2    1    2    0    0  0.00000000000E+00  0.00000000000E+00  0.13061380471E+04  0.14826314062E+04  0.70156916164E+03 0.  0.
        4    1    3    3  502    0  0.22469825706E+03 -0.26656870684E+03  0.57122023604E+03  0.66921024585E+03  0.12699999809E+01 0. -1.
       -4    1    3    3    0  502 -0.22469825706E+03  0.26656870684E+03  0.73491781108E+03  0.81342116037E+03  0.12699999809E+01 0.  1.
</event>
<event>
 5   0  0.6990118E-03  0.7017095E+03  0.7818609E-02  0.9714313E-01
       -1   -1    0    0    0  501  0.00000000000E+00  0.00000000000E+00  0.12894406874E+03  0.12894406884E+03  0.50400001928E-02 0.  1.
        1   -1    0    0  501    0  0.00000000000E+00  0.00000000000E+00 -0.95467012634E+03  0.95467012635E+03  0.50400001928E-02 0. -1.
    10030    2    1    2    0    0  0.00000000000E+00  0.00000000000E+00 -0.82572605759E+03  0.10836141952E+04  0.70170948535E+03 0.  0.
        5    1    3    3  502    0 -0.21186488244E+03  0.15011387352E+02 -0.84405123594E+03  0.87037730269E+03  0.46999998093E+01 0. -1.
       -5    1    3    3    0  502  0.21186488244E+03 -0.15011387352E+02  0.18325178340E+02  0.21323689250E+03  0.46999998093E+01 0.  1.
</event>
<event>
 5   0  0.1109788E-02  0.6990907E+03  0.7818609E-02  0.9718789E-01
        2   -1    0    0  501    0  0.00000000000E+00  0.00000000000E+00  0.92739674918E+03  0.92739674918E+03  0.25500000920E-02 0. -1.
       -2   -1    0    0    0  501  0.00000000000E+00  0.00000000000E+00 -0.13174721684E+03  0.13174721687E+03  0.25500000920E-02 0.  1.
    10030    2    1    2    0    0  0.00000000000E+00  0.00000000000E+00  0.79564953234E+03  0.10591439661E+04  0.69909066831E+03 0.  0.
        1    1    3    3  502    0 -0.13314172366E+03  0.10341414175E+03  0.86173291182E+03  0.87806879834E+03  0.50400001928E-02 0. -1.
       -1    1    3    3    0  502  0.13314172366E+03 -0.10341414175E+03 -0.66083379480E+02  0.18107516771E+03  0.50400001928E-02 0.  1.
</event>
<event>
 5   0  0.6609285E-03  0.7207340E+03  0.7818609E-02  0.9682417E-01
        1   -1    0    0  501    0  0.00000000000E+00  0.00000000000E+00  0.14000455337E+04  0.14000455337E+04  0.50400001928E-02 0.  1.
       -1   -1    0    0    0  501  0.00000000000E+00  0.00000000000E+00 -0.92757248859E+02  0.92757248996E+02  0.50400001928E-02 0. -1.
    10030    2    1    2    0    0  0.00000000000E+00  0.00000000000E+00  0.13072882849E+04  0.14928027827E+04  0.72073399281E+03 0.  0.
        2    1    3    3  502    0 -0.21809901271E+03  0.28661005948E+03  0.67916871601E+03  0.76875395957E+03  0.25500000920E-02 0.  1.
       -2    1    3    3    0  502  0.21809901271E+03 -0.28661005948E+03  0.62811956887E+03  0.72404882318E+03  0.25500000920E-02 0. -1.
</event>
<event>
 5   0  0.1099980E-02  0.6995747E+03  0.7818609E-02  0.9717960E-01
        2   -1    0    0  501    0  0.00000000000E+00  0.00000000000E+00  0.73352492170E+03  0.73352492171E+03  0.25500000920E-02 0. -1.
       -2   -1    0    0    0  501  0.00000000000E+00  0.00000000000E+00 -0.16679895691E+03  0.16679895693E+03  0.25500000920E-02 0.  1.
    10030    2    1    2    0    0  0.00000000000E+00  0.00000000000E+00  0.56672596479E+03  0.90032387863E+03  0.69957470456E+03 0.  0.
        5    1    3    3  502    0 -0.19828838760E+03 -0.23624838458E+03  0.71121970769E+02  0.31656280356E+03  0.46999998093E+01 0. -1.
       -5    1    3    3    0  502  0.19828838760E+03  0.23624838458E+03  0.49560399403E+03  0.58376107507E+03  0.46999998093E+01 0.  1.
</event>
<event>
 5   0  0.6785252E-03  0.6998144E+03  0.7818609E-02  0.9717550E-01
        1   -1    0    0  501    0  0.00000000000E+00  0.00000000000E+00  0.83017443205E+03  0.83017443207E+03  0.50400001928E-02 0.  1.
       -1   -1    0    0    0  501  0.00000000000E+00  0.00000000000E+00 -0.14748112396E+03  0.14748112404E+03  0.50400001928E-02 0. -1.
    10030    2    1    2    0    0  0.00000000000E+00  0.00000000000E+00  0.68269330809E+03  0.97765555611E+03  0.69981442789E+03 0.  0.
        3    1    3    3  502    0  0.78828487319E+02 -0.33594211455E+03  0.26031926571E+03  0.43224664839E+03  0.10100000352E+00 0.  1.
       -3    1    3    3    0  502 -0.78828487319E+02  0.33594211455E+03  0.42237404239E+03  0.54540890772E+03  0.10100000352E+00 0. -1.
</event>
<event>
 5   0  0.6689415E-03  0.6983807E+03  0.7818609E-02  0.9720005E-01
        1   -1    0    0  501    0  0.00000000000E+00  0.00000000000E+00  0.10851241986E+04  0.10851241987E+04  0.50400001928E-02 0.  1.
       -1   -1    0    0    0  501  0.00000000000E+00  0.00000000000E+00 -0.11236860836E+03  0.11236860847E+03  0.50400001928E-02 0. -1.
    10030    2    1    2    0    0  0.00000000000E+00  0.00000000000E+00  0.97275559029E+03  0.11974928071E+04  0.69838068750E+03 0.  0.
        1    1    3    3  502    0 -0.17016487136E+03 -0.96015081637E+02  0.98262288013E+03  0.10018596229E+04  0.50400001928E-02 0.  1.
       -1    1    3    3    0  502  0.17016487136E+03  0.96015081637E+02 -0.98672898458E+01  0.19563318425E+03  0.50400001928E-02 0. -1.
</event>
<event>
 5   0  0.4440500E-03  0.7018989E+03  0.7818609E-02  0.9713990E-01
       -3   -1    0    0    0  501  0.00000000000E+00  0.00000000000E+00  0.13449765810E+04  0.13449765848E+04  0.10100000352E+00 0. -1.
        3   -1    0    0  501    0  0.00000000000E+00  0.00000000000E+00 -0.91574442188E+02  0.91574497886E+02  0.10100000352E+00 0.  1.
    10030    2    1    2    0    0  0.00000000000E+00  0.00000000000E+00  0.12534021388E+04  0.14365510827E+04  0.70189891833E+03 0.  0.
        3    1    3    3  502    0  0.35139411035E+02 -0.34868867983E+03  0.58857929690E+03  0.68501399445E+03  0.10100000352E+00 0.  1.
       -3    1    3    3    0  502 -0.35139411035E+02  0.34868867983E+03  0.66482284189E+03  0.75153708820E+03  0.10100000352E+00 0. -1.
</event>
<event>
 5   0  0.6990118E-03  0.7023797E+03  0.7818609E-02  0.9713171E-01
       -1   -1    0    0    0  501  0.00000000000E+00  0.00000000000E+00  0.19544831836E+03  0.19544831843E+03  0.50400001928E-02 0.  1.
        1   -1    0    0  501    0  0.00000000000E+00  0.00000000000E+00 -0.63103282124E+03  0.63103282126E+03  0.50400001928E-02 0. -1.
    10030    2    1    2    0    0  0.00000000000E+00  0.00000000000E+00 -0.43558450288E+03  0.82648113969E+03  0.70237968017E+03 0.  0.
        5    1    3    3  502    0 -0.13940401924E+03 -0.17330815406E+02  0.16090796843E+03  0.21365229240E+03  0.46999998093E+01 0.  1.
       -5    1    3    3    0  502  0.13940401924E+03  0.17330815406E+02 -0.59649247131E+03  0.61282884729E+03  0.46999998093E+01 0. -1.
</event>
<event>
 5   0  0.6689415E-03  0.6954802E+03  0.7818609E-02  0.9724993E-01
        1   -1    0    0  501    0  0.00000000000E+00  0.00000000000E+00  0.53200790428E+03  0.53200790430E+03  0.50400001928E-02 0. -1.
       -1   -1    0    0    0  501  0.00000000000E+00  0.00000000000E+00 -0.22729582069E+03  0.22729582074E+03  0.50400001928E-02 0.  1.
    10030    2    1    2    0    0  0.00000000000E+00  0.00000000000E+00  0.30471208359E+03  0.75930372504E+03  0.69548018878E+03 0.  0.
        1    1    3    3  502    0 -0.14194957200E+03  0.90599582739E+02 -0.17980956107E+03  0.24635227554E+03  0.50400001928E-02 0.  1.
       -1    1    3    3    0  502  0.14194957200E+03 -0.90599582739E+02  0.48452164466E+03  0.51295144951E+03  0.50400001928E-02 0. -1.
</event>
<event>
 5   0  0.6609285E-03  0.7007326E+03  0.7818609E-02  0.9715980E-01
       -1   -1    0    0    0  501  0.00000000000E+00  0.00000000000E+00  0.62563351457E+03  0.62563351459E+03  0.50400001928E-02 0. -1.
        1   -1    0    0  501    0  0.00000000000E+00  0.00000000000E+00 -0.19621158811E+03  0.19621158818E+03  0.50400001928E-02 0.  1.
    10030    2    1    2    0    0  0.00000000000E+00  0.00000000000E+00  0.42942192646E+03  0.82184510277E+03  0.70073260380E+03 0.  0.
        2    1    3    3  502    0  0.14535051628E+03  0.20372728262E+03  0.50229519702E+03  0.56118806404E+03  0.25500000920E-02 0. -1.
       -2    1    3    3    0  502 -0.14535051628E+03 -0.20372728262E+03 -0.72873270566E+02  0.26065703872E+03  0.25500000920E-02 0.  1.
</event>
<event>
 5   0  0.6785252E-03  0.7054384E+03  0.7818609E-02  0.9707977E-01
       -1   -1    0    0    0  501  0.00000000000E+00  0.00000000000E+00  0.18853221700E+03  0.18853221707E+03  0.50400001928E-02 0. -1.
        1   -1    0    0  501    0  0.00000000000E+00  0.00000000000E+00 -0.65989167327E+03  0.65989167329E+03  0.50400001928E-02 0.  1.
    10030    2    1    2    0    0  0.00000000000E+00  0.00000000000E+00 -0.47135945627E+03  0.84842389036E+03  0.70543841738E+03 0.  0.
        3    1    3    3  502    0  0.39150479064E+02  0.28749335834E+03 -0.47689525366E+03  0.55822422400E+03  0.10100000352E+00 0.  1.
       -3    1    3    3    0  502 -0.39150479064E+02 -0.28749335834E+03  0.55357973861E+01  0.29019966636E+03  0.10100000352E+00 0. -1.
</event>
<event>
 5   0  0.1099980E-02  0.6837912E+03  0.7818609E-02  0.9745360E-01
       -2   -1    0    0    0  501  0.00000000000E+00  0.00000000000E+00  0.14853592870E+03  0.14853592872E+03  0.25500000920E-02 0. -1.
        2   -1    0    0  501    0  0.00000000000E+00  0.00000000000E+00 -0.78696520460E+03  0.78696520461E+03  0.25500000920E-02 0.  1.
    10030    2    1    2    0    0  0.00000000000E+00  0.00000000000E+00 -0.63842927590E+03  0.93550113333E+03  0.68379121823E+03 0.  0.
        5    1    3    3  502    0 -0.42486746049E+02 -0.32798292850E+03 -0.20079142021E+03  0.38693308130E+03  0.46999998093E+01 0. -1.
       -5    1    3    3    0  502  0.42486746049E+02  0.32798292850E+03 -0.43763785569E+03  0.54856805203E+03  0.46999998093E+01 0.  1.
</event>
<event>
 5   0  0.6990118E-03  0.6992766E+03  0.7818609E-02  0.9718470E-01
        1   -1    0    0  501    0  0.00000000000E+00  0.00000000000E+00  0.28632708735E+03  0.28632708739E+03  0.50400001928E-02 0. -1.
       -1   -1    0    0    0  501  0.00000000000E+00  0.00000000000E+00 -0.42694862299E+03  0.42694862302E+03  0.50400001928E-02 0.  1.
    10030    2    1    2    0    0  0.00000000000E+00  0.00000000000E+00 -0.14062153564E+03  0.71327571041E+03  0.69927664253E+03 0.  0.
        5    1    3    3  502    0 -0.33818962105E+03 -0.81828649107E+02 -0.10500219590E+03  0.36347723277E+03  0.46999998093E+01 0.  1.
       -5    1    3    3    0  502  0.33818962105E+03  0.81828649107E+02 -0.35619339743E+02  0.34979847764E+03  0.46999998093E+01 0. -1.
</event>
<event>
 5   0  0.1109788E-02  0.7017897E+03  0.7818609E-02  0.9714176E-01
       -2   -1    0    0    0  501  0.00000000000E+00  0.00000000000E+00  0.13583662540E+03  0.13583662542E+03  0.25500000920E-02 0.  1.
        2   -1    0    0  501    0  0.00000000000E+00  0.00000000000E+00 -0.90643595549E+03  0.90643595549E+03  0.25500000920E-02 0. -1.
    10030    2    1    2    0    0  0.00000000000E+00  0.00000000000E+00 -0.77059933010E+03  0.10422725809E+04  0.70178971593E+03 0.  0.
        1    1    3    3  502    0  0.15230957899E+03  0.31589437964E+03 -0.36774365006E+03  0.50815633335E+03  0.50400001928E-02 0.  1.
       -1    1    3    3    0  502 -0.15230957899E+03 -0.31589437964E+03 -0.40285568004E+03  0.53411624756E+03  0.50400001928E-02 0. -1.
</event>
<event>
 5   0  0.6689415E-03  0.7077913E+03  0.7818609E-02  0.9704000E-01
        1   -1    0    0  501    0  0.00000000000E+00  0.00000000000E+00  0.13697310312E+04  0.13697310313E+04  0.50400001928E-02 0.  1.
       -1   -1    0    0    0  501  0.00000000000E+00  0.00000000000E+00 -0.91435555142E+02  0.91435555281E+02  0.50400001928E-02 0. -1.
    10030    2    1    2    0    0  0.00000000000E+00  0.00000000000E+00  0.12782954761E+04  0.14611665865E+04  0.70779126117E+03 0.  0.
        1    1    3    3  502    0  0.16258442273E+03 -0.18523276910E+03  0.11486553585E+03  0.27191720176E+03  0.50400001928E-02 0. -1.
       -1    1    3    3    0  502 -0.16258442273E+03  0.18523276910E+03  0.11634299403E+04  0.11892493848E+04  0.50400001928E-02 0.  1.
</event>
<event>
 5   0  0.1100119E-02  0.6976328E+03  0.7818609E-02  0.9721289E-01
       -2   -1    0    0    0  501  0.00000000000E+00  0.00000000000E+00  0.71458705217E+02  0.71458705262E+02  0.25500000920E-02 0. -1.
        2   -1    0    0  501    0  0.00000000000E+00  0.00000000000E+00 -0.17027018515E+04  0.17027018515E+04  0.25500000920E-02 0.  1.
    10030    2    1    2    0    0  0.00000000000E+00  0.00000000000E+00 -0.16312431463E+04  0.17741605568E+04  0.69763276793E+03 0.  0.
        4    1    3    3  502    0 -0.10210962334E+03 -0.32020234387E+03 -0.57820653121E+03  0.66879019268E+03  0.12699999809E+01 0. -1.
       -4    1    3    3    0  502  0.10210962334E+03  0.32020234387E+03 -0.10530366151E+04  0.11053703641E+04  0.12699999809E+01 0.  1.
</event>
<event>
 5   0  0.1119786E-02  0.7011123E+03  0.7818609E-02  0.9715332E-01
        2   -1    0    0  501    0  0.00000000000E+00  0.00000000000E+00  0.69539426889E+03  0.69539426890E+03  0.25500000920E-02 0.  1.
       -2   -1    0    0    0  501  0.00000000000E+00  0.00000000000E+00 -0.17671931675E+03  0.17671931677E+03  0.25500000920E-02 0. -1.
    10030    2    1    2    0    0  0.00000000000E+00  0.00000000000E+00  0.51867495214E+03  0.87211358566E+03  0.70111225943E+03 0.  0.
        3    1    3    3  502    0 -0.27096170406E+03 -0.10486345515E+03  0.50332269701E+03  0.58116291762E+03  0.10100000352E+00 0.  1.
       -3    1    3    3    0  502  0.27096170406E+03  0.10486345515E+03  0.15352255135E+02  0.29095066804E+03  0.10100000352E+00 0. -1.
</event>
<event>
 5   0  0.6689415E-03  0.6975934E+03  0.7818609E-02  0.9721357E-01
       -1   -1    0    0    0  501  0.00000000000E+00  0.00000000000E+00  0.85951559062E+02  0.85951559210E+02  0.50400001928E-02 0. -1.
        1   -1    0    0  501    0  0.00000000000E+00  0.00000000000E+00 -0.14154382227E+04  0.14154382227E+04  0.50400001928E-02 0.  1.
    10030    2    1    2    0    0  0.00000000000E+00  0.00000000000E+00 -0.13294866636E+04  0.15013897819E+04  0.69759335465E+03 0.  0.
        1    1    3    3  502    0 -0.27026462123E+03  0.51358837350E+02 -0.11262395781E+04  0.11593516649E+04  0.50400001928E-02 0.  1.
       -1    1    3    3    0  502  0.27026462123E+03 -0.51358837350E+02 -0.20324708551E+03  0.34203811696E+03  0.50400001928E-02 0. -1.
</event>
<event>
 5   0  0.6990118E-03  0.7109865E+03  0.7818609E-02  0.9698626E-01
       -1   -1    0    0    0  501  0.00000000000E+00  0.00000000000E+00  0.56803650104E+03  0.56803650107E+03  0.50400001928E-02 0. -1.
        1   -1    0    0  501    0  0.00000000000E+00  0.00000000000E+00 -0.22247768935E+03  0.22247768941E+03  0.50400001928E-02 0.  1.
    10030    2    1    2    0    0  0.00000000000E+00  0.00000000000E+00  0.34555881169E+03  0.79051419048E+03  0.71098649285E+03 0.  0.
        5    1    3    3  502    0  0.19459736598E+03  0.29696561772E+03  0.15362948178E+03  0.38688605638E+03  0.46999998093E+01 0.  1.
       -5    1    3    3    0  502 -0.19459736598E+03 -0.29696561772E+03  0.19192932991E+03  0.40362813409E+03  0.46999998093E+01 0. -1.
</event>
<event>
 5   0  0.6990118E-03  0.6979949E+03  0.7818609E-02  0.9720667E-01
       -1   -1    0    0    0  501  0.00000000000E+00  0.00000000000E+00  0.26155501392E+03  0.26155501397E+03  0.50400001928E-02 0.  1.
        1   -1    0    0  501    0  0.00000000000E+00  0.00000000000E+00 -0.46567344234E+03  0.46567344237E+03  0.50400001928E-02 0. -1.
    10030    2    1    2    0    0  0.00000000000E+00  0.00000000000E+00 -0.20411842842E+03  0.72722845634E+03  0.69799491036E+03 0.  0.
        5    1    3    3  502    0 -0.25605375213E+03 -0.22630971723E+02 -0.34795543525E+03  0.43263236099E+03  0.46999998093E+01 0. -1.
       -5    1    3    3    0  502  0.25605375213E+03  0.22630971723E+02  0.14383700683E+03  0.29459609535E+03  0.46999998093E+01 0.  1.
</event>
<event>
 5   0  0.6609285E-03  0.6996904E+03  0.7818609E-02  0.9717762E-01
       -1   -1    0    0    0  501  0.00000000000E+00  0.00000000000E+00  0.74242184478E+02  0.74242184649E+02  0.50400001928E-02 0. -1.
        1   -1    0    0  501    0  0.00000000000E+00  0.00000000000E+00 -0.16485458863E+04  0.16485458863E+04  0.50400001928E-02 0.  1.
    10030    2    1    2    0    0  0.00000000000E+00  0.00000000000E+00 -0.15743037018E+04  0.17227880709E+04  0.69969035427E+03 0.  0.
        2    1    3    3  502    0  0.22313853506E+03  0.18255348461E+03 -0.12751120934E+04  0.13072977592E+04  0.25500000920E-02 0.  1.
       -2    1    3    3    0  502 -0.22313853506E+03 -0.18255348461E+03 -0.29919160840E+03  0.41549031170E+03  0.25500000920E-02 0. -1.
</event>
<event>
 5   0  0.1119786E-02  0.7007216E+03  0.7818609E-02  0.9715999E-01
       -2   -1    0    0    0  501  0.00000000000E+00  0.00000000000E+00  0.78482612575E+02  0.78482612616E+02  0.25500000920E-02 0.  1.
        2   -1    0    0  501    0  0.00000000000E+00  0.00000000000E+00 -0.15640747586E+04  0.15640747586E+04  0.25500000920E-02 0. -1.
    10030    2    1    2    0    0  0.00000000000E+00  0.00000000000E+00 -0.14855921461E+04  0.16425573713E+04  0.70072155199E+03 0.  0.
        3    1    3    3  502    0 -0.19526869574E+03  0.21926272735E+02 -0.14227532877E+04  0.14362581776E+04  0.10100000352E+00 0. -1.
       -3    1    3    3    0  502  0.19526869574E+03 -0.21926272735E+02 -0.62838858386E+02  0.20629919364E+03  0.10100000352E+00 0.  1.
</event>
<event>
 5   0  0.1079446E-02  0.7014720E+03  0.7818609E-02  0.9714718E-01
       -2   -1    0    0    0  501  0.00000000000E+00  0.00000000000E+00  0.25948482176E+03  0.25948482177E+03  0.25500000920E-02 0.  1.
        2   -1    0    0  501    0  0.00000000000E+00  0.00000000000E+00 -0.47407676701E+03  0.47407676702E+03  0.25500000920E-02 0. -1.
    10030    2    1    2    0    0  0.00000000000E+00  0.00000000000E+00 -0.21459194525E+03  0.73356158879E+03  0.70147195353E+03 0.  0.
        2    1    3    3  502    0 -0.33913351900E+03  0.53668074993E+02 -0.18215211042E+03  0.38867878425E+03  0.25500000920E-02 0. -1.
       -2    1    3    3    0  502  0.33913351900E+03 -0.53668074993E+02 -0.32439834827E+02  0.34488280455E+03  0.25500000920E-02 0.  1.
</event>
<event>
 5   0  0.1119786E-02  0.6999804E+03  0.7818609E-02  0.9717266E-01
        2   -1    0    0  501    0  0.00000000000E+00  0.00000000000E+00  0.33180355450E+03  0.33180355451E+03  0.25500000920E-02 0.  1.
       -2   -1    0    0    0  501  0.00000000000E+00  0.00000000000E+00 -0.36917369502E+03  0.36917369503E+03  0.25500000920E-02 0. -1.
    10030    2    1    2    0    0  0.00000000000E+00  0.00000000000E+00 -0.37370140518E+02  0.70097724953E+03  0.69998041184E+03 0.  0.
        3    1    3    3  502    0  0.10280332773E+03  0.32702188385E+03  0.51993746240E+02  0.34672063186E+03  0.10100000352E+00 0.  1.
       -3    1    3    3    0  502 -0.10280332773E+03 -0.32702188385E+03 -0.89363886758E+02  0.35425661767E+03  0.10100000352E+00 0. -1.
</event>
<event>
 5   0  0.1079446E-02  0.6999073E+03  0.7818609E-02  0.9717391E-01
       -2   -1    0    0    0  501  0.00000000000E+00  0.00000000000E+00  0.18089837738E+03  0.18089837739E+03  0.25500000920E-02 0.  1.
        2   -1    0    0  501    0  0.00000000000E+00  0.00000000000E+00 -0.67699643861E+03  0.67699643862E+03  0.25500000920E-02 0. -1.
    10030    2    1    2    0    0  0.00000000000E+00  0.00000000000E+00 -0.49609806124E+03  0.85789481601E+03  0.69990730027E+03 0.  0.
        2    1    3    3  502    0 -0.31019673173E+02  0.15323162245E+03  0.13571374558E+03  0.20702746433E+03  0.25500000920E-02 0.  1.
       -2    1    3    3    0  502  0.31019673173E+02 -0.15323162245E+03 -0.63181180681E+03  0.65086735167E+03  0.25500000920E-02 0. -1.
</event>
<event>
 5   0  0.1119786E-02  0.7126278E+03  0.7818609E-02  0.9695877E-01
       -2   -1    0    0    0  501  0.00000000000E+00  0.00000000000E+00  0.31238655466E+03  0.31238655467E+03  0.25500000920E-02 0. -1.
        2   -1    0    0  501    0  0.00000000000E+00  0.00000000000E+00 -0.40641821726E+03  0.40641821727E+03  0.25500000920E-02 0.  1.
    10030    2    1    2    0    0  0.00000000000E+00  0.00000000000E+00 -0.94031662597E+02  0.71880477194E+03  0.71262777562E+03 0.  0.
        3    1    3    3  502    0 -0.16092524906E+03  0.31344627264E+03 -0.10052349969E+03  0.36640208215E+03  0.10100000352E+00 0.  1.
       -3    1    3    3    0  502  0.16092524906E+03 -0.31344627264E+03  0.64918370950E+01  0.35240268978E+03  0.10100000352E+00 0. -1.
</event>
<event>
 5   0  0.1099980E-02  0.6976459E+03  0.7818609E-02  0.9721266E-01
        2   -1    0    0  501    0  0.00000000000E+00  0.00000000000E+00  0.38327392147E+03  0.38327392147E+03  0.25500000920E-02 0. -1.
       -2   -1    0    0    0  501  0.00000000000E+00  0.00000000000E+00 -0.31746865904E+03  0.31746865905E+03  0.25500000920E-02 0.  1.
    10030    2    1    2    0    0  0.00000000000E+00  0.00000000000E+00  0.65805262427E+02  0.70074258052E+03  0.69764592136E+03 0.  0.
        5    1    3    3  502    0  0.31059033826E+03  0.15569537103E+03  0.63828272284E+02  0.35327545219E+03  0.46999998093E+01 0.  1.
       -5    1    3    3    0  502 -0.31059033826E+03 -0.15569537103E+03  0.19769901432E+01  0.34746712833E+03  0.46999998093E+01 0. -1.
</event>
<event>
 5   0  0.1100119E-02  0.6992449E+03  0.7818609E-02  0.9718524E-01
        2   -1    0    0  501    0  0.00000000000E+00  0.00000000000E+00  0.64441905788E+03  0.64441905788E+03  0.25500000920E-02 0. -1.
       -2   -1    0    0    0  501  0.00000000000E+00  0.00000000000E+00 -0.18968379340E+03  0.18968379341E+03  0.25500000920E-02 0.  1.
    10030    2    1    2    0    0  0.00000000000E+00  0.00000000000E+00  0.45473526448E+03  0.83410285130E+03  0.69924488255E+03 0.  0.
        4    1    3    3  502    0  0.19364326154E+03  0.12147491109E+03  0.54292507783E+03  0.58908668276E+03  0.12699999809E+01 0. -1.
       -4    1    3    3    0  502 -0.19364326154E+03 -0.12147491109E+03 -0.88189813349E+02  0.24501616854E+03  0.12699999809E+01 0.  1.
</event>
<event>
 5   0  0.1100119E-02  0.6993434E+03  0.7818609E-02  0.9718356E-01
        2   -1    0    0  501    0  0.00000000000E+00  0.00000000000E+00  0.28878372572E+03  0.28878372573E+03  0.25500000920E-02 0.  1.
       -2   -1    0    0    0  501  0.00000000000E+00  0.00000000000E+00 -0.42339748645E+03  0.42339748646E+03  0.25500000920E-02 0. -1.
    10030    2    1    2    0    0  0.00000000000E+00  0.00000000000E+00 -0.13461376073E+03  0.71218121219E+03  0.69934341666E+03 0.  0.
        4    1    3    3  502    0  0.12841471412E+03  0.16298835072E+03 -0.35392171304E+03  0.41026544229E+03  0.12699999809E+01 0. -1.
       -4    1    3    3    0  502 -0.12841471412E+03 -0.16298835072E+03  0.21930795231E+03  0.30191576991E+03  0.12699999809E+01 0.  1.
</event>
<event>
 5   0  0.6689415E-03  0.6990913E+03  0.7818609E-02  0.9718787E-01
       -1   -1    0    0    0  501  0.00000000000E+00  0.00000000000E+00  0.14857248781E+03  0.14857248790E+03  0.50400001928E-02 0. -1.
        1   -1    0    0  501    0  0.00000000000E+00  0.00000000000E+00 -0.82237408885E+03  0.82237408886E+03  0.50400001928E-02 0.  1.
    10030    2    1    2    0    0  0.00000000000E+00  0.00000000000E+00 -0.67380160103E+03  0.97094657676E+03  0.69909130832E+03 0.  0.
        1    1    3    3  502    0  0.21750570605E+03  0.26913590543E+03 -0.26830559934E+03  0.43787071428E+03  0.50400001928E-02 0. -1.
       -1    1    3    3    0  502 -0.21750570605E+03 -0.26913590543E+03 -0.40549600169E+03  0.53307586249E+03  0.50400001928E-02 0.  1.
</event>
<event>
 5   0  0.1079446E-02  0.7027142E+03  0.7818609E-02  0.9712602E-01
        2   -1    0    0  501    0  0.00000000000E+00  0.00000000000E+00  0.79035370455E+03  0.79035370456E+03  0.25500000920E-02 0.  1.
       -2   -1    0    0    0  501  0.00000000000E+00  0.00000000000E+00 -0.15619819436E+03  0.15619819438E+03  0.25500000920E-02 0. -1.
    10030    2    1    2    0    0  0.00000000000E+00  0.00000000000E+00  0.63415551019E+03  0.94655189894E+03  0.70271422803E+03 0.  0.
        2    1    3    3  502    0  0.27769752185E+03 -0.26794897855E+02  0.60477355758E+03  0.66602172348E+03  0.25500000920E-02 0.  1.
       -2    1    3    3    0  502 -0.27769752185E+03  0.26794897855E+02  0.29381952608E+02  0.28053017545E+03  0.25500000920E-02 0. -1.
</event>
<event>
 5   0  0.6990118E-03  0.6955825E+03  0.7818609E-02  0.9724817E-01
       -1   -1    0    0    0  501  0.00000000000E+00  0.00000000000E+00  0.14015846396E+03  0.14015846405E+03  0.50400001928E-02 0.  1.
        1   -1    0    0  501    0  0.00000000000E+00  0.00000000000E+00 -0.86301417983E+03  0.86301417984E+03  0.50400001928E-02 0. -1.
    10030    2    1    2    0    0  0.00000000000E+00  0.00000000000E+00 -0.72285571586E+03  0.10031726439E+04  0.69558246636E+03 0.  0.
        5    1    3    3  502    0 -0.70365280245E+01 -0.22755068577E+02  0.13893493145E+03  0.14104010439E+03  0.46999998093E+01 0.  1.
       -5    1    3    3    0  502  0.70365280245E+01  0.22755068577E+02 -0.86179064731E+03  0.86213253950E+03  0.46999998093E+01 0. -1.
</event>
<event>
 5   0  0.6246998E-03  0.6928354E+03  0.7818609E-02  0.9729564E-01
       -1   -1    0    0    0  501  0.00000000000E+00  0.00000000000E+00  0.85070871726E+02  0.85070871876E+02  0.50400001928E-02 0. -1.
        1   -1    0    0  501    0  0.00000000000E+00  0.00000000000E+00 -0.14106500340E+04  0.14106500340E+04  0.50400001928E-02 0.  1.
    10030    2    1    2    0    0  0.00000000000E+00  0.00000000000E+00 -0.13255791623E+04  0.14957209059E+04  0.69283541541E+03 0.  0.
        4    1    3    3  502    0  0.18760707527E+03  0.19449547902E+03 -0.11307089524E+04  0.11625529037E+04  0.12699999809E+01 0. -1.
       -4    1    3    3    0  502 -0.18760707527E+03 -0.19449547902E+03 -0.19487020985E+03  0.33316800213E+03  0.12699999809E+01 0.  1.
</event>
<event>
 5   0  0.6785252E-03  0.7005102E+03  0.7818609E-02  0.9716360E-01
        1   -1    0    0  501    0  0.00000000000E+00  0.00000000000E+00  0.11676051279E+04  0.11676051279E+04  0.50400001928E-02 0.  1.
       -1   -1    0    0    0  501  0.00000000000E+00  0.00000000000E+00 -0.10506860862E+03  0.10506860874E+03  0.50400001928E-02 0. -1.
    10030    2    1    2    0    0  0.00000000000E+00  0.00000000000E+00  0.10625365193E+04  0.12726737366E+04  0.70051023200E+03 0.  0.
        3    1    3    3  502    0  0.17996269296E+03 -0.26774721898E+03  0.28346909717E+03  0.42945300485E+03  0.10100000352E+00 0. -1.
       -3    1    3    3    0  502 -0.17996269296E+03  0.26774721898E+03  0.77906742209E+03  0.84322073177E+03  0.10100000352E+00 0.  1.
</event>
<event>
 5   0  0.1109788E-02  0.7072574E+03  0.7818609E-02  0.9704901E-01
       -2   -1    0    0    0  501  0.00000000000E+00  0.00000000000E+00  0.86978515086E+03  0.86978515087E+03  0.25500000920E-02 0. -1.
        2   -1    0    0  501    0  0.00000000000E+00  0.00000000000E+00 -0.14377487022E+03  0.14377487025E+03  0.25500000920E-02 0.  1.
    10030    2    1    2    0    0  0.00000000000E+00  0.00000000000E+00  0.72601028064E+03  0.10135600211E+04  0.70725737098E+03 0.  0.
        1    1    3    3  502    0  0.29642882336E+03  0.33327316376E+02  0.63518754673E+03  0.70174352643E+03  0.50400001928E-02 0. -1.
       -1    1    3    3    0  502 -0.29642882336E+03 -0.33327316376E+02  0.90822733910E+02  0.31181649469E+03  0.50400001928E-02 0.  1.
</event>
<event>
 5   0  0.1119786E-02  0.7003606E+03  0.7818609E-02  0.9716616E-01
        2   -1    0    0  501    0  0.00000000000E+00  0.00000000000E+00  0.91083065492E+03  0.91083065492E+03  0.25500000920E-02 0. -1.
       -2   -1    0    0    0  501  0.00000000000E+00  0.00000000000E+00 -0.13463122339E+03  0.13463122341E+03  0.25500000920E-02 0.  1.
    10030    2    1    2    0    0  0.00000000000E+00  0.00000000000E+00  0.77619943153E+03  0.10454618783E+04  0.70036060822E+03 0.  0.
        3    1    3    3  502    0 -0.12431789357E+03 -0.17746001887E+03  0.79875258925E+03  0.82761869601E+03  0.10100000352E+00 0. -1.
       -3    1    3    3    0  502  0.12431789357E+03  0.17746001887E+03 -0.22553157718E+02  0.21784318232E+03  0.10100000352E+00 0.  1.
</event>
<event>
 5   0  0.1099980E-02  0.7068442E+03  0.7818609E-02  0.9705599E-01
        2   -1    0    0  501    0  0.00000000000E+00  0.00000000000E+00  0.12011053121E+04  0.12011053121E+04  0.25500000920E-02 0. -1.
       -2   -1    0    0    0  501  0.00000000000E+00  0.00000000000E+00 -0.10399353528E+03  0.10399353531E+03  0.25500000920E-02 0.  1.
    10030    2    1    2    0    0  0.00000000000E+00  0.00000000000E+00  0.10971117768E+04  0.13050988474E+04  0.70684421953E+03 0.  0.
        5    1    3    3  502    0 -0.33247777296E+03 -0.11969818890E+03  0.55593485784E+03  0.65875244372E+03  0.46999998093E+01 0. -1.
       -5    1    3    3    0  502  0.33247777296E+03  0.11969818890E+03  0.54117691897E+03  0.64634640369E+03  0.46999998093E+01 0.  1.
</event>
<event>
 5   0  0.6990118E-03  0.7120937E+03  0.7818609E-02  0.9696771E-01
        1   -1    0    0  501    0  0.00000000000E+00  0.00000000000E+00  0.11060856886E+04  0.11060856886E+04  0.50400001928E-02 0. -1.
       -1   -1    0    0    0  501  0.00000000000E+00  0.00000000000E+00 -0.11461078288E+03  0.11461078299E+03  0.50400001928E-02 0.  1.
    10030    2    1    2    0    0  0.00000000000E+00  0.00000000000E+00  0.99147490571E+03  0.12206964716E+04  0.71209366455E+03 0.  0.
        5    1    3    3  502    0  0.14063282354E+03 -0.78949026066E+02  0.10398195852E+04  0.10522629897E+04  0.46999998093E+01 0. -1.
       -5    1    3    3    0  502 -0.14063282354E+03  0.78949026066E+02 -0.48344679507E+02  0.16843348185E+03  0.46999998093E+01 0.  1.
</event>
<event>
 5   0  0.1119786E-02  0.7000746E+03  0.7818609E-02  0.9717105E-01
       -2   -1    0    0    0  501  0.00000000000E+00  0.00000000000E+00  0.64661598853E+03  0.64661598853E+03  0.25500000920E-02 0.  1.
        2   -1    0    0  501    0  0.00000000000E+00  0.00000000000E+00 -0.18948819915E+03  0.18948819917E+03  0.25500000920E-02 0. -1.
    10030    2    1    2    0    0  0.00000000000E+00  0.00000000000E+00  0.45712778938E+03  0.83610418770E+03  0.70007456522E+03 0.  0.
        3    1    3    3  502    0 -0.10051772799E+03 -0.27644416524E+03  0.45517060783E+03  0.54194601444E+03  0.10100000352E+00 0.  1.
       -3    1    3    3    0  502  0.10051772799E+03  0.27644416524E+03  0.19571815478E+01  0.29415817326E+03  0.10100000352E+00 0. -1.
</event>
<event>
 5   0  0.1100119E-02  0.6985490E+03  0.7818609E-02  0.9719717E-01
       -2   -1    0    0    0  501  0.00000000000E+00  0.00000000000E+00  0.34471565644E+03  0.34471565645E+03  0.25500000920E-02 0. -1.
        2   -1    0    0  501    0  0.00000000000E+00  0.00000000000E+00 -0.35389363325E+03  0.35389363326E+03  0.25500000920E-02 0.  1.
    10030    2    1    2    0    0  0.00000000000E+00  0.00000000000E+00 -0.91779768146E+01  0.69860928971E+03  0.69854899929E+03 0.  0.
        4    1    3    3  502    0  0.58123196982E+00 -0.16675357678E+03  0.30233156871E+03  0.34527247724E+03  0.12699999809E+01 0. -1.
       -4    1    3    3    0  502 -0.58123196982E+00  0.16675357678E+03 -0.31150954552E+03  0.35333681248E+03  0.12699999809E+01 0.  1.
</event>
<event>
 5   0  0.1099980E-02  0.6964459E+03  0.7818609E-02  0.9723330E-01
        2   -1    0    0  501    0  0.00000000000E+00  0.00000000000E+00  0.88493614207E+03  0.88493614207E+03  0.25500000920E-02 0. -1.
       -2   -1    0    0    0  501  0.00000000000E+00  0.00000000000E+00 -0.13702594899E+03  0.13702594901E+03  0.25500000920E-02 0.  1.
    10030    2    1    2    0    0  0.00000000000E+00  0.00000000000E+00  0.74791019308E+03  0.10219620911E+04  0.69644587636E+03 0.  0.
        5    1    3    3  502    0  0.16661137241E+03 -0.15722243905E+03  0.75873449531E+03  0.79257704302E+03  0.46999998093E+01 0. -1.
       -5    1    3    3    0  502 -0.16661137241E+03  0.15722243905E+03 -0.10824302229E+02  0.22938504806E+03  0.46999998093E+01 0.  1.
</event>
<event>
 5   0  0.6785252E-03  0.7008727E+03  0.7818609E-02  0.9715741E-01
        1   -1    0    0  501    0  0.00000000000E+00  0.00000000000E+00  0.15155200996E+04  0.15155200996E+04  0.50400001928E-02 0.  1.
       -1   -1    0    0    0  501  0.00000000000E+00  0.00000000000E+00 -0.81032010313E+02  0.81032010469E+02  0.50400001928E-02 0. -1.
    10030    2    1    2    0    0  0.00000000000E+00  0.00000000000E+00  0.14344880893E+04  0.15965521101E+04  0.70087271447E+03 0.  0.
        3    1    3    3  502    0  0.27611660421E+03 -0.15393660125E+03  0.37276295516E+03  0.48876281289E+03  0.10100000352E+00 0. -1.
       -3    1    3    3    0  502 -0.27611660421E+03  0.15393660125E+03  0.10617251341E+04  0.11077892972E+04  0.10100000352E+00 0.  1.
</event>
<event>
 5   0  0.1119786E-02  0.6996054E+03  0.7818609E-02  0.9717907E-01
       -2   -1    0    0    0  501  0.00000000000E+00  0.00000000000E+00  0.97604372234E+02  0.97604372268E+02  0.25500000920E-02 0. -1.
        2   -1    0    0  501    0  0.00000000000E+00  0.00000000000E+00 -0.12536523008E+04  0.12536523009E+04  0.25500000920E-02 0.  1.
    10030    2    1    2    0    0  0.00000000000E+00  0.00000000000E+00 -0.11560479286E+04  0.13512566731E+04  0.69960544837E+03 0.  0.
        3    1    3    3  502    0 -0.11914154841E+03 -0.32887015110E+03 -0.57143127346E+03  0.66998805611E+03  0.10100000352E+00 0. -1.
       -3    1    3    3    0  502  0.11914154841E+03  0.32887015110E+03 -0.58461665515E+03  0.68126861701E+03  0.10100000352E+00 0.  1.
</event>
<event>
 5   0  0.1109788E-02  0.6975199E+03  0.7818609E-02  0.9721483E-01
       -2   -1    0    0    0  501  0.00000000000E+00  0.00000000000E+00  0.43099383416E+03  0.43099383417E+03  0.25500000920E-02 0.  1.
        2   -1    0    0  501    0  0.00000000000E+00  0.00000000000E+00 -0.28221635144E+03  0.28221635146E+03  0.25500000920E-02 0. -1.
    10030    2    1    2    0    0  0.00000000000E+00  0.00000000000E+00  0.14877748271E+03  0.71321018562E+03  0.69751991334E+03 0.  0.
        1    1    3    3  502    0 -0.21173105905E+02  0.90100980890E+02  0.41820697082E+03  0.42832646152E+03  0.50400001928E-02 0.  1.
       -1    1    3    3    0  502  0.21173105905E+02 -0.90100980890E+02 -0.26942948811E+03  0.28488372410E+03  0.50400001928E-02 0. -1.
</event>
<event>
 5   0  0.1100119E-02  0.7020315E+03  0.7818609E-02  0.9713764E-01
       -2   -1    0    0    0  501  0.00000000000E+00  0.00000000000E+00  0.70770319804E+02  0.70770319849E+02  0.25500000920E-02 0. -1.
        2   -1    0    0  501    0  0.00000000000E+00  0.00000000000E+00 -0.17410132688E+04  0.17410132688E+04  0.25500000920E-02 0.  1.
    10030    2    1    2    0    0  0.00000000000E+00  0.00000000000E+00 -0.16702429490E+04  0.18117835887E+04  0.70203152596E+03 0.  0.
        4    1    3    3  502    0  0.20530612919E+03 -0.34678447581E+02 -0.10582034594E+03  0.23356532261E+03  0.12699999809E+01 0. -1.
       -4    1    3    3    0  502 -0.20530612919E+03  0.34678447581E+02 -0.15644226031E+04  0.15782182661E+04  0.12699999809E+01 0.  1.
</event>
<event>
 5   0  0.1109788E-02  0.6917921E+03  0.7818609E-02  0.9731373E-01
        2   -1    0    0  501    0  0.00000000000E+00  0.00000000000E+00  0.14841552223E+04  0.14841552223E+04  0.25500000920E-02 0. -1.
       -2   -1    0    0    0  501  0.00000000000E+00  0.00000000000E+00 -0.80614271402E+02  0.80614271442E+02  0.25500000920E-02 0.  1.
    10030    2    1    2    0    0  0.00000000000E+00  0.00000000000E+00  0.14035409509E+04  0.15647694937E+04  0.69179214198E+03 0.  0.
        1    1    3    3  502    0  0.65057001976E+02  0.12586104292E+03  0.14155111952E+04  0.14225840430E+04  0.50400001928E-02 0. -1.
       -1    1    3    3    0  502 -0.65057001976E+02 -0.12586104292E+03 -0.11970244301E+02  0.14218545075E+03  0.50400001928E-02 0.  1.
</event>
<event>
 5   0  0.1119786E-02  0.6970016E+03  0.7818609E-02  0.9722374E-01
       -2   -1    0    0    0  501  0.00000000000E+00  0.00000000000E+00  0.19761808224E+03  0.19761808225E+03  0.25500000920E-02 0.  1.
        2   -1    0    0  501    0  0.00000000000E+00  0.00000000000E+00 -0.61458339191E+03  0.61458339192E+03  0.25500000920E-02 0. -1.
    10030    2    1    2    0    0  0.00000000000E+00  0.00000000000E+00 -0.41696530968E+03  0.81220147417E+03  0.69700155320E+03 0.  0.
        3    1    3    3  502    0  0.16341605229E+03 -0.57526770552E+02 -0.56084940407E+03  0.58699761475E+03  0.10100000352E+00 0. -1.
       -3    1    3    3    0  502 -0.16341605229E+03  0.57526770552E+02  0.14388409439E+03  0.22520385942E+03  0.10100000352E+00 0.  1.
</event>
<event>
 5   0  0.1079446E-02  0.6994292E+03  0.7818609E-02  0.9718209E-01
        2   -1    0    0  501    0  0.00000000000E+00  0.00000000000E+00  0.21060240287E+04  0.21060240287E+04  0.25500000920E-02 0.  1.
       -2   -1    0    0    0  501  0.00000000000E+00  0.00000000000E+00 -0.58071657820E+02  0.58071657876E+02  0.25500000920E-02 0. -1.
    10030    2    1    2    0    0  0.00000000000E+00  0.00000000000E+00  0.20479523709E+04  0.21640956866E+04  0.69942921534E+03 0.  0.
        2    1    3    3  502    0  0.13582495316E+02  0.25093170909E+03  0.17764766302E+04  0.17941628757E+04  0.25500000920E-02 0.  1.
       -2    1    3    3    0  502 -0.13582495316E+02 -0.25093170909E+03  0.27147574073E+03  0.36993281095E+03  0.25500000920E-02 0. -1.
</event>
<event>
 5   0  0.1109788E-02  0.7000603E+03  0.7818609E-02  0.9717129E-01
        2   -1    0    0  501    0  0.00000000000E+00  0.00000000000E+00  0.86050413397E+03  0.86050413397E+03  0.25500000920E-02 0.  1.
       -2   -1    0    0    0  501  0.00000000000E+00  0.00000000000E+00 -0.14238293739E+03  0.14238293741E+03  0.25500000920E-02 0. -1.
    10030    2    1    2    0    0  0.00000000000E+00  0.00000000000E+00  0.71812119658E+03  0.10028870714E+04  0.70006030096E+03 0.  0.
        1    1    3    3  502    0 -0.78932152339E+02 -0.11190135291E+03  0.82053775396E+03  0.83188605178E+03  0.50400001928E-02 0.  1.
       -1    1    3    3    0  502  0.78932152339E+02  0.11190135291E+03 -0.10241655738E+03  0.17100101960E+03  0.50400001928E-02 0. -1.
</event>
<event>
 5   0  0.1079446E-02  0.6994937E+03  0.7818609E-02  0.9718098E-01
        2   -1    0    0  501    0  0.00000000000E+00  0.00000000000E+00  0.50294743433E+03  0.50294743434E+03  0.25500000920E-02 0. -1.
       -2   -1    0    0    0  501  0.00000000000E+00  0.00000000000E+00 -0.24321199482E+03  0.24321199483E+03  0.25500000920E-02 0.  1.
    10030    2    1    2    0    0  0.00000000000E+00  0.00000000000E+00  0.25973543952E+03  0.74615942917E+03  0.69949367059E+03 0.  0.
        2    1    3    3  502    0  0.18206875847E+03 -0.28962898692E+03  0.20744403025E+03  0.40008375195E+03  0.25500000920E-02 0. -1.
       -2    1    3    3    0  502 -0.18206875847E+03  0.28962898692E+03  0.52291409266E+02  0.34607567722E+03  0.25500000920E-02 0.  1.
</event>
<event>
 5   0  0.6246998E-03  0.6985095E+03  0.7818609E-02  0.9719785E-01
        1   -1    0    0  501    0  0.00000000000E+00  0.00000000000E+00  0.62287974091E+03  0.62287974093E+03  0.50400001928E-02 0.  1.
       -1   -1    0    0    0  501  0.00000000000E+00  0.00000000000E+00 -0.19583054372E+03  0.19583054378E+03  0.50400001928E-02 0. -1.
    10030    2    1    2    0    0  0.00000000000E+00  0.00000000000E+00  0.42704919720E+03  0.81871028471E+03  0.69850949419E+03 0.  0.
        4    1    3    3  502    0  0.14836330127E+03  0.17333953479E+03  0.52344883719E+03  0.57101537767E+03  0.12699999809E+01 0.  1.
       -4    1    3    3    0  502 -0.14836330127E+03 -0.17333953479E+03 -0.96399639990E+02  0.24769490704E+03  0.12699999809E+01 0. -1.
</event>
<event>
 5   0  0.6609285E-03  0.6990698E+03  0.7818609E-02  0.9718824E-01
       -1   -1    0    0    0  501  0.00000000000E+00  0.00000000000E+00  0.15991046781E+03  0.15991046789E+03  0.50400001928E-02 0.  1.
        1   -1    0    0  501    0  0.00000000000E+00  0.00000000000E+00 -0.76401908436E+03  0.76401908437E+03  0.50400001928E-02 0. -1.
    10030    2    1    2    0    0  0.00000000000E+00  0.00000000000E+00 -0.60410861655E+03  0.92392955226E+03  0.69906980836E+03 0.  0.
        2    1    3    3  502    0  0.52158380163E+02 -0.27819100951E+03 -0.30989487959E+02  0.28472984172E+03  0.25500000920E-02 0. -1.
       -2    1    3    3    0  502 -0.52158380163E+02  0.27819100951E+03 -0.57311912859E+03  0.63919971054E+03  0.25500000920E-02 0.  1.
</event>
<event>
 5   0  0.6246998E-03  0.7035362E+03  0.7818609E-02  0.9711204E-01
       -1   -1    0    0    0  501  0.00000000000E+00  0.00000000000E+00  0.13839838472E+03  0.13839838481E+03  0.50400001928E-02 0.  1.
        1   -1    0    0  501    0  0.00000000000E+00  0.00000000000E+00 -0.89409140062E+03  0.89409140063E+03  0.50400001928E-02 0. -1.
    10030    2    1    2    0    0  0.00000000000E+00  0.00000000000E+00 -0.75569301590E+03  0.10324897854E+04  0.70353622705E+03 0.  0.
        4    1    3    3  502    0 -0.28801859573E+02 -0.17166656629E+03  0.70760714222E+02  0.18790329607E+03  0.12699999809E+01 0.  1.
       -4    1    3    3    0  502  0.28801859573E+02  0.17166656629E+03 -0.82645373012E+03  0.84458648937E+03  0.12699999809E+01 0. -1.
</event>
<event>
 5   0  0.4440500E-03  0.7036137E+03  0.7818609E-02  0.9711072E-01
       -3   -1    0    0    0  501  0.00000000000E+00  0.00000000000E+00  0.32937396807E+03  0.32937398356E+03  0.10100000352E+00 0. -1.
        3   -1    0    0  501    0  0.00000000000E+00  0.00000000000E+00 -0.37576757923E+03  0.37576759281E+03  0.10100000352E+00 0.  1.
    10030    2    1    2    0    0  0.00000000000E+00  0.00000000000E+00 -0.46393611158E+02  0.70514157636E+03  0.70361372610E+03 0.  0.
        5    1    3    3  502    0  0.23335952473E+03 -0.25555041212E+03  0.40053614871E+02  0.34840933251E+03  0.46999998093E+01 0. -1.
       -5    1    3    3    0  502 -0.23335952473E+03  0.25555041212E+03 -0.86447226029E+02  0.35673224385E+03  0.46999998093E+01 0.  1.
</event>
<event>
 5   0  0.6990118E-03  0.7001231E+03  0.7818609E-02  0.9717022E-01
       -1   -1    0    0    0  501  0.00000000000E+00  0.00000000000E+00  0.16658273613E+03  0.16658273621E+03  0.50400001928E-02 0. -1.
        1   -1    0    0  501    0  0.00000000000E+00  0.00000000000E+00 -0.73562894432E+03  0.73562894434E+03  0.50400001928E-02 0.  1.
    10030    2    1    2    0    0  0.00000000000E+00  0.00000000000E+00 -0.56904620819E+03  0.90221168054E+03  0.70012308165E+03 0.  0.
        5    1    3    3  502    0 -0.33898073770E+03 -0.64639423098E+02 -0.20899917509E+03  0.40347111512E+03  0.46999998093E+01 0. -1.
       -5    1    3    3    0  502  0.33898073770E+03  0.64639423098E+02 -0.36004703310E+03  0.49874056542E+03  0.46999998093E+01 0.  1.
</event>
<event>
 5   0  0.1119786E-02  0.6938186E+03  0.7818609E-02  0.9727862E-01
        2   -1    0    0  501    0  0.00000000000E+00  0.00000000000E+00  0.57814556434E+03  0.57814556434E+03  0.25500000920E-02 0. -1.
       -2   -1    0    0    0  501  0.00000000000E+00  0.00000000000E+00 -0.20815875153E+03  0.20815875155E+03  0.25500000920E-02 0.  1.
    10030    2    1    2    0    0  0.00000000000E+00  0.00000000000E+00  0.36998681280E+03  0.78630431589E+03  0.69381858979E+03 0.  0.
        3    1    3    3  502    0 -0.20751388946E+03 -0.22607822636E+03  0.16485453618E+01  0.30688125823E+03  0.10100000352E+00 0. -1.
       -3    1    3    3    0  502  0.20751388946E+03  0.22607822636E+03  0.36833826744E+03  0.47942305766E+03  0.10100000352E+00 0.  1.
</event>
<event>
 5   0  0.6990118E-03  0.6994078E+03  0.7818609E-02  0.9718245E-01
        1   -1    0    0  501    0  0.00000000000E+00  0.00000000000E+00  0.17165605649E+04  0.17165605649E+04  0.50400001928E-02 0.  1.
       -1   -1    0    0    0  501  0.00000000000E+00  0.00000000000E+00 -0.71242934408E+02  0.71242934586E+02  0.50400001928E-02 0. -1.
    10030    2    1    2    0    0  0.00000000000E+00  0.00000000000E+00  0.16453176305E+04  0.17878034995E+04  0.69940778348E+03 0.  0.
        5    1    3    3  502    0 -0.16025377966E+03  0.11343768391E+03  0.83040925925E+02  0.21323054988E+03  0.46999998093E+01 0. -1.
       -5    1    3    3    0  502  0.16025377966E+03 -0.11343768391E+03  0.15622767045E+04  0.15745729496E+04  0.46999998093E+01 0.  1.
</event>
<event>
 5   0  0.1119786E-02  0.7020059E+03  0.7818609E-02  0.9713808E-01
        2   -1    0    0  501    0  0.00000000000E+00  0.00000000000E+00  0.24584088979E+03  0.24584088980E+03  0.25500000920E-02 0. -1.
       -2   -1    0    0    0  501  0.00000000000E+00  0.00000000000E+00 -0.50114966307E+03  0.50114966308E+03  0.25500000920E-02 0.  1.
    10030    2    1    2    0    0  0.00000000000E+00  0.00000000000E+00 -0.25530877328E+03  0.74699055288E+03  0.70200592332E+03 0.  0.
        3    1    3    3  502    0  0.13727179184E+03  0.21415959543E+03  0.12970168410E+03  0.28553531167E+03  0.10100000352E+00 0. -1.
       -3    1    3    3    0  502 -0.13727179184E+03 -0.21415959543E+03 -0.38501045738E+03  0.46145524121E+03  0.10100000352E+00 0.  1.
</event>
<event>
 5   0  0.6689415E-03  0.7065521E+03  0.7818609E-02  0.9706092E-01
       -1   -1    0    0    0  501  0.00000000000E+00  0.00000000000E+00  0.14753086052E+03  0.14753086061E+03  0.50400001928E-02 0. -1.
        1   -1    0    0  501    0  0.00000000000E+00  0.00000000000E+00 -0.84595161291E+03  0.84595161293E+03  0.50400001928E-02 0.  1.
    10030    2    1    2    0    0  0.00000000000E+00  0.00000000000E+00 -0.69842075239E+03  0.99348247354E+03  0.70655210555E+03 0.  0.
        1    1    3    3  502    0 -0.34076521198E+02 -0.25629457776E+03 -0.68771503731E+03  0.73471089039E+03  0.50400001928E-02 0.  1.
       -1    1    3    3    0  502  0.34076521198E+02  0.25629457776E+03 -0.10705715077E+02  0.25877158315E+03  0.50400001928E-02 0. -1.
</event>
<event>
 5   0  0.6609285E-03  0.7013502E+03  0.7818609E-02  0.9714926E-01
        1   -1    0    0  501    0  0.00000000000E+00  0.00000000000E+00  0.48230268904E+03  0.48230268906E+03  0.50400001928E-02 0. -1.
       -1   -1    0    0    0  501  0.00000000000E+00  0.00000000000E+00 -0.25497065603E+03  0.25497065608E+03  0.50400001928E-02 0.  1.
    10030    2    1    2    0    0  0.00000000000E+00  0.00000000000E+00  0.22733203301E+03  0.73727334514E+03  0.70135022081E+03 0.  0.
        2    1    3    3  502    0 -0.19354549547E+03  0.17015986756E+03 -0.13633608771E+03  0.29155062710E+03  0.25500000920E-02 0.  1.
       -2    1    3    3    0  502  0.19354549547E+03 -0.17015986756E+03  0.36366812072E+03  0.44572271804E+03  0.25500000920E-02 0. -1.
</event>
<event>
 5   0  0.6990118E-03  0.7000155E+03  0.7818609E-02  0.9717206E-01
        1   -1    0    0  501    0  0.00000000000E+00  0.00000000000E+00  0.99414685595E+03  0.99414685597E+03  0.50400001928E-02 0. -1.
       -1   -1    0    0    0  501  0.00000000000E+00  0.00000000000E+00 -0.12322668229E+03  0.12322668239E+03  0.50400001928E-02 0.  1.
    10030    2    1    2    0    0  0.00000000000E+00  0.00000000000E+00  0.87092017367E+03  0.11173735384E+04  0.70001548220E+03 0.  0.
        5    1    3    3  502    0  0.38878473248E+02  0.33621431846E+03  0.57761915458E+03  0.66949053866E+03  0.46999998093E+01 0. -1.
       -5    1    3    3    0  502 -0.38878473248E+02 -0.33621431846E+03  0.29330101909E+03  0.44788299970E+03  0.46999998093E+01 0.  1.
</event>
<event>
 5   0  0.1100119E-02  0.6985160E+03  0.7818609E-02  0.9719773E-01
        2   -1    0    0  501    0  0.00000000000E+00  0.00000000000E+00  0.49611795764E+03  0.49611795764E+03  0.25500000920E-02 0. -1.
       -2   -1    0    0    0  501  0.00000000000E+00  0.00000000000E+00 -0.24587124294E+03  0.24587124295E+03  0.25500000920E-02 0.  1.
    10030    2    1    2    0    0  0.00000000000E+00  0.00000000000E+00  0.25024671470E+03  0.74198920060E+03  0.69851596659E+03 0.  0.
        4    1    3    3  502    0 -0.17755876561E+03 -0.11698680085E+03  0.41943477765E+03  0.47025543316E+03  0.12699999809E+01 0. -1.
       -4    1    3    3    0  502  0.17755876561E+03  0.11698680085E+03 -0.16918806295E+03  0.27173376743E+03  0.12699999809E+01 0.  1.
</event>
<event>
 5   0  0.1100119E-02  0.6997259E+03  0.7818609E-02  0.9717701E-01
       -2   -1    0    0    0  501  0.00000000000E+00  0.00000000000E+00  0.13232878473E+03  0.13232878475E+03  0.25500000920E-02 0.  1.
        2   -1    0    0  501    0  0.00000000000E+00  0.00000000000E+00 -0.92499981290E+03  0.92499981290E+03  0.25500000920E-02 0. -1.
    10030    2    1    2    0    0  0.00000000000E+00  0.00000000000E+00 -0.79267102817E+03  0.10573285977E+04  0.69972594958E+03 0.  0.
        4    1    3    3  502    0 -0.13513740003E+03  0.61423928081E+02 -0.87505211944E+03  0.88755441549E+03  0.12699999809E+01 0. -1.
       -4    1    3    3    0  502  0.13513740003E+03 -0.61423928081E+02  0.82381091268E+02  0.16977418216E+03  0.12699999809E+01 0.  1.
</event>
<event>
 5   0  0.1119786E-02  0.7067453E+03  0.7818609E-02  0.9705766E-01
        2   -1    0    0  501    0  0.00000000000E+00  0.00000000000E+00  0.35588015841E+03  0.35588015842E+03  0.25500000920E-02 0. -1.
       -2   -1    0    0    0  501  0.00000000000E+00  0.00000000000E+00 -0.35088282758E+03  0.35088282758E+03  0.25500000920E-02 0.  1.
    10030    2    1    2    0    0  0.00000000000E+00  0.00000000000E+00  0.49973308329E+01  0.70676298600E+03  0.70674531839E+03 0.  0.
        3    1    3    3  502    0  0.31482882639E+03 -0.10008746497E+03  0.12795113583E+03  0.35426853365E+03  0.10100000352E+00 0.  1.
       -3    1    3    3    0  502 -0.31482882639E+03  0.10008746497E+03 -0.12295380500E+03  0.35249445235E+03  0.10100000352E+00 0. -1.
</event>
<event>
 5   0  0.6246998E-03  0.7096661E+03  0.7818609E-02  0.9700843E-01
        1   -1    0    0  501    0  0.00000000000E+00  0.00000000000E+00  0.23115678668E+04  0.23115678668E+04  0.50400001928E-02 0. -1.
       -1   -1    0    0    0  501  0.00000000000E+00  0.00000000000E+00 -0.54468013819E+02  0.54468014053E+02  0.50400001928E-02 0.  1.
    10030    2    1    2    0    0  0.00000000000E+00  0.00000000000E+00  0.22570998530E+04  0.23660358809E+04  0.70966614911E+03 0.  0.
        4    1    3    3  502    0  0.14598817033E+03  0.24076863923E+03  0.40865936512E+03  0.49627227720E+03  0.12699999809E+01 0.  1.
       -4    1    3    3    0  502 -0.14598817033E+03 -0.24076863923E+03  0.18484404879E+04  0.18697636037E+04  0.12699999809E+01 0. -1.
</event>
<event>
 5   0  0.1100119E-02  0.7000025E+03  0.7818609E-02  0.9717228E-01
        2   -1    0    0  501    0  0.00000000000E+00  0.00000000000E+00  0.28575210596E+04  0.28575210596E+04  0.25500000920E-02 0.  1.
       -2   -1    0    0    0  501  0.00000000000E+00  0.00000000000E+00 -0.42869636619E+02  0.42869636695E+02  0.25500000920E-02 0. -1.
    10030    2    1    2    0    0  0.00000000000E+00  0.00000000000E+00  0.28146514230E+04  0.29003906963E+04  0.70000254162E+03 0.  0.
        4    1    3    3  502    0  0.23626618018E+03  0.25228126508E+03  0.16354661620E+04  0.16715916740E+04  0.12699999809E+01 0.  1.
       -4    1    3    3    0  502 -0.23626618018E+03 -0.25228126508E+03  0.11791852609E+04  0.12287990223E+04  0.12699999809E+01 0. -1.
</event>
<event>
 5   0  0.6246998E-03  0.7019758E+03  0.7818609E-02  0.9713859E-01
       -1   -1    0    0    0  501  0.00000000000E+00  0.00000000000E+00  0.35770485362E+03  0.35770485366E+03  0.50400001928E-02 0. -1.
        1   -1    0    0  501    0  0.00000000000E+00  0.00000000000E+00 -0.34439706538E+03  0.34439706542E+03  0.50400001928E-02 0.  1.
    10030    2    1    2    0    0  0.00000000000E+00  0.00000000000E+00  0.13307788240E+02  0.70210191908E+03  0.70197578843E+03 0.  0.
        4    1    3    3  502    0  0.78600854155E+02 -0.33411640494E+03 -0.66701104609E+02  0.34966057338E+03  0.12699999809E+01 0.  1.
       -4    1    3    3    0  502 -0.78600854155E+02  0.33411640494E+03  0.80008892849E+02  0.35244134570E+03  0.12699999809E+01 0. -1.
</event>
<event>
 5   0  0.1109788E-02  0.7005325E+03  0.7818609E-02  0.9716322E-01
        2   -1    0    0  501    0  0.00000000000E+00  0.00000000000E+00  0.19592670345E+03  0.19592670346E+03  0.25500000920E-02 0.  1.
       -2   -1    0    0    0  501  0.00000000000E+00  0.00000000000E+00 -0.62618545296E+03  0.62618545296E+03  0.25500000920E-02 0. -1.
    10030    2    1    2    0    0  0.00000000000E+00  0.00000000000E+00 -0.43025874951E+03  0.82211215642E+03  0.70053251617E+03 0.  0.
        1    1    3    3  502    0  0.15399102128E+03  0.18886709154E+03  0.80136320247E+02  0.25652649522E+03  0.50400001928E-02 0.  1.
       -1    1    3    3    0  502 -0.15399102128E+03 -0.18886709154E+03 -0.51039506976E+03  0.56558566120E+03  0.50400001928E-02 0. -1.
</event>
<event>
 5   0  0.1099980E-02  0.7004180E+03  0.7818609E-02  0.9716518E-01
       -2   -1    0    0    0  501  0.00000000000E+00  0.00000000000E+00  0.28858155386E+03  0.28858155387E+03  0.25500000920E-02 0.  1.
        2   -1    0    0  501    0  0.00000000000E+00  0.00000000000E+00 -0.42499713025E+03  0.42499713026E+03  0.25500000920E-02 0. -1.
    10030    2    1    2    0    0  0.00000000000E+00  0.00000000000E+00 -0.13641557640E+03  0.71357868413E+03  0.70041796733E+03 0.  0.
        5    1    3    3  502    0 -0.22565148060E+01  0.20877682559E+03  0.21819971644E+03  0.30203652265E+03  0.46999998093E+01 0.  1.
       -5    1    3    3    0  502  0.22565148060E+01 -0.20877682559E+03 -0.35461529284E+03  0.41154216148E+03  0.46999998093E+01 0. -1.
</event>
<event>
 5   0  0.6246998E-03  0.6994795E+03  0.7818609E-02  0.9718123E-01
       -1   -1    0    0    0  501  0.00000000000E+00  0.00000000000E+00  0.21631159674E+03  0.21631159680E+03  0.50400001928E-02 0. -1.
        1   -1    0    0  501    0  0.00000000000E+00  0.00000000000E+00 -0.56547073379E+03  0.56547073381E+03  0.50400001928E-02 0.  1.
    10030    2    1    2    0    0  0.00000000000E+00  0.00000000000E+00 -0.34915913704E+03  0.78178233061E+03  0.69947945608E+03 0.  0.
        4    1    3    3  502    0 -0.20152013536E+03  0.25591992193E+03 -0.31688266733E+03  0.45444648657E+03  0.12699999809E+01 0.  1.
       -4    1    3    3    0  502  0.20152013536E+03 -0.25591992193E+03 -0.32276469708E+02  0.32733584404E+03  0.12699999809E+01 0. -1.
</event>
<event>
 5   0  0.6246998E-03  0.6959837E+03  0.7818609E-02  0.9724125E-01
       -1   -1    0    0    0  501  0.00000000000E+00  0.00000000000E+00  0.11369484732E+03  0.11369484743E+03  0.50400001928E-02 0.  1.
        1   -1    0    0  501    0  0.00000000000E+00  0.00000000000E+00 -0.10651170051E+04  0.10651170051E+04  0.50400001928E-02 0. -1.
    10030    2    1    2    0    0  0.00000000000E+00  0.00000000000E+00 -0.95142215776E+03  0.11788118525E+04  0.69598366458E+03 0.  0.
        4    1    3    3  502    0  0.20140144171E+03  0.42572566527E+02 -0.95092897269E+03  0.97295554274E+03  0.12699999809E+01 0. -1.
       -4    1    3    3    0  502 -0.20140144171E+03 -0.42572566527E+02 -0.49318506625E+00  0.20585630978E+03  0.12699999809E+01 0.  1.
</event>
<event>
 5   0  0.6246998E-03  0.7000752E+03  0.7818609E-02  0.9717104E-01
       -1   -1    0    0    0  501  0.00000000000E+00  0.00000000000E+00  0.12486846645E+03  0.12486846655E+03  0.50400001928E-02 0.  1.
        1   -1    0    0  501    0  0.00000000000E+00  0.00000000000E+00 -0.98124305250E+03  0.98124305251E+03  0.50400001928E-02 0. -1.
    10030    2    1    2    0    0  0.00000000000E+00  0.00000000000E+00 -0.85637458605E+03  0.11061115191E+04  0.70007518237E+03 0.  0.
        4    1    3    3  502    0  0.13598687854E+03 -0.24246115891E+03 -0.92110251198E+02  0.29285791093E+03  0.12699999809E+01 0.  1.
       -4    1    3    3    0  502 -0.13598687854E+03  0.24246115891E+03 -0.76426433485E+03  0.81325360813E+03  0.12699999809E+01 0. -1.
</event>
<event>
 5   0  0.1100119E-02  0.7028554E+03  0.7818609E-02  0.9712361E-01
       -2   -1    0    0    0  501  0.00000000000E+00  0.00000000000E+00  0.74815443144E+02  0.74815443188E+02  0.25500000920E-02 0.  1.
        2   -1    0    0  501    0  0.00000000000E+00  0.00000000000E+00 -0.16507479598E+04  0.16507479598E+04  0.25500000920E-02 0. -1.
    10030    2    1    2    0    0  0.00000000000E+00  0.00000000000E+00 -0.15759325167E+04  0.17255634030E+04  0.70285543370E+03 0.  0.
        4    1    3    3  502    0 -0.93802649602E+02  0.15019656139E+03 -0.42730892374E+02  0.18216883979E+03  0.12699999809E+01 0.  1.
       -4    1    3    3    0  502  0.93802649602E+02 -0.15019656139E+03 -0.15332016243E+04  0.15433945632E+04  0.12699999809E+01 0. -1.
</event>
<event>
 5   0  0.6689415E-03  0.7005319E+03  0.7818609E-02  0.9716323E-01
       -1   -1    0    0    0  501  0.00000000000E+00  0.00000000000E+00  0.33350857049E+03  0.33350857053E+03  0.50400001928E-02 0.  1.
        1   -1    0    0  501    0  0.00000000000E+00  0.00000000000E+00 -0.36786528213E+03  0.36786528217E+03  0.50400001928E-02 0. -1.
    10030    2    1    2    0    0  0.00000000000E+00  0.00000000000E+00 -0.34356711646E+02  0.70137385269E+03  0.70053186766E+03 0.  0.
        1    1    3    3  502    0 -0.33483026291E+03  0.23342617420E+02 -0.11744882396E+03  0.35559866286E+03  0.50400001928E-02 0. -1.
       -1    1    3    3    0  502  0.33483026291E+03 -0.23342617420E+02  0.83092112315E+02  0.34577518983E+03  0.50400001928E-02 0.  1.
</event>
<event>
 5   0  0.1109788E-02  0.6998482E+03  0.7818609E-02  0.9717492E-01
        2   -1    0    0  501    0  0.00000000000E+00  0.00000000000E+00  0.70088973250E+03  0.70088973251E+03  0.25500000920E-02 0. -1.
       -2   -1    0    0    0  501  0.00000000000E+00  0.00000000000E+00 -0.17470204275E+03  0.17470204277E+03  0.25500000920E-02 0.  1.
    10030    2    1    2    0    0  0.00000000000E+00  0.00000000000E+00  0.52618768975E+03  0.87559177528E+03  0.69984817788E+03 0.  0.
        1    1    3    3  502    0 -0.14057272079E+03  0.19479613102E+03  0.58143028098E+03  0.62910046428E+03  0.50400001928E-02 0. -1.
       -1    1    3    3    0  502  0.14057272079E+03 -0.19479613102E+03 -0.55242591227E+02  0.24649131100E+03  0.50400001928E-02 0.  1.
</event>
<event>
 5   0  0.6990118E-03  0.6990689E+03  0.7818609E-02  0.9718826E-01
       -1   -1    0    0    0  501  0.00000000000E+00  0.00000000000E+00  0.11810807042E+03  0.11810807053E+03  0.50400001928E-02 0. -1.
        1   -1    0    0  501    0  0.00000000000E+00  0.00000000000E+00 -0.10344281646E+04  0.10344281646E+04  0.50400001928E-02 0.  1.
    10030    2    1    2    0    0  0.00000000000E+00  0.00000000000E+00 -0.91632009419E+03  0.11525362351E+04  0.69906885091E+03 0.  0.
        5    1    3    3  502    0 -0.21692929358E+03 -0.17815017494E+03 -0.80145020391E+03  0.84919981311E+03  0.46999998093E+01 0.  1.
       -5    1    3    3    0  502  0.21692929358E+03  0.17815017494E+03 -0.11486989028E+03  0.30333642204E+03  0.46999998093E+01 0. -1.
</event>
<event>
 5   0  0.6990118E-03  0.6994662E+03  0.7818609E-02  0.9718146E-01
       -1   -1    0    0    0  501  0.00000000000E+00  0.00000000000E+00  0.52934745053E+03  0.52934745055E+03  0.50400001928E-02 0.  1.
        1   -1    0    0  501    0  0.00000000000E+00  0.00000000000E+00 -0.23106418984E+03  0.23106418989E+03  0.50400001928E-02 0. -1.
    10030    2    1    2    0    0  0.00000000000E+00  0.00000000000E+00  0.29828326069E+03  0.76041164045E+03  0.69946619598E+03 0.  0.
        5    1    3    3  502    0  0.33515442133E+03  0.61325102772E+02  0.63527737105E+02  0.34662244264E+03  0.46999998093E+01 0. -1.
       -5    1    3    3    0  502 -0.33515442133E+03 -0.61325102772E+02  0.23475552359E+03  0.41378919780E+03  0.46999998093E+01 0.  1.
</event>
<event>
 5   0  0.1119786E-02  0.6990339E+03  0.7818609E-02  0.9718886E-01
        2   -1    0    0  501    0  0.00000000000E+00  0.00000000000E+00  0.43516957577E+03  0.43516957578E+03  0.25500000920E-02 0.  1.
       -2   -1    0    0    0  501  0.00000000000E+00  0.00000000000E+00 -0.28072294235E+03  0.28072294236E+03  0.25500000920E-02 0. -1.
    10030    2    1    2    0    0  0.00000000000E+00  0.00000000000E+00  0.15444663342E+03  0.71589251814E+03  0.69903385823E+03 0.  0.
        3    1    3    3  502    0 -0.26247509480E+03 -0.23068076678E+03  0.84837817354E+02  0.35958901124E+03  0.10100000352E+00 0. -1.
       -3    1    3    3    0  502  0.26247509480E+03  0.23068076678E+03  0.69608816066E+02  0.35630350690E+03  0.10100000352E+00 0.  1.
</event>
<event>
 5   0  0.6689415E-03  0.7021955E+03  0.7818609E-02  0.9713485E-01
       -1   -1    0    0    0  501  0.00000000000E+00  0.00000000000E+00  0.70112437763E+03  0.70112437765E+03  0.50400001928E-02 0. -1.
        1   -1    0    0  501    0  0.00000000000E+00  0.00000000000E+00 -0.17581704130E+03  0.17581704137E+03  0.50400001928E-02 0.  1.
    10030    2    1    2    0    0  0.00000000000E+00  0.00000000000E+00  0.52530733633E+03  0.87694141902E+03  0.70219545340E+03 0.  0.
        1    1    3    3  502    0  0.23177579384E+03  0.29659085049E+02 -0.64608560644E+02  0.24243338481E+03  0.50400001928E-02 0.  1.
       -1    1    3    3    0  502 -0.23177579384E+03 -0.29659085049E+02  0.58991589698E+03  0.63450803420E+03  0.50400001928E-02 0. -1.
</event>
<event>
 5   0  0.6990118E-03  0.6969705E+03  0.7818609E-02  0.9722427E-01
       -1   -1    0    0    0  501  0.00000000000E+00  0.00000000000E+00  0.12609803163E+03  0.12609803174E+03  0.50400001928E-02 0. -1.
        1   -1    0    0  501    0  0.00000000000E+00  0.00000000000E+00 -0.96307580314E+03  0.96307580315E+03  0.50400001928E-02 0.  1.
    10030    2    1    2    0    0  0.00000000000E+00  0.00000000000E+00 -0.83697777150E+03  0.10891738349E+04  0.69697048188E+03 0.  0.
        5    1    3    3  502    0  0.11959064872E+03 -0.31818682850E+03 -0.29870727397E+03  0.45254050273E+03  0.46999998093E+01 0.  1.
       -5    1    3    3    0  502 -0.11959064872E+03  0.31818682850E+03 -0.53827049754E+03  0.63663333216E+03  0.46999998093E+01 0. -1.
</event>
<event>
 5   0  0.4440500E-03  0.7012354E+03  0.7818609E-02  0.9715122E-01
        3   -1    0    0  501    0  0.00000000000E+00  0.00000000000E+00  0.70782434362E+03  0.70782435083E+03  0.10100000352E+00 0.  1.
       -3   -1    0    0    0  501  0.00000000000E+00  0.00000000000E+00 -0.17367693746E+03  0.17367696683E+03  0.10100000352E+00 0. -1.
    10030    2    1    2    0    0  0.00000000000E+00  0.00000000000E+00  0.53414740616E+03  0.88150131765E+03  0.70123542517E+03 0.  0.
        2    1    3    3  502    0  0.25669381668E+03  0.91462339465E+02  0.54441544863E+03  0.60880641897E+03  0.25500000920E-02 0.  1.
       -2    1    3    3    0  502 -0.25669381668E+03 -0.91462339465E+02 -0.10268042471E+02  0.27269489868E+03  0.25500000920E-02 0. -1.
</event>
<event>
 5   0  0.4440500E-03  0.7008200E+03  0.7818609E-02  0.9715831E-01
       -3   -1    0    0    0  501  0.00000000000E+00  0.00000000000E+00  0.66468497578E+03  0.66468498345E+03  0.10100000352E+00 0.  1.
        3   -1    0    0  501    0  0.00000000000E+00  0.00000000000E+00 -0.18472984143E+03  0.18472986904E+03  0.10100000352E+00 0. -1.
    10030    2    1    2    0    0  0.00000000000E+00  0.00000000000E+00  0.47995513435E+03  0.84941485249E+03  0.70081999161E+03 0.  0.
        5    1    3    3  502    0  0.34004081395E+03 -0.57370476885E+02  0.16481266533E+03  0.38223609383E+03  0.46999998093E+01 0. -1.
       -5    1    3    3    0  502 -0.34004081395E+03  0.57370476885E+02  0.31514246902E+03  0.46717875866E+03  0.46999998093E+01 0.  1.
</event>
<event>
 5   0  0.1099980E-02  0.7035100E+03  0.7818609E-02  0.9711248E-01
       -2   -1    0    0    0  501  0.00000000000E+00  0.00000000000E+00  0.82456880828E+03  0.82456880829E+03  0.25500000920E-02 0. -1.
        2   -1    0    0  501    0  0.00000000000E+00  0.00000000000E+00 -0.15005609863E+03  0.15005609865E+03  0.25500000920E-02 0.  1.
    10030    2    1    2    0    0  0.00000000000E+00  0.00000000000E+00  0.67451270965E+03  0.97462490694E+03  0.70350999548E+03 0.  0.
        5    1    3    3  502    0 -0.12460526415E+03  0.51462718531E+02  0.78731040909E+03  0.79878323312E+03  0.46999998093E+01 0. -1.
       -5    1    3    3    0  502  0.12460526415E+03 -0.51462718531E+02 -0.11279769944E+03  0.17584167381E+03  0.46999998093E+01 0.  1.
</event>
<event>
 5   0  0.6689415E-03  0.7008134E+03  0.7818609E-02  0.9715842E-01
        1   -1    0    0  501    0  0.00000000000E+00  0.00000000000E+00  0.13741178258E+04  0.13741178258E+04  0.50400001928E-02 0.  1.
       -1   -1    0    0    0  501  0.00000000000E+00  0.00000000000E+00 -0.89355405213E+02  0.89355405355E+02  0.50400001928E-02 0. -1.
    10030    2    1    2    0    0  0.00000000000E+00  0.00000000000E+00  0.12847624206E+04  0.14634732312E+04  0.70081339955E+03 0.  0.
        1    1    3    3  502    0 -0.30865080885E+03 -0.14826855412E+03  0.79775552343E+03  0.86813752432E+03  0.50400001928E-02 0.  1.
       -1    1    3    3    0  502  0.30865080885E+03  0.14826855412E+03  0.48700689719E+03  0.59533570687E+03  0.50400001928E-02 0. -1.
</event>
<event>
 5   0  0.6990118E-03  0.7005017E+03  0.7818609E-02  0.9716375E-01
        1   -1    0    0  501    0  0.00000000000E+00  0.00000000000E+00  0.97342467356E+03  0.97342467357E+03  0.50400001928E-02 0.  1.
       -1   -1    0    0    0  501  0.00000000000E+00  0.00000000000E+00 -0.12602479833E+03  0.12602479843E+03  0.50400001928E-02 0. -1.
    10030    2    1    2    0    0  0.00000000000E+00  0.00000000000E+00  0.84739987523E+03  0.10994494720E+04  0.70050167233E+03 0.  0.
        5    1    3    3  502    0  0.10516710631E+03  0.26045387449E+03  0.95384770520E+02  0.29667606144E+03  0.46999998093E+01 0. -1.
       -5    1    3    3    0  502 -0.10516710631E+03 -0.26045387449E+03  0.75201510471E+03  0.80277341056E+03  0.46999998093E+01 0.  1.
</event>
<event>
 5   0  0.6689415E-03  0.7048267E+03  0.7818609E-02  0.9709013E-01
       -1   -1    0    0    0  501  0.00000000000E+00  0.00000000000E+00  0.14983259136E+03  0.14983259144E+03  0.50400001928E-02 0.  1.
        1   -1    0    0  501    0  0.00000000000E+00  0.00000000000E+00 -0.82889288312E+03  0.82889288314E+03  0.50400001928E-02 0. -1.
    10030    2    1    2    0    0  0.00000000000E+00  0.00000000000E+00 -0.67906029176E+03  0.97872547458E+03  0.70482669837E+03 0.  0.
        1    1    3    3  502    0  0.17793972091E+03 -0.26305635887E+03 -0.55164589906E+03  0.63653310220E+03  0.50400001928E-02 0. -1.
       -1    1    3    3    0  502 -0.17793972091E+03  0.26305635887E+03 -0.12741439270E+03  0.34219237238E+03  0.50400001928E-02 0.  1.
</event>
<event>
 5   0  0.1100119E-02  0.6982808E+03  0.7818609E-02  0.9720177E-01
        2   -1    0    0  501    0  0.00000000000E+00  0.00000000000E+00  0.12050219974E+04  0.12050219974E+04  0.25500000920E-02 0.  1.
       -2   -1    0    0    0  501  0.00000000000E+00  0.00000000000E+00 -0.10115915568E+03  0.10115915571E+03  0.25500000920E-02 0. -1.
    10030    2    1    2    0    0  0.00000000000E+00  0.00000000000E+00  0.11038628417E+04  0.13061811531E+04  0.69828076832E+03 0.  0.
        4    1    3    3  502    0  0.20100367633E+03  0.20735816707E+03  0.91895134295E+03  0.96326168353E+03  0.12699999809E+01 0.  1.
       -4    1    3    3    0  502 -0.20100367633E+03 -0.20735816707E+03  0.18491149880E+03  0.34291946961E+03  0.12699999809E+01 0. -1.
</event>
<event>
 5   0  0.4440500E-03  0.7000755E+03  0.7818609E-02  0.9717103E-01
       -4   -1    0    0    0  501  0.00000000000E+00  0.00000000000E+00  0.10958918194E+03  0.10959654054E+03  0.12699999809E+01 0. -1.
        4   -1    0    0  501    0  0.00000000000E+00  0.00000000000E+00 -0.11180069111E+04  0.11180076324E+04  0.12699999809E+01 0.  1.
    10030    2    1    2    0    0  0.00000000000E+00  0.00000000000E+00 -0.10084177292E+04  0.12276041730E+04  0.70007548806E+03 0.  0.
        5    1    3    3  502    0 -0.93260754848E+02  0.33515042128E+03 -0.43672732272E+03  0.55836924852E+03  0.46999998093E+01 0. -1.
       -5    1    3    3    0  502  0.93260754848E+02 -0.33515042128E+03 -0.57169040643E+03  0.66923492444E+03  0.46999998093E+01 0.  1.
</event>
<event>
 5   0  0.6990118E-03  0.7005148E+03  0.7818609E-02  0.9716352E-01
        1   -1    0    0  501    0  0.00000000000E+00  0.00000000000E+00  0.13826511283E+03  0.13826511292E+03  0.50400001928E-02 0. -1.
       -1   -1    0    0    0  501  0.00000000000E+00  0.00000000000E+00 -0.88728267241E+03  0.88728267242E+03  0.50400001928E-02 0.  1.
    10030    2    1    2    0    0  0.00000000000E+00  0.00000000000E+00 -0.74901755958E+03  0.10255477853E+04  0.70051477891E+03 0.  0.
        5    1    3    3  502    0  0.62997770918E+02  0.67172741841E+01  0.12975996714E+03  0.14447691852E+03  0.46999998093E+01 0. -1.
       -5    1    3    3    0  502 -0.62997770918E+02 -0.67172741841E+01 -0.87877752672E+03  0.88107086683E+03  0.46999998093E+01 0.  1.
</event>
<event>
 5   0  0.1109788E-02  0.6972684E+03  0.7818609E-02  0.9721915E-01
        2   -1    0    0  501    0  0.00000000000E+00  0.00000000000E+00  0.80789715796E+03  0.80789715796E+03  0.25500000920E-02 0.  1.
       -2   -1    0    0    0  501  0.00000000000E+00  0.00000000000E+00 -0.15044712602E+03  0.15044712604E+03  0.25500000920E-02 0. -1.
    10030    2    1    2    0    0  0.00000000000E+00  0.00000000000E+00  0.65745003194E+03  0.95834428400E+03  0.69726840039E+03 0.  0.
        1    1    3    3  502    0  0.37748174783E+02 -0.32698658276E+03  0.17081149322E+03  0.37083920538E+03  0.50400001928E-02 0.  1.
       -1    1    3    3    0  502 -0.37748174783E+02  0.32698658276E+03  0.48663853872E+03  0.58750507862E+03  0.50400001928E-02 0. -1.
</event>
<event>
 5   0  0.1100119E-02  0.7036629E+03  0.7818609E-02  0.9710989E-01
        2   -1    0    0  501    0  0.00000000000E+00  0.00000000000E+00  0.57179793776E+03  0.57179793776E+03  0.25500000920E-02 0.  1.
       -2   -1    0    0    0  501  0.00000000000E+00  0.00000000000E+00 -0.21648443655E+03  0.21648443656E+03  0.25500000920E-02 0. -1.
    10030    2    1    2    0    0  0.00000000000E+00  0.00000000000E+00  0.35531350121E+03  0.78828237433E+03  0.70366285786E+03 0.  0.
        4    1    3    3  502    0  0.28991660220E+03 -0.93163046842E+01 -0.45398836871E+02  0.29360023340E+03  0.12699999809E+01 0. -1.
       -4    1    3    3    0  502 -0.28991660220E+03  0.93163046842E+01  0.40071233808E+03  0.49468214093E+03  0.12699999809E+01 0.  1.
</event>
<event>
 5   0  0.1100119E-02  0.7001469E+03  0.7818609E-02  0.9716981E-01
        2   -1    0    0  501    0  0.00000000000E+00  0.00000000000E+00  0.34147032500E+03  0.34147032501E+03  0.25500000920E-02 0. -1.
       -2   -1    0    0    0  501  0.00000000000E+00  0.00000000000E+00 -0.35889330161E+03  0.35889330162E+03  0.25500000920E-02 0.  1.
    10030    2    1    2    0    0  0.00000000000E+00  0.00000000000E+00 -0.17422976604E+02  0.70036362663E+03  0.70014687701E+03 0.  0.
        4    1    3    3  502    0 -0.24555792560E+03 -0.19769047870E+03  0.14355120257E+03  0.34639396769E+03  0.12699999809E+01 0.  1.
       -4    1    3    3    0  502  0.24555792560E+03  0.19769047870E+03 -0.16097417917E+03  0.35396965894E+03  0.12699999809E+01 0. -1.
</event>
<event>
 5   0  0.1079446E-02  0.6990261E+03  0.7818609E-02  0.9718899E-01
       -2   -1    0    0    0  501  0.00000000000E+00  0.00000000000E+00  0.12705992568E+03  0.12705992570E+03  0.25500000920E-02 0.  1.
        2   -1    0    0  501    0  0.00000000000E+00  0.00000000000E+00 -0.96143109735E+03  0.96143109735E+03  0.25500000920E-02 0. -1.
    10030    2    1    2    0    0  0.00000000000E+00  0.00000000000E+00 -0.83437117167E+03  0.10884910231E+04  0.69902607617E+03 0.  0.
        2    1    3    3  502    0 -0.16729043241E+03 -0.25582208318E+03 -0.15325682637E+03  0.34193373898E+03  0.25500000920E-02 0.  1.
       -2    1    3    3    0  502  0.16729043241E+03  0.25582208318E+03 -0.68111434531E+03  0.74655728408E+03  0.25500000920E-02 0. -1.
</event>
<event>
 5   0  0.1119786E-02  0.6996407E+03  0.7818609E-02  0.9717847E-01
       -2   -1    0    0    0  501  0.00000000000E+00  0.00000000000E+00  0.66046564239E+02  0.66046564288E+02  0.25500000920E-02 0. -1.
        2   -1    0    0  501    0  0.00000000000E+00  0.00000000000E+00 -0.18528483424E+04  0.18528483424E+04  0.25500000920E-02 0.  1.
    10030    2    1    2    0    0  0.00000000000E+00  0.00000000000E+00 -0.17868017781E+04  0.19188949067E+04  0.69964067097E+03 0.  0.
        3    1    3    3  502    0  0.14685051241E+03 -0.42799974311E+02 -0.17562682567E+04  0.17629166488E+04  0.10100000352E+00 0.  1.
       -3    1    3    3    0  502 -0.14685051241E+03  0.42799974311E+02 -0.30533521394E+02  0.15597825786E+03  0.10100000352E+00 0. -1.
</event>
<event>
 5   0  0.6689415E-03  0.6984072E+03  0.7818609E-02  0.9719960E-01
        1   -1    0    0  501    0  0.00000000000E+00  0.00000000000E+00  0.32296036161E+03  0.32296036165E+03  0.50400001928E-02 0.  1.
       -1   -1    0    0    0  501  0.00000000000E+00  0.00000000000E+00 -0.37757927879E+03  0.37757927882E+03  0.50400001928E-02 0. -1.
    10030    2    1    2    0    0  0.00000000000E+00  0.00000000000E+00 -0.54618917182E+02  0.70053964047E+03  0.69840716044E+03 0.  0.
        1    1    3    3  502    0 -0.36610068089E+02  0.25186557843E+03 -0.26713482332E+03  0.36896826494E+03  0.50400001928E-02 0. -1.
       -1    1    3    3    0  502  0.36610068089E+02 -0.25186557843E+03  0.21251590614E+03  0.33157137552E+03  0.50400001928E-02 0.  1.
</event>
<event>
 5   0  0.6246998E-03  0.7006472E+03  0.7818609E-02  0.9716126E-01
       -1   -1    0    0    0  501  0.00000000000E+00  0.00000000000E+00  0.49615738749E+03  0.49615738752E+03  0.50400001928E-02 0. -1.
        1   -1    0    0  501    0  0.00000000000E+00  0.00000000000E+00 -0.24735420131E+03  0.24735420136E+03  0.50400001928E-02 0.  1.
    10030    2    1    2    0    0  0.00000000000E+00  0.00000000000E+00  0.24880318618E+03  0.74351158887E+03  0.70064717036E+03 0.  0.
        4    1    3    3  502    0 -0.21599194775E+03  0.24920789732E+03  0.24981789426E+03  0.41372417233E+03  0.12699999809E+01 0. -1.
       -4    1    3    3    0  502  0.21599194775E+03 -0.24920789732E+03 -0.10147080826E+01  0.32978741654E+03  0.12699999809E+01 0.  1.
</event>
<event>
 5   0  0.1119786E-02  0.7002361E+03  0.7818609E-02  0.9716829E-01
        2   -1    0    0  501    0  0.00000000000E+00  0.00000000000E+00  0.82658803743E+03  0.82658803744E+03  0.25500000920E-02 0.  1.
       -2   -1    0    0    0  501  0.00000000000E+00  0.00000000000E+00 -0.14829955894E+03  0.14829955896E+03  0.25500000920E-02 0. -1.
    10030    2    1    2    0    0  0.00000000000E+00  0.00000000000E+00  0.67828847850E+03  0.97488759639E+03  0.70023607843E+03 0.  0.
        3    1    3    3  502    0  0.30937904014E+03 -0.58253905086E+02  0.12583923144E+03  0.33903455621E+03  0.10100000352E+00 0. -1.
       -3    1    3    3    0  502 -0.30937904014E+03  0.58253905086E+02  0.55244924706E+03  0.63585304018E+03  0.10100000352E+00 0.  1.
</event>
<event>
 5   0  0.1079446E-02  0.7070640E+03  0.7818609E-02  0.9705228E-01
       -2   -1    0    0    0  501  0.00000000000E+00  0.00000000000E+00  0.43339418658E+03  0.43339418659E+03  0.25500000920E-02 0. -1.
        2   -1    0    0  501    0  0.00000000000E+00  0.00000000000E+00 -0.28838610902E+03  0.28838610903E+03  0.25500000920E-02 0.  1.
    10030    2    1    2    0    0  0.00000000000E+00  0.00000000000E+00  0.14500807756E+03  0.72178029561E+03  0.70706396640E+03 0.  0.
        2    1    3    3  502    0 -0.11144026581E+03 -0.32809943438E+03  0.92550566798E+00  0.34650978089E+03  0.25500000920E-02 0.  1.
       -2    1    3    3    0  502  0.11144026581E+03  0.32809943438E+03  0.14408257190E+03  0.37527051472E+03  0.25500000920E-02 0. -1.
</event>
<event>
 5   0  0.6689415E-03  0.7010028E+03  0.7818609E-02  0.9715519E-01
        1   -1    0    0  501    0  0.00000000000E+00  0.00000000000E+00  0.99470296469E+03  0.99470296470E+03  0.50400001928E-02 0. -1.
       -1   -1    0    0    0  501  0.00000000000E+00  0.00000000000E+00 -0.12350544858E+03  0.12350544869E+03  0.50400001928E-02 0.  1.
    10030    2    1    2    0    0  0.00000000000E+00  0.00000000000E+00  0.87119751611E+03  0.11182084134E+04  0.70100281291E+03 0.  0.
        1    1    3    3  502    0  0.69926215818E+02 -0.11683621860E+03 -0.79591632998E+02  0.15771875508E+03  0.50400001928E-02 0.  1.
       -1    1    3    3    0  502 -0.69926215818E+02  0.11683621860E+03  0.95078914911E+03  0.96048965831E+03  0.50400001928E-02 0. -1.
</event>
<event>
 5   0  0.1109788E-02  0.6938924E+03  0.7818609E-02  0.9727734E-01
       -2   -1    0    0    0  501  0.00000000000E+00  0.00000000000E+00  0.57263531522E+03  0.57263531523E+03  0.25500000920E-02 0. -1.
        2   -1    0    0  501    0  0.00000000000E+00  0.00000000000E+00 -0.21020647563E+03  0.21020647565E+03  0.25500000920E-02 0.  1.
    10030    2    1    2    0    0  0.00000000000E+00  0.00000000000E+00  0.36242883959E+03  0.78284179087E+03  0.69389235892E+03 0.  0.
        1    1    3    3  502    0  0.23958717113E+03 -0.24988570702E+03  0.20710807445E+03  0.40340876746E+03  0.50400001928E-02 0.  1.
       -1    1    3    3    0  502 -0.23958717113E+03  0.24988570702E+03  0.15532076515E+03  0.37943302341E+03  0.50400001928E-02 0. -1.
</event>
<event>
 5   0  0.6609285E-03  0.6994591E+03  0.7818609E-02  0.9718158E-01
        1   -1    0    0  501    0  0.00000000000E+00  0.00000000000E+00  0.53762393554E+03  0.53762393556E+03  0.50400001928E-02 0.  1.
       -1   -1    0    0    0  501  0.00000000000E+00  0.00000000000E+00 -0.22750246425E+03  0.22750246430E+03  0.50400001928E-02 0. -1.
    10030    2    1    2    0    0  0.00000000000E+00  0.00000000000E+00  0.31012147129E+03  0.76512639987E+03  0.69945913449E+03 0.  0.
        2    1    3    3  502    0  0.29609295942E+03  0.31618041575E+02  0.35569219026E+03  0.46388325620E+03  0.25500000920E-02 0.  1.
       -2    1    3    3    0  502 -0.29609295942E+03 -0.31618041575E+02 -0.45570718967E+02  0.30124314366E+03  0.25500000920E-02 0. -1.
</event>
<event>
 5   0  0.1099980E-02  0.6992598E+03  0.7818609E-02  0.9718499E-01
        2   -1    0    0  501    0  0.00000000000E+00  0.00000000000E+00  0.38731240745E+03  0.38731240746E+03  0.25500000920E-02 0. -1.
       -2   -1    0    0    0  501  0.00000000000E+00  0.00000000000E+00 -0.31561357163E+03  0.31561357164E+03  0.25500000920E-02 0.  1.
    10030    2    1    2    0    0  0.00000000000E+00  0.00000000000E+00  0.71698835816E+02  0.70292597910E+03  0.69925975791E+03 0.  0.
        5    1    3    3  502    0 -0.25142184396E+03 -0.15820806752E+03 -0.14944341767E+03  0.33256301858E+03  0.46999998093E+01 0.  1.
       -5    1    3    3    0  502  0.25142184396E+03  0.15820806752E+03  0.22114225349E+03  0.37036296052E+03  0.46999998093E+01 0. -1.
</event>
<event>
 5   0  0.4440500E-03  0.6990476E+03  0.7818609E-02  0.9718862E-01
        4   -1    0    0  501    0  0.00000000000E+00  0.00000000000E+00  0.24130228784E+03  0.24130562989E+03  0.12699999809E+01 0.  1.
       -4   -1    0    0    0  501  0.00000000000E+00  0.00000000000E+00 -0.50627385621E+03  0.50627544912E+03  0.12699999809E+01 0. -1.
    10030    2    1    2    0    0  0.00000000000E+00  0.00000000000E+00 -0.26497156837E+03  0.74758107901E+03  0.69904759326E+03 0.  0.
        3    1    3    3  502    0 -0.28697917702E+03  0.34397436615E+01 -0.34583062698E+03  0.44940818043E+03  0.10100000352E+00 0. -1.
       -3    1    3    3    0  502  0.28697917702E+03 -0.34397436615E+01  0.80859058613E+02  0.29817289857E+03  0.10100000352E+00 0.  1.
</event>
<event>
 5   0  0.6689415E-03  0.7015772E+03  0.7818609E-02  0.9714539E-01
       -1   -1    0    0    0  501  0.00000000000E+00  0.00000000000E+00  0.71003862631E+02  0.71003862810E+02  0.50400001928E-02 0. -1.
        1   -1    0    0  501    0  0.00000000000E+00  0.00000000000E+00 -0.17330413368E+04  0.17330413368E+04  0.50400001928E-02 0.  1.
    10030    2    1    2    0    0  0.00000000000E+00  0.00000000000E+00 -0.16620374742E+04  0.18040451996E+04  0.70157716377E+03 0.  0.
        1    1    3    3  502    0 -0.22749781690E+02  0.13391665804E+03 -0.16626690009E+04  0.16682084494E+04  0.50400001928E-02 0.  1.
       -1    1    3    3    0  502  0.22749781690E+02 -0.13391665804E+03  0.63152675549E+00  0.13583675025E+03  0.50400001928E-02 0. -1.
</event>
<event>
 5   0  0.6990118E-03  0.7010077E+03  0.7818609E-02  0.9715510E-01
       -1   -1    0    0    0  501  0.00000000000E+00  0.00000000000E+00  0.37845496539E+03  0.37845496542E+03  0.50400001928E-02 0. -1.
        1   -1    0    0  501    0  0.00000000000E+00  0.00000000000E+00 -0.32461710047E+03  0.32461710051E+03  0.50400001928E-02 0.  1.
    10030    2    1    2    0    0  0.00000000000E+00  0.00000000000E+00  0.53837864914E+02  0.70307206594E+03  0.70100771337E+03 0.  0.
        5    1    3    3  502    0 -0.68971890845E+02  0.32040880636E+03  0.15142934784E+03  0.36107043954E+03  0.46999998093E+01 0. -1.
       -5    1    3    3    0  502  0.68971890845E+02 -0.32040880636E+03 -0.97591482930E+02  0.34200162640E+03  0.46999998093E+01 0.  1.
</event>
<event>
 5   0  0.1109788E-02  0.6881888E+03  0.7818609E-02  0.9737647E-01
       -2   -1    0    0    0  501  0.00000000000E+00  0.00000000000E+00  0.12185010831E+03  0.12185010833E+03  0.25500000920E-02 0. -1.
        2   -1    0    0  501    0  0.00000000000E+00  0.00000000000E+00 -0.97169334956E+03  0.97169334956E+03  0.25500000920E-02 0.  1.
    10030    2    1    2    0    0  0.00000000000E+00  0.00000000000E+00 -0.84984324125E+03  0.10935434579E+04  0.68818875289E+03 0.  0.
        1    1    3    3  502    0  0.10422864461E+03 -0.29170444835E+03 -0.18685612798E+03  0.36176001456E+03  0.50400001928E-02 0. -1.
       -1    1    3    3    0  502 -0.10422864461E+03  0.29170444835E+03 -0.66298711327E+03  0.73178344333E+03  0.50400001928E-02 0.  1.
</event>
<event>
 5   0  0.6785252E-03  0.6992884E+03  0.7818609E-02  0.9718450E-01
       -1   -1    0    0    0  501  0.00000000000E+00  0.00000000000E+00  0.26174704548E+03  0.26174704553E+03  0.50400001928E-02 0.  1.
        1   -1    0    0  501    0  0.00000000000E+00  0.00000000000E+00 -0.46705809101E+03  0.46705809103E+03  0.50400001928E-02 0. -1.
    10030    2    1    2    0    0  0.00000000000E+00  0.00000000000E+00 -0.20531104553E+03  0.72880513656E+03  0.69928842523E+03 0.  0.
        3    1    3    3  502    0 -0.24069952839E+03 -0.23355176173E+03  0.35137024819E+00  0.33538458825E+03  0.10100000352E+00 0.  1.
       -3    1    3    3    0  502  0.24069952839E+03  0.23355176173E+03 -0.20566241578E+03  0.39342054831E+03  0.10100000352E+00 0. -1.
</event>
<event>
 5   0  0.1079446E-02  0.6994225E+03  0.7818609E-02  0.9718220E-01
        2   -1    0    0  501    0  0.00000000000E+00  0.00000000000E+00  0.11668944818E+04  0.11668944818E+04  0.25500000920E-02 0.  1.
       -2   -1    0    0    0  501  0.00000000000E+00  0.00000000000E+00 -0.10480635697E+03  0.10480635700E+03  0.25500000920E-02 0. -1.
    10030    2    1    2    0    0  0.00000000000E+00  0.00000000000E+00  0.10620881249E+04  0.12717008388E+04  0.69942250359E+03 0.  0.
        2    1    3    3  502    0 -0.10952051405E+03  0.15191673857E+03  0.10680321523E+04  0.10843274952E+04  0.25500000920E-02 0.  1.
       -2    1    3    3    0  502  0.10952051405E+03 -0.15191673857E+03 -0.59440274045E+01  0.18737334369E+03  0.25500000920E-02 0. -1.
</event>
<event>
 5   0  0.6246998E-03  0.7065113E+03  0.7818609E-02  0.9706161E-01
        1   -1    0    0  501    0  0.00000000000E+00  0.00000000000E+00  0.10402778907E+04  0.10402778907E+04  0.50400001928E-02 0.  1.
       -1   -1    0    0    0  501  0.00000000000E+00  0.00000000000E+00 -0.11995789203E+03  0.11995789214E+03  0.50400001928E-02 0. -1.
    10030    2    1    2    0    0  0.00000000000E+00  0.00000000000E+00  0.92031999866E+03  0.11602357828E+04  0.70651126803E+03 0.  0.
        4    1    3    3  502    0 -0.22175559585E+03  0.36562143917E+02  0.90771893627E+03  0.93512973155E+03  0.12699999809E+01 0.  1.
       -4    1    3    3    0  502  0.22175559585E+03 -0.36562143917E+02  0.12601062392E+02  0.22510605130E+03  0.12699999809E+01 0. -1.
</event>
<event>
 5   0  0.6785252E-03  0.6983280E+03  0.7818609E-02  0.9720096E-01
        1   -1    0    0  501    0  0.00000000000E+00  0.00000000000E+00  0.29762308557E+03  0.29762308561E+03  0.50400001928E-02 0. -1.
       -1   -1    0    0    0  501  0.00000000000E+00  0.00000000000E+00 -0.40963057277E+03  0.40963057280E+03  0.50400001928E-02 0.  1.
    10030    2    1    2    0    0  0.00000000000E+00  0.00000000000E+00 -0.11200748720E+03  0.70725365841E+03  0.69832804623E+03 0.  0.
        3    1    3    3  502    0 -0.20704664552E+03 -0.16606517326E+02  0.22824597378E+03  0.30861031186E+03  0.10100000352E+00 0. -1.
       -3    1    3    3    0  502  0.20704664552E+03  0.16606517326E+02 -0.34025346098E+03  0.39864334655E+03  0.10100000352E+00 0.  1.
</event>
<event>
 5   0  0.1099980E-02  0.6989714E+03  0.7818609E-02  0.9718993E-01
       -2   -1    0    0    0  501  0.00000000000E+00  0.00000000000E+00  0.60381612803E+02  0.60381612857E+02  0.25500000920E-02 0.  1.
        2   -1    0    0  501    0  0.00000000000E+00  0.00000000000E+00 -0.20228056915E+04  0.20228056915E+04  0.25500000920E-02 0. -1.
    10030    2    1    2    0    0  0.00000000000E+00  0.00000000000E+00 -0.19624240787E+04  0.20831873044E+04  0.69897144462E+03 0.  0.
        5    1    3    3  502    0 -0.28803545313E+02  0.18893587717E+03 -0.18531486051E+04  0.18629836962E+04  0.46999998093E+01 0. -1.
       -5    1    3    3    0  502  0.28803545313E+02 -0.18893587717E+03 -0.10927547364E+03  0.22020360815E+03  0.46999998093E+01 0.  1.
</event>
<event>
 5   0  0.6990118E-03  0.6999478E+03  0.7818609E-02  0.9717321E-01
        1   -1    0    0  501    0  0.00000000000E+00  0.00000000000E+00  0.78456376742E+03  0.78456376744E+03  0.50400001928E-02 0. -1.
       -1   -1    0    0    0  501  0.00000000000E+00  0.00000000000E+00 -0.15611443896E+03  0.15611443904E+03  0.50400001928E-02 0.  1.
    10030    2    1    2    0    0  0.00000000000E+00  0.00000000000E+00  0.62844932846E+03  0.94067820648E+03  0.69994780498E+03 0.  0.
        5    1    3    3  502    0  0.13165948629E+03 -0.30008198316E+03  0.47923902393E+03  0.58058207775E+03  0.46999998093E+01 0. -1.
       -5    1    3    3    0  502 -0.13165948629E+03  0.30008198316E+03  0.14921030453E+03  0.36009612873E+03  0.46999998093E+01 0.  1.
</event>
<event>
 5   0  0.4440500E-03  0.6950676E+03  0.7818609E-02  0.9725705E-01
        4   -1    0    0  501    0  0.00000000000E+00  0.00000000000E+00  0.12565295779E+03  0.12565937570E+03  0.12699999809E+01 0. -1.
       -4   -1    0    0    0  501  0.00000000000E+00  0.00000000000E+00 -0.96118543711E+03  0.96118627613E+03  0.12699999809E+01 0.  1.
    10030    2    1    2    0    0  0.00000000000E+00  0.00000000000E+00 -0.83553247933E+03  0.10868456518E+04  0.69506758440E+03 0.  0.
        1    1    3    3  502    0  0.34552957511E+03 -0.15149015409E+02 -0.47101222172E+03  0.58435664879E+03  0.50400001928E-02 0.  1.
       -1    1    3    3    0  502 -0.34552957511E+03  0.15149015409E+02 -0.36452025761E+03  0.50248900304E+03  0.50400001928E-02 0. -1.
</event>
<event>
 5   0  0.1109788E-02  0.7031614E+03  0.7818609E-02  0.9711841E-01
       -2   -1    0    0    0  501  0.00000000000E+00  0.00000000000E+00  0.25120510115E+03  0.25120510116E+03  0.25500000920E-02 0. -1.
        2   -1    0    0  501    0  0.00000000000E+00  0.00000000000E+00 -0.49206397880E+03  0.49206397881E+03  0.25500000920E-02 0.  1.
    10030    2    1    2    0    0  0.00000000000E+00  0.00000000000E+00 -0.24085887765E+03  0.74326907997E+03  0.70316137998E+03 0.  0.
        1    1    3    3  502    0  0.24706737216E+03  0.36717673848E+02  0.14110713235E+03  0.28688272305E+03  0.50400001928E-02 0. -1.
       -1    1    3    3    0  502 -0.24706737216E+03 -0.36717673848E+02 -0.38196601000E+03  0.45638635692E+03  0.50400001928E-02 0.  1.
</event>
<event>
 5   0  0.6246998E-03  0.7025261E+03  0.7818609E-02  0.9712922E-01
        1   -1    0    0  501    0  0.00000000000E+00  0.00000000000E+00  0.16091800329E+03  0.16091800337E+03  0.50400001928E-02 0. -1.
       -1   -1    0    0    0  501  0.00000000000E+00  0.00000000000E+00 -0.76676144481E+03  0.76676144482E+03  0.50400001928E-02 0.  1.
    10030    2    1    2    0    0  0.00000000000E+00  0.00000000000E+00 -0.60584344152E+03  0.92767944819E+03  0.70252607280E+03 0.  0.
        4    1    3    3  502    0  0.18749984899E+03 -0.18936262978E+03 -0.73486595219E+00  0.26648930908E+03  0.12699999809E+01 0.  1.
       -4    1    3    3    0  502 -0.18749984899E+03  0.18936262978E+03 -0.60510857557E+03  0.66119013911E+03  0.12699999809E+01 0. -1.
</event>
<event>
 5   0  0.1109788E-02  0.7002602E+03  0.7818609E-02  0.9716787E-01
        2   -1    0    0  501    0  0.00000000000E+00  0.00000000000E+00  0.54600253029E+03  0.54600253029E+03  0.25500000920E-02 0. -1.
       -2   -1    0    0    0  501  0.00000000000E+00  0.00000000000E+00 -0.22452475407E+03  0.22452475408E+03  0.25500000920E-02 0.  1.
    10030    2    1    2    0    0  0.00000000000E+00  0.00000000000E+00  0.32147777622E+03  0.77052728438E+03  0.70026019119E+03 0.  0.
        1    1    3    3  502    0 -0.13623710082E+03 -0.57896588595E+01 -0.19410638375E+03  0.23721584270E+03  0.50400001928E-02 0.  1.
       -1    1    3    3    0  502  0.13623710082E+03  0.57896588595E+01  0.51558415997E+03  0.53331144168E+03  0.50400001928E-02 0. -1.
</event>
<event>
 5   0  0.1109788E-02  0.6998797E+03  0.7818609E-02  0.9717438E-01
       -2   -1    0    0    0  501  0.00000000000E+00  0.00000000000E+00  0.27413965743E+04  0.27413965743E+04  0.25500000920E-02 0. -1.
        2   -1    0    0  501    0  0.00000000000E+00  0.00000000000E+00 -0.44669892764E+02  0.44669892836E+02  0.25500000920E-02 0.  1.
    10030    2    1    2    0    0  0.00000000000E+00  0.00000000000E+00  0.26967266815E+04  0.27860664671E+04  0.69987967852E+03 0.  0.
        1    1    3    3  502    0  0.19854173959E+03  0.28005072820E+03  0.10780611531E+04  0.11313987284E+04  0.50400001928E-02 0. -1.
       -1    1    3    3    0  502 -0.19854173959E+03 -0.28005072820E+03  0.16186655285E+04  0.16546677388E+04  0.50400001928E-02 0.  1.
</event>
<event>
 5   0  0.6246998E-03  0.7021076E+03  0.7818609E-02  0.9713635E-01
        1   -1    0    0  501    0  0.00000000000E+00  0.00000000000E+00  0.72342217145E+03  0.72342217147E+03  0.50400001928E-02 0.  1.
       -1   -1    0    0    0  501  0.00000000000E+00  0.00000000000E+00 -0.17035525636E+03  0.17035525643E+03  0.50400001928E-02 0. -1.
    10030    2    1    2    0    0  0.00000000000E+00  0.00000000000E+00  0.55306691510E+03  0.89377742790E+03  0.70210759721E+03 0.  0.
        4    1    3    3  502    0 -0.10172430159E+03 -0.22071097716E+03 -0.45953377923E+02  0.24733478287E+03  0.12699999809E+01 0. -1.
       -4    1    3    3    0  502  0.10172430159E+03  0.22071097716E+03  0.59902029302E+03  0.64644264504E+03  0.12699999809E+01 0.  1.
</event>
<event>
 5   0  0.6785252E-03  0.6986189E+03  0.7818609E-02  0.9719597E-01
        1   -1    0    0  501    0  0.00000000000E+00  0.00000000000E+00  0.46182822234E+03  0.46182822237E+03  0.50400001928E-02 0. -1.
       -1   -1    0    0    0  501  0.00000000000E+00  0.00000000000E+00 -0.26420451586E+03  0.26420451590E+03  0.50400001928E-02 0.  1.
    10030    2    1    2    0    0  0.00000000000E+00  0.00000000000E+00  0.19762370648E+03  0.72603273827E+03  0.69861892880E+03 0.  0.
        3    1    3    3  502    0  0.69301457736E+02 -0.77142870015E+02 -0.24783876176E+03  0.26865921996E+03  0.10100000352E+00 0.  1.
       -3    1    3    3    0  502 -0.69301457736E+02  0.77142870015E+02  0.44546246824E+03  0.45737351831E+03  0.10100000352E+00 0. -1.
</event>
<event>
 5   0  0.4440500E-03  0.7012582E+03  0.7818609E-02  0.9715083E-01
        3   -1    0    0  501    0  0.00000000000E+00  0.00000000000E+00  0.12189275096E+04  0.12189275137E+04  0.10100000352E+00 0.  1.
       -3   -1    0    0    0  501  0.00000000000E+00  0.00000000000E+00 -0.10085976350E+03  0.10085981407E+03  0.10100000352E+00 0. -1.
    10030    2    1    2    0    0  0.00000000000E+00  0.00000000000E+00  0.11180677461E+04  0.13197873278E+04  0.70125823051E+03 0.  0.
        4    1    3    3  502    0 -0.24706158782E+03 -0.24764798389E+03  0.60397499952E+03  0.69796587671E+03  0.12699999809E+01 0.  1.
       -4    1    3    3    0  502  0.24706158782E+03  0.24764798389E+03  0.51409274654E+03  0.62182145110E+03  0.12699999809E+01 0. -1.
</event>
<event>
 5   0  0.1100119E-02  0.6973874E+03  0.7818609E-02  0.9721710E-01
        2   -1    0    0  501    0  0.00000000000E+00  0.00000000000E+00  0.90261883700E+03  0.90261883700E+03  0.25500000920E-02 0.  1.
       -2   -1    0    0    0  501  0.00000000000E+00  0.00000000000E+00 -0.13470504450E+03  0.13470504452E+03  0.25500000920E-02 0. -1.
    10030    2    1    2    0    0  0.00000000000E+00  0.00000000000E+00  0.76791379250E+03  0.10373238815E+04  0.69738744071E+03 0.  0.
        4    1    3    3  502    0 -0.71616566305E+02 -0.17840106445E+03 -0.48758130320E+02  0.19833013018E+03  0.12699999809E+01 0. -1.
       -4    1    3    3    0  502  0.71616566305E+02  0.17840106445E+03  0.81667192282E+03  0.83899375134E+03  0.12699999809E+01 0.  1.
</event>
<event>
 5   0  0.6246998E-03  0.7006547E+03  0.7818609E-02  0.9716113E-01
       -1   -1    0    0    0  501  0.00000000000E+00  0.00000000000E+00  0.46488922087E+03  0.46488922090E+03  0.50400001928E-02 0.  1.
        1   -1    0    0  501    0  0.00000000000E+00  0.00000000000E+00 -0.26399678329E+03  0.26399678334E+03  0.50400001928E-02 0. -1.
    10030    2    1    2    0    0  0.00000000000E+00  0.00000000000E+00  0.20089243758E+03  0.72888600424E+03  0.70065471931E+03 0.  0.
        4    1    3    3  502    0 -0.18012316016E+03  0.30047074220E+03  0.10126948657E+03  0.36466990766E+03  0.12699999809E+01 0.  1.
       -4    1    3    3    0  502  0.18012316016E+03 -0.30047074220E+03  0.99622951009E+02  0.36421609658E+03  0.12699999809E+01 0. -1.
</event>
<event>
 5   0  0.6689415E-03  0.7015744E+03  0.7818609E-02  0.9714544E-01
       -1   -1    0    0    0  501  0.00000000000E+00  0.00000000000E+00  0.10743371009E+03  0.10743371021E+03  0.50400001928E-02 0.  1.
        1   -1    0    0  501    0  0.00000000000E+00  0.00000000000E+00 -0.11453729291E+04  0.11453729291E+04  0.50400001928E-02 0. -1.
    10030    2    1    2    0    0  0.00000000000E+00  0.00000000000E+00 -0.10379392190E+04  0.12528066393E+04  0.70157441029E+03 0.  0.
        1    1    3    3  502    0  0.92005855086E+02 -0.33850634073E+03 -0.51859853621E+03  0.62609588872E+03  0.50400001928E-02 0.  1.
       -1    1    3    3    0  502 -0.92005855086E+02  0.33850634073E+03 -0.51934068281E+03  0.62671075061E+03  0.50400001928E-02 0. -1.
</event>
<event>
 5   0  0.6990118E-03  0.7009232E+03  0.7818609E-02  0.9715655E-01
        1   -1    0    0  501    0  0.00000000000E+00  0.00000000000E+00  0.77288444176E+03  0.77288444177E+03  0.50400001928E-02 0. -1.
       -1   -1    0    0    0  501  0.00000000000E+00  0.00000000000E+00 -0.15891550581E+03  0.15891550589E+03  0.50400001928E-02 0.  1.
    10030    2    1    2    0    0  0.00000000000E+00  0.00000000000E+00  0.61396893595E+03  0.93179994766E+03  0.70092316851E+03 0.  0.
        5    1    3    3  502    0  0.68176582321E+02 -0.13350620560E+03 -0.11409698348E+03  0.18844671647E+03  0.46999998093E+01 0.  1.
       -5    1    3    3    0  502 -0.68176582321E+02  0.13350620560E+03  0.72806591942E+03  0.74335323120E+03  0.46999998093E+01 0. -1.
</event>
<event>
 5   0  0.1100119E-02  0.6987255E+03  0.7818609E-02  0.9719414E-01
        2   -1    0    0  501    0  0.00000000000E+00  0.00000000000E+00  0.12959242285E+04  0.12959242285E+04  0.25500000920E-02 0. -1.
       -2   -1    0    0    0  501  0.00000000000E+00  0.00000000000E+00 -0.94183219594E+02  0.94183219629E+02  0.25500000920E-02 0.  1.
    10030    2    1    2    0    0  0.00000000000E+00  0.00000000000E+00  0.12017410090E+04  0.13901074482E+04  0.69872545744E+03 0.  0.
        4    1    3    3  502    0 -0.11555029483E+03 -0.25899370874E+02 -0.53033659285E+02  0.12975681086E+03  0.12699999809E+01 0.  1.
       -4    1    3    3    0  502  0.11555029483E+03  0.25899370874E+02  0.12547746682E+04  0.12603506373E+04  0.12699999809E+01 0. -1.
</event>
<event>
 5   0  0.1079446E-02  0.6913467E+03  0.7818609E-02  0.9732146E-01
       -2   -1    0    0    0  501  0.00000000000E+00  0.00000000000E+00  0.41600623720E+03  0.41600623721E+03  0.25500000920E-02 0.  1.
        2   -1    0    0  501    0  0.00000000000E+00  0.00000000000E+00 -0.28723142390E+03  0.28723142391E+03  0.25500000920E-02 0. -1.
    10030    2    1    2    0    0  0.00000000000E+00  0.00000000000E+00  0.12877481330E+03  0.70323766112E+03  0.69134669702E+03 0.  0.
        2    1    3    3  502    0  0.12683307261E+03  0.30748270138E+03  0.16012218801E+03  0.36914950231E+03  0.25500000920E-02 0.  1.
       -2    1    3    3    0  502 -0.12683307261E+03 -0.30748270138E+03 -0.31347374708E+02  0.33408815882E+03  0.25500000920E-02 0. -1.
</event>
<event>
 5   0  0.6990118E-03  0.7013614E+03  0.7818609E-02  0.9714907E-01
       -1   -1    0    0    0  501  0.00000000000E+00  0.00000000000E+00  0.23171491328E+03  0.23171491333E+03  0.50400001928E-02 0.  1.
        1   -1    0    0  501    0  0.00000000000E+00  0.00000000000E+00 -0.53072527120E+03  0.53072527122E+03  0.50400001928E-02 0. -1.
    10030    2    1    2    0    0  0.00000000000E+00  0.00000000000E+00 -0.29901035792E+03  0.76244018456E+03  0.70136141958E+03 0.  0.
        5    1    3    3  502    0 -0.78322321378E+02 -0.48776733882E+02  0.21824705863E+03  0.23699667591E+03  0.46999998093E+01 0.  1.
       -5    1    3    3    0  502  0.78322321378E+02  0.48776733882E+02 -0.51725741655E+03  0.52544350864E+03  0.46999998093E+01 0. -1.
</event>
<event>
 5   0  0.6689415E-03  0.6987462E+03  0.7818609E-02  0.9719379E-01
       -1   -1    0    0    0  501  0.00000000000E+00  0.00000000000E+00  0.73304016262E+02  0.73304016435E+02  0.50400001928E-02 0.  1.
        1   -1    0    0  501    0  0.00000000000E+00  0.00000000000E+00 -0.16651417711E+04  0.16651417711E+04  0.50400001928E-02 0. -1.
    10030    2    1    2    0    0  0.00000000000E+00  0.00000000000E+00 -0.15918377548E+04  0.17384457875E+04  0.69874624757E+03 0.  0.
        1    1    3    3  502    0 -0.12224819271E+03 -0.24487671164E+03 -0.25567064103E+03  0.37453531373E+03  0.50400001928E-02 0.  1.
       -1    1    3    3    0  502  0.12224819271E+03  0.24487671164E+03 -0.13361671138E+04  0.13639104738E+04  0.50400001928E-02 0. -1.
</event>
<event>
 5   0  0.1119786E-02  0.6995541E+03  0.7818609E-02  0.9717995E-01
       -2   -1    0    0    0  501  0.00000000000E+00  0.00000000000E+00  0.70682596509E+02  0.70682596555E+02  0.25500000920E-02 0.  1.
        2   -1    0    0  501    0  0.00000000000E+00  0.00000000000E+00 -0.17308924004E+04  0.17308924004E+04  0.25500000920E-02 0. -1.
    10030    2    1    2    0    0  0.00000000000E+00  0.00000000000E+00 -0.16602098039E+04  0.18015749970E+04  0.69955405562E+03 0.  0.
        3    1    3    3  502    0 -0.19616678680E+03  0.28204642483E+03 -0.66098729592E+03  0.74494013825E+03  0.10100000352E+00 0. -1.
       -3    1    3    3    0  502  0.19616678680E+03 -0.28204642483E+03 -0.99922250801E+03  0.10566348587E+04  0.10100000352E+00 0.  1.
</event>
<event>
 5   0  0.1100119E-02  0.6823970E+03  0.7818609E-02  0.9747818E-01
        2   -1    0    0  501    0  0.00000000000E+00  0.00000000000E+00  0.30615552518E+04  0.30615552518E+04  0.25500000920E-02 0. -1.
       -2   -1    0    0    0  501  0.00000000000E+00  0.00000000000E+00 -0.38025258789E+02  0.38025258874E+02  0.25500000920E-02 0.  1.
    10030    2    1    2    0    0  0.00000000000E+00  0.00000000000E+00  0.30235299930E+04  0.30995805106E+04  0.68239704243E+03 0.  0.
        4    1    3    3  502    0  0.26928559910E+03  0.12311401425E+03  0.22818381999E+04  0.23009691388E+04  0.12699999809E+01 0. -1.
       -4    1    3    3    0  502 -0.26928559910E+03 -0.12311401425E+03  0.74169179310E+03  0.79861137184E+03  0.12699999809E+01 0.  1.
</event>
<event>
 5   0  0.1100119E-02  0.6963465E+03  0.7818609E-02  0.9723501E-01
        2   -1    0    0  501    0  0.00000000000E+00  0.00000000000E+00  0.87261768122E+03  0.87261768122E+03  0.25500000920E-02 0. -1.
       -2   -1    0    0    0  501  0.00000000000E+00  0.00000000000E+00 -0.13892063025E+03  0.13892063028E+03  0.25500000920E-02 0.  1.
    10030    2    1    2    0    0  0.00000000000E+00  0.00000000000E+00  0.73369705096E+03  0.10115383115E+04  0.69634646048E+03 0.  0.
        4    1    3    3  502    0  0.37769439675E+02 -0.22246007007E+03 -0.18327501556E+02  0.22639020200E+03  0.12699999809E+01 0.  1.
       -4    1    3    3    0  502 -0.37769439675E+02  0.22246007007E+03  0.75202455252E+03  0.78514810949E+03  0.12699999809E+01 0. -1.
</event>
<event>
 5   0  0.6689415E-03  0.6985163E+03  0.7818609E-02  0.9719773E-01
       -1   -1    0    0    0  501  0.00000000000E+00  0.00000000000E+00  0.72807657160E+02  0.72807657334E+02  0.50400001928E-02 0. -1.
        1   -1    0    0  501    0  0.00000000000E+00  0.00000000000E+00 -0.16753904600E+04  0.16753904600E+04  0.50400001928E-02 0.  1.
    10030    2    1    2    0    0  0.00000000000E+00  0.00000000000E+00 -0.16025828028E+04  0.17481981173E+04  0.69851629725E+03 0.  0.
        1    1    3    3  502    0 -0.83092068241E+02  0.70984814976E+02 -0.16314970486E+04  0.16351531290E+04  0.50400001928E-02 0.  1.
       -1    1    3    3    0  502  0.83092068241E+02 -0.70984814976E+02  0.28914245715E+02  0.11304498836E+03  0.50400001928E-02 0. -1.
</event>
<event>
 5   0  0.6785252E-03  0.7007255E+03  0.7818609E-02  0.9715992E-01
        1   -1    0    0  501    0  0.00000000000E+00  0.00000000000E+00  0.29084760197E+03  0.29084760202E+03  0.50400001928E-02 0.  1.
       -1   -1    0    0    0  501  0.00000000000E+00  0.00000000000E+00 -0.42205632957E+03  0.42205632960E+03  0.50400001928E-02 0. -1.
    10030    2    1    2    0    0  0.00000000000E+00  0.00000000000E+00 -0.13120872760E+03  0.71290393162E+03  0.70072554222E+03 0.  0.
        3    1    3    3  502    0  0.14728113736E+03 -0.22319576705E+03  0.16470571907E+03  0.31406379598E+03  0.10100000352E+00 0.  1.
       -3    1    3    3    0  502 -0.14728113736E+03  0.22319576705E+03 -0.29591444667E+03  0.39884013564E+03  0.10100000352E+00 0. -1.
</event>
<event>
 5   0  0.6689415E-03  0.6992751E+03  0.7818609E-02  0.9718473E-01
       -1   -1    0    0    0  501  0.00000000000E+00  0.00000000000E+00  0.41447891441E+03  0.41447891444E+03  0.50400001928E-02 0. -1.
        1   -1    0    0  501    0  0.00000000000E+00  0.00000000000E+00 -0.29494005205E+03  0.29494005209E+03  0.50400001928E-02 0.  1.
    10030    2    1    2    0    0  0.00000000000E+00  0.00000000000E+00  0.11953886236E+03  0.70941896653E+03  0.69927514646E+03 0.  0.
        1    1    3    3  502    0  0.18190811030E+03 -0.51127661811E+02 -0.23867793473E+03  0.30442035895E+03  0.50400001928E-02 0.  1.
       -1    1    3    3    0  502 -0.18190811030E+03  0.51127661811E+02  0.35821679709E+03  0.40499860757E+03  0.50400001928E-02 0. -1.
</event>
<event>
 5   0  0.4440500E-03  0.6992359E+03  0.7818609E-02  0.9718540E-01
       -4   -1    0    0    0  501  0.00000000000E+00  0.00000000000E+00  0.33862401948E+03  0.33862640102E+03  0.12699999809E+01 0.  1.
        4   -1    0    0  501    0  0.00000000000E+00  0.00000000000E+00 -0.36096406524E+03  0.36096629939E+03  0.12699999809E+01 0. -1.
    10030    2    1    2    0    0  0.00000000000E+00  0.00000000000E+00 -0.22340045764E+02  0.69959270041E+03  0.69923591786E+03 0.  0.
        1    1    3    3  502    0 -0.29272970825E+03  0.18169904921E+03  0.48252963398E+02  0.34789880006E+03  0.50400001928E-02 0.  1.
       -1    1    3    3    0  502  0.29272970825E+03 -0.18169904921E+03 -0.70593009162E+02  0.35169390036E+03  0.50400001928E-02 0. -1.
</event>
<event>
 5   0  0.1119786E-02  0.7017230E+03  0.7818609E-02  0.9714290E-01
       -2   -1    0    0    0  501  0.00000000000E+00  0.00000000000E+00  0.26463639214E+03  0.26463639215E+03  0.25500000920E-02 0. -1.
        2   -1    0    0  501    0  0.00000000000E+00  0.00000000000E+00 -0.46518093212E+03  0.46518093213E+03  0.25500000920E-02 0.  1.
    10030    2    1    2    0    0  0.00000000000E+00  0.00000000000E+00 -0.20054453998E+03  0.72981732428E+03  0.70172303247E+03 0.  0.
        3    1    3    3  502    0  0.27619011836E+02  0.28299421070E+03 -0.31406297892E+03  0.42365563614E+03  0.10100000352E+00 0.  1.
       -3    1    3    3    0  502 -0.27619011836E+02 -0.28299421070E+03  0.11351843894E+03  0.30616168814E+03  0.10100000352E+00 0. -1.
</event>
<event>
 5   0  0.1119786E-02  0.6999363E+03  0.7818609E-02  0.9717341E-01
        2   -1    0    0  501    0  0.00000000000E+00  0.00000000000E+00  0.16827745362E+04  0.16827745362E+04  0.25500000920E-02 0.  1.
       -2   -1    0    0    0  501  0.00000000000E+00  0.00000000000E+00 -0.72783202549E+02  0.72783202594E+02  0.25500000920E-02 0. -1.
    10030    2    1    2    0    0  0.00000000000E+00  0.00000000000E+00  0.16099913336E+04  0.17555577388E+04  0.69993633982E+03 0.  0.
        3    1    3    3  502    0 -0.18696893749E+03  0.27939079066E+03  0.56103058382E+03  0.65404275371E+03  0.10100000352E+00 0. -1.
       -3    1    3    3    0  502  0.18696893749E+03 -0.27939079066E+03  0.10489607498E+04  0.11015149851E+04  0.10100000352E+00 0.  1.
</event>
<event>
 5   0  0.4440500E-03  0.7003202E+03  0.7818609E-02  0.9716685E-01
       -3   -1    0    0    0  501  0.00000000000E+00  0.00000000000E+00  0.15543503534E+04  0.15543503566E+04  0.10100000352E+00 0.  1.
        3   -1    0    0  501    0  0.00000000000E+00  0.00000000000E+00 -0.78883151846E+02  0.78883216505E+02  0.10100000352E+00 0. -1.
    10030    2    1    2    0    0  0.00000000000E+00  0.00000000000E+00  0.14754672015E+04  0.16332335732E+04  0.70032024225E+03 0.  0.
        1    1    3    3  502    0  0.18083421873E+03  0.29525941110E+03  0.61581512629E+03  0.70647533878E+03  0.50400001928E-02 0. -1.
       -1    1    3    3    0  502 -0.18083421873E+03 -0.29525941110E+03  0.85965207523E+03  0.92675823438E+03  0.50400001928E-02 0.  1.
</event>
<event>
 5   0  0.6785252E-03  0.7046058E+03  0.7818609E-02  0.9709388E-01
       -1   -1    0    0    0  501  0.00000000000E+00  0.00000000000E+00  0.21652032704E+03  0.21652032710E+03  0.50400001928E-02 0. -1.
        1   -1    0    0  501    0  0.00000000000E+00  0.00000000000E+00 -0.57323646945E+03  0.57323646947E+03  0.50400001928E-02 0.  1.
    10030    2    1    2    0    0  0.00000000000E+00  0.00000000000E+00 -0.35671614241E+03  0.78975679657E+03  0.70460584122E+03 0.  0.
        3    1    3    3  502    0  0.43922572861E+02  0.19064834996E+03 -0.50675221762E+03  0.54320696425E+03  0.10100000352E+00 0.  1.
       -3    1    3    3    0  502 -0.43922572861E+02 -0.19064834996E+03  0.15003607522E+03  0.24654983232E+03  0.10100000352E+00 0. -1.
</event>
<event>
 5   0  0.1079446E-02  0.7055340E+03  0.7818609E-02  0.9707815E-01
        2   -1    0    0  501    0  0.00000000000E+00  0.00000000000E+00  0.52455970112E+03  0.52455970113E+03  0.25500000920E-02 0. -1.
       -2   -1    0    0    0  501  0.00000000000E+00  0.00000000000E+00 -0.23723622454E+03  0.23723622455E+03  0.25500000920E-02 0.  1.
    10030    2    1    2    0    0  0.00000000000E+00  0.00000000000E+00  0.28732347658E+03  0.76179592568E+03  0.70553401915E+03 0.  0.
        2    1    3    3  502    0  0.29820798166E+02 -0.83943541408E+02 -0.22489129128E+03  0.24189231291E+03  0.25500000920E-02 0.  1.
       -2    1    3    3    0  502 -0.29820798166E+02  0.83943541408E+02  0.51221476786E+03  0.51990361277E+03  0.25500000920E-02 0. -1.
</event>
<event>
 5   0  0.1109788E-02  0.7022346E+03  0.7818609E-02  0.9713418E-01
        2   -1    0    0  501    0  0.00000000000E+00  0.00000000000E+00  0.64110975475E+03  0.64110975476E+03  0.25500000920E-02 0.  1.
       -2   -1    0    0    0  501  0.00000000000E+00  0.00000000000E+00 -0.19229678865E+03  0.19229678866E+03  0.25500000920E-02 0. -1.
    10030    2    1    2    0    0  0.00000000000E+00  0.00000000000E+00  0.44881296611E+03  0.83340654342E+03  0.70223456770E+03 0.  0.
        1    1    3    3  502    0  0.19514192061E+03  0.78110014046E+02  0.55819231220E+03  0.59645636965E+03  0.50400001928E-02 0.  1.
       -1    1    3    3    0  502 -0.19514192061E+03 -0.78110014046E+02 -0.10937934609E+03  0.23695017377E+03  0.50400001928E-02 0. -1.
</event>
<event>
 5   0  0.1100119E-02  0.6984614E+03  0.7818609E-02  0.9719867E-01
        2   -1    0    0  501    0  0.00000000000E+00  0.00000000000E+00  0.11022330551E+04  0.11022330551E+04  0.25500000920E-02 0. -1.
       -2   -1    0    0    0  501  0.00000000000E+00  0.00000000000E+00 -0.11065000283E+03  0.11065000286E+03  0.25500000920E-02 0.  1.
    10030    2    1    2    0    0  0.00000000000E+00  0.00000000000E+00  0.99158305228E+03  0.12128830580E+04  0.69846142539E+03 0.  0.
        4    1    3    3  502    0 -0.27379477160E+02 -0.34786586581E+03  0.47122247450E+03  0.58635529309E+03  0.12699999809E+01 0. -1.
       -4    1    3    3    0  502  0.27379477160E+02  0.34786586581E+03  0.52036057778E+03  0.62652776488E+03  0.12699999809E+01 0.  1.
</event>
<event>
 5   0  0.4440500E-03  0.7046154E+03  0.7818609E-02  0.9709372E-01
        3   -1    0    0  501    0  0.00000000000E+00  0.00000000000E+00  0.10408276737E+04  0.10408276786E+04  0.10100000352E+00 0. -1.
       -3   -1    0    0    0  501  0.00000000000E+00  0.00000000000E+00 -0.11925192429E+03  0.11925196706E+03  0.10100000352E+00 0.  1.
    10030    2    1    2    0    0  0.00000000000E+00  0.00000000000E+00  0.92157574936E+03  0.11600796456E+04  0.70461544289E+03 0.  0.
        1    1    3    3  502    0  0.26942614505E+03 -0.22457948896E+03  0.40632369020E+03  0.53677307658E+03  0.50400001928E-02 0.  1.
       -1    1    3    3    0  502 -0.26942614505E+03  0.22457948896E+03  0.51525205917E+03  0.62330656904E+03  0.50400001928E-02 0. -1.
</event>
<event>
 5   0  0.6990118E-03  0.7005515E+03  0.7818609E-02  0.9716290E-01
       -1   -1    0    0    0  501  0.00000000000E+00  0.00000000000E+00  0.33116004822E+03  0.33116004825E+03  0.50400001928E-02 0.  1.
        1   -1    0    0  501    0  0.00000000000E+00  0.00000000000E+00 -0.37049488000E+03  0.37049488003E+03  0.50400001928E-02 0. -1.
    10030    2    1    2    0    0  0.00000000000E+00  0.00000000000E+00 -0.39334831780E+02  0.70165492828E+03  0.70055150374E+03 0.  0.
        5    1    3    3  502    0  0.19068632695E+03  0.54448840678E+02  0.26948274895E+03  0.33461768262E+03  0.46999998093E+01 0.  1.
       -5    1    3    3    0  502 -0.19068632695E+03 -0.54448840678E+02 -0.30881758073E+03  0.36703724567E+03  0.46999998093E+01 0. -1.
</event>
<event>
 5   0  0.1109788E-02  0.6984321E+03  0.7818609E-02  0.9719917E-01
        2   -1    0    0  501    0  0.00000000000E+00  0.00000000000E+00  0.34904292503E+03  0.34904292504E+03  0.25500000920E-02 0.  1.
       -2   -1    0    0    0  501  0.00000000000E+00  0.00000000000E+00 -0.34938928159E+03  0.34938928160E+03  0.25500000920E-02 0. -1.
    10030    2    1    2    0    0  0.00000000000E+00  0.00000000000E+00 -0.34635656273E+00  0.69843220664E+03  0.69843212076E+03 0.  0.
        1    1    3    3  502    0  0.18628747944E+03 -0.13045935824E+03 -0.26518111198E+03  0.34934752228E+03  0.50400001928E-02 0.  1.
       -1    1    3    3    0  502 -0.18628747944E+03  0.13045935824E+03  0.26483475542E+03  0.34908468436E+03  0.50400001928E-02 0. -1.
</event>
<event>
 5   0  0.1119786E-02  0.6959741E+03  0.7818609E-02  0.9724142E-01
       -2   -1    0    0    0  501  0.00000000000E+00  0.00000000000E+00  0.46095879447E+02  0.46095879518E+02  0.25500000920E-02 0.  1.
        2   -1    0    0  501    0  0.00000000000E+00  0.00000000000E+00 -0.26270244133E+04  0.26270244133E+04  0.25500000920E-02 0. -1.
    10030    2    1    2    0    0  0.00000000000E+00  0.00000000000E+00 -0.25809285339E+04  0.26731202929E+04  0.69597413963E+03 0.  0.
        3    1    3    3  502    0 -0.24961194177E+03  0.22519205630E+03 -0.16356567895E+04  0.16698475160E+04  0.10100000352E+00 0. -1.
       -3    1    3    3    0  502  0.24961194177E+03 -0.22519205630E+03 -0.94527174443E+03  0.10032727768E+04  0.10100000352E+00 0.  1.
</event>
<event>
 5   0  0.6246998E-03  0.7042452E+03  0.7818609E-02  0.9710000E-01
       -1   -1    0    0    0  501  0.00000000000E+00  0.00000000000E+00  0.15583116702E+03  0.15583116710E+03  0.50400001928E-02 0. -1.
        1   -1    0    0  501    0  0.00000000000E+00  0.00000000000E+00 -0.79567085227E+03  0.79567085229E+03  0.50400001928E-02 0.  1.
    10030    2    1    2    0    0  0.00000000000E+00  0.00000000000E+00 -0.63983968525E+03  0.95150201939E+03  0.70424517753E+03 0.  0.
        4    1    3    3  502    0 -0.16684316484E+03 -0.96431523155E+02 -0.71809880029E+03  0.74350735047E+03  0.12699999809E+01 0.  1.
       -4    1    3    3    0  502  0.16684316484E+03  0.96431523155E+02  0.78259115044E+02  0.20799466892E+03  0.12699999809E+01 0. -1.
</event>
<event>
 5   0  0.4440500E-03  0.6972217E+03  0.7818609E-02  0.9721995E-01
        3   -1    0    0  501    0  0.00000000000E+00  0.00000000000E+00  0.25946741609E+03  0.25946743575E+03  0.10100000352E+00 0. -1.
       -3   -1    0    0    0  501  0.00000000000E+00  0.00000000000E+00 -0.46838066997E+03  0.46838068086E+03  0.10100000352E+00 0.  1.
    10030    2    1    2    0    0  0.00000000000E+00  0.00000000000E+00 -0.20891325388E+03  0.72784811660E+03  0.69722172456E+03 0.  0.
        5    1    3    3  502    0 -0.13174551534E+03  0.13690744513E+02 -0.44105306558E+03  0.46053687578E+03  0.46999998093E+01 0.  1.
       -5    1    3    3    0  502  0.13174551534E+03 -0.13690744513E+02  0.23213981170E+03  0.26731124083E+03  0.46999998093E+01 0. -1.
</event>
<event>
 5   0  0.1099980E-02  0.7051530E+03  0.7818609E-02  0.9708460E-01
        2   -1    0    0  501    0  0.00000000000E+00  0.00000000000E+00  0.12288910963E+04  0.12288910963E+04  0.25500000920E-02 0. -1.
       -2   -1    0    0    0  501  0.00000000000E+00  0.00000000000E+00 -0.10115639021E+03  0.10115639024E+03  0.25500000920E-02 0.  1.
    10030    2    1    2    0    0  0.00000000000E+00  0.00000000000E+00  0.11277347061E+04  0.13300474866E+04  0.70515299698E+03 0.  0.
        5    1    3    3  502    0 -0.20755314845E+03 -0.18412557873E+03  0.97411779838E+03  0.10128712225E+04  0.46999998093E+01 0. -1.
       -5    1    3    3    0  502  0.20755314845E+03  0.18412557873E+03  0.15361690775E+03  0.31717626411E+03  0.46999998093E+01 0.  1.
</event>
<event>
 5   0  0.1079446E-02  0.6929283E+03  0.7818609E-02  0.9729403E-01
       -2   -1    0    0    0  501  0.00000000000E+00  0.00000000000E+00  0.15809888517E+03  0.15809888519E+03  0.25500000920E-02 0.  1.
        2   -1    0    0  501    0  0.00000000000E+00  0.00000000000E+00 -0.75925515410E+03  0.75925515410E+03  0.25500000920E-02 0. -1.
    10030    2    1    2    0    0  0.00000000000E+00  0.00000000000E+00 -0.60115626893E+03  0.91735403929E+03  0.69292826016E+03 0.  0.
        2    1    3    3  502    0 -0.29030246846E+03 -0.13029917612E+03 -0.11913410377E+03  0.33977394424E+03  0.25500000920E-02 0. -1.
       -2    1    3    3    0  502  0.29030246846E+03  0.13029917612E+03 -0.48202216516E+03  0.57758009506E+03  0.25500000920E-02 0.  1.
</event>
<event>
 5   0  0.1079446E-02  0.7014235E+03  0.7818609E-02  0.9714801E-01
        2   -1    0    0  501    0  0.00000000000E+00  0.00000000000E+00  0.12156251694E+04  0.12156251694E+04  0.25500000920E-02 0. -1.
       -2   -1    0    0    0  501  0.00000000000E+00  0.00000000000E+00 -0.10118145210E+03  0.10118145214E+03  0.25500000920E-02 0.  1.
    10030    2    1    2    0    0  0.00000000000E+00  0.00000000000E+00  0.11144437173E+04  0.13168066215E+04  0.70142346661E+03 0.  0.
        2    1    3    3  502    0 -0.14097020270E+03 -0.58542386039E+02 -0.35549098615E+02  0.15672762179E+03  0.25500000920E-02 0.  1.
       -2    1    3    3    0  502  0.14097020270E+03  0.58542386039E+02  0.11499928159E+04  0.11600789998E+04  0.25500000920E-02 0. -1.
</event>
<event>
 5   0  0.6785252E-03  0.7235283E+03  0.7818609E-02  0.9677821E-01
       -1   -1    0    0    0  501  0.00000000000E+00  0.00000000000E+00  0.13664341914E+03  0.13664341923E+03  0.50400001928E-02 0.  1.
        1   -1    0    0  501    0  0.00000000000E+00  0.00000000000E+00 -0.95777239166E+03  0.95777239167E+03  0.50400001928E-02 0. -1.
    10030    2    1    2    0    0  0.00000000000E+00  0.00000000000E+00 -0.82112897252E+03  0.10944158109E+04  0.72352828394E+03 0.  0.
        3    1    3    3  502    0 -0.21015814757E+03  0.28759576543E+03 -0.50617664321E+03  0.61894472743E+03  0.10100000352E+00 0. -1.
       -3    1    3    3    0  502  0.21015814757E+03 -0.28759576543E+03 -0.31495232930E+03  0.47547108347E+03  0.10100000352E+00 0.  1.
</event>
<event>
 5   0  0.6609285E-03  0.7007667E+03  0.7818609E-02  0.9715922E-01
       -1   -1    0    0    0  501  0.00000000000E+00  0.00000000000E+00  0.27684980473E+03  0.27684980477E+03  0.50400001928E-02 0.  1.
        1   -1    0    0  501    0  0.00000000000E+00  0.00000000000E+00 -0.44344798551E+03  0.44344798554E+03  0.50400001928E-02 0. -1.
    10030    2    1    2    0    0  0.00000000000E+00  0.00000000000E+00 -0.16659818079E+03  0.72029779031E+03  0.70076668934E+03 0.  0.
        2    1    3    3  502    0 -0.24625230918E+03  0.70555620714E+01  0.17280072551E+03  0.30091538923E+03  0.25500000920E-02 0.  1.
       -2    1    3    3    0  502  0.24625230918E+03 -0.70555620714E+01 -0.33939890630E+03  0.41938240108E+03  0.25500000920E-02 0. -1.
</event>
<event>
 5   0  0.1109788E-02  0.6995058E+03  0.7818609E-02  0.9718078E-01
       -2   -1    0    0    0  501  0.00000000000E+00  0.00000000000E+00  0.15623572428E+03  0.15623572430E+03  0.25500000920E-02 0.  1.
        2   -1    0    0  501    0  0.00000000000E+00  0.00000000000E+00 -0.78296500600E+03  0.78296500601E+03  0.25500000920E-02 0. -1.
    10030    2    1    2    0    0  0.00000000000E+00  0.00000000000E+00 -0.62672928173E+03  0.93920073031E+03  0.69950583931E+03 0.  0.
        1    1    3    3  502    0 -0.30255530610E+03  0.17308228023E+03 -0.27468485197E+03  0.44378931590E+03  0.50400001928E-02 0.  1.
       -1    1    3    3    0  502  0.30255530610E+03 -0.17308228023E+03 -0.35204442975E+03  0.49541141440E+03  0.50400001928E-02 0. -1.
</event>
<event>
 5   0  0.4440500E-03  0.7383422E+03  0.7818609E-02  0.9653819E-01
        4   -1    0    0  501    0  0.00000000000E+00  0.00000000000E+00  0.28378436403E+03  0.28378720579E+03  0.12699999809E+01 0. -1.
       -4   -1    0    0    0  501  0.00000000000E+00  0.00000000000E+00 -0.48024336165E+03  0.48024504090E+03  0.12699999809E+01 0.  1.
    10030    2    1    2    0    0  0.00000000000E+00  0.00000000000E+00 -0.19645899762E+03  0.76403224669E+03  0.73834215390E+03 0.  0.
        4    1    3    3  502    0 -0.88913680214E+02 -0.11733336887E+03 -0.44855422619E+03  0.47209667306E+03  0.12699999809E+01 0.  1.
       -4    1    3    3    0  502  0.88913680214E+02  0.11733336887E+03  0.25209522857E+03  0.29193557363E+03  0.12699999809E+01 0. -1.
</event>
<event>
 5   0  0.6990118E-03  0.7006894E+03  0.7818609E-02  0.9716054E-01
        1   -1    0    0  501    0  0.00000000000E+00  0.00000000000E+00  0.32377837306E+03  0.32377837310E+03  0.50400001928E-02 0.  1.
       -1   -1    0    0    0  501  0.00000000000E+00  0.00000000000E+00 -0.37909076616E+03  0.37909076619E+03  0.50400001928E-02 0. -1.
    10030    2    1    2    0    0  0.00000000000E+00  0.00000000000E+00 -0.55312393094E+02  0.70286913930E+03  0.70068935067E+03 0.  0.
        5    1    3    3  502    0  0.17620644026E+03 -0.54052094075E+02  0.27117821219E+03  0.32791775071E+03  0.46999998093E+01 0.  1.
       -5    1    3    3    0  502 -0.17620644026E+03  0.54052094075E+02 -0.32649060529E+03  0.37495138859E+03  0.46999998093E+01 0. -1.
</event>
<event>
 5   0  0.1099980E-02  0.6985045E+03  0.7818609E-02  0.9719793E-01
        2   -1    0    0  501    0  0.00000000000E+00  0.00000000000E+00  0.32096523418E+03  0.32096523419E+03  0.25500000920E-02 0.  1.
       -2   -1    0    0    0  501  0.00000000000E+00  0.00000000000E+00 -0.38003218104E+03  0.38003218105E+03  0.25500000920E-02 0. -1.
    10030    2    1    2    0    0  0.00000000000E+00  0.00000000000E+00 -0.59066946860E+02  0.70099741524E+03  0.69850445378E+03 0.  0.
        5    1    3    3  502    0 -0.95069366525E+02 -0.18121865382E+03  0.25445464235E+03  0.32656950249E+03  0.46999998093E+01 0.  1.
       -5    1    3    3    0  502  0.95069366525E+02  0.18121865382E+03 -0.31352158921E+03  0.37442791275E+03  0.46999998093E+01 0. -1.
</event>
<event>
 5   0  0.4440500E-03  0.6915920E+03  0.7818609E-02  0.9731720E-01
        4   -1    0    0  501    0  0.00000000000E+00  0.00000000000E+00  0.32814154096E+03  0.32814399858E+03  0.12699999809E+01 0.  1.
       -4   -1    0    0    0  501  0.00000000000E+00  0.00000000000E+00 -0.36439535204E+03  0.36439756516E+03  0.12699999809E+01 0. -1.
    10030    2    1    2    0    0  0.00000000000E+00  0.00000000000E+00 -0.36253811085E+02  0.69254156373E+03  0.69159198859E+03 0.  0.
        4    1    3    3  502    0  0.19153511099E+03  0.16692434194E+03 -0.25302055024E+03  0.35856721325E+03  0.12699999809E+01 0. -1.
       -4    1    3    3    0  502 -0.19153511099E+03 -0.16692434194E+03  0.21676673915E+03  0.33397435048E+03  0.12699999809E+01 0.  1.
</event>
<event>
 5   0  0.6689415E-03  0.6990009E+03  0.7818609E-02  0.9718942E-01
       -1   -1    0    0    0  501  0.00000000000E+00  0.00000000000E+00  0.76391026096E+03  0.76391026097E+03  0.50400001928E-02 0.  1.
        1   -1    0    0  501    0  0.00000000000E+00  0.00000000000E+00 -0.15990171756E+03  0.15990171764E+03  0.50400001928E-02 0. -1.
    10030    2    1    2    0    0  0.00000000000E+00  0.00000000000E+00  0.60400854339E+03  0.92381197862E+03  0.69900089510E+03 0.  0.
        1    1    3    3  502    0 -0.28365533211E+03  0.15559776290E+03  0.47673568938E+03  0.57614922443E+03  0.50400001928E-02 0.  1.
       -1    1    3    3    0  502  0.28365533211E+03 -0.15559776290E+03  0.12727285401E+03  0.34766275419E+03  0.50400001928E-02 0. -1.
</event>
<event>
 5   0  0.6785252E-03  0.6995962E+03  0.7818609E-02  0.9717923E-01
       -1   -1    0    0    0  501  0.00000000000E+00  0.00000000000E+00  0.15364124110E+03  0.15364124118E+03  0.50400001928E-02 0.  1.
        1   -1    0    0  501    0  0.00000000000E+00  0.00000000000E+00 -0.79639229499E+03  0.79639229500E+03  0.50400001928E-02 0. -1.
    10030    2    1    2    0    0  0.00000000000E+00  0.00000000000E+00 -0.64275105389E+03  0.95003353618E+03  0.69959617108E+03 0.  0.
        3    1    3    3  502    0 -0.12664608704E+03 -0.23479049311E+03 -0.62862865156E+03  0.68289076637E+03  0.10100000352E+00 0. -1.
       -3    1    3    3    0  502  0.12664608704E+03  0.23479049311E+03 -0.14122402327E+02  0.26714276982E+03  0.10100000352E+00 0.  1.
</event>
<event>
 5   0  0.1079446E-02  0.6997433E+03  0.7818609E-02  0.9717671E-01
       -2   -1    0    0    0  501  0.00000000000E+00  0.00000000000E+00  0.83680397101E+02  0.83680397140E+02  0.25500000920E-02 0. -1.
        2   -1    0    0  501    0  0.00000000000E+00  0.00000000000E+00 -0.14628295926E+04  0.14628295926E+04  0.25500000920E-02 0.  1.
    10030    2    1    2    0    0  0.00000000000E+00  0.00000000000E+00 -0.13791491955E+04  0.15465099897E+04  0.69974327073E+03 0.  0.
        2    1    3    3  502    0 -0.27106412346E+03  0.16049934363E+03 -0.35312663670E+03  0.47321688462E+03  0.25500000920E-02 0. -1.
       -2    1    3    3    0  502  0.27106412346E+03 -0.16049934363E+03 -0.10260225588E+04  0.10732931051E+04  0.25500000920E-02 0.  1.
</event>
<event>
 5   0  0.1109788E-02  0.7002572E+03  0.7818609E-02  0.9716793E-01
        2   -1    0    0  501    0  0.00000000000E+00  0.00000000000E+00  0.14983376394E+04  0.14983376394E+04  0.25500000920E-02 0. -1.
       -2   -1    0    0    0  501  0.00000000000E+00  0.00000000000E+00 -0.81817353842E+02  0.81817353882E+02  0.25500000920E-02 0.  1.
    10030    2    1    2    0    0  0.00000000000E+00  0.00000000000E+00  0.14165202856E+04  0.15801549933E+04  0.70025715521E+03 0.  0.
        1    1    3    3  502    0  0.20340798073E+03 -0.17801185496E+03  0.12104444257E+04  0.12402575276E+04  0.50400001928E-02 0. -1.
       -1    1    3    3    0  502 -0.20340798073E+03  0.17801185496E+03  0.20607585993E+03  0.33989746572E+03  0.50400001928E-02 0.  1.
</event>
<event>
 5   0  0.6689415E-03  0.6988310E+03  0.7818609E-02  0.9719233E-01
        1   -1    0    0  501    0  0.00000000000E+00  0.00000000000E+00  0.19041829432E+03  0.19041829439E+03  0.50400001928E-02 0.  1.
       -1   -1    0    0    0  501  0.00000000000E+00  0.00000000000E+00 -0.64117363759E+03  0.64117363761E+03  0.50400001928E-02 0. -1.
    10030    2    1    2    0    0  0.00000000000E+00  0.00000000000E+00 -0.45075534327E+03  0.83159193200E+03  0.69883099665E+03 0.  0.
        1    1    3    3  502    0  0.33757072323E+03  0.85652582832E+02 -0.19170257104E+03  0.39754274475E+03  0.50400001928E-02 0.  1.
       -1    1    3    3    0  502 -0.33757072323E+03 -0.85652582832E+02 -0.25905277223E+03  0.43404918725E+03  0.50400001928E-02 0. -1.
</event>
<event>
 5   0  0.1109788E-02  0.6976665E+03  0.7818609E-02  0.9721231E-01
        2   -1    0    0  501    0  0.00000000000E+00  0.00000000000E+00  0.12884331366E+04  0.12884331366E+04  0.25500000920E-02 0.  1.
       -2   -1    0    0    0  501  0.00000000000E+00  0.00000000000E+00 -0.94443882413E+02  0.94443882448E+02  0.25500000920E-02 0. -1.
    10030    2    1    2    0    0  0.00000000000E+00  0.00000000000E+00  0.11939892542E+04  0.13828770190E+04  0.69766647525E+03 0.  0.
        1    1    3    3  502    0 -0.12620291543E+03  0.22070269963E+03  0.10704238284E+04  0.11002018132E+04  0.50400001928E-02 0.  1.
       -1    1    3    3    0  502  0.12620291543E+03 -0.22070269963E+03  0.12356542579E+03  0.28267520578E+03  0.50400001928E-02 0. -1.
</event>
<event>
 5   0  0.1109788E-02  0.6983834E+03  0.7818609E-02  0.9720001E-01
        2   -1    0    0  501    0  0.00000000000E+00  0.00000000000E+00  0.56058095284E+03  0.56058095284E+03  0.25500000920E-02 0.  1.
       -2   -1    0    0    0  501  0.00000000000E+00  0.00000000000E+00 -0.21751512850E+03  0.21751512851E+03  0.25500000920E-02 0. -1.
    10030    2    1    2    0    0  0.00000000000E+00  0.00000000000E+00  0.34306582434E+03  0.77809608136E+03  0.69838338468E+03 0.  0.
        1    1    3    3  502    0  0.15514436225E+03  0.29141084022E+03  0.29829424140E+03  0.44493764217E+03  0.50400001928E-02 0.  1.
       -1    1    3    3    0  502 -0.15514436225E+03 -0.29141084022E+03  0.44771582935E+02  0.33315843919E+03  0.50400001928E-02 0. -1.
</event>
<event>
 5   0  0.1099980E-02  0.7030010E+03  0.7818609E-02  0.9712114E-01
        2   -1    0    0  501    0  0.00000000000E+00  0.00000000000E+00  0.67246488565E+03  0.67246488566E+03  0.25500000920E-02 0. -1.
       -2   -1    0    0    0  501  0.00000000000E+00  0.00000000000E+00 -0.18373094334E+03  0.18373094336E+03  0.25500000920E-02 0.  1.
    10030    2    1    2    0    0  0.00000000000E+00  0.00000000000E+00  0.48873394231E+03  0.85619582902E+03  0.70300101796E+03 0.  0.
        5    1    3    3  502    0 -0.28837771587E+03  0.69293334423E+02  0.47405706479E+03  0.55920967792E+03  0.46999998093E+01 0. -1.
       -5    1    3    3    0  502  0.28837771587E+03 -0.69293334423E+02  0.14676877522E+02  0.29698615109E+03  0.46999998093E+01 0.  1.
</event>
<event>
 5   0  0.1109788E-02  0.6973233E+03  0.7818609E-02  0.9721821E-01
        2   -1    0    0  501    0  0.00000000000E+00  0.00000000000E+00  0.19503140657E+03  0.19503140659E+03  0.25500000920E-02 0. -1.
       -2   -1    0    0    0  501  0.00000000000E+00  0.00000000000E+00 -0.62330964378E+03  0.62330964378E+03  0.25500000920E-02 0.  1.
    10030    2    1    2    0    0  0.00000000000E+00  0.00000000000E+00 -0.42827823721E+03  0.81834105037E+03  0.69732332978E+03 0.  0.
        1    1    3    3  502    0  0.28441768025E+03 -0.63515105857E+02  0.10488055337E+02  0.29161204509E+03  0.50400001928E-02 0.  1.
       -1    1    3    3    0  502 -0.28441768025E+03  0.63515105857E+02 -0.43876629254E+03  0.52672900528E+03  0.50400001928E-02 0. -1.
</event>
<event>
 5   0  0.6246998E-03  0.7010591E+03  0.7818609E-02  0.9715423E-01
       -1   -1    0    0    0  501  0.00000000000E+00  0.00000000000E+00  0.88050589855E+02  0.88050589999E+02  0.50400001928E-02 0. -1.
        1   -1    0    0  501    0  0.00000000000E+00  0.00000000000E+00 -0.13954586124E+04  0.13954586125E+04  0.50400001928E-02 0.  1.
    10030    2    1    2    0    0  0.00000000000E+00  0.00000000000E+00 -0.13074080226E+04  0.14835092025E+04  0.70105906758E+03 0.  0.
        4    1    3    3  502    0 -0.12942162698E+03 -0.22666678883E+03 -0.11488054414E+04  0.11780846089E+04  0.12699999809E+01 0.  1.
       -4    1    3    3    0  502  0.12942162698E+03  0.22666678883E+03 -0.15860258123E+03  0.30542459358E+03  0.12699999809E+01 0. -1.
</event>
<event>
 5   0  0.6689415E-03  0.6997121E+03  0.7818609E-02  0.9717725E-01
       -1   -1    0    0    0  501  0.00000000000E+00  0.00000000000E+00  0.24330324409E+03  0.24330324414E+03  0.50400001928E-02 0.  1.
        1   -1    0    0  501    0  0.00000000000E+00  0.00000000000E+00 -0.50307285327E+03  0.50307285330E+03  0.50400001928E-02 0. -1.
    10030    2    1    2    0    0  0.00000000000E+00  0.00000000000E+00 -0.25976960919E+03  0.74637609744E+03  0.69971210435E+03 0.  0.
        1    1    3    3  502    0  0.17694952347E+03  0.23526111738E+03 -0.33154380728E+03  0.44337368368E+03  0.50400001928E-02 0. -1.
       -1    1    3    3    0  502 -0.17694952347E+03 -0.23526111738E+03  0.71774198093E+02  0.30300241376E+03  0.50400001928E-02 0.  1.
</event>
<event>
 5   0  0.6689415E-03  0.7036893E+03  0.7818609E-02  0.9710944E-01
       -1   -1    0    0    0  501  0.00000000000E+00  0.00000000000E+00  0.39808727725E+03  0.39808727728E+03  0.50400001928E-02 0.  1.
        1   -1    0    0  501    0  0.00000000000E+00  0.00000000000E+00 -0.31097365570E+03  0.31097365574E+03  0.50400001928E-02 0. -1.
    10030    2    1    2    0    0  0.00000000000E+00  0.00000000000E+00  0.87113621552E+02  0.70906093302E+03  0.70368929485E+03 0.  0.
        1    1    3    3  502    0  0.22990498212E+03 -0.40974494582E+02  0.30873763731E+03  0.38710998273E+03  0.50400001928E-02 0.  1.
       -1    1    3    3    0  502 -0.22990498212E+03  0.40974494582E+02 -0.22162401576E+03  0.32195095030E+03  0.50400001928E-02 0. -1.
</event>
<event>
 5   0  0.1099980E-02  0.6988068E+03  0.7818609E-02  0.9719275E-01
        2   -1    0    0  501    0  0.00000000000E+00  0.00000000000E+00  0.26359071499E+03  0.26359071500E+03  0.25500000920E-02 0. -1.
       -2   -1    0    0    0  501  0.00000000000E+00  0.00000000000E+00 -0.46315266374E+03  0.46315266374E+03  0.25500000920E-02 0.  1.
    10030    2    1    2    0    0  0.00000000000E+00  0.00000000000E+00 -0.19956194875E+03  0.72674337874E+03  0.69880681677E+03 0.  0.
        5    1    3    3  502    0 -0.28181966743E+03 -0.10752598531E+03 -0.28311367097E+03  0.41371439805E+03  0.46999998093E+01 0.  1.
       -5    1    3    3    0  502  0.28181966743E+03  0.10752598531E+03  0.83551722223E+02  0.31302898069E+03  0.46999998093E+01 0. -1.
</event>
<event>
 5   0  0.1109788E-02  0.6976915E+03  0.7818609E-02  0.9721188E-01
       -2   -1    0    0    0  501  0.00000000000E+00  0.00000000000E+00  0.25842259221E+03  0.25842259222E+03  0.25500000920E-02 0. -1.
        2   -1    0    0  501    0  0.00000000000E+00  0.00000000000E+00 -0.47090839173E+03  0.47090839174E+03  0.25500000920E-02 0.  1.
    10030    2    1    2    0    0  0.00000000000E+00  0.00000000000E+00 -0.21248579952E+03  0.72933098396E+03  0.69769152866E+03 0.  0.
        1    1    3    3  502    0  0.13346188248E+03 -0.93565038670E+02  0.21617031438E+03  0.27073251629E+03  0.50400001928E-02 0. -1.
       -1    1    3    3    0  502 -0.13346188248E+03  0.93565038670E+02 -0.42865611390E+03  0.45859846767E+03  0.50400001928E-02 0.  1.
</event>
<event>
 5   0  0.6785252E-03  0.7012803E+03  0.7818609E-02  0.9715045E-01
       -1   -1    0    0    0  501  0.00000000000E+00  0.00000000000E+00  0.61854576118E+03  0.61854576121E+03  0.50400001928E-02 0.  1.
        1   -1    0    0  501    0  0.00000000000E+00  0.00000000000E+00 -0.19877029912E+03  0.19877029918E+03  0.50400001928E-02 0. -1.
    10030    2    1    2    0    0  0.00000000000E+00  0.00000000000E+00  0.41977546207E+03  0.81731606038E+03  0.70128033197E+03 0.  0.
        3    1    3    3  502    0 -0.31429715002E+03  0.13051068503E+03  0.30831778865E+03  0.45921194063E+03  0.10100000352E+00 0.  1.
       -3    1    3    3    0  502  0.31429715002E+03 -0.13051068503E+03  0.11145767342E+03  0.35810411975E+03  0.10100000352E+00 0. -1.
</event>
<event>
 5   0  0.6785252E-03  0.7325572E+03  0.7818609E-02  0.9663120E-01
       -1   -1    0    0    0  501  0.00000000000E+00  0.00000000000E+00  0.21229292981E+03  0.21229292987E+03  0.50400001928E-02 0. -1.
        1   -1    0    0  501    0  0.00000000000E+00  0.00000000000E+00 -0.63195711463E+03  0.63195711465E+03  0.50400001928E-02 0.  1.
    10030    2    1    2    0    0  0.00000000000E+00  0.00000000000E+00 -0.41966418483E+03  0.84425004452E+03  0.73255723984E+03 0.  0.
        3    1    3    3  502    0  0.27772179314E+02  0.19825073652E+03  0.14366884764E+03  0.24640494406E+03  0.10100000352E+00 0. -1.
       -3    1    3    3    0  502 -0.27772179314E+02 -0.19825073652E+03 -0.56333303246E+03  0.59784510046E+03  0.10100000352E+00 0.  1.
</event>
<event>
 5   0  0.1109788E-02  0.6994387E+03  0.7818609E-02  0.9718193E-01
        2   -1    0    0  501    0  0.00000000000E+00  0.00000000000E+00  0.12764381476E+04  0.12764381476E+04  0.25500000920E-02 0. -1.
       -2   -1    0    0    0  501  0.00000000000E+00  0.00000000000E+00 -0.95816332251E+02  0.95816332285E+02  0.25500000920E-02 0.  1.
    10030    2    1    2    0    0  0.00000000000E+00  0.00000000000E+00  0.11806218153E+04  0.13722544799E+04  0.69943869402E+03 0.  0.
        1    1    3    3  502    0  0.18341932299E+02 -0.40036339215E+02 -0.90354729299E+02  0.10051523303E+03  0.50400001928E-02 0.  1.
       -1    1    3    3    0  502 -0.18341932299E+02  0.40036339215E+02  0.12709765446E+04  0.12717392468E+04  0.50400001928E-02 0. -1.
</event>
<event>
 5   0  0.6689415E-03  0.7002423E+03  0.7818609E-02  0.9716818E-01
       -1   -1    0    0    0  501  0.00000000000E+00  0.00000000000E+00  0.15222203039E+03  0.15222203047E+03  0.50400001928E-02 0.  1.
        1   -1    0    0  501    0  0.00000000000E+00  0.00000000000E+00 -0.80530276991E+03  0.80530276992E+03  0.50400001928E-02 0. -1.
    10030    2    1    2    0    0  0.00000000000E+00  0.00000000000E+00 -0.65308073952E+03  0.95752480039E+03  0.70024230880E+03 0.  0.
        1    1    3    3  502    0 -0.27926799866E+03 -0.21018297480E+03 -0.29860600752E+03  0.45970974073E+03  0.50400001928E-02 0. -1.
       -1    1    3    3    0  502  0.27926799866E+03  0.21018297480E+03 -0.35447473200E+03  0.49781505966E+03  0.50400001928E-02 0.  1.
</event>
<event>
 5   0  0.6609285E-03  0.6986807E+03  0.7818609E-02  0.9719491E-01
       -1   -1    0    0    0  501  0.00000000000E+00  0.00000000000E+00  0.47452984419E+03  0.47452984421E+03  0.50400001928E-02 0. -1.
        1   -1    0    0  501    0  0.00000000000E+00  0.00000000000E+00 -0.25717811354E+03  0.25717811359E+03  0.50400001928E-02 0.  1.
    10030    2    1    2    0    0  0.00000000000E+00  0.00000000000E+00  0.21735173065E+03  0.73170795780E+03  0.69868072873E+03 0.  0.
        2    1    3    3  502    0  0.27744646000E+03  0.50016564453E+02  0.32472988481E+03  0.43003219993E+03  0.25500000920E-02 0. -1.
       -2    1    3    3    0  502 -0.27744646000E+03 -0.50016564453E+02 -0.10737815416E+03  0.30167575787E+03  0.25500000920E-02 0.  1.
</event>
<event>
 5   0  0.6246998E-03  0.7007302E+03  0.7818609E-02  0.9715984E-01
        1   -1    0    0  501    0  0.00000000000E+00  0.00000000000E+00  0.10891837967E+04  0.10891837967E+04  0.50400001928E-02 0.  1.
       -1   -1    0    0    0  501  0.00000000000E+00  0.00000000000E+00 -0.11270430047E+03  0.11270430058E+03  0.50400001928E-02 0. -1.
    10030    2    1    2    0    0  0.00000000000E+00  0.00000000000E+00  0.97647949621E+03  0.12018880973E+04  0.70073018477E+03 0.  0.
        4    1    3    3  502    0 -0.34238932162E+03 -0.60623408640E+02  0.56198191028E+03  0.66085620646E+03  0.12699999809E+01 0.  1.
       -4    1    3    3    0  502  0.34238932162E+03  0.60623408640E+02  0.41449758592E+03  0.54103189081E+03  0.12699999809E+01 0. -1.
</event>
<event>
 5   0  0.6609285E-03  0.7015823E+03  0.7818609E-02  0.9714530E-01
        1   -1    0    0  501    0  0.00000000000E+00  0.00000000000E+00  0.57494043530E+03  0.57494043533E+03  0.50400001928E-02 0. -1.
       -1   -1    0    0    0  501  0.00000000000E+00  0.00000000000E+00 -0.21402988514E+03  0.21402988520E+03  0.50400001928E-02 0.  1.
    10030    2    1    2    0    0  0.00000000000E+00  0.00000000000E+00  0.36091055017E+03  0.78897032052E+03  0.70158231266E+03 0.  0.
        2    1    3    3  502    0 -0.33507767588E+02  0.50952327426E+02 -0.20802315408E+03  0.21677763445E+03  0.25500000920E-02 0.  1.
       -2    1    3    3    0  502  0.33507767588E+02 -0.50952327426E+02  0.56893370425E+03  0.57219268607E+03  0.25500000920E-02 0. -1.
</event>
<event>
 5   0  0.6246998E-03  0.6968836E+03  0.7818609E-02  0.9722577E-01
        1   -1    0    0  501    0  0.00000000000E+00  0.00000000000E+00  0.69275965063E+03  0.69275965064E+03  0.50400001928E-02 0.  1.
       -1   -1    0    0    0  501  0.00000000000E+00  0.00000000000E+00 -0.17525800597E+03  0.17525800605E+03  0.50400001928E-02 0. -1.
    10030    2    1    2    0    0  0.00000000000E+00  0.00000000000E+00  0.51750164465E+03  0.86801765669E+03  0.69688356281E+03 0.  0.
        4    1    3    3  502    0  0.18770062199E+03 -0.24972796613E+03  0.45096654292E+03  0.54860551975E+03  0.12699999809E+01 0.  1.
       -4    1    3    3    0  502 -0.18770062199E+03  0.24972796613E+03  0.66535101732E+02  0.31941213694E+03  0.12699999809E+01 0. -1.
</event>
<event>
 5   0  0.6785252E-03  0.7149802E+03  0.7818609E-02  0.9691952E-01
        1   -1    0    0  501    0  0.00000000000E+00  0.00000000000E+00  0.91178445884E+03  0.91178445885E+03  0.50400001928E-02 0.  1.
       -1   -1    0    0    0  501  0.00000000000E+00  0.00000000000E+00 -0.14016380570E+03  0.14016380579E+03  0.50400001928E-02 0. -1.
    10030    2    1    2    0    0  0.00000000000E+00  0.00000000000E+00  0.77162065314E+03  0.10519482646E+04  0.71498022290E+03 0.  0.
        3    1    3    3  502    0  0.32063653355E+03 -0.84733154679E+02  0.18945045518E+03  0.38194106786E+03  0.10100000352E+00 0. -1.
       -3    1    3    3    0  502 -0.32063653355E+03  0.84733154679E+02  0.58217019796E+03  0.67000719679E+03  0.10100000352E+00 0.  1.
</event>
<event>
 5   0  0.6246998E-03  0.6984873E+03  0.7818609E-02  0.9719823E-01
       -1   -1    0    0    0  501  0.00000000000E+00  0.00000000000E+00  0.16590610382E+03  0.16590610389E+03  0.50400001928E-02 0. -1.
        1   -1    0    0  501    0  0.00000000000E+00  0.00000000000E+00 -0.73518169913E+03  0.73518169915E+03  0.50400001928E-02 0.  1.
    10030    2    1    2    0    0  0.00000000000E+00  0.00000000000E+00 -0.56927559531E+03  0.90108780304E+03  0.69848731224E+03 0.  0.
        4    1    3    3  502    0  0.50388851982E+02 -0.15295693698E+03 -0.68441919839E+03  0.70311173579E+03  0.12699999809E+01 0.  1.
       -4    1    3    3    0  502 -0.50388851982E+02  0.15295693698E+03  0.11514360308E+03  0.19797606725E+03  0.12699999809E+01 0. -1.
</event>
<event>
 5   0  0.1119786E-02  0.7114236E+03  0.7818609E-02  0.9697893E-01
       -2   -1    0    0    0  501  0.00000000000E+00  0.00000000000E+00  0.11265753901E+03  0.11265753904E+03  0.25500000920E-02 0.  1.
        2   -1    0    0  501    0  0.00000000000E+00  0.00000000000E+00 -0.11231463159E+04  0.11231463159E+04  0.25500000920E-02 0. -1.
    10030    2    1    2    0    0  0.00000000000E+00  0.00000000000E+00 -0.10104887768E+04  0.12358038549E+04  0.71142364289E+03 0.  0.
        3    1    3    3  502    0  0.28254440676E+03 -0.15690503208E+03 -0.76336596850E+03  0.82896208776E+03  0.10100000352E+00 0. -1.
       -3    1    3    3    0  502 -0.28254440676E+03  0.15690503208E+03 -0.24712280835E+03  0.40684176714E+03  0.10100000352E+00 0.  1.
</event>
<event>
 5   0  0.6609285E-03  0.6989781E+03  0.7818609E-02  0.9718981E-01
        1   -1    0    0  501    0  0.00000000000E+00  0.00000000000E+00  0.34915428767E+03  0.34915428770E+03  0.50400001928E-02 0. -1.
       -1   -1    0    0    0  501  0.00000000000E+00  0.00000000000E+00 -0.34982409201E+03  0.34982409205E+03  0.50400001928E-02 0.  1.
    10030    2    1    2    0    0  0.00000000000E+00  0.00000000000E+00 -0.66980434778E+00  0.69897837975E+03  0.69897805883E+03 0.  0.
        2    1    3    3  502    0  0.34059965501E+03 -0.70685536630E+02  0.33399540669E+02  0.34945686344E+03  0.25500000920E-02 0. -1.
       -2    1    3    3    0  502 -0.34059965501E+03  0.70685536630E+02 -0.34069345017E+02  0.34952151631E+03  0.25500000920E-02 0.  1.
</event>
<event>
 5   0  0.6785252E-03  0.6973199E+03  0.7818609E-02  0.9721827E-01
        1   -1    0    0  501    0  0.00000000000E+00  0.00000000000E+00  0.70569529812E+03  0.70569529813E+03  0.50400001928E-02 0.  1.
       -1   -1    0    0    0  501  0.00000000000E+00  0.00000000000E+00 -0.17226097390E+03  0.17226097397E+03  0.50400001928E-02 0. -1.
    10030    2    1    2    0    0  0.00000000000E+00  0.00000000000E+00  0.53343432422E+03  0.87795627211E+03  0.69731989609E+03 0.  0.
        3    1    3    3  502    0  0.33308452459E+02 -0.34424303691E+03  0.32232967856E+03  0.47276754684E+03  0.10100000352E+00 0.  1.
       -3    1    3    3    0  502 -0.33308452459E+02  0.34424303691E+03  0.21110464566E+03  0.40518872527E+03  0.10100000352E+00 0. -1.
</event>
<event>
 5   0  0.4440500E-03  0.7008605E+03  0.7818609E-02  0.9715762E-01
        4   -1    0    0  501    0  0.00000000000E+00  0.00000000000E+00  0.12690546505E+03  0.12691181963E+03  0.12699999809E+01 0.  1.
       -4   -1    0    0    0  501  0.00000000000E+00  0.00000000000E+00 -0.96762906014E+03  0.96762989357E+03  0.12699999809E+01 0. -1.
    10030    2    1    2    0    0  0.00000000000E+00  0.00000000000E+00 -0.84072359509E+03  0.10945417132E+04  0.70086047013E+03 0.  0.
        1    1    3    3  502    0 -0.47753032636E+02 -0.34714371237E+03 -0.41489793689E+03  0.54307403475E+03  0.50400001928E-02 0. -1.
       -1    1    3    3    0  502  0.47753032636E+02  0.34714371237E+03 -0.42582565820E+03  0.55146767844E+03  0.50400001928E-02 0.  1.
</event>
<event>
 5   0  0.1109788E-02  0.7102807E+03  0.7818609E-02  0.9699811E-01
       -2   -1    0    0    0  501  0.00000000000E+00  0.00000000000E+00  0.16188009534E+03  0.16188009536E+03  0.25500000920E-02 0. -1.
        2   -1    0    0  501    0  0.00000000000E+00  0.00000000000E+00 -0.77912409833E+03  0.77912409833E+03  0.25500000920E-02 0.  1.
    10030    2    1    2    0    0  0.00000000000E+00  0.00000000000E+00 -0.61724400299E+03  0.94100419369E+03  0.71028074261E+03 0.  0.
        1    1    3    3  502    0  0.99386000574E+02  0.12148514312E+03  0.11343378928E+03  0.19365805350E+03  0.50400001928E-02 0. -1.
       -1    1    3    3    0  502 -0.99386000574E+02 -0.12148514312E+03 -0.73067779227E+03  0.74734614019E+03  0.50400001928E-02 0.  1.
</event>
<event>
 5   0  0.4440500E-03  0.6998129E+03  0.7818609E-02  0.9717552E-01
        3   -1    0    0  501    0  0.00000000000E+00  0.00000000000E+00  0.75843020546E+03  0.75843021219E+03  0.10100000352E+00 0. -1.
       -3   -1    0    0    0  501  0.00000000000E+00  0.00000000000E+00 -0.16143148794E+03  0.16143151954E+03  0.10100000352E+00 0.  1.
    10030    2    1    2    0    0  0.00000000000E+00  0.00000000000E+00  0.59699871752E+03  0.91986173172E+03  0.69981292984E+03 0.  0.
        4    1    3    3  502    0  0.66516561872E+02 -0.20080412484E+03 -0.67864352365E+02  0.22215745042E+03  0.12699999809E+01 0.  1.
       -4    1    3    3    0  502 -0.66516561872E+02  0.20080412484E+03  0.66486306989E+03  0.69770428131E+03  0.12699999809E+01 0. -1.
</event>
<event>
 5   0  0.6689415E-03  0.7002120E+03  0.7818609E-02  0.9716870E-01
       -1   -1    0    0    0  501  0.00000000000E+00  0.00000000000E+00  0.85806666756E+02  0.85806666904E+02  0.50400001928E-02 0. -1.
        1   -1    0    0  501    0  0.00000000000E+00  0.00000000000E+00 -0.14284929931E+04  0.14284929932E+04  0.50400001928E-02 0.  1.
    10030    2    1    2    0    0  0.00000000000E+00  0.00000000000E+00 -0.13426863264E+04  0.15142996601E+04  0.70021203173E+03 0.  0.
        1    1    3    3  502    0 -0.60082706549E+02  0.10136077977E+03  0.41637277085E+02  0.12497040518E+03  0.50400001928E-02 0. -1.
       -1    1    3    3    0  502  0.60082706549E+02 -0.10136077977E+03 -0.13843236035E+04  0.13893292549E+04  0.50400001928E-02 0.  1.
</event>
<event>
 5   0  0.1079446E-02  0.7030087E+03  0.7818609E-02  0.9712101E-01
        2   -1    0    0  501    0  0.00000000000E+00  0.00000000000E+00  0.69298343216E+03  0.69298343217E+03  0.25500000920E-02 0. -1.
       -2   -1    0    0    0  501  0.00000000000E+00  0.00000000000E+00 -0.17829473671E+03  0.17829473672E+03  0.25500000920E-02 0.  1.
    10030    2    1    2    0    0  0.00000000000E+00  0.00000000000E+00  0.51468869546E+03  0.87127816889E+03  0.70300867303E+03 0.  0.
        2    1    3    3  502    0  0.11797546139E+00 -0.33467918158E+03  0.39051102534E+03  0.51430441318E+03  0.25500000920E-02 0. -1.
       -2    1    3    3    0  502 -0.11797546139E+00  0.33467918158E+03  0.12417767012E+03  0.35697375571E+03  0.25500000920E-02 0.  1.
</event>
<event>
 5   0  0.6990118E-03  0.6998500E+03  0.7818609E-02  0.9717489E-01
       -1   -1    0    0    0  501  0.00000000000E+00  0.00000000000E+00  0.28231486287E+03  0.28231486292E+03  0.50400001928E-02 0.  1.
        1   -1    0    0  501    0  0.00000000000E+00  0.00000000000E+00 -0.43372678172E+03  0.43372678175E+03  0.50400001928E-02 0. -1.
    10030    2    1    2    0    0  0.00000000000E+00  0.00000000000E+00 -0.15141191884E+03  0.71604164466E+03  0.69985003231E+03 0.  0.
        5    1    3    3  502    0 -0.30668069241E+02  0.37949492255E+02 -0.43019666146E+03  0.43298031360E+03  0.46999998093E+01 0. -1.
       -5    1    3    3    0  502  0.30668069241E+02 -0.37949492255E+02  0.27878474261E+03  0.28306133107E+03  0.46999998093E+01 0.  1.
</event>
<event>
 5   0  0.6246998E-03  0.7002889E+03  0.7818609E-02  0.9716738E-01
        1   -1    0    0  501    0  0.00000000000E+00  0.00000000000E+00  0.16697817427E+03  0.16697817434E+03  0.50400001928E-02 0.  1.
       -1   -1    0    0    0  501  0.00000000000E+00  0.00000000000E+00 -0.73423454146E+03  0.73423454147E+03  0.50400001928E-02 0. -1.
    10030    2    1    2    0    0  0.00000000000E+00  0.00000000000E+00 -0.56725636719E+03  0.90121271582E+03  0.70028892111E+03 0.  0.
        4    1    3    3  502    0 -0.17233275191E+03 -0.10051000860E+03 -0.65393507217E+03  0.68369110768E+03  0.12699999809E+01 0. -1.
       -4    1    3    3    0  502  0.17233275191E+03  0.10051000860E+03  0.86678704982E+02  0.21752160814E+03  0.12699999809E+01 0.  1.
</event>
<event>
 5   0  0.6689415E-03  0.7011573E+03  0.7818609E-02  0.9715255E-01
       -1   -1    0    0    0  501  0.00000000000E+00  0.00000000000E+00  0.57350547638E+03  0.57350547640E+03  0.50400001928E-02 0. -1.
        1   -1    0    0  501    0  0.00000000000E+00  0.00000000000E+00 -0.21430552623E+03  0.21430552629E+03  0.50400001928E-02 0.  1.
    10030    2    1    2    0    0  0.00000000000E+00  0.00000000000E+00  0.35919995014E+03  0.78781100269E+03  0.70115730887E+03 0.  0.
        1    1    3    3  502    0  0.17938439140E+03  0.17971244639E+03  0.45119685622E+03  0.51773924552E+03  0.50400001928E-02 0. -1.
       -1    1    3    3    0  502 -0.17938439140E+03 -0.17971244639E+03 -0.91996906080E+02  0.27007175717E+03  0.50400001928E-02 0.  1.
</event>
<event>
 5   0  0.6990118E-03  0.7015277E+03  0.7818609E-02  0.9714623E-01
       -1   -1    0    0    0  501  0.00000000000E+00  0.00000000000E+00  0.24825360414E+03  0.24825360420E+03  0.50400001928E-02 0.  1.
        1   -1    0    0  501    0  0.00000000000E+00  0.00000000000E+00 -0.49560322600E+03  0.49560322602E+03  0.50400001928E-02 0. -1.
    10030    2    1    2    0    0  0.00000000000E+00  0.00000000000E+00 -0.24734962185E+03  0.74385683022E+03  0.70152772464E+03 0.  0.
        5    1    3    3  502    0  0.19279232308E+03  0.84528819509E+02  0.17378593563E+03  0.27301582846E+03  0.46999998093E+01 0.  1.
       -5    1    3    3    0  502 -0.19279232308E+03 -0.84528819509E+02 -0.42113555748E+03  0.47084100176E+03  0.46999998093E+01 0. -1.
</event>
<event>
 5   0  0.1119786E-02  0.6941382E+03  0.7818609E-02  0.9727309E-01
       -2   -1    0    0    0  501  0.00000000000E+00  0.00000000000E+00  0.78285929534E+02  0.78285929575E+02  0.25500000920E-02 0. -1.
        2   -1    0    0  501    0  0.00000000000E+00  0.00000000000E+00 -0.15386796052E+04  0.15386796052E+04  0.25500000920E-02 0.  1.
    10030    2    1    2    0    0  0.00000000000E+00  0.00000000000E+00 -0.14603936757E+04  0.16169655348E+04  0.69413820867E+03 0.  0.
        3    1    3    3  502    0 -0.52488972573E+02  0.27623656164E+03 -0.12041439970E+04  0.12365373047E+04  0.10100000352E+00 0.  1.
       -3    1    3    3    0  502  0.52488972573E+02 -0.27623656164E+03 -0.25624967871E+03  0.38042823011E+03  0.10100000352E+00 0. -1.
</event>
<event>
 5   0  0.1100119E-02  0.7029650E+03  0.7818609E-02  0.9712175E-01
       -2   -1    0    0    0  501  0.00000000000E+00  0.00000000000E+00  0.71880741235E+02  0.71880741280E+02  0.25500000920E-02 0.  1.
        2   -1    0    0  501    0  0.00000000000E+00  0.00000000000E+00 -0.17186793297E+04  0.17186793297E+04  0.25500000920E-02 0. -1.
    10030    2    1    2    0    0  0.00000000000E+00  0.00000000000E+00 -0.16467985885E+04  0.17905600710E+04  0.70296498976E+03 0.  0.
        4    1    3    3  502    0  0.43656744064E+02 -0.13145620546E+03 -0.16462194749E+04  0.16520371721E+04  0.12699999809E+01 0. -1.
       -4    1    3    3    0  502 -0.43656744064E+02  0.13145620546E+03 -0.57911352069E+00  0.13852289893E+03  0.12699999809E+01 0.  1.
</event>
<event>
 5   0  0.6246998E-03  0.7009414E+03  0.7818609E-02  0.9715624E-01
        1   -1    0    0  501    0  0.00000000000E+00  0.00000000000E+00  0.85158516029E+03  0.85158516031E+03  0.50400001928E-02 0. -1.
       -1   -1    0    0    0  501  0.00000000000E+00  0.00000000000E+00 -0.14423653719E+03  0.14423653728E+03  0.50400001928E-02 0.  1.
    10030    2    1    2    0    0  0.00000000000E+00  0.00000000000E+00  0.70734862310E+03  0.99582169759E+03  0.70094135189E+03 0.  0.
        4    1    3    3  502    0 -0.11782118429E+03  0.32984979595E+03  0.33654554831E+03  0.48574400495E+03  0.12699999809E+01 0.  1.
       -4    1    3    3    0  502  0.11782118429E+03 -0.32984979595E+03  0.37080307479E+03  0.51007769264E+03  0.12699999809E+01 0. -1.
</event>
<event>
 5   0  0.6785252E-03  0.6906770E+03  0.7818609E-02  0.9733310E-01
        1   -1    0    0  501    0  0.00000000000E+00  0.00000000000E+00  0.66822912531E+03  0.66822912533E+03  0.50400001928E-02 0.  1.
       -1   -1    0    0    0  501  0.00000000000E+00  0.00000000000E+00 -0.17846975058E+03  0.17846975065E+03  0.50400001928E-02 0. -1.
    10030    2    1    2    0    0  0.00000000000E+00  0.00000000000E+00  0.48975937473E+03  0.84669887598E+03  0.69067701673E+03 0.  0.
        3    1    3    3  502    0 -0.21954258108E+03 -0.26649953977E+03  0.25240928532E+03  0.42770481307E+03  0.10100000352E+00 0.  1.
       -3    1    3    3    0  502  0.21954258108E+03  0.26649953977E+03  0.23735008941E+03  0.41899406290E+03  0.10100000352E+00 0. -1.
</event>
<event>
 5   0  0.1119786E-02  0.7052306E+03  0.7818609E-02  0.9708329E-01
        2   -1    0    0  501    0  0.00000000000E+00  0.00000000000E+00  0.84995537103E+03  0.84995537103E+03  0.25500000920E-02 0. -1.
       -2   -1    0    0    0  501  0.00000000000E+00  0.00000000000E+00 -0.14628713728E+03  0.14628713731E+03  0.25500000920E-02 0.  1.
    10030    2    1    2    0    0  0.00000000000E+00  0.00000000000E+00  0.70366823374E+03  0.99624250834E+03  0.70523056672E+03 0.  0.
        3    1    3    3  502    0  0.27975329966E+03 -0.26609491967E+02  0.50944900007E+02  0.28559651043E+03  0.10100000352E+00 0.  1.
       -3    1    3    3    0  502 -0.27975329966E+03  0.26609491967E+02  0.65272333374E+03  0.71064599790E+03  0.10100000352E+00 0. -1.
</event>
<event>
 5   0  0.6609285E-03  0.6998149E+03  0.7818609E-02  0.9717549E-01
       -1   -1    0    0    0  501  0.00000000000E+00  0.00000000000E+00  0.67677103142E+03  0.67677103144E+03  0.50400001928E-02 0.  1.
        1   -1    0    0  501    0  0.00000000000E+00  0.00000000000E+00 -0.18091087558E+03  0.18091087565E+03  0.50400001928E-02 0. -1.
    10030    2    1    2    0    0  0.00000000000E+00  0.00000000000E+00  0.49586015585E+03  0.85768190709E+03  0.69981494668E+03 0.  0.
        2    1    3    3  502    0  0.15477708485E+03 -0.19941953415E+03 -0.49033579617E+02  0.25715440602E+03  0.25500000920E-02 0. -1.
       -2    1    3    3    0  502 -0.15477708485E+03  0.19941953415E+03  0.54489373546E+03  0.60052750108E+03  0.25500000920E-02 0.  1.
</event>
<event>
 5   0  0.1119786E-02  0.6990960E+03  0.7818609E-02  0.9718779E-01
       -2   -1    0    0    0  501  0.00000000000E+00  0.00000000000E+00  0.16058017134E+03  0.16058017137E+03  0.25500000920E-02 0. -1.
        2   -1    0    0  501    0  0.00000000000E+00  0.00000000000E+00 -0.76088976407E+03  0.76088976407E+03  0.25500000920E-02 0.  1.
    10030    2    1    2    0    0  0.00000000000E+00  0.00000000000E+00 -0.60030959272E+03  0.92146993544E+03  0.69909601258E+03 0.  0.
        3    1    3    3  502    0  0.41983583602E+02  0.88672485015E+02 -0.74236956045E+03  0.74882441559E+03  0.10100000352E+00 0.  1.
       -3    1    3    3    0  502 -0.41983583602E+02 -0.88672485015E+02  0.14205996773E+03  0.17264551985E+03  0.10100000352E+00 0. -1.
</event>
<event>
 5   0  0.6990118E-03  0.7016219E+03  0.7818609E-02  0.9714463E-01
       -1   -1    0    0    0  501  0.00000000000E+00  0.00000000000E+00  0.87009550709E+03  0.87009550711E+03  0.50400001928E-02 0. -1.
        1   -1    0    0  501    0  0.00000000000E+00  0.00000000000E+00 -0.14144230580E+03  0.14144230589E+03  0.50400001928E-02 0.  1.
    10030    2    1    2    0    0  0.00000000000E+00  0.00000000000E+00  0.72865320129E+03  0.10115378130E+04  0.70162187777E+03 0.  0.
        5    1    3    3  502    0 -0.12345021923E+03  0.25222728225E+02 -0.10764490675E+03  0.16578799292E+03  0.46999998093E+01 0.  1.
       -5    1    3    3    0  502  0.12345021923E+03 -0.25222728225E+02  0.83629810805E+03  0.84574982008E+03  0.46999998093E+01 0. -1.
</event>
<event>
 5   0  0.6609285E-03  0.6985100E+03  0.7818609E-02  0.9719784E-01
       -1   -1    0    0    0  501  0.00000000000E+00  0.00000000000E+00  0.93228622029E+02  0.93228622165E+02  0.50400001928E-02 0. -1.
        1   -1    0    0  501    0  0.00000000000E+00  0.00000000000E+00 -0.13083863542E+04  0.13083863542E+04  0.50400001928E-02 0.  1.
    10030    2    1    2    0    0  0.00000000000E+00  0.00000000000E+00 -0.12151577322E+04  0.14016149764E+04  0.69851000562E+03 0.  0.
        2    1    3    3  502    0 -0.30816401426E+03 -0.14763510336E+03 -0.75252374414E+03  0.82647030735E+03  0.25500000920E-02 0.  1.
       -2    1    3    3    0  502  0.30816401426E+03  0.14763510336E+03 -0.46263398806E+03  0.57514466906E+03  0.25500000920E-02 0. -1.
</event>
<event>
 5   0  0.1099980E-02  0.7037270E+03  0.7818609E-02  0.9710880E-01
       -2   -1    0    0    0  501  0.00000000000E+00  0.00000000000E+00  0.43989700652E+03  0.43989700653E+03  0.25500000920E-02 0. -1.
        2   -1    0    0  501    0  0.00000000000E+00  0.00000000000E+00 -0.28144754310E+03  0.28144754312E+03  0.25500000920E-02 0.  1.
    10030    2    1    2    0    0  0.00000000000E+00  0.00000000000E+00  0.15844946342E+03  0.72134454965E+03  0.70372702580E+03 0.  0.
        5    1    3    3  502    0 -0.34065871073E+02 -0.27812137878E+02  0.43703646365E+03  0.43926866397E+03  0.46999998093E+01 0. -1.
       -5    1    3    3    0  502  0.34065871073E+02  0.27812137878E+02 -0.27858700023E+03  0.28207588568E+03  0.46999998093E+01 0.  1.
</event>
<event>
 5   0  0.6689415E-03  0.6940163E+03  0.7818609E-02  0.9727520E-01
       -1   -1    0    0    0  501  0.00000000000E+00  0.00000000000E+00  0.32230377246E+03  0.32230377250E+03  0.50400001928E-02 0. -1.
        1   -1    0    0  501    0  0.00000000000E+00  0.00000000000E+00 -0.37360608777E+03  0.37360608780E+03  0.50400001928E-02 0.  1.
    10030    2    1    2    0    0  0.00000000000E+00  0.00000000000E+00 -0.51302315306E+02  0.69590986030E+03  0.69401628663E+03 0.  0.
        1    1    3    3  502    0  0.34519602816E+02  0.30865414424E+01 -0.37186632245E+03  0.37347783270E+03  0.50400001928E-02 0.  1.
       -1    1    3    3    0  502 -0.34519602816E+02 -0.30865414424E+01  0.32056400715E+03  0.32243202760E+03  0.50400001928E-02 0. -1.
</event>
<event>
 5   0  0.6689415E-03  0.6952019E+03  0.7818609E-02  0.9725473E-01
        1   -1    0    0  501    0  0.00000000000E+00  0.00000000000E+00  0.53107343682E+03  0.53107343685E+03  0.50400001928E-02 0.  1.
       -1   -1    0    0    0  501  0.00000000000E+00  0.00000000000E+00 -0.22751355882E+03  0.22751355887E+03  0.50400001928E-02 0. -1.
    10030    2    1    2    0    0  0.00000000000E+00  0.00000000000E+00  0.30355987800E+03  0.75858699572E+03  0.69520186316E+03 0.  0.
        1    1    3    3  502    0  0.27738991166E+02  0.43441815200E+02  0.52688044620E+03  0.52939554924E+03  0.50400001928E-02 0.  1.
       -1    1    3    3    0  502 -0.27738991166E+02 -0.43441815200E+02 -0.22332056819E+03  0.22919144649E+03  0.50400001928E-02 0. -1.
</event>
<event>
 5   0  0.1119786E-02  0.7008399E+03  0.7818609E-02  0.9715797E-01
        2   -1    0    0  501    0  0.00000000000E+00  0.00000000000E+00  0.73370811624E+03  0.73370811625E+03  0.25500000920E-02 0.  1.
       -2   -1    0    0    0  501  0.00000000000E+00  0.00000000000E+00 -0.16736101223E+03  0.16736101225E+03  0.25500000920E-02 0. -1.
    10030    2    1    2    0    0  0.00000000000E+00  0.00000000000E+00  0.56634710402E+03  0.90106912850E+03  0.70083987622E+03 0.  0.
        3    1    3    3  502    0  0.15599773251E+03 -0.84055902989E+02  0.67185768106E+03  0.69483339094E+03  0.10100000352E+00 0.  1.
       -3    1    3    3    0  502 -0.15599773251E+03  0.84055902989E+02 -0.10551057704E+03  0.20623573755E+03  0.10100000352E+00 0. -1.
</event>
<event>
 5   0  0.6609285E-03  0.7012648E+03  0.7818609E-02  0.9715072E-01
       -1   -1    0    0    0  501  0.00000000000E+00  0.00000000000E+00  0.13135358227E+03  0.13135358237E+03  0.50400001928E-02 0.  1.
        1   -1    0    0  501    0  0.00000000000E+00  0.00000000000E+00 -0.93597060624E+03  0.93597060625E+03  0.50400001928E-02 0. -1.
    10030    2    1    2    0    0  0.00000000000E+00  0.00000000000E+00 -0.80461702397E+03  0.10673241886E+04  0.70126483467E+03 0.  0.
        2    1    3    3  502    0 -0.89930082680E+02  0.21917940200E+03 -0.79572696684E+03  0.83024600920E+03  0.25500000920E-02 0. -1.
       -2    1    3    3    0  502  0.89930082680E+02 -0.21917940200E+03 -0.88900571256E+01  0.23707817941E+03  0.25500000920E-02 0.  1.
</event>
<event>
 5   0  0.6689415E-03  0.7020750E+03  0.7818609E-02  0.9713690E-01
       -1   -1    0    0    0  501  0.00000000000E+00  0.00000000000E+00  0.16717045004E+03  0.16717045012E+03  0.50400001928E-02 0.  1.
        1   -1    0    0  501    0  0.00000000000E+00  0.00000000000E+00 -0.73713591446E+03  0.73713591448E+03  0.50400001928E-02 0. -1.
    10030    2    1    2    0    0  0.00000000000E+00  0.00000000000E+00 -0.56996546441E+03  0.90430636460E+03  0.70207504615E+03 0.  0.
        1    1    3    3  502    0  0.92994719291E+02  0.28422763691E+03 -0.52176637119E+03  0.60139297762E+03  0.50400001928E-02 0. -1.
       -1    1    3    3    0  502 -0.92994719291E+02 -0.28422763691E+03 -0.48199093223E+02  0.30291338698E+03  0.50400001928E-02 0.  1.
</event>
<event>
 5   0  0.1099980E-02  0.7033205E+03  0.7818609E-02  0.9711571E-01
       -2   -1    0    0    0  501  0.00000000000E+00  0.00000000000E+00  0.16009017465E+03  0.16009017467E+03  0.25500000920E-02 0. -1.
        2   -1    0    0  501    0  0.00000000000E+00  0.00000000000E+00 -0.77247037458E+03  0.77247037459E+03  0.25500000920E-02 0.  1.
    10030    2    1    2    0    0  0.00000000000E+00  0.00000000000E+00 -0.61238019993E+03  0.93256054926E+03  0.70332045952E+03 0.  0.
        5    1    3    3  502    0  0.27514352718E+03 -0.10483833358E+03 -0.51320507773E+02  0.29891624455E+03  0.46999998093E+01 0. -1.
       -5    1    3    3    0  502 -0.27514352718E+03  0.10483833358E+03 -0.56105969216E+03  0.63364430472E+03  0.46999998093E+01 0.  1.
</event>
<event>
 5   0  0.6990118E-03  0.7018565E+03  0.7818609E-02  0.9714063E-01
       -1   -1    0    0    0  501  0.00000000000E+00  0.00000000000E+00  0.34655466732E+03  0.34655466735E+03  0.50400001928E-02 0.  1.
        1   -1    0    0  501    0  0.00000000000E+00  0.00000000000E+00 -0.35535705649E+03  0.35535705652E+03  0.50400001928E-02 0. -1.
    10030    2    1    2    0    0  0.00000000000E+00  0.00000000000E+00 -0.88023891732E+01  0.70191172388E+03  0.70185652812E+03 0.  0.
        5    1    3    3  502    0 -0.18353961806E+03  0.19071038421E+03 -0.23479143337E+03  0.35384509213E+03  0.46999998093E+01 0. -1.
       -5    1    3    3    0  502  0.18353961806E+03 -0.19071038421E+03  0.22598904419E+03  0.34806663175E+03  0.46999998093E+01 0.  1.
</event>
<event>
 5   0  0.1119786E-02  0.7003141E+03  0.7818609E-02  0.9716695E-01
       -2   -1    0    0    0  501  0.00000000000E+00  0.00000000000E+00  0.14625193772E+03  0.14625193774E+03  0.25500000920E-02 0.  1.
        2   -1    0    0  501    0  0.00000000000E+00  0.00000000000E+00 -0.83834770043E+03  0.83834770043E+03  0.25500000920E-02 0. -1.
    10030    2    1    2    0    0  0.00000000000E+00  0.00000000000E+00 -0.69209576271E+03  0.98459963818E+03  0.70031414575E+03 0.  0.
        3    1    3    3  502    0  0.20922778342E+03 -0.16234825279E+03 -0.23977922855E+02  0.26591008165E+03  0.10100000352E+00 0. -1.
       -3    1    3    3    0  502 -0.20922778342E+03  0.16234825279E+03 -0.66811783985E+03  0.71868955653E+03  0.10100000352E+00 0.  1.
</event>
<event>
 5   0  0.6609285E-03  0.6975147E+03  0.7818609E-02  0.9721492E-01
        1   -1    0    0  501    0  0.00000000000E+00  0.00000000000E+00  0.97557754602E+03  0.97557754603E+03  0.50400001928E-02 0.  1.
       -1   -1    0    0    0  501  0.00000000000E+00  0.00000000000E+00 -0.12467660728E+03  0.12467660738E+03  0.50400001928E-02 0. -1.
    10030    2    1    2    0    0  0.00000000000E+00  0.00000000000E+00  0.85090093874E+03  0.11002541534E+04  0.69751472712E+03 0.  0.
        2    1    3    3  502    0 -0.29992961819E+03 -0.73270319130E+02  0.68128664275E+03  0.74798248985E+03  0.25500000920E-02 0.  1.
       -2    1    3    3    0  502  0.29992961819E+03  0.73270319130E+02  0.16961429599E+03  0.35227166356E+03  0.25500000920E-02 0. -1.
</event>
<event>
 5   0  0.6609285E-03  0.6979054E+03  0.7818609E-02  0.9720821E-01
       -1   -1    0    0    0  501  0.00000000000E+00  0.00000000000E+00  0.22481519736E+03  0.22481519742E+03  0.50400001928E-02 0.  1.
        1   -1    0    0  501    0  0.00000000000E+00  0.00000000000E+00 -0.54163591416E+03  0.54163591418E+03  0.50400001928E-02 0. -1.
    10030    2    1    2    0    0  0.00000000000E+00  0.00000000000E+00 -0.31682071680E+03  0.76645111160E+03  0.69790539465E+03 0.  0.
        2    1    3    3  502    0 -0.29646242473E+03 -0.27287585776E+02 -0.35831410179E+03  0.46585789375E+03  0.25500000920E-02 0. -1.
       -2    1    3    3    0  502  0.29646242473E+03  0.27287585776E+02  0.41493384994E+02  0.30059321785E+03  0.25500000920E-02 0.  1.
</event>
<event>
 5   0  0.6246998E-03  0.7108839E+03  0.7818609E-02  0.9698798E-01
        1   -1    0    0  501    0  0.00000000000E+00  0.00000000000E+00  0.84297691880E+03  0.84297691882E+03  0.50400001928E-02 0.  1.
       -1   -1    0    0    0  501  0.00000000000E+00  0.00000000000E+00 -0.14987239330E+03  0.14987239338E+03  0.50400001928E-02 0. -1.
    10030    2    1    2    0    0  0.00000000000E+00  0.00000000000E+00  0.69310452551E+03  0.99284931220E+03  0.71088386777E+03 0.  0.
        4    1    3    3  502    0 -0.23238927104E+02  0.29348110722E+03  0.62471227153E+03  0.69060715543E+03  0.12699999809E+01 0.  1.
       -4    1    3    3    0  502  0.23238927104E+02 -0.29348110722E+03  0.68392253978E+02  0.30224215677E+03  0.12699999809E+01 0. -1.
</event>
<event>
 5   0  0.6246998E-03  0.7073111E+03  0.7818609E-02  0.9704810E-01
       -1   -1    0    0    0  501  0.00000000000E+00  0.00000000000E+00  0.16778157298E+03  0.16778157305E+03  0.50400001928E-02 0.  1.
        1   -1    0    0  501    0  0.00000000000E+00  0.00000000000E+00 -0.74544689160E+03  0.74544689162E+03  0.50400001928E-02 0. -1.
    10030    2    1    2    0    0  0.00000000000E+00  0.00000000000E+00 -0.57766531863E+03  0.91322846467E+03  0.70731111142E+03 0.  0.
        4    1    3    3  502    0  0.15887737852E+03  0.29341345460E+03 -0.44016002639E+03  0.55233679805E+03  0.12699999809E+01 0. -1.
       -4    1    3    3    0  502 -0.15887737852E+03 -0.29341345460E+03 -0.13750529223E+03  0.36089166662E+03  0.12699999809E+01 0.  1.
</event>
<event>
 5   0  0.1079446E-02  0.7083322E+03  0.7818609E-02  0.9703088E-01
       -2   -1    0    0    0  501  0.00000000000E+00  0.00000000000E+00  0.36538939061E+03  0.36538939062E+03  0.25500000920E-02 0.  1.
        2   -1    0    0  501    0  0.00000000000E+00  0.00000000000E+00 -0.34328754296E+03  0.34328754297E+03  0.25500000920E-02 0. -1.
    10030    2    1    2    0    0  0.00000000000E+00  0.00000000000E+00  0.22101847654E+02  0.70867693359E+03  0.70833219927E+03 0.  0.
        2    1    3    3  502    0 -0.27007695792E+03 -0.77305321244E+01 -0.21804152520E+03  0.34719365063E+03  0.25500000920E-02 0. -1.
       -2    1    3    3    0  502  0.27007695792E+03  0.77305321244E+01  0.24014337285E+03  0.36148328295E+03  0.25500000920E-02 0.  1.
</event>
<event>
 5   0  0.1109788E-02  0.7204451E+03  0.7818609E-02  0.9682893E-01
       -2   -1    0    0    0  501  0.00000000000E+00  0.00000000000E+00  0.41595331306E+03  0.41595331307E+03  0.25500000920E-02 0. -1.
        2   -1    0    0  501    0  0.00000000000E+00  0.00000000000E+00 -0.31195876223E+03  0.31195876224E+03  0.25500000920E-02 0.  1.
    10030    2    1    2    0    0  0.00000000000E+00  0.00000000000E+00  0.10399455083E+03  0.72791207531E+03  0.72044508658E+03 0.  0.
        1    1    3    3  502    0 -0.39711787667E+02 -0.25058426418E+03  0.31036383535E+03  0.40086807039E+03  0.50400001928E-02 0. -1.
       -1    1    3    3    0  502  0.39711787667E+02  0.25058426418E+03 -0.20636928452E+03  0.32704400492E+03  0.50400001928E-02 0.  1.
</event>
<event>
 5   0  0.1119786E-02  0.7000112E+03  0.7818609E-02  0.9717213E-01
        2   -1    0    0  501    0  0.00000000000E+00  0.00000000000E+00  0.15313056047E+04  0.15313056047E+04  0.25500000920E-02 0.  1.
       -2   -1    0    0    0  501  0.00000000000E+00  0.00000000000E+00 -0.79999657093E+02  0.79999657134E+02  0.25500000920E-02 0. -1.
    10030    2    1    2    0    0  0.00000000000E+00  0.00000000000E+00  0.14513059476E+04  0.16113052619E+04  0.70001120939E+03 0.  0.
        3    1    3    3  502    0 -0.24444131175E+03 -0.21147416844E+03  0.41656425762E+03  0.52725579156E+03  0.10100000352E+00 0.  1.
       -3    1    3    3    0  502  0.24444131175E+03  0.21147416844E+03  0.10347416900E+04  0.10840494703E+04  0.10100000352E+00 0. -1.
</event>
<event>
 5   0  0.1109788E-02  0.7022928E+03  0.7818609E-02  0.9713319E-01
        2   -1    0    0  501    0  0.00000000000E+00  0.00000000000E+00  0.90217313803E+03  0.90217313803E+03  0.25500000920E-02 0.  1.
       -2   -1    0    0    0  501  0.00000000000E+00  0.00000000000E+00 -0.13667418910E+03  0.13667418913E+03  0.25500000920E-02 0. -1.
    10030    2    1    2    0    0  0.00000000000E+00  0.00000000000E+00  0.76549894892E+03  0.10388473272E+04  0.70229276541E+03 0.  0.
        1    1    3    3  502    0  0.28020051503E+03  0.19096437109E+03  0.24779067822E+03  0.41997611824E+03  0.50400001928E-02 0.  1.
       -1    1    3    3    0  502 -0.28020051503E+03 -0.19096437109E+03  0.51770827071E+03  0.61887120892E+03  0.50400001928E-02 0. -1.
</event>
<event>
 5   0  0.1100119E-02  0.6984811E+03  0.7818609E-02  0.9719833E-01
       -2   -1    0    0    0  501  0.00000000000E+00  0.00000000000E+00  0.26752105693E+03  0.26752105694E+03  0.25500000920E-02 0. -1.
        2   -1    0    0  501    0  0.00000000000E+00  0.00000000000E+00 -0.45592291132E+03  0.45592291133E+03  0.25500000920E-02 0.  1.
    10030    2    1    2    0    0  0.00000000000E+00  0.00000000000E+00 -0.18840185439E+03  0.72344396827E+03  0.69848114970E+03 0.  0.
        4    1    3    3  502    0 -0.25641626224E+03  0.34078561821E+02 -0.33722839995E+03  0.42501206401E+03  0.12699999809E+01 0.  1.
       -4    1    3    3    0  502  0.25641626224E+03 -0.34078561821E+02  0.14882654556E+03  0.29843190426E+03  0.12699999809E+01 0. -1.
</event>
<event>
 5   0  0.6689415E-03  0.6997496E+03  0.7818609E-02  0.9717660E-01
        1   -1    0    0  501    0  0.00000000000E+00  0.00000000000E+00  0.13732504118E+04  0.13732504118E+04  0.50400001928E-02 0.  1.
       -1   -1    0    0    0  501  0.00000000000E+00  0.00000000000E+00 -0.89140612354E+02  0.89140612496E+02  0.50400001928E-02 0. -1.
    10030    2    1    2    0    0  0.00000000000E+00  0.00000000000E+00  0.12841097994E+04  0.14623910243E+04  0.69974962016E+03 0.  0.
        1    1    3    3  502    0  0.28456964076E+02 -0.12145510025E+03  0.13251963380E+04  0.13310546475E+04  0.50400001928E-02 0.  1.
       -1    1    3    3    0  502 -0.28456964076E+02  0.12145510025E+03 -0.41086538647E+02  0.13133637678E+03  0.50400001928E-02 0. -1.
</event>
<event>
 5   0  0.6689415E-03  0.6999889E+03  0.7818609E-02  0.9717251E-01
        1   -1    0    0  501    0  0.00000000000E+00  0.00000000000E+00  0.41062776455E+03  0.41062776458E+03  0.50400001928E-02 0.  1.
       -1   -1    0    0    0  501  0.00000000000E+00  0.00000000000E+00 -0.29831422410E+03  0.29831422415E+03  0.50400001928E-02 0. -1.
    10030    2    1    2    0    0  0.00000000000E+00  0.00000000000E+00  0.11231354045E+03  0.70894198873E+03  0.69998886564E+03 0.  0.
        1    1    3    3  502    0  0.30647648780E+03 -0.15064829098E+03 -0.21461292264E+02  0.34217441786E+03  0.50400001928E-02 0. -1.
       -1    1    3    3    0  502 -0.30647648780E+03  0.15064829098E+03  0.13377483271E+03  0.36676757087E+03  0.50400001928E-02 0.  1.
</event>
<event>
 5   0  0.6990118E-03  0.6997638E+03  0.7818609E-02  0.9717636E-01
       -1   -1    0    0    0  501  0.00000000000E+00  0.00000000000E+00  0.44073787743E+03  0.44073787746E+03  0.50400001928E-02 0.  1.
        1   -1    0    0  501    0  0.00000000000E+00  0.00000000000E+00 -0.27775543218E+03  0.27775543223E+03  0.50400001928E-02 0. -1.
    10030    2    1    2    0    0  0.00000000000E+00  0.00000000000E+00  0.16298244525E+03  0.71849330969E+03  0.69976378772E+03 0.  0.
        5    1    3    3  502    0 -0.32653661048E+03 -0.69866548069E+02 -0.25646022875E+02  0.33494372813E+03  0.46999998093E+01 0. -1.
       -5    1    3    3    0  502  0.32653661048E+03  0.69866548069E+02  0.18862846813E+03  0.38354958156E+03  0.46999998093E+01 0.  1.
</event>
<event>
 5   0  0.6246998E-03  0.7007074E+03  0.7818609E-02  0.9716023E-01
       -1   -1    0    0    0  501  0.00000000000E+00  0.00000000000E+00  0.74790836080E+03  0.74790836081E+03  0.50400001928E-02 0. -1.
        1   -1    0    0  501    0  0.00000000000E+00  0.00000000000E+00 -0.16412131178E+03  0.16412131186E+03  0.50400001928E-02 0.  1.
    10030    2    1    2    0    0  0.00000000000E+00  0.00000000000E+00  0.58378704902E+03  0.91202967267E+03  0.70070736062E+03 0.  0.
        4    1    3    3  502    0  0.23611164717E+03  0.10038452401E+03  0.60242525058E+03  0.65478512356E+03  0.12699999809E+01 0. -1.
       -4    1    3    3    0  502 -0.23611164717E+03 -0.10038452401E+03 -0.18638201562E+02  0.25724454911E+03  0.12699999809E+01 0.  1.
</event>
<event>
 5   0  0.6246998E-03  0.7032203E+03  0.7818609E-02  0.9711741E-01
       -1   -1    0    0    0  501  0.00000000000E+00  0.00000000000E+00  0.41708919008E+03  0.41708919011E+03  0.50400001928E-02 0. -1.
        1   -1    0    0  501    0  0.00000000000E+00  0.00000000000E+00 -0.29641066359E+03  0.29641066363E+03  0.50400001928E-02 0.  1.
    10030    2    1    2    0    0  0.00000000000E+00  0.00000000000E+00  0.12067852649E+03  0.71349985374E+03  0.70322026033E+03 0.  0.
        4    1    3    3  502    0  0.64557664167E+01  0.10357876448E+03  0.40119324216E+03  0.41440061273E+03  0.12699999809E+01 0. -1.
       -4    1    3    3    0  502 -0.64557664167E+01 -0.10357876448E+03 -0.28051471567E+03  0.29909924102E+03  0.12699999809E+01 0.  1.
</event>
<event>
 5   0  0.6689415E-03  0.7057193E+03  0.7818609E-02  0.9707501E-01
       -1   -1    0    0    0  501  0.00000000000E+00  0.00000000000E+00  0.27900903095E+03  0.27900903099E+03  0.50400001928E-02 0. -1.
        1   -1    0    0  501    0  0.00000000000E+00  0.00000000000E+00 -0.44625767028E+03  0.44625767031E+03  0.50400001928E-02 0.  1.
    10030    2    1    2    0    0  0.00000000000E+00  0.00000000000E+00 -0.16724863933E+03  0.72526670130E+03  0.70571926476E+03 0.  0.
        1    1    3    3  502    0 -0.22475721514E+03  0.22005648582E+03  0.80708695335E+02  0.32473767296E+03  0.50400001928E-02 0. -1.
       -1    1    3    3    0  502  0.22475721514E+03 -0.22005648582E+03 -0.24795733467E+03  0.40052902835E+03  0.50400001928E-02 0.  1.
</event>
<event>
 5   0  0.1100119E-02  0.6993241E+03  0.7818609E-02  0.9718389E-01
       -2   -1    0    0    0  501  0.00000000000E+00  0.00000000000E+00  0.19848832971E+03  0.19848832972E+03  0.25500000920E-02 0.  1.
        2   -1    0    0  501    0  0.00000000000E+00  0.00000000000E+00 -0.61597346892E+03  0.61597346893E+03  0.25500000920E-02 0. -1.
    10030    2    1    2    0    0  0.00000000000E+00  0.00000000000E+00 -0.41748513921E+03  0.81446179865E+03  0.69932408795E+03 0.  0.
        4    1    3    3  502    0  0.28128583295E+03 -0.15306368383E+03 -0.37225640402E+03  0.49104648900E+03  0.12699999809E+01 0. -1.
       -4    1    3    3    0  502 -0.28128583295E+03  0.15306368383E+03 -0.45228735195E+02  0.32341530965E+03  0.12699999809E+01 0.  1.
</event>
<event>
 5   0  0.6609285E-03  0.7051707E+03  0.7818609E-02  0.9708430E-01
       -1   -1    0    0    0  501  0.00000000000E+00  0.00000000000E+00  0.32276259044E+03  0.32276259048E+03  0.50400001928E-02 0.  1.
        1   -1    0    0  501    0  0.00000000000E+00  0.00000000000E+00 -0.38516367262E+03  0.38516367266E+03  0.50400001928E-02 0. -1.
    10030    2    1    2    0    0  0.00000000000E+00  0.00000000000E+00 -0.62401082183E+02  0.70792626314E+03  0.70517068783E+03 0.  0.
        2    1    3    3  502    0  0.22947684133E+03  0.92433797220E+02 -0.28340484127E+03  0.37619400798E+03  0.25500000920E-02 0. -1.
       -2    1    3    3    0  502 -0.22947684133E+03 -0.92433797220E+02  0.22100375909E+03  0.33173225516E+03  0.25500000920E-02 0.  1.
</event>
<event>
 5   0  0.6785252E-03  0.7004437E+03  0.7818609E-02  0.9716474E-01
        1   -1    0    0  501    0  0.00000000000E+00  0.00000000000E+00  0.46556223800E+03  0.46556223803E+03  0.50400001928E-02 0.  1.
       -1   -1    0    0    0  501  0.00000000000E+00  0.00000000000E+00 -0.26345638849E+03  0.26345638853E+03  0.50400001928E-02 0. -1.
    10030    2    1    2    0    0  0.00000000000E+00  0.00000000000E+00  0.20210584951E+03  0.72901862656E+03  0.70044370471E+03 0.  0.
        3    1    3    3  502    0  0.75976283636E+01  0.25986050660E+03 -0.14319081134E+03  0.29679761707E+03  0.10100000352E+00 0. -1.
       -3    1    3    3    0  502 -0.75976283636E+01 -0.25986050660E+03  0.34529666085E+03  0.43222100949E+03  0.10100000352E+00 0.  1.
</event>
<event>
 5   0  0.1099980E-02  0.7014661E+03  0.7818609E-02  0.9714728E-01
        2   -1    0    0  501    0  0.00000000000E+00  0.00000000000E+00  0.46600452541E+03  0.46600452542E+03  0.25500000920E-02 0.  1.
       -2   -1    0    0    0  501  0.00000000000E+00  0.00000000000E+00 -0.26397525338E+03  0.26397525340E+03  0.25500000920E-02 0. -1.
    10030    2    1    2    0    0  0.00000000000E+00  0.00000000000E+00  0.20202927203E+03  0.72997977881E+03  0.70146607240E+03 0.  0.
        5    1    3    3  502    0 -0.19237733210E+03  0.21856370804E+03  0.30444067652E+03  0.42129009945E+03  0.46999998093E+01 0.  1.
       -5    1    3    3    0  502  0.19237733210E+03 -0.21856370804E+03 -0.10241140450E+03  0.30868967936E+03  0.46999998093E+01 0. -1.
</event>
<event>
 5   0  0.6609285E-03  0.6994143E+03  0.7818609E-02  0.9718234E-01
       -1   -1    0    0    0  501  0.00000000000E+00  0.00000000000E+00  0.12479792522E+03  0.12479792532E+03  0.50400001928E-02 0.  1.
        1   -1    0    0  501    0  0.00000000000E+00  0.00000000000E+00 -0.97994495069E+03  0.97994495070E+03  0.50400001928E-02 0. -1.
    10030    2    1    2    0    0  0.00000000000E+00  0.00000000000E+00 -0.85514702547E+03  0.11047428760E+04  0.69941431708E+03 0.  0.
        2    1    3    3  502    0 -0.13491636341E+03 -0.30463188897E+03 -0.25972645280E+03  0.42244626071E+03  0.25500000920E-02 0.  1.
       -2    1    3    3    0  502  0.13491636341E+03  0.30463188897E+03 -0.59542057266E+03  0.68229661530E+03  0.25500000920E-02 0. -1.
</event>
<event>
 5   0  0.6785252E-03  0.7006578E+03  0.7818609E-02  0.9716108E-01
        1   -1    0    0  501    0  0.00000000000E+00  0.00000000000E+00  0.54333671393E+03  0.54333671395E+03  0.50400001928E-02 0.  1.
       -1   -1    0    0    0  501  0.00000000000E+00  0.00000000000E+00 -0.22588263115E+03  0.22588263121E+03  0.50400001928E-02 0. -1.
    10030    2    1    2    0    0  0.00000000000E+00  0.00000000000E+00  0.31745408278E+03  0.76921934516E+03  0.70065776688E+03 0.  0.
        3    1    3    3  502    0  0.83064930328E+02  0.29197244288E+03 -0.33264301518E+02  0.30537552949E+03  0.10100000352E+00 0.  1.
       -3    1    3    3    0  502 -0.83064930328E+02 -0.29197244288E+03  0.35071838429E+03  0.46384381567E+03  0.10100000352E+00 0. -1.
</event>
<event>
 5   0  0.6990118E-03  0.7017620E+03  0.7818609E-02  0.9714224E-01
       -1   -1    0    0    0  501  0.00000000000E+00  0.00000000000E+00  0.20555990891E+03  0.20555990897E+03  0.50400001928E-02 0.  1.
        1   -1    0    0  501    0  0.00000000000E+00  0.00000000000E+00 -0.59893727846E+03  0.59893727848E+03  0.50400001928E-02 0. -1.
    10030    2    1    2    0    0  0.00000000000E+00  0.00000000000E+00 -0.39337736955E+03  0.80449718745E+03  0.70176204638E+03 0.  0.
        5    1    3    3  502    0 -0.26000608695E+03 -0.12273705300E+03  0.33813471636E+02  0.28953927245E+03  0.46999998093E+01 0.  1.
       -5    1    3    3    0  502  0.26000608695E+03  0.12273705300E+03 -0.42719084119E+03  0.51495791500E+03  0.46999998093E+01 0. -1.
</event>
<event>
 5   0  0.4440500E-03  0.7022889E+03  0.7818609E-02  0.9713326E-01
       -3   -1    0    0    0  501  0.00000000000E+00  0.00000000000E+00  0.74970039519E+03  0.74970040200E+03  0.10100000352E+00 0.  1.
        3   -1    0    0  501    0  0.00000000000E+00  0.00000000000E+00 -0.16446889034E+03  0.16446892135E+03  0.10100000352E+00 0. -1.
    10030    2    1    2    0    0  0.00000000000E+00  0.00000000000E+00  0.58523150485E+03  0.91416932335E+03  0.70228885616E+03 0.  0.
        5    1    3    3  502    0 -0.11057272337E+03  0.30611954635E+03  0.46404925941E+03  0.56683269928E+03  0.46999998093E+01 0.  1.
       -5    1    3    3    0  502  0.11057272337E+03 -0.30611954635E+03  0.12118224544E+03  0.34733662407E+03  0.46999998093E+01 0. -1.
</event>
<event>
 5   0  0.1079446E-02  0.7008457E+03  0.7818609E-02  0.9715787E-01
        2   -1    0    0  501    0  0.00000000000E+00  0.00000000000E+00  0.71087984824E+03  0.71087984825E+03  0.25500000920E-02 0.  1.
       -2   -1    0    0    0  501  0.00000000000E+00  0.00000000000E+00 -0.17273830773E+03  0.17273830775E+03  0.25500000920E-02 0. -1.
    10030    2    1    2    0    0  0.00000000000E+00  0.00000000000E+00  0.53814154051E+03  0.88361815599E+03  0.70084572338E+03 0.  0.
        2    1    3    3  502    0  0.29321518383E+03  0.18823981427E+03  0.22211913417E+03  0.41321457074E+03  0.25500000920E-02 0.  1.
       -2    1    3    3    0  502 -0.29321518383E+03 -0.18823981427E+03  0.31602240634E+03  0.47040358525E+03  0.25500000920E-02 0. -1.
</event>
<event>
 5   0  0.1079446E-02  0.7003586E+03  0.7818609E-02  0.9716619E-01
        2   -1    0    0  501    0  0.00000000000E+00  0.00000000000E+00  0.49598285563E+03  0.49598285563E+03  0.25500000920E-02 0.  1.
       -2   -1    0    0    0  501  0.00000000000E+00  0.00000000000E+00 -0.24723749466E+03  0.24723749467E+03  0.25500000920E-02 0. -1.
    10030    2    1    2    0    0  0.00000000000E+00  0.00000000000E+00  0.24874536097E+03  0.74322035031E+03  0.70035864706E+03 0.  0.
        2    1    3    3  502    0 -0.38896627679E+02  0.28498726809E+03 -0.87588150675E+02  0.30066987672E+03  0.25500000920E-02 0. -1.
       -2    1    3    3    0  502  0.38896627679E+02 -0.28498726809E+03  0.33633351164E+03  0.44255047359E+03  0.25500000920E-02 0.  1.
</event>
<event>
 5   0  0.1119786E-02  0.6986774E+03  0.7818609E-02  0.9719497E-01
       -2   -1    0    0    0  501  0.00000000000E+00  0.00000000000E+00  0.33446896924E+03  0.33446896925E+03  0.25500000920E-02 0. -1.
        2   -1    0    0  501    0  0.00000000000E+00  0.00000000000E+00 -0.36486955225E+03  0.36486955226E+03  0.25500000920E-02 0.  1.
    10030    2    1    2    0    0  0.00000000000E+00  0.00000000000E+00 -0.30400583016E+02  0.69933852151E+03  0.69867744505E+03 0.  0.
        3    1    3    3  502    0 -0.84916504531E+02  0.62664363581E+01 -0.35432383012E+03  0.36441112463E+03  0.10100000352E+00 0.  1.
       -3    1    3    3    0  502  0.84916504531E+02 -0.62664363581E+01  0.32392324710E+03  0.33492739688E+03  0.10100000352E+00 0. -1.
</event>
<event>
 5   0  0.1100119E-02  0.6984785E+03  0.7818609E-02  0.9719838E-01
       -2   -1    0    0    0  501  0.00000000000E+00  0.00000000000E+00  0.77128426813E+02  0.77128426855E+02  0.25500000920E-02 0.  1.
        2   -1    0    0  501    0  0.00000000000E+00  0.00000000000E+00 -0.15813630358E+04  0.15813630358E+04  0.25500000920E-02 0. -1.
    10030    2    1    2    0    0  0.00000000000E+00  0.00000000000E+00 -0.15042346090E+04  0.16584914626E+04  0.69847846984E+03 0.  0.
        4    1    3    3  502    0 -0.27287895344E+03  0.97628265525E+02 -0.28942395071E+03  0.40958764338E+03  0.12699999809E+01 0.  1.
       -4    1    3    3    0  502  0.27287895344E+03 -0.97628265525E+02 -0.12148106583E+04  0.12489038193E+04  0.12699999809E+01 0. -1.
</event>
<event>
 5   0  0.6689415E-03  0.7017767E+03  0.7818609E-02  0.9714199E-01
       -1   -1    0    0    0  501  0.00000000000E+00  0.00000000000E+00  0.32308725301E+03  0.32308725305E+03  0.50400001928E-02 0. -1.
        1   -1    0    0  501    0  0.00000000000E+00  0.00000000000E+00 -0.38108164615E+03  0.38108164618E+03  0.50400001928E-02 0.  1.
    10030    2    1    2    0    0  0.00000000000E+00  0.00000000000E+00 -0.57994393141E+02  0.70416889923E+03  0.70177666604E+03 0.  0.
        1    1    3    3  502    0 -0.33835205331E+03 -0.81442552607E+02 -0.73956416485E+02  0.35578722984E+03  0.50400001928E-02 0.  1.
       -1    1    3    3    0  502  0.33835205331E+03  0.81442552607E+02  0.15962023344E+02  0.34838166939E+03  0.50400001928E-02 0. -1.
</event>
<event>
 5   0  0.1100119E-02  0.6945009E+03  0.7818609E-02  0.9726683E-01
        2   -1    0    0  501    0  0.00000000000E+00  0.00000000000E+00  0.30519029144E+04  0.30519029144E+04  0.25500000920E-02 0.  1.
       -2   -1    0    0    0  501  0.00000000000E+00  0.00000000000E+00 -0.39510716536E+02  0.39510716618E+02  0.25500000920E-02 0. -1.
    10030    2    1    2    0    0  0.00000000000E+00  0.00000000000E+00  0.30123921979E+04  0.30914136310E+04  0.69450088862E+03 0.  0.
        4    1    3    3  502    0  0.20802549560E+03  0.39411951639E+02  0.27313347228E+04  0.27395289540E+04  0.12699999809E+01 0.  1.
       -4    1    3    3    0  502 -0.20802549560E+03 -0.39411951639E+02  0.28105747504E+03  0.35188467703E+03  0.12699999809E+01 0. -1.
</event>
<event>
 5   0  0.6246998E-03  0.7010843E+03  0.7818609E-02  0.9715380E-01
       -1   -1    0    0    0  501  0.00000000000E+00  0.00000000000E+00  0.21276592540E+03  0.21276592546E+03  0.50400001928E-02 0.  1.
        1   -1    0    0  501    0  0.00000000000E+00  0.00000000000E+00 -0.57753514925E+03  0.57753514927E+03  0.50400001928E-02 0. -1.
    10030    2    1    2    0    0  0.00000000000E+00  0.00000000000E+00 -0.36476922385E+03  0.79030107474E+03  0.70108430453E+03 0.  0.
        4    1    3    3  502    0 -0.22724373249E+03 -0.14727763803E+01  0.11848132365E+03  0.25628367092E+03  0.12699999809E+01 0.  1.
       -4    1    3    3    0  502  0.22724373249E+03  0.14727763803E+01 -0.48325054749E+03  0.53401740382E+03  0.12699999809E+01 0. -1.
</event>
<event>
 5   0  0.1109788E-02  0.7003496E+03  0.7818609E-02  0.9716635E-01
       -2   -1    0    0    0  501  0.00000000000E+00  0.00000000000E+00  0.14692025367E+03  0.14692025370E+03  0.25500000920E-02 0.  1.
        2   -1    0    0  501    0  0.00000000000E+00  0.00000000000E+00 -0.83461865263E+03  0.83461865264E+03  0.25500000920E-02 0. -1.
    10030    2    1    2    0    0  0.00000000000E+00  0.00000000000E+00 -0.68769839896E+03  0.98153890633E+03  0.70034958179E+03 0.  0.
        1    1    3    3  502    0  0.19601858843E+03  0.19635276339E+03 -0.44424395735E+02  0.28098260028E+03  0.50400001928E-02 0.  1.
       -1    1    3    3    0  502 -0.19601858843E+03 -0.19635276339E+03 -0.64327400322E+03  0.70055630605E+03  0.50400001928E-02 0. -1.
</event>
<event>
 5   0  0.6785252E-03  0.6973743E+03  0.7818609E-02  0.9721733E-01
       -1   -1    0    0    0  501  0.00000000000E+00  0.00000000000E+00  0.55689149116E+02  0.55689149344E+02  0.50400001928E-02 0. -1.
        1   -1    0    0  501    0  0.00000000000E+00  0.00000000000E+00 -0.21832393060E+04  0.21832393060E+04  0.50400001928E-02 0.  1.
    10030    2    1    2    0    0  0.00000000000E+00  0.00000000000E+00 -0.21275501569E+04  0.22389284553E+04  0.69737433141E+03 0.  0.
        3    1    3    3  502    0 -0.25527467659E+03 -0.23703930415E+03 -0.10150919151E+04  0.10732028692E+04  0.10100000352E+00 0. -1.
       -3    1    3    3    0  502  0.25527467659E+03  0.23703930415E+03 -0.11124582418E+04  0.11657255861E+04  0.10100000352E+00 0.  1.
</event>
<event>
 5   0  0.1119786E-02  0.7014901E+03  0.7818609E-02  0.9714687E-01
        2   -1    0    0  501    0  0.00000000000E+00  0.00000000000E+00  0.13640091247E+04  0.13640091247E+04  0.25500000920E-02 0. -1.
       -2   -1    0    0    0  501  0.00000000000E+00  0.00000000000E+00 -0.90191539419E+02  0.90191539455E+02  0.25500000920E-02 0.  1.
    10030    2    1    2    0    0  0.00000000000E+00  0.00000000000E+00  0.12738175853E+04  0.14542006642E+04  0.70149007909E+03 0.  0.
        3    1    3    3  502    0  0.19287233889E+03  0.23371036618E+03  0.10030871036E+04  0.10478568710E+04  0.10100000352E+00 0. -1.
       -3    1    3    3    0  502 -0.19287233889E+03 -0.23371036618E+03  0.27073048166E+03  0.40634379320E+03  0.10100000352E+00 0.  1.
</event>
<event>
 5   0  0.6990118E-03  0.7022328E+03  0.7818609E-02  0.9713421E-01
       -1   -1    0    0    0  501  0.00000000000E+00  0.00000000000E+00  0.22178734297E+03  0.22178734303E+03  0.50400001928E-02 0.  1.
        1   -1    0    0  501    0  0.00000000000E+00  0.00000000000E+00 -0.55586006898E+03  0.55586006901E+03  0.50400001928E-02 0. -1.
    10030    2    1    2    0    0  0.00000000000E+00  0.00000000000E+00 -0.33407272601E+03  0.77764741204E+03  0.70223280412E+03 0.  0.
        5    1    3    3  502    0  0.15906996410E+02  0.28665139827E+03 -0.39082443783E+03  0.48496173856E+03  0.46999998093E+01 0. -1.
       -5    1    3    3    0  502 -0.15906996410E+02 -0.28665139827E+03  0.56751711815E+02  0.29268567348E+03  0.46999998093E+01 0.  1.
</event>
<event>
 5   0  0.1109788E-02  0.6940221E+03  0.7818609E-02  0.9727510E-01
        2   -1    0    0  501    0  0.00000000000E+00  0.00000000000E+00  0.76008897929E+03  0.76008897930E+03  0.25500000920E-02 0. -1.
       -2   -1    0    0    0  501  0.00000000000E+00  0.00000000000E+00 -0.15842441856E+03  0.15842441858E+03  0.25500000920E-02 0.  1.
    10030    2    1    2    0    0  0.00000000000E+00  0.00000000000E+00  0.60166456073E+03  0.91851339788E+03  0.69402205905E+03 0.  0.
        1    1    3    3  502    0  0.29053957725E+03  0.47176431750E+02  0.54406828186E+03  0.61858641839E+03  0.50400001928E-02 0. -1.
       -1    1    3    3    0  502 -0.29053957725E+03 -0.47176431750E+02  0.57596278868E+02  0.29992697949E+03  0.50400001928E-02 0.  1.
</event>
<event>
 5   0  0.1119786E-02  0.7031694E+03  0.7818609E-02  0.9711827E-01
       -2   -1    0    0    0  501  0.00000000000E+00  0.00000000000E+00  0.62981659866E+03  0.62981659867E+03  0.25500000920E-02 0.  1.
        2   -1    0    0  501    0  0.00000000000E+00  0.00000000000E+00 -0.19626634465E+03  0.19626634467E+03  0.25500000920E-02 0. -1.
    10030    2    1    2    0    0  0.00000000000E+00  0.00000000000E+00  0.43355025401E+03  0.82608294334E+03  0.70316940102E+03 0.  0.
        3    1    3    3  502    0  0.20222320455E+02  0.32587388688E+03  0.36999102663E+03  0.49345324235E+03  0.10100000352E+00 0.  1.
       -3    1    3    3    0  502 -0.20222320455E+02 -0.32587388688E+03  0.63559227375E+02  0.33262970099E+03  0.10100000352E+00 0. -1.
</event>
<event>
 5   0  0.6990118E-03  0.7060995E+03  0.7818609E-02  0.9706858E-01
        1   -1    0    0  501    0  0.00000000000E+00  0.00000000000E+00  0.13781157249E+04  0.13781157249E+04  0.50400001928E-02 0. -1.
       -1   -1    0    0    0  501  0.00000000000E+00  0.00000000000E+00 -0.90445325578E+02  0.90445325718E+02  0.50400001928E-02 0.  1.
    10030    2    1    2    0    0  0.00000000000E+00  0.00000000000E+00  0.12876703993E+04  0.14685610506E+04  0.70609949874E+03 0.  0.
        5    1    3    3  502    0 -0.21593620578E+03 -0.22124661729E+03  0.28938864079E+03  0.42349307674E+03  0.46999998093E+01 0.  1.
       -5    1    3    3    0  502  0.21593620578E+03  0.22124661729E+03  0.99828175851E+03  0.10450679739E+04  0.46999998093E+01 0. -1.
</event>
<event>
 5   0  0.6246998E-03  0.7077973E+03  0.7818609E-02  0.9703990E-01
       -1   -1    0    0    0  501  0.00000000000E+00  0.00000000000E+00  0.16019091925E+03  0.16019091933E+03  0.50400001928E-02 0.  1.
        1   -1    0    0  501    0  0.00000000000E+00  0.00000000000E+00 -0.78184369843E+03  0.78184369844E+03  0.50400001928E-02 0. -1.
    10030    2    1    2    0    0  0.00000000000E+00  0.00000000000E+00 -0.62165277917E+03  0.94203461778E+03  0.70779731791E+03 0.  0.
        4    1    3    3  502    0 -0.10089988924E+03  0.14408279438E+02  0.14023069362E+03  0.17336275984E+03  0.12699999809E+01 0.  1.
       -4    1    3    3    0  502  0.10089988924E+03 -0.14408279438E+02 -0.76188347279E+03  0.76867185794E+03  0.12699999809E+01 0. -1.
</event>
<event>
 5   0  0.6609285E-03  0.6985601E+03  0.7818609E-02  0.9719698E-01
        1   -1    0    0  501    0  0.00000000000E+00  0.00000000000E+00  0.16610151682E+04  0.16610151682E+04  0.50400001928E-02 0.  1.
       -1   -1    0    0    0  501  0.00000000000E+00  0.00000000000E+00 -0.73446985989E+02  0.73446986162E+02  0.50400001928E-02 0. -1.
    10030    2    1    2    0    0  0.00000000000E+00  0.00000000000E+00  0.15875681822E+04  0.17344621544E+04  0.69856011321E+03 0.  0.
        2    1    3    3  502    0 -0.30961680656E+03 -0.86105128933E+02  0.11334975712E+04  0.11781737580E+04  0.25500000920E-02 0.  1.
       -2    1    3    3    0  502  0.30961680656E+03  0.86105128933E+02  0.45407061100E+03  0.55628839635E+03  0.25500000920E-02 0. -1.
</event>
<event>
 5   0  0.1100119E-02  0.6943710E+03  0.7818609E-02  0.9726907E-01
        2   -1    0    0  501    0  0.00000000000E+00  0.00000000000E+00  0.62688419477E+03  0.62688419477E+03  0.25500000920E-02 0.  1.
       -2   -1    0    0    0  501  0.00000000000E+00  0.00000000000E+00 -0.19228075211E+03  0.19228075212E+03  0.25500000920E-02 0. -1.
    10030    2    1    2    0    0  0.00000000000E+00  0.00000000000E+00  0.43460344266E+03  0.81916494689E+03  0.69437097999E+03 0.  0.
        4    1    3    3  502    0 -0.25345854759E+03  0.65475418300E+02 -0.51736756896E+02  0.26684559330E+03  0.12699999809E+01 0. -1.
       -4    1    3    3    0  502  0.25345854759E+03 -0.65475418300E+02  0.48634019956E+03  0.55231935359E+03  0.12699999809E+01 0.  1.
</event>
<event>
 5   0  0.1109788E-02  0.6977890E+03  0.7818609E-02  0.9721021E-01
        2   -1    0    0  501    0  0.00000000000E+00  0.00000000000E+00  0.19034575514E+03  0.19034575516E+03  0.25500000920E-02 0.  1.
       -2   -1    0    0    0  501  0.00000000000E+00  0.00000000000E+00 -0.63950667426E+03  0.63950667427E+03  0.25500000920E-02 0. -1.
    10030    2    1    2    0    0  0.00000000000E+00  0.00000000000E+00 -0.44916091912E+03  0.82985242943E+03  0.69778902496E+03 0.  0.
        1    1    3    3  502    0  0.25180263687E+03  0.21979976811E+03 -0.34357108592E+03  0.47933036322E+03  0.50400001928E-02 0. -1.
       -1    1    3    3    0  502 -0.25180263687E+03 -0.21979976811E+03 -0.10558983319E+03  0.35052206620E+03  0.50400001928E-02 0.  1.
</event>
<event>
 5   0  0.6246998E-03  0.6993031E+03  0.7818609E-02  0.9718425E-01
        1   -1    0    0  501    0  0.00000000000E+00  0.00000000000E+00  0.18532187004E+04  0.18532187004E+04  0.50400001928E-02 0.  1.
       -1   -1    0    0    0  501  0.00000000000E+00  0.00000000000E+00 -0.65969667099E+02  0.65969667291E+02  0.50400001928E-02 0. -1.
    10030    2    1    2    0    0  0.00000000000E+00  0.00000000000E+00  0.17872490333E+04  0.19191883677E+04  0.69930314147E+03 0.  0.
        4    1    3    3  502    0  0.13947853465E+02 -0.34530287214E+03  0.74773046696E+03  0.82372998018E+03  0.12699999809E+01 0.  1.
       -4    1    3    3    0  502 -0.13947853465E+02  0.34530287214E+03  0.10395185663E+04  0.10954583875E+04  0.12699999809E+01 0. -1.
</event>
<event>
 5   0  0.1099980E-02  0.6985829E+03  0.7818609E-02  0.9719659E-01
       -2   -1    0    0    0  501  0.00000000000E+00  0.00000000000E+00  0.75472178675E+03  0.75472178676E+03  0.25500000920E-02 0.  1.
        2   -1    0    0  501    0  0.00000000000E+00  0.00000000000E+00 -0.16165496651E+03  0.16165496653E+03  0.25500000920E-02 0. -1.
    10030    2    1    2    0    0  0.00000000000E+00  0.00000000000E+00  0.59306682024E+03  0.91637675329E+03  0.69858292327E+03 0.  0.
        5    1    3    3  502    0 -0.17498516265E+03 -0.30019507432E+03  0.25023821956E+03  0.42822674639E+03  0.46999998093E+01 0. -1.
       -5    1    3    3    0  502  0.17498516265E+03  0.30019507432E+03  0.34282860068E+03  0.48815000690E+03  0.46999998093E+01 0.  1.
</event>
<event>
 5   0  0.6246998E-03  0.7032211E+03  0.7818609E-02  0.9711739E-01
        1   -1    0    0  501    0  0.00000000000E+00  0.00000000000E+00  0.11252965399E+04  0.11252965399E+04  0.50400001928E-02 0. -1.
       -1   -1    0    0    0  501  0.00000000000E+00  0.00000000000E+00 -0.10986435764E+03  0.10986435776E+03  0.50400001928E-02 0.  1.
    10030    2    1    2    0    0  0.00000000000E+00  0.00000000000E+00  0.10154321822E+04  0.12351608976E+04  0.70322110773E+03 0.  0.
        4    1    3    3  502    0  0.22899193327E+03  0.16139801752E+03  0.88089818663E+03  0.92437538569E+03  0.12699999809E+01 0. -1.
       -4    1    3    3    0  502 -0.22899193327E+03 -0.16139801752E+03  0.13453399559E+03  0.31078551194E+03  0.12699999809E+01 0.  1.
</event>
<event>
 5   0  0.6785252E-03  0.7131102E+03  0.7818609E-02  0.9695071E-01
        1   -1    0    0  501    0  0.00000000000E+00  0.00000000000E+00  0.57738334181E+03  0.57738334183E+03  0.50400001928E-02 0.  1.
       -1   -1    0    0    0  501  0.00000000000E+00  0.00000000000E+00 -0.22018568671E+03  0.22018568676E+03  0.50400001928E-02 0. -1.
    10030    2    1    2    0    0  0.00000000000E+00  0.00000000000E+00  0.35719765511E+03  0.79756902860E+03  0.71311022329E+03 0.  0.
        3    1    3    3  502    0  0.85982311813E+02  0.10433966201E+03 -0.19040379662E+03  0.23352374394E+03  0.10100000352E+00 0. -1.
       -3    1    3    3    0  502 -0.85982311813E+02 -0.10433966201E+03  0.54760145173E+03  0.56404528466E+03  0.10100000352E+00 0.  1.
</event>
<event>
 5   0  0.4440500E-03  0.6952889E+03  0.7818609E-02  0.9725323E-01
       -3   -1    0    0    0  501  0.00000000000E+00  0.00000000000E+00  0.16072079040E+04  0.16072079072E+04  0.10100000352E+00 0.  1.
        3   -1    0    0  501    0  0.00000000000E+00  0.00000000000E+00 -0.75196616052E+02  0.75196683881E+02  0.10100000352E+00 0. -1.
    10030    2    1    2    0    0  0.00000000000E+00  0.00000000000E+00  0.15320112880E+04  0.16824045911E+04  0.69528887637E+03 0.  0.
        2    1    3    3  502    0 -0.17318100297E+03 -0.94179076320E+02  0.14588882127E+04  0.14721467913E+04  0.25500000920E-02 0.  1.
       -2    1    3    3    0  502  0.17318100297E+03  0.94179076320E+02  0.73123075329E+02  0.21025779976E+03  0.25500000920E-02 0. -1.
</event>
<event>
 5   0  0.6609285E-03  0.6976801E+03  0.7818609E-02  0.9721208E-01
        1   -1    0    0  501    0  0.00000000000E+00  0.00000000000E+00  0.37045228479E+03  0.37045228482E+03  0.50400001928E-02 0.  1.
       -1   -1    0    0    0  501  0.00000000000E+00  0.00000000000E+00 -0.32848870427E+03  0.32848870430E+03  0.50400001928E-02 0. -1.
    10030    2    1    2    0    0  0.00000000000E+00  0.00000000000E+00  0.41963580523E+02  0.69894098913E+03  0.69768013028E+03 0.  0.
        2    1    3    3  502    0 -0.74706048981E+02  0.21599444715E+03  0.28500084752E+03  0.36532188279E+03  0.25500000920E-02 0.  1.
       -2    1    3    3    0  502  0.74706048981E+02 -0.21599444715E+03 -0.24303726700E+03  0.33361910633E+03  0.25500000920E-02 0. -1.
</event>
<event>
 5   0  0.4440500E-03  0.6946764E+03  0.7818609E-02  0.9726380E-01
       -3   -1    0    0    0  501  0.00000000000E+00  0.00000000000E+00  0.83121905065E+02  0.83121966427E+02  0.10100000352E+00 0. -1.
        3   -1    0    0  501    0  0.00000000000E+00  0.00000000000E+00 -0.14514077549E+04  0.14514077584E+04  0.10100000352E+00 0.  1.
    10030    2    1    2    0    0  0.00000000000E+00  0.00000000000E+00 -0.13682858498E+04  0.15345297248E+04  0.69467640636E+03 0.  0.
        4    1    3    3  502    0 -0.10298847679E+03  0.24250698789E+03 -0.18418004312E+03  0.32146565402E+03  0.12699999809E+01 0. -1.
       -4    1    3    3    0  502  0.10298847679E+03 -0.24250698789E+03 -0.11841058067E+04  0.12130640708E+04  0.12699999809E+01 0.  1.
</event>
<event>
 5   0  0.1100119E-02  0.6999102E+03  0.7818609E-02  0.9717386E-01
       -2   -1    0    0    0  501  0.00000000000E+00  0.00000000000E+00  0.15699371622E+03  0.15699371624E+03  0.25500000920E-02 0. -1.
        2   -1    0    0  501    0  0.00000000000E+00  0.00000000000E+00 -0.78008588133E+03  0.78008588133E+03  0.25500000920E-02 0.  1.
    10030    2    1    2    0    0  0.00000000000E+00  0.00000000000E+00 -0.62309216511E+03  0.93707959757E+03  0.69991022707E+03 0.  0.
        4    1    3    3  502    0 -0.10486963992E+02 -0.37721244117E+02 -0.77714132207E+03  0.77812795608E+03  0.12699999809E+01 0.  1.
       -4    1    3    3    0  502  0.10486963992E+02  0.37721244117E+02  0.15404915696E+03  0.15895164149E+03  0.12699999809E+01 0. -1.
</event>
<event>
 5   0  0.6689415E-03  0.6996630E+03  0.7818609E-02  0.9717809E-01
        1   -1    0    0  501    0  0.00000000000E+00  0.00000000000E+00  0.94589193624E+03  0.94589193625E+03  0.50400001928E-02 0. -1.
       -1   -1    0    0    0  501  0.00000000000E+00  0.00000000000E+00 -0.12938274161E+03  0.12938274171E+03  0.50400001928E-02 0.  1.
    10030    2    1    2    0    0  0.00000000000E+00  0.00000000000E+00  0.81650919463E+03  0.10752746780E+04  0.69966303900E+03 0.  0.
        1    1    3    3  502    0 -0.27845463682E+03 -0.17637078166E+03  0.22811904800E+03  0.40085151550E+03  0.50400001928E-02 0.  1.
       -1    1    3    3    0  502  0.27845463682E+03  0.17637078166E+03  0.58839014663E+03  0.67442316246E+03  0.50400001928E-02 0. -1.
</event>
<event>
 5   0  0.6785252E-03  0.7011616E+03  0.7818609E-02  0.9715248E-01
       -1   -1    0    0    0  501  0.00000000000E+00  0.00000000000E+00  0.88983006821E+02  0.88983006963E+02  0.50400001928E-02 0.  1.
        1   -1    0    0  501    0  0.00000000000E+00  0.00000000000E+00 -0.13812401694E+04  0.13812401694E+04  0.50400001928E-02 0. -1.
    10030    2    1    2    0    0  0.00000000000E+00  0.00000000000E+00 -0.12922571625E+04  0.14702231763E+04  0.70116161767E+03 0.  0.
        3    1    3    3  502    0  0.90366835628E+02 -0.23125716574E+03 -0.11651157795E+04  0.11912769751E+04  0.10100000352E+00 0. -1.
       -3    1    3    3    0  502 -0.90366835628E+02  0.23125716574E+03 -0.12714138310E+03  0.27894620124E+03  0.10100000352E+00 0.  1.
</event>
<event>
 5   0  0.1079446E-02  0.7005608E+03  0.7818609E-02  0.9716274E-01
        2   -1    0    0  501    0  0.00000000000E+00  0.00000000000E+00  0.28917265304E+03  0.28917265305E+03  0.25500000920E-02 0. -1.
       -2   -1    0    0    0  501  0.00000000000E+00  0.00000000000E+00 -0.42430141871E+03  0.42430141872E+03  0.25500000920E-02 0.  1.
    10030    2    1    2    0    0  0.00000000000E+00  0.00000000000E+00 -0.13512876568E+03  0.71347407177E+03  0.70056082375E+03 0.  0.
        2    1    3    3  502    0  0.28300554157E+03  0.11971816552E+03  0.10367711198E+03  0.32430467044E+03  0.25500000920E-02 0. -1.
       -2    1    3    3    0  502 -0.28300554157E+03 -0.11971816552E+03 -0.23880587766E+03  0.38916940132E+03  0.25500000920E-02 0.  1.
</event>
<event>
 5   0  0.1100119E-02  0.6986350E+03  0.7818609E-02  0.9719569E-01
        2   -1    0    0  501    0  0.00000000000E+00  0.00000000000E+00  0.52802031160E+03  0.52802031161E+03  0.25500000920E-02 0.  1.
       -2   -1    0    0    0  501  0.00000000000E+00  0.00000000000E+00 -0.23109473475E+03  0.23109473476E+03  0.25500000920E-02 0. -1.
    10030    2    1    2    0    0  0.00000000000E+00  0.00000000000E+00  0.29692557686E+03  0.75911504637E+03  0.69863499443E+03 0.  0.
        4    1    3    3  502    0 -0.17659417497E+03  0.81820983239E+02  0.46364442426E+03  0.50283987608E+03  0.12699999809E+01 0.  1.
       -4    1    3    3    0  502  0.17659417497E+03 -0.81820983239E+02 -0.16671884740E+03  0.25627517029E+03  0.12699999809E+01 0. -1.
</event>
<event>
 5   0  0.6990118E-03  0.6999200E+03  0.7818609E-02  0.9717369E-01
        1   -1    0    0  501    0  0.00000000000E+00  0.00000000000E+00  0.96335119335E+03  0.96335119336E+03  0.50400001928E-02 0.  1.
       -1   -1    0    0    0  501  0.00000000000E+00  0.00000000000E+00 -0.12713120123E+03  0.12713120133E+03  0.50400001928E-02 0. -1.
    10030    2    1    2    0    0  0.00000000000E+00  0.00000000000E+00  0.83621999212E+03  0.10904823947E+04  0.69991997964E+03 0.  0.
        5    1    3    3  502    0 -0.91673420692E+02  0.14274807810E+03 -0.58724777121E+02  0.17958763685E+03  0.46999998093E+01 0. -1.
       -5    1    3    3    0  502  0.91673420692E+02 -0.14274807810E+03  0.89494476924E+03  0.91089475784E+03  0.46999998093E+01 0.  1.
</event>
<event>
 5   0  0.1100119E-02  0.6730574E+03  0.7818609E-02  0.9764450E-01
        2   -1    0    0  501    0  0.00000000000E+00  0.00000000000E+00  0.54070146053E+03  0.54070146054E+03  0.25500000920E-02 0.  1.
       -2   -1    0    0    0  501  0.00000000000E+00  0.00000000000E+00 -0.20945305545E+03  0.20945305547E+03  0.25500000920E-02 0. -1.
    10030    2    1    2    0    0  0.00000000000E+00  0.00000000000E+00  0.33124840508E+03  0.75015451601E+03  0.67305742104E+03 0.  0.
        4    1    3    3  502    0 -0.28082013677E+02 -0.33475050817E+03  0.14323710872E+03  0.36519170914E+03  0.12699999809E+01 0.  1.
       -4    1    3    3    0  502  0.28082013677E+02  0.33475050817E+03  0.18801129636E+03  0.38496280687E+03  0.12699999809E+01 0. -1.
</event>
<event>
 5   0  0.6609285E-03  0.7031340E+03  0.7818609E-02  0.9711888E-01
       -1   -1    0    0    0  501  0.00000000000E+00  0.00000000000E+00  0.19702383614E+03  0.19702383621E+03  0.50400001928E-02 0.  1.
        1   -1    0    0  501    0  0.00000000000E+00  0.00000000000E+00 -0.62733206677E+03  0.62733206679E+03  0.50400001928E-02 0. -1.
    10030    2    1    2    0    0  0.00000000000E+00  0.00000000000E+00 -0.43030823063E+03  0.82435590300E+03  0.70313404231E+03 0.  0.
        2    1    3    3  502    0  0.25405677977E+03  0.24167584903E+03 -0.18532559006E+03  0.39660766216E+03  0.25500000920E-02 0.  1.
       -2    1    3    3    0  502 -0.25405677977E+03 -0.24167584903E+03 -0.24498264058E+03  0.42774824084E+03  0.25500000920E-02 0. -1.
</event>
<event>
 5   0  0.1099980E-02  0.7015404E+03  0.7818609E-02  0.9714602E-01
        2   -1    0    0  501    0  0.00000000000E+00  0.00000000000E+00  0.69096717231E+03  0.69096717231E+03  0.25500000920E-02 0.  1.
       -2   -1    0    0    0  501  0.00000000000E+00  0.00000000000E+00 -0.17806884455E+03  0.17806884457E+03  0.25500000920E-02 0. -1.
    10030    2    1    2    0    0  0.00000000000E+00  0.00000000000E+00  0.51289832776E+03  0.86903601688E+03  0.70154037946E+03 0.  0.
        5    1    3    3  502    0  0.13274120036E+03 -0.49043743369E+02 -0.14109657574E+03  0.19988959132E+03  0.46999998093E+01 0. -1.
       -5    1    3    3    0  502 -0.13274120036E+03  0.49043743369E+02  0.65399490350E+03  0.66914642556E+03  0.46999998093E+01 0.  1.
</event>
<event>
 5   0  0.6609285E-03  0.6968970E+03  0.7818609E-02  0.9722553E-01
       -1   -1    0    0    0  501  0.00000000000E+00  0.00000000000E+00  0.43288731228E+03  0.43288731231E+03  0.50400001928E-02 0. -1.
        1   -1    0    0  501    0  0.00000000000E+00  0.00000000000E+00 -0.28048029923E+03  0.28048029927E+03  0.50400001928E-02 0.  1.
    10030    2    1    2    0    0  0.00000000000E+00  0.00000000000E+00  0.15240701305E+03  0.71336761158E+03  0.69689701651E+03 0.  0.
        2    1    3    3  502    0 -0.12347007256E+03  0.27770596629E+03 -0.98268027967E+02  0.31940893516E+03  0.25500000920E-02 0.  1.
       -2    1    3    3    0  502  0.12347007256E+03 -0.27770596629E+03  0.25067504101E+03  0.39395867642E+03  0.25500000920E-02 0. -1.
</event>
<event>
 5   0  0.1119786E-02  0.6986470E+03  0.7818609E-02  0.9719549E-01
        2   -1    0    0  501    0  0.00000000000E+00  0.00000000000E+00  0.46127817479E+03  0.46127817480E+03  0.25500000920E-02 0.  1.
       -2   -1    0    0    0  501  0.00000000000E+00  0.00000000000E+00 -0.26454079983E+03  0.26454079984E+03  0.25500000920E-02 0. -1.
    10030    2    1    2    0    0  0.00000000000E+00  0.00000000000E+00  0.19673737497E+03  0.72581897464E+03  0.69864697039E+03 0.  0.
        3    1    3    3  502    0  0.15160205095E+03 -0.38033510114E+02 -0.22618692345E+03  0.27493683690E+03  0.10100000352E+00 0. -1.
       -3    1    3    3    0  502 -0.15160205095E+03  0.38033510114E+02  0.42292429842E+03  0.45088213774E+03  0.10100000352E+00 0.  1.
</event>
<event>
 5   0  0.4440500E-03  0.6897050E+03  0.7818609E-02  0.9735002E-01
       -4   -1    0    0    0  501  0.00000000000E+00  0.00000000000E+00  0.26492224768E+03  0.26492529176E+03  0.12699999809E+01 0.  1.
        4   -1    0    0  501    0  0.00000000000E+00  0.00000000000E+00 -0.44889214127E+03  0.44889393780E+03  0.12699999809E+01 0. -1.
    10030    2    1    2    0    0  0.00000000000E+00  0.00000000000E+00 -0.18396989359E+03  0.71381922956E+03  0.68970498819E+03 0.  0.
        2    1    3    3  502    0 -0.20030682218E+03  0.26877057687E+03 -0.81414561448E+01  0.33530095335E+03  0.25500000920E-02 0.  1.
       -2    1    3    3    0  502  0.20030682218E+03 -0.26877057687E+03 -0.17582843745E+03  0.37851827621E+03  0.25500000920E-02 0. -1.
</event>
<event>
 5   0  0.1079446E-02  0.6998801E+03  0.7818609E-02  0.9717437E-01
        2   -1    0    0  501    0  0.00000000000E+00  0.00000000000E+00  0.28395190890E+03  0.28395190891E+03  0.25500000920E-02 0. -1.
       -2   -1    0    0    0  501  0.00000000000E+00  0.00000000000E+00 -0.43126328222E+03  0.43126328223E+03  0.25500000920E-02 0.  1.
    10030    2    1    2    0    0  0.00000000000E+00  0.00000000000E+00 -0.14731137332E+03  0.71521519114E+03  0.69988008182E+03 0.  0.
        2    1    3    3  502    0  0.70584427120E+01  0.24435265577E+03 -0.32954186781E+03  0.41031193578E+03  0.25500000920E-02 0.  1.
       -2    1    3    3    0  502 -0.70584427120E+01 -0.24435265577E+03  0.18223049450E+03  0.30490325536E+03  0.25500000920E-02 0. -1.
</event>
<event>
 5   0  0.6990118E-03  0.7066790E+03  0.7818609E-02  0.9705878E-01
        1   -1    0    0  501    0  0.00000000000E+00  0.00000000000E+00  0.53455405913E+03  0.53455405916E+03  0.50400001928E-02 0. -1.
       -1   -1    0    0    0  501  0.00000000000E+00  0.00000000000E+00 -0.23355690049E+03  0.23355690054E+03  0.50400001928E-02 0.  1.
    10030    2    1    2    0    0  0.00000000000E+00  0.00000000000E+00  0.30099715864E+03  0.76811095970E+03  0.70667896311E+03 0.  0.
        5    1    3    3  502    0  0.34222886160E+03  0.83788862744E+02  0.17895731896E+03  0.39520751415E+03  0.46999998093E+01 0. -1.
       -5    1    3    3    0  502 -0.34222886160E+03 -0.83788862744E+02  0.12203983969E+03  0.37290344555E+03  0.46999998093E+01 0.  1.
</event>
<event>
 5   0  0.1100119E-02  0.6985170E+03  0.7818609E-02  0.9719772E-01
        2   -1    0    0  501    0  0.00000000000E+00  0.00000000000E+00  0.47171148673E+03  0.47171148673E+03  0.25500000920E-02 0.  1.
       -2   -1    0    0    0  501  0.00000000000E+00  0.00000000000E+00 -0.25859347403E+03  0.25859347405E+03  0.25500000920E-02 0. -1.
    10030    2    1    2    0    0  0.00000000000E+00  0.00000000000E+00  0.21311801269E+03  0.73030496078E+03  0.69851703516E+03 0.  0.
        4    1    3    3  502    0  0.11579708665E+03 -0.16681372314E+03 -0.19052733813E+03  0.27845657288E+03  0.12699999809E+01 0. -1.
       -4    1    3    3    0  502 -0.11579708665E+03  0.16681372314E+03  0.40364535083E+03  0.45184838790E+03  0.12699999809E+01 0.  1.
</event>
<event>
 5   0  0.1099980E-02  0.6971817E+03  0.7818609E-02  0.9722064E-01
        2   -1    0    0  501    0  0.00000000000E+00  0.00000000000E+00  0.53318498041E+03  0.53318498042E+03  0.25500000920E-02 0. -1.
       -2   -1    0    0    0  501  0.00000000000E+00  0.00000000000E+00 -0.22790511887E+03  0.22790511888E+03  0.25500000920E-02 0.  1.
    10030    2    1    2    0    0  0.00000000000E+00  0.00000000000E+00  0.30527986155E+03  0.76109009930E+03  0.69718171619E+03 0.  0.
        5    1    3    3  502    0  0.23181814695E+03 -0.28663783892E+02 -0.12978805753E+03  0.26726072596E+03  0.46999998093E+01 0.  1.
       -5    1    3    3    0  502 -0.23181814695E+03  0.28663783892E+02  0.43506791908E+03  0.49382937334E+03  0.46999998093E+01 0. -1.
</event>
<event>
 5   0  0.6246998E-03  0.6992381E+03  0.7818609E-02  0.9718536E-01
        1   -1    0    0  501    0  0.00000000000E+00  0.00000000000E+00  0.56214090624E+03  0.56214090627E+03  0.50400001928E-02 0.  1.
       -1   -1    0    0    0  501  0.00000000000E+00  0.00000000000E+00 -0.21744276337E+03  0.21744276343E+03  0.50400001928E-02 0. -1.
    10030    2    1    2    0    0  0.00000000000E+00  0.00000000000E+00  0.34469814287E+03  0.77958366969E+03  0.69923807702E+03 0.  0.
        4    1    3    3  502    0  0.28262417145E+03  0.10761035537E+03  0.36793601386E+03  0.47627191190E+03  0.12699999809E+01 0.  1.
       -4    1    3    3    0  502 -0.28262417145E+03 -0.10761035537E+03 -0.23237870981E+02  0.30331175780E+03  0.12699999809E+01 0. -1.
</event>
<event>
 5   0  0.4440500E-03  0.7126843E+03  0.7818609E-02  0.9695783E-01
       -4   -1    0    0    0  501  0.00000000000E+00  0.00000000000E+00  0.14905755094E+03  0.14906296116E+03  0.12699999809E+01 0. -1.
        4   -1    0    0  501    0  0.00000000000E+00  0.00000000000E+00 -0.85186260675E+03  0.85186355344E+03  0.12699999809E+01 0.  1.
    10030    2    1    2    0    0  0.00000000000E+00  0.00000000000E+00 -0.70280505582E+03  0.10009265146E+04  0.71268432083E+03 0.  0.
        4    1    3    3  502    0 -0.19226163513E+03  0.25790135737E+03 -0.56670217513E+03  0.65163687332E+03  0.12699999809E+01 0.  1.
       -4    1    3    3    0  502  0.19226163513E+03 -0.25790135737E+03 -0.13610288068E+03  0.34928964128E+03  0.12699999809E+01 0. -1.
</event>
<event>
 5   0  0.1099980E-02  0.7000647E+03  0.7818609E-02  0.9717122E-01
        2   -1    0    0  501    0  0.00000000000E+00  0.00000000000E+00  0.61957760876E+03  0.61957760877E+03  0.25500000920E-02 0. -1.
       -2   -1    0    0    0  501  0.00000000000E+00  0.00000000000E+00 -0.19775186914E+03  0.19775186916E+03  0.25500000920E-02 0.  1.
    10030    2    1    2    0    0  0.00000000000E+00  0.00000000000E+00  0.42182573962E+03  0.81732947793E+03  0.70006465479E+03 0.  0.
        5    1    3    3  502    0 -0.11871792865E+03  0.32460824641E+03  0.27524317576E+03  0.44186576697E+03  0.46999998093E+01 0. -1.
       -5    1    3    3    0  502  0.11871792865E+03 -0.32460824641E+03  0.14658256385E+03  0.37546371095E+03  0.46999998093E+01 0.  1.
</event>
<event>
 5   0  0.6785252E-03  0.6979339E+03  0.7818609E-02  0.9720772E-01
       -1   -1    0    0    0  501  0.00000000000E+00  0.00000000000E+00  0.20334434175E+03  0.20334434181E+03  0.50400001928E-02 0.  1.
        1   -1    0    0  501    0  0.00000000000E+00  0.00000000000E+00 -0.59887541895E+03  0.59887541897E+03  0.50400001928E-02 0. -1.
    10030    2    1    2    0    0  0.00000000000E+00  0.00000000000E+00 -0.39553107720E+03  0.80221976079E+03  0.69793388767E+03 0.  0.
        3    1    3    3  502    0 -0.11229376578E+03 -0.19700371279E+03 -0.50264942387E+03  0.55143159703E+03  0.10100000352E+00 0. -1.
       -3    1    3    3    0  502  0.11229376578E+03  0.19700371279E+03  0.10711834667E+03  0.25078816376E+03  0.10100000352E+00 0.  1.
</event>
<event>
 5   0  0.1109788E-02  0.7017579E+03  0.7818609E-02  0.9714231E-01
        2   -1    0    0  501    0  0.00000000000E+00  0.00000000000E+00  0.91919126063E+03  0.91919126063E+03  0.25500000920E-02 0.  1.
       -2   -1    0    0    0  501  0.00000000000E+00  0.00000000000E+00 -0.13393952690E+03  0.13393952693E+03  0.25500000920E-02 0. -1.
    10030    2    1    2    0    0  0.00000000000E+00  0.00000000000E+00  0.78525173373E+03  0.10531307876E+04  0.70175791437E+03 0.  0.
        1    1    3    3  502    0 -0.35251904385E+02 -0.18938923464E+03 -0.47479840581E+02  0.19840694102E+03  0.50400001928E-02 0. -1.
       -1    1    3    3    0  502  0.35251904385E+02  0.18938923464E+03  0.83273157431E+03  0.85472384653E+03  0.50400001928E-02 0.  1.
</event>
<event>
 5   0  0.6246998E-03  0.7010750E+03  0.7818609E-02  0.9715396E-01
       -1   -1    0    0    0  501  0.00000000000E+00  0.00000000000E+00  0.32555690076E+03  0.32555690080E+03  0.50400001928E-02 0. -1.
        1   -1    0    0  501    0  0.00000000000E+00  0.00000000000E+00 -0.37743485608E+03  0.37743485611E+03  0.50400001928E-02 0.  1.
    10030    2    1    2    0    0  0.00000000000E+00  0.00000000000E+00 -0.51877955316E+02  0.70299175691E+03  0.70107495180E+03 0.  0.
        4    1    3    3  502    0 -0.78239884011E+02 -0.29145069341E+03 -0.20477997807E+03  0.36469362272E+03  0.12699999809E+01 0.  1.
       -4    1    3    3    0  502  0.78239884011E+02  0.29145069341E+03  0.15290202275E+03  0.33829813419E+03  0.12699999809E+01 0. -1.
</event>
<event>
 5   0  0.1109788E-02  0.7004653E+03  0.7818609E-02  0.9716437E-01
       -2   -1    0    0    0  501  0.00000000000E+00  0.00000000000E+00  0.40001786905E+03  0.40001786906E+03  0.25500000920E-02 0.  1.
        2   -1    0    0  501    0  0.00000000000E+00  0.00000000000E+00 -0.30664361212E+03  0.30664361213E+03  0.25500000920E-02 0. -1.
    10030    2    1    2    0    0  0.00000000000E+00  0.00000000000E+00  0.93374256928E+02  0.70666148119E+03  0.70046534328E+03 0.  0.
        1    1    3    3  502    0 -0.29022680431E+03  0.73416191186E+02 -0.13669369388E+03  0.32909983446E+03  0.50400001928E-02 0. -1.
       -1    1    3    3    0  502  0.29022680431E+03 -0.73416191186E+02  0.23006795081E+03  0.37756164673E+03  0.50400001928E-02 0.  1.
</event>
<event>
 5   0  0.1109788E-02  0.6996463E+03  0.7818609E-02  0.9717837E-01
       -2   -1    0    0    0  501  0.00000000000E+00  0.00000000000E+00  0.11324558223E+03  0.11324558226E+03  0.25500000920E-02 0.  1.
        2   -1    0    0  501    0  0.00000000000E+00  0.00000000000E+00 -0.10806270723E+04  0.10806270723E+04  0.25500000920E-02 0. -1.
    10030    2    1    2    0    0  0.00000000000E+00  0.00000000000E+00 -0.96738149007E+03  0.11938726546E+04  0.69964631635E+03 0.  0.
        1    1    3    3  502    0  0.33443935549E+03  0.10250164624E+03 -0.49131662731E+03  0.60311549332E+03  0.50400001928E-02 0. -1.
       -1    1    3    3    0  502 -0.33443935549E+03 -0.10250164624E+03 -0.47606486276E+03  0.59075716125E+03  0.50400001928E-02 0.  1.
</event>
<event>
 5   0  0.1099980E-02  0.6995117E+03  0.7818609E-02  0.9718068E-01
       -2   -1    0    0    0  501  0.00000000000E+00  0.00000000000E+00  0.15237075312E+03  0.15237075314E+03  0.25500000920E-02 0. -1.
        2   -1    0    0  501    0  0.00000000000E+00  0.00000000000E+00 -0.80283870378E+03  0.80283870378E+03  0.25500000920E-02 0.  1.
    10030    2    1    2    0    0  0.00000000000E+00  0.00000000000E+00 -0.65046795066E+03  0.95520945692E+03  0.69951165233E+03 0.  0.
        5    1    3    3  502    0  0.13641553068E+03  0.23377818586E+03 -0.62764925735E+03  0.68354013594E+03  0.46999998093E+01 0.  1.
       -5    1    3    3    0  502 -0.13641553068E+03 -0.23377818586E+03 -0.22818693310E+02  0.27166932097E+03  0.46999998093E+01 0. -1.
</event>
<event>
 5   0  0.1119786E-02  0.6917348E+03  0.7818609E-02  0.9731472E-01
        2   -1    0    0  501    0  0.00000000000E+00  0.00000000000E+00  0.54790387695E+03  0.54790387696E+03  0.25500000920E-02 0. -1.
       -2   -1    0    0    0  501  0.00000000000E+00  0.00000000000E+00 -0.21833073339E+03  0.21833073340E+03  0.25500000920E-02 0.  1.
    10030    2    1    2    0    0  0.00000000000E+00  0.00000000000E+00  0.32957314357E+03  0.76623461036E+03  0.69173479105E+03 0.  0.
        3    1    3    3  502    0 -0.32568841277E+03 -0.33591926523E+02  0.28824859347E+03  0.43622084038E+03  0.10100000352E+00 0.  1.
       -3    1    3    3    0  502  0.32568841277E+03  0.33591926523E+02  0.41324550094E+02  0.33001376998E+03  0.10100000352E+00 0. -1.
</event>
<event>
 5   0  0.6609285E-03  0.7020560E+03  0.7818609E-02  0.9713723E-01
       -1   -1    0    0    0  501  0.00000000000E+00  0.00000000000E+00  0.55419479786E+02  0.55419480015E+02  0.50400001928E-02 0. -1.
        1   -1    0    0  501    0  0.00000000000E+00  0.00000000000E+00 -0.22234175622E+04  0.22234175622E+04  0.50400001928E-02 0.  1.
    10030    2    1    2    0    0  0.00000000000E+00  0.00000000000E+00 -0.21679980824E+04  0.22788370422E+04  0.70205596618E+03 0.  0.
        2    1    3    3  502    0  0.21040534500E+03  0.13282764753E+03 -0.28029389055E+03  0.37480429325E+03  0.25500000920E-02 0. -1.
       -2    1    3    3    0  502 -0.21040534500E+03 -0.13282764753E+03 -0.18877041919E+04  0.19040327490E+04  0.25500000920E-02 0.  1.
</event>
<event>
 5   0  0.6785252E-03  0.6977560E+03  0.7818609E-02  0.9721077E-01
        1   -1    0    0  501    0  0.00000000000E+00  0.00000000000E+00  0.30696276453E+03  0.30696276457E+03  0.50400001928E-02 0.  1.
       -1   -1    0    0    0  501  0.00000000000E+00  0.00000000000E+00 -0.39651666783E+03  0.39651666786E+03  0.50400001928E-02 0. -1.
    10030    2    1    2    0    0  0.00000000000E+00  0.00000000000E+00 -0.89553903301E+02  0.70347943244E+03  0.69775598189E+03 0.  0.
        3    1    3    3  502    0  0.21737671264E+03  0.11255159940E+03 -0.29540271658E+03  0.38364472222E+03  0.10100000352E+00 0. -1.
       -3    1    3    3    0  502 -0.21737671264E+03 -0.11255159940E+03  0.20584881328E+03  0.31983471021E+03  0.10100000352E+00 0.  1.
</event>
<event>
 5   0  0.6990118E-03  0.7019830E+03  0.7818609E-02  0.9713847E-01
        1   -1    0    0  501    0  0.00000000000E+00  0.00000000000E+00  0.11310132004E+03  0.11310132015E+03  0.50400001928E-02 0.  1.
       -1   -1    0    0    0  501  0.00000000000E+00  0.00000000000E+00 -0.10892449219E+04  0.10892449219E+04  0.50400001928E-02 0. -1.
    10030    2    1    2    0    0  0.00000000000E+00  0.00000000000E+00 -0.97614360187E+03  0.12023462421E+04  0.70198301570E+03 0.  0.
        5    1    3    3  502    0  0.30438867725E+03  0.40144151318E+02 -0.77929029111E+03  0.83760340707E+03  0.46999998093E+01 0. -1.
       -5    1    3    3    0  502 -0.30438867725E+03 -0.40144151318E+02 -0.19685331076E+03  0.36474283499E+03  0.46999998093E+01 0.  1.
</event>
<event>
 5   0  0.4440500E-03  0.7003661E+03  0.7818609E-02  0.9716606E-01
        3   -1    0    0  501    0  0.00000000000E+00  0.00000000000E+00  0.27719936205E+03  0.27719938045E+03  0.10100000352E+00 0.  1.
       -3   -1    0    0    0  501  0.00000000000E+00  0.00000000000E+00 -0.44238249362E+03  0.44238250515E+03  0.10100000352E+00 0. -1.
    10030    2    1    2    0    0  0.00000000000E+00  0.00000000000E+00 -0.16518313157E+03  0.71958188560E+03  0.70036606366E+03 0.  0.
        4    1    3    3  502    0 -0.18568094555E+03 -0.10050576974E+03 -0.36962681752E+03  0.42568112528E+03  0.12699999809E+01 0. -1.
       -4    1    3    3    0  502  0.18568094555E+03  0.10050576974E+03  0.20444368595E+03  0.29390076032E+03  0.12699999809E+01 0.  1.
</event>
<event>
 5   0  0.6609285E-03  0.6995445E+03  0.7818609E-02  0.9718012E-01
        1   -1    0    0  501    0  0.00000000000E+00  0.00000000000E+00  0.91652701741E+03  0.91652701742E+03  0.50400001928E-02 0.  1.
       -1   -1    0    0    0  501  0.00000000000E+00  0.00000000000E+00 -0.13348281976E+03  0.13348281986E+03  0.50400001928E-02 0. -1.
    10030    2    1    2    0    0  0.00000000000E+00  0.00000000000E+00  0.78304419765E+03  0.10500098373E+04  0.69954445385E+03 0.  0.
        2    1    3    3  502    0 -0.19414025370E+03  0.27599667640E+03  0.52971117368E+03  0.62805933718E+03  0.25500000920E-02 0.  1.
       -2    1    3    3    0  502  0.19414025370E+03 -0.27599667640E+03  0.25333302396E+03  0.42195050009E+03  0.25500000920E-02 0. -1.
</event>
<event>
 5   0  0.6689415E-03  0.7004482E+03  0.7818609E-02  0.9716466E-01
       -1   -1    0    0    0  501  0.00000000000E+00  0.00000000000E+00  0.86971237963E+02  0.86971238109E+02  0.50400001928E-02 0.  1.
        1   -1    0    0  501    0  0.00000000000E+00  0.00000000000E+00 -0.14103159056E+04  0.14103159056E+04  0.50400001928E-02 0. -1.
    10030    2    1    2    0    0  0.00000000000E+00  0.00000000000E+00 -0.13233446676E+04  0.14972871437E+04  0.70044820036E+03 0.  0.
        1    1    3    3  502    0 -0.27205575427E+03  0.20426027614E+03 -0.48384751959E+03  0.59147697849E+03  0.50400001928E-02 0.  1.
       -1    1    3    3    0  502  0.27205575427E+03 -0.20426027614E+03 -0.83949714804E+03  0.90581016523E+03  0.50400001928E-02 0. -1.
</event>
<event>
 5   0  0.1100119E-02  0.6992303E+03  0.7818609E-02  0.9718549E-01
        2   -1    0    0  501    0  0.00000000000E+00  0.00000000000E+00  0.13578336884E+03  0.13578336886E+03  0.25500000920E-02 0.  1.
       -2   -1    0    0    0  501  0.00000000000E+00  0.00000000000E+00 -0.90018938501E+03  0.90018938501E+03  0.25500000920E-02 0. -1.
    10030    2    1    2    0    0  0.00000000000E+00  0.00000000000E+00 -0.76440601617E+03  0.10359727539E+04  0.69923028339E+03 0.  0.
        4    1    3    3  502    0  0.35110053550E+02 -0.32528330673E+03 -0.19961729082E+03  0.38326312266E+03  0.12699999809E+01 0.  1.
       -4    1    3    3    0  502 -0.35110053550E+02  0.32528330673E+03 -0.56478872536E+03  0.65270963122E+03  0.12699999809E+01 0. -1.
</event>
<event>
 5   0  0.6785252E-03  0.7004967E+03  0.7818609E-02  0.9716383E-01
       -1   -1    0    0    0  501  0.00000000000E+00  0.00000000000E+00  0.18062610782E+03  0.18062610789E+03  0.50400001928E-02 0.  1.
        1   -1    0    0  501    0  0.00000000000E+00  0.00000000000E+00 -0.67915927991E+03  0.67915927993E+03  0.50400001928E-02 0. -1.
    10030    2    1    2    0    0  0.00000000000E+00  0.00000000000E+00 -0.49853317209E+03  0.85978538782E+03  0.70049667339E+03 0.  0.
        3    1    3    3  502    0 -0.10934737136E+03  0.26506902566E+03 -0.49613896791E+03  0.57303780125E+03  0.10100000352E+00 0.  1.
       -3    1    3    3    0  502  0.10934737136E+03 -0.26506902566E+03 -0.23942041868E+01  0.28674758657E+03  0.10100000352E+00 0. -1.
</event>
<event>
 5   0  0.1079446E-02  0.6997432E+03  0.7818609E-02  0.9717672E-01
       -2   -1    0    0    0  501  0.00000000000E+00  0.00000000000E+00  0.51663488688E+03  0.51663488688E+03  0.25500000920E-02 0. -1.
        2   -1    0    0  501    0  0.00000000000E+00  0.00000000000E+00 -0.23693739665E+03  0.23693739666E+03  0.25500000920E-02 0.  1.
    10030    2    1    2    0    0  0.00000000000E+00  0.00000000000E+00  0.27969749023E+03  0.75357228354E+03  0.69974316752E+03 0.  0.
        2    1    3    3  502    0  0.98119835767E+02  0.91279642421E+02 -0.20820140324E+03  0.24760310904E+03  0.25500000920E-02 0.  1.
       -2    1    3    3    0  502 -0.98119835767E+02 -0.91279642421E+02  0.48789889347E+03  0.50596917450E+03  0.25500000920E-02 0. -1.
</event>
<event>
 5   0  0.6990118E-03  0.6968408E+03  0.7818609E-02  0.9722650E-01
       -1   -1    0    0    0  501  0.00000000000E+00  0.00000000000E+00  0.11503756032E+03  0.11503756043E+03  0.50400001928E-02 0. -1.
        1   -1    0    0  501    0  0.00000000000E+00  0.00000000000E+00 -0.10552794474E+04  0.10552794474E+04  0.50400001928E-02 0.  1.
    10030    2    1    2    0    0  0.00000000000E+00  0.00000000000E+00 -0.94024188708E+03  0.11703170078E+04  0.69684079432E+03 0.  0.
        5    1    3    3  502    0 -0.25122453224E+03  0.21368985929E+03 -0.65862174224E+03  0.73660152790E+03  0.46999998093E+01 0. -1.
       -5    1    3    3    0  502  0.25122453224E+03 -0.21368985929E+03 -0.28162014484E+03  0.43371547994E+03  0.46999998093E+01 0.  1.
</event>
<event>
 5   0  0.1100119E-02  0.6999690E+03  0.7818609E-02  0.9717285E-01
        2   -1    0    0  501    0  0.00000000000E+00  0.00000000000E+00  0.15746402775E+03  0.15746402777E+03  0.25500000920E-02 0.  1.
       -2   -1    0    0    0  501  0.00000000000E+00  0.00000000000E+00 -0.77788657870E+03  0.77788657870E+03  0.25500000920E-02 0. -1.
    10030    2    1    2    0    0  0.00000000000E+00  0.00000000000E+00 -0.62042255095E+03  0.93535060648E+03  0.69996901025E+03 0.  0.
        4    1    3    3  502    0 -0.13835877186E+03 -0.26881832614E+03 -0.54579419554E+03  0.62393858592E+03  0.12699999809E+01 0. -1.
       -4    1    3    3    0  502  0.13835877186E+03  0.26881832614E+03 -0.74628355413E+02  0.31141202056E+03  0.12699999809E+01 0.  1.
</event>
<event>
 5   0  0.1109788E-02  0.7000307E+03  0.7818609E-02  0.9717180E-01
        2   -1    0    0  501    0  0.00000000000E+00  0.00000000000E+00  0.70768104115E+03  0.70768104115E+03  0.25500000920E-02 0.  1.
       -2   -1    0    0    0  501  0.00000000000E+00  0.00000000000E+00 -0.17311575653E+03  0.17311575655E+03  0.25500000920E-02 0. -1.
    10030    2    1    2    0    0  0.00000000000E+00  0.00000000000E+00  0.53456528462E+03  0.88079679770E+03  0.70003068170E+03 0.  0.
        1    1    3    3  502    0 -0.34799119595E+03 -0.36645567702E+02  0.25675792102E+03  0.43401082950E+03  0.50400001928E-02 0. -1.
       -1    1    3    3    0  502  0.34799119595E+03  0.36645567702E+02  0.27780736360E+03  0.44678596820E+03  0.50400001928E-02 0.  1.
</event>
<event>
 5   0  0.1109788E-02  0.7060959E+03  0.7818609E-02  0.9706864E-01
        2   -1    0    0  501    0  0.00000000000E+00  0.00000000000E+00  0.38925768576E+03  0.38925768577E+03  0.25500000920E-02 0.  1.
       -2   -1    0    0    0  501  0.00000000000E+00  0.00000000000E+00 -0.32020651517E+03  0.32020651518E+03  0.25500000920E-02 0. -1.
    10030    2    1    2    0    0  0.00000000000E+00  0.00000000000E+00  0.69051170593E+02  0.70946420094E+03  0.70609587753E+03 0.  0.
        1    1    3    3  502    0 -0.20888261343E+03  0.26824092757E+03  0.13015156797E+03  0.36403924526E+03  0.50400001928E-02 0. -1.
       -1    1    3    3    0  502  0.20888261343E+03 -0.26824092757E+03 -0.61100397380E+02  0.34542495568E+03  0.50400001928E-02 0.  1.
</event>
<event>
 5   0  0.6609285E-03  0.7028580E+03  0.7818609E-02  0.9712357E-01
       -1   -1    0    0    0  501  0.00000000000E+00  0.00000000000E+00  0.18158941911E+03  0.18158941918E+03  0.50400001928E-02 0.  1.
        1   -1    0    0  501    0  0.00000000000E+00  0.00000000000E+00 -0.68011854256E+03  0.68011854258E+03  0.50400001928E-02 0. -1.
    10030    2    1    2    0    0  0.00000000000E+00  0.00000000000E+00 -0.49852912345E+03  0.86170796175E+03  0.70285796888E+03 0.  0.
        2    1    3    3  502    0 -0.30320173728E+03 -0.15629258498E+02 -0.46625984773E+03  0.55639357727E+03  0.25500000920E-02 0.  1.
       -2    1    3    3    0  502  0.30320173728E+03  0.15629258498E+02 -0.32269275722E+02  0.30531438449E+03  0.25500000920E-02 0. -1.
</event>
<event>
 5   0  0.1100119E-02  0.6994079E+03  0.7818609E-02  0.9718245E-01
        2   -1    0    0  501    0  0.00000000000E+00  0.00000000000E+00  0.62920759535E+03  0.62920759535E+03  0.25500000920E-02 0.  1.
       -2   -1    0    0    0  501  0.00000000000E+00  0.00000000000E+00 -0.19436009963E+03  0.19436009965E+03  0.25500000920E-02 0. -1.
    10030    2    1    2    0    0  0.00000000000E+00  0.00000000000E+00  0.43484749572E+03  0.82356769500E+03  0.69940789509E+03 0.  0.
        4    1    3    3  502    0 -0.18583892115E+03 -0.11450014555E+03  0.53913681224E+03  0.58164981144E+03  0.12699999809E+01 0.  1.
       -4    1    3    3    0  502  0.18583892115E+03  0.11450014555E+03 -0.10428931652E+03  0.24191788355E+03  0.12699999809E+01 0. -1.
</event>
<event>
 5   0  0.1100119E-02  0.6971983E+03  0.7818609E-02  0.9722036E-01
       -2   -1    0    0    0  501  0.00000000000E+00  0.00000000000E+00  0.94602719615E+02  0.94602719649E+02  0.25500000920E-02 0.  1.
        2   -1    0    0  501    0  0.00000000000E+00  0.00000000000E+00 -0.12845440716E+04  0.12845440716E+04  0.25500000920E-02 0. -1.
    10030    2    1    2    0    0  0.00000000000E+00  0.00000000000E+00 -0.11899413520E+04  0.13791467912E+04  0.69719828646E+03 0.  0.
        4    1    3    3  502    0  0.10082189989E+03 -0.27695522843E+03 -0.96319197713E+03  0.10072783388E+04  0.12699999809E+01 0. -1.
       -4    1    3    3    0  502 -0.10082189989E+03  0.27695522843E+03 -0.22674937485E+03  0.37186845247E+03  0.12699999809E+01 0.  1.
</event>
<event>
 5   0  0.4440500E-03  0.7008120E+03  0.7818609E-02  0.9715845E-01
        4   -1    0    0  501    0  0.00000000000E+00  0.00000000000E+00  0.85649416069E+03  0.85649510226E+03  0.12699999809E+01 0. -1.
       -4   -1    0    0    0  501  0.00000000000E+00  0.00000000000E+00 -0.14335307637E+03  0.14335870188E+03  0.12699999809E+01 0.  1.
    10030    2    1    2    0    0  0.00000000000E+00  0.00000000000E+00  0.71314108432E+03  0.99985380414E+03  0.70081197444E+03 0.  0.
        4    1    3    3  502    0 -0.21801791982E+03  0.23364003146E+03  0.15148527371E+03  0.35365078639E+03  0.12699999809E+01 0.  1.
       -4    1    3    3    0  502  0.21801791982E+03 -0.23364003146E+03  0.56165581061E+03  0.64620301775E+03  0.12699999809E+01 0. -1.
</event>
<event>
 5   0  0.1100119E-02  0.7046634E+03  0.7818609E-02  0.9709290E-01
        2   -1    0    0  501    0  0.00000000000E+00  0.00000000000E+00  0.69552247945E+03  0.69552247946E+03  0.25500000920E-02 0.  1.
       -2   -1    0    0    0  501  0.00000000000E+00  0.00000000000E+00 -0.17848111627E+03  0.17848111628E+03  0.25500000920E-02 0. -1.
    10030    2    1    2    0    0  0.00000000000E+00  0.00000000000E+00  0.51704136319E+03  0.87400359574E+03  0.70466340484E+03 0.  0.
        4    1    3    3  502    0 -0.30186511720E+03  0.10713743814E+03  0.44053447561E+03  0.54467716744E+03  0.12699999809E+01 0.  1.
       -4    1    3    3    0  502  0.30186511720E+03 -0.10713743814E+03  0.76506887583E+02  0.32932642830E+03  0.12699999809E+01 0. -1.
</event>
<event>
 5   0  0.6785252E-03  0.7008917E+03  0.7818609E-02  0.9715708E-01
        1   -1    0    0  501    0  0.00000000000E+00  0.00000000000E+00  0.20365432795E+03  0.20365432801E+03  0.50400001928E-02 0. -1.
       -1   -1    0    0    0  501  0.00000000000E+00  0.00000000000E+00 -0.60304294749E+03  0.60304294751E+03  0.50400001928E-02 0.  1.
    10030    2    1    2    0    0  0.00000000000E+00  0.00000000000E+00 -0.39938861954E+03  0.80669727553E+03  0.70089173552E+03 0.  0.
        3    1    3    3  502    0  0.86699453180E+01 -0.18841571183E+02  0.20294729005E+03  0.20400437617E+03  0.10100000352E+00 0. -1.
       -3    1    3    3    0  502 -0.86699453180E+01  0.18841571183E+02 -0.60233590959E+03  0.60269289936E+03  0.10100000352E+00 0.  1.
</event>
<event>
 5   0  0.6785252E-03  0.7003157E+03  0.7818609E-02  0.9716692E-01
       -1   -1    0    0    0  501  0.00000000000E+00  0.00000000000E+00  0.30495575101E+03  0.30495575105E+03  0.50400001928E-02 0. -1.
        1   -1    0    0  501    0  0.00000000000E+00  0.00000000000E+00 -0.40206002313E+03  0.40206002316E+03  0.50400001928E-02 0.  1.
    10030    2    1    2    0    0  0.00000000000E+00  0.00000000000E+00 -0.97104272120E+02  0.70701577421E+03  0.70031568976E+03 0.  0.
        3    1    3    3  502    0  0.16429238203E+02 -0.26348961707E+03  0.18367863039E+03  0.32161241835E+03  0.10100000352E+00 0. -1.
       -3    1    3    3    0  502 -0.16429238203E+02  0.26348961707E+03 -0.28078290251E+03  0.38540335587E+03  0.10100000352E+00 0.  1.
</event>
<event>
 5   0  0.6785252E-03  0.6988945E+03  0.7818609E-02  0.9719125E-01
        1   -1    0    0  501    0  0.00000000000E+00  0.00000000000E+00  0.71688094692E+03  0.71688094694E+03  0.50400001928E-02 0.  1.
       -1   -1    0    0    0  501  0.00000000000E+00  0.00000000000E+00 -0.17033981829E+03  0.17033981837E+03  0.50400001928E-02 0. -1.
    10030    2    1    2    0    0  0.00000000000E+00  0.00000000000E+00  0.54654112863E+03  0.88722076531E+03  0.69889447065E+03 0.  0.
        3    1    3    3  502    0  0.30859859045E+03  0.40950394370E+02  0.47480492478E+03  0.56775853285E+03  0.10100000352E+00 0.  1.
       -3    1    3    3    0  502 -0.30859859045E+03 -0.40950394370E+02  0.71736203851E+02  0.31946223246E+03  0.10100000352E+00 0. -1.
</event>
<event>
 5   0  0.4440500E-03  0.7026892E+03  0.7818609E-02  0.9712644E-01
        4   -1    0    0  501    0  0.00000000000E+00  0.00000000000E+00  0.24927121613E+03  0.24927445134E+03  0.12699999809E+01 0. -1.
       -4   -1    0    0    0  501  0.00000000000E+00  0.00000000000E+00 -0.49520849942E+03  0.49521012792E+03  0.12699999809E+01 0.  1.
    10030    2    1    2    0    0  0.00000000000E+00  0.00000000000E+00 -0.24593728329E+03  0.74448457926E+03  0.70268922110E+03 0.  0.
        1    1    3    3  502    0  0.33809188716E+02  0.29653956701E+03 -0.31937064275E+03  0.43712284717E+03  0.50400001928E-02 0. -1.
       -1    1    3    3    0  502 -0.33809188716E+02 -0.29653956701E+03  0.73433359460E+02  0.30736173209E+03  0.50400001928E-02 0.  1.
</event>
<event>
 5   0  0.1119786E-02  0.6965330E+03  0.7818609E-02  0.9723180E-01
        2   -1    0    0  501    0  0.00000000000E+00  0.00000000000E+00  0.23541728960E+03  0.23541728962E+03  0.25500000920E-02 0.  1.
       -2   -1    0    0    0  501  0.00000000000E+00  0.00000000000E+00 -0.51521096837E+03  0.51521096838E+03  0.25500000920E-02 0. -1.
    10030    2    1    2    0    0  0.00000000000E+00  0.00000000000E+00 -0.27979367877E+03  0.75062825799E+03  0.69653304230E+03 0.  0.
        3    1    3    3  502    0 -0.15453840466E+03  0.54636664317E+02 -0.47104352951E+03  0.49874773232E+03  0.10100000352E+00 0. -1.
       -3    1    3    3    0  502  0.15453840466E+03 -0.54636664317E+02  0.19124985074E+03  0.25188052567E+03  0.10100000352E+00 0.  1.
</event>
<event>
 5   0  0.1099980E-02  0.6989387E+03  0.7818609E-02  0.9719049E-01
        2   -1    0    0  501    0  0.00000000000E+00  0.00000000000E+00  0.62140345413E+03  0.62140345413E+03  0.25500000920E-02 0.  1.
       -2   -1    0    0    0  501  0.00000000000E+00  0.00000000000E+00 -0.19653706631E+03  0.19653706632E+03  0.25500000920E-02 0. -1.
    10030    2    1    2    0    0  0.00000000000E+00  0.00000000000E+00  0.42486638782E+03  0.81794052046E+03  0.69893865790E+03 0.  0.
        5    1    3    3  502    0  0.10349100470E+03  0.19662140250E+03 -0.10318238883E+03  0.24502869085E+03  0.46999998093E+01 0. -1.
       -5    1    3    3    0  502 -0.10349100470E+03 -0.19662140250E+03  0.52804877666E+03  0.57291182961E+03  0.46999998093E+01 0.  1.
</event>
<event>
 5   0  0.1079446E-02  0.6968278E+03  0.7818609E-02  0.9722673E-01
        2   -1    0    0  501    0  0.00000000000E+00  0.00000000000E+00  0.13993960242E+03  0.13993960244E+03  0.25500000920E-02 0.  1.
       -2   -1    0    0    0  501  0.00000000000E+00  0.00000000000E+00 -0.86746168593E+03  0.86746168593E+03  0.25500000920E-02 0. -1.
    10030    2    1    2    0    0  0.00000000000E+00  0.00000000000E+00 -0.72752208351E+03  0.10074012884E+04  0.69682779352E+03 0.  0.
        2    1    3    3  502    0  0.95692234850E+02 -0.22110992708E+03 -0.72762195134E+03  0.76647263992E+03  0.25500000920E-02 0. -1.
       -2    1    3    3    0  502 -0.95692234850E+02  0.22110992708E+03  0.99867834250E-01  0.24092864845E+03  0.25500000920E-02 0.  1.
</event>
<event>
 5   0  0.6609285E-03  0.7055874E+03  0.7818609E-02  0.9707724E-01
        1   -1    0    0  501    0  0.00000000000E+00  0.00000000000E+00  0.14006921213E+04  0.14006921214E+04  0.50400001928E-02 0. -1.
       -1   -1    0    0    0  501  0.00000000000E+00  0.00000000000E+00 -0.88858486589E+02  0.88858486732E+02  0.50400001928E-02 0.  1.
    10030    2    1    2    0    0  0.00000000000E+00  0.00000000000E+00  0.13118336348E+04  0.14895506081E+04  0.70558736438E+03 0.  0.
        2    1    3    3  502    0  0.25741032133E+03  0.19773739947E+03  0.36413524190E+03  0.48780593178E+03  0.25500000920E-02 0.  1.
       -2    1    3    3    0  502 -0.25741032133E+03 -0.19773739947E+03  0.94769839285E+03  0.10017446763E+04  0.25500000920E-02 0. -1.
</event>
<event>
 5   0  0.1109788E-02  0.6982217E+03  0.7818609E-02  0.9720278E-01
        2   -1    0    0  501    0  0.00000000000E+00  0.00000000000E+00  0.87192879185E+03  0.87192879185E+03  0.25500000920E-02 0.  1.
       -2   -1    0    0    0  501  0.00000000000E+00  0.00000000000E+00 -0.13978020569E+03  0.13978020571E+03  0.25500000920E-02 0. -1.
    10030    2    1    2    0    0  0.00000000000E+00  0.00000000000E+00  0.73214858616E+03  0.10117089976E+04  0.69822170085E+03 0.  0.
        1    1    3    3  502    0  0.11086559887E+02 -0.17106431736E+02 -0.13891711917E+03  0.14040479992E+03  0.50400001928E-02 0. -1.
       -1    1    3    3    0  502 -0.11086559887E+02  0.17106431736E+02  0.87106570533E+03  0.87130419765E+03  0.50400001928E-02 0.  1.
</event>
<event>
 5   0  0.6990118E-03  0.6989466E+03  0.7818609E-02  0.9719035E-01
       -1   -1    0    0    0  501  0.00000000000E+00  0.00000000000E+00  0.17029277100E+03  0.17029277108E+03  0.50400001928E-02 0.  1.
        1   -1    0    0  501    0  0.00000000000E+00  0.00000000000E+00 -0.71718599892E+03  0.71718599893E+03  0.50400001928E-02 0. -1.
    10030    2    1    2    0    0  0.00000000000E+00  0.00000000000E+00 -0.54689322791E+03  0.88747877001E+03  0.69894661061E+03 0.  0.
        5    1    3    3  502    0  0.31875056804E+03  0.14314466586E+03 -0.27870969240E+03  0.44698266480E+03  0.46999998093E+01 0. -1.
       -5    1    3    3    0  502 -0.31875056804E+03 -0.14314466586E+03 -0.26818353551E+03  0.44049610522E+03  0.46999998093E+01 0.  1.
</event>
<event>
 5   0  0.4440500E-03  0.7011135E+03  0.7818609E-02  0.9715330E-01
       -4   -1    0    0    0  501  0.00000000000E+00  0.00000000000E+00  0.58068654990E+02  0.58082541201E+02  0.12699999809E+01 0.  1.
        4   -1    0    0  501    0  0.00000000000E+00  0.00000000000E+00 -0.21160214567E+04  0.21160218378E+04  0.12699999809E+01 0. -1.
    10030    2    1    2    0    0  0.00000000000E+00  0.00000000000E+00 -0.20579528017E+04  0.21741043790E+04  0.70111348353E+03 0.  0.
        2    1    3    3  502    0  0.15839043670E+03  0.37696136936E+02 -0.19916718347E+04  0.19983155973E+04  0.25500000920E-02 0. -1.
       -2    1    3    3    0  502 -0.15839043670E+03 -0.37696136936E+02 -0.66280966946E+02  0.17578878168E+03  0.25500000920E-02 0.  1.
</event>
<event>
 5   0  0.6689415E-03  0.6999656E+03  0.7818609E-02  0.9717291E-01
       -1   -1    0    0    0  501  0.00000000000E+00  0.00000000000E+00  0.25178361824E+03  0.25178361829E+03  0.50400001928E-02 0. -1.
        1   -1    0    0  501    0  0.00000000000E+00  0.00000000000E+00 -0.48648101049E+03  0.48648101052E+03  0.50400001928E-02 0.  1.
    10030    2    1    2    0    0  0.00000000000E+00  0.00000000000E+00 -0.23469739226E+03  0.73826462881E+03  0.69996556788E+03 0.  0.
        1    1    3    3  502    0 -0.30313304977E+03 -0.17273305972E+03 -0.14645566129E+03  0.37838553954E+03  0.50400001928E-02 0. -1.
       -1    1    3    3    0  502  0.30313304977E+03  0.17273305972E+03 -0.88241730963E+02  0.35987908927E+03  0.50400001928E-02 0.  1.
</event>
<event>
 5   0  0.4440500E-03  0.6995564E+03  0.7818609E-02  0.9717991E-01
        3   -1    0    0  501    0  0.00000000000E+00  0.00000000000E+00  0.63717087772E+03  0.63717088573E+03  0.10100000352E+00 0. -1.
       -3   -1    0    0    0  501  0.00000000000E+00  0.00000000000E+00 -0.19201248666E+03  0.19201251322E+03  0.10100000352E+00 0.  1.
    10030    2    1    2    0    0  0.00000000000E+00  0.00000000000E+00  0.44515839106E+03  0.82918339895E+03  0.69955637082E+03 0.  0.
        1    1    3    3  502    0  0.16955340352E+03  0.16864638658E+03 -0.79973587751E+02  0.25216212070E+03  0.50400001928E-02 0.  1.
       -1    1    3    3    0  502 -0.16955340352E+03 -0.16864638658E+03  0.52513197882E+03  0.57702127825E+03  0.50400001928E-02 0. -1.
</event>
<event>
 5   0  0.6689415E-03  0.6721941E+03  0.7818609E-02  0.9766002E-01
        1   -1    0    0  501    0  0.00000000000E+00  0.00000000000E+00  0.29188622657E+03  0.29188622661E+03  0.50400001928E-02 0.  1.
       -1   -1    0    0    0  501  0.00000000000E+00  0.00000000000E+00 -0.38700431640E+03  0.38700431643E+03  0.50400001928E-02 0. -1.
    10030    2    1    2    0    0  0.00000000000E+00  0.00000000000E+00 -0.95118089828E+02  0.67889054305E+03  0.67219410770E+03 0.  0.
        1    1    3    3  502    0  0.80105683825E+02  0.82967671746E+02 -0.36639476353E+03  0.38411675036E+03  0.50400001928E-02 0. -1.
       -1    1    3    3    0  502 -0.80105683825E+02 -0.82967671746E+02  0.27127667370E+03  0.29477379269E+03  0.50400001928E-02 0.  1.
</event>
<event>
 5   0  0.6609285E-03  0.7015660E+03  0.7818609E-02  0.9714558E-01
        1   -1    0    0  501    0  0.00000000000E+00  0.00000000000E+00  0.47254372719E+02  0.47254372988E+02  0.50400001928E-02 0. -1.
       -1   -1    0    0    0  501  0.00000000000E+00  0.00000000000E+00 -0.26039644067E+04  0.26039644067E+04  0.50400001928E-02 0.  1.
    10030    2    1    2    0    0  0.00000000000E+00  0.00000000000E+00 -0.25567100340E+04  0.26512187797E+04  0.70156597689E+03 0.  0.
        2    1    3    3  502    0  0.28601844246E+03  0.11119792934E+03 -0.63617851765E+03  0.70632473781E+03  0.25500000920E-02 0. -1.
       -2    1    3    3    0  502 -0.28601844246E+03 -0.11119792934E+03 -0.19205315163E+04  0.19448940419E+04  0.25500000920E-02 0.  1.
</event>
<event>
 5   0  0.6785252E-03  0.7017277E+03  0.7818609E-02  0.9714282E-01
       -1   -1    0    0    0  501  0.00000000000E+00  0.00000000000E+00  0.13216704540E+04  0.13216704540E+04  0.50400001928E-02 0.  1.
        1   -1    0    0  501    0  0.00000000000E+00  0.00000000000E+00 -0.93143813966E+02  0.93143814103E+02  0.50400001928E-02 0. -1.
    10030    2    1    2    0    0  0.00000000000E+00  0.00000000000E+00  0.12285266400E+04  0.14148142681E+04  0.70172765940E+03 0.  0.
        3    1    3    3  502    0 -0.82325818265E+02 -0.62800657316E+01 -0.73278473828E+02  0.11039349848E+03  0.10100000352E+00 0. -1.
       -3    1    3    3    0  502  0.82325818265E+02  0.62800657316E+01  0.13018051138E+04  0.13044207696E+04  0.10100000352E+00 0.  1.
</event>
<event>
 5   0  0.6246998E-03  0.6970830E+03  0.7818609E-02  0.9722234E-01
       -1   -1    0    0    0  501  0.00000000000E+00  0.00000000000E+00  0.20907962830E+03  0.20907962836E+03  0.50400001928E-02 0. -1.
        1   -1    0    0  501    0  0.00000000000E+00  0.00000000000E+00 -0.58102824400E+03  0.58102824402E+03  0.50400001928E-02 0.  1.
    10030    2    1    2    0    0  0.00000000000E+00  0.00000000000E+00 -0.37194861570E+03  0.79010787238E+03  0.69708297732E+03 0.  0.
        4    1    3    3  502    0  0.65071322369E+02  0.33257195008E+03 -0.27834292751E+03  0.43853708756E+03  0.12699999809E+01 0.  1.
       -4    1    3    3    0  502 -0.65071322369E+02 -0.33257195008E+03 -0.93605688195E+02  0.35157078482E+03  0.12699999809E+01 0. -1.
</event>
<event>
 5   0  0.4440500E-03  0.6644881E+03  0.7818609E-02  0.9779967E-01
       -4   -1    0    0    0  501  0.00000000000E+00  0.00000000000E+00  0.20262359214E+03  0.20262757214E+03  0.12699999809E+01 0. -1.
        4   -1    0    0  501    0  0.00000000000E+00  0.00000000000E+00 -0.54477393646E+03  0.54477541679E+03  0.12699999809E+01 0.  1.
    10030    2    1    2    0    0  0.00000000000E+00  0.00000000000E+00 -0.34215034432E+03  0.74740298893E+03  0.66448805087E+03 0.  0.
        3    1    3    3  502    0 -0.64727435785E+02 -0.64253144181E+02  0.18827048732E+03  0.20919821720E+03  0.10100000352E+00 0. -1.
       -3    1    3    3    0  502  0.64727435785E+02  0.64253144181E+02 -0.53042083164E+03  0.53820477174E+03  0.10100000352E+00 0.  1.
</event>
<event>
 5   0  0.1079446E-02  0.6816718E+03  0.7818609E-02  0.9749100E-01
       -2   -1    0    0    0  501  0.00000000000E+00  0.00000000000E+00  0.27637762737E+03  0.27637762738E+03  0.25500000920E-02 0. -1.
        2   -1    0    0  501    0  0.00000000000E+00  0.00000000000E+00 -0.42032749066E+03  0.42032749066E+03  0.25500000920E-02 0.  1.
    10030    2    1    2    0    0  0.00000000000E+00  0.00000000000E+00 -0.14394986329E+03  0.69670511804E+03  0.68167181133E+03 0.  0.
        2    1    3    3  502    0  0.25652422350E+03 -0.49958525665E+02 -0.29558891176E+03  0.39455460496E+03  0.25500000920E-02 0.  1.
       -2    1    3    3    0  502 -0.25652422350E+03  0.49958525665E+02  0.15163904848E+03  0.30215051309E+03  0.25500000920E-02 0. -1.
</event>
<event>
 5   0  0.6609285E-03  0.7015053E+03  0.7818609E-02  0.9714661E-01
        1   -1    0    0  501    0  0.00000000000E+00  0.00000000000E+00  0.18747167202E+03  0.18747167209E+03  0.50400001928E-02 0.  1.
       -1   -1    0    0    0  501  0.00000000000E+00  0.00000000000E+00 -0.65624545752E+03  0.65624545754E+03  0.50400001928E-02 0. -1.
    10030    2    1    2    0    0  0.00000000000E+00  0.00000000000E+00 -0.46877378550E+03  0.84371712963E+03  0.70150533346E+03 0.  0.
        2    1    3    3  502    0 -0.14641847857E+03  0.28210730020E+02  0.14745321395E+03  0.20970614313E+03  0.25500000920E-02 0.  1.
       -2    1    3    3    0  502  0.14641847857E+03 -0.28210730020E+02 -0.61622699945E+03  0.63401098651E+03  0.25500000920E-02 0. -1.
</event>
<event>
 5   0  0.6785252E-03  0.7001065E+03  0.7818609E-02  0.9717050E-01
       -1   -1    0    0    0  501  0.00000000000E+00  0.00000000000E+00  0.18518245872E+03  0.18518245878E+03  0.50400001928E-02 0.  1.
        1   -1    0    0  501    0  0.00000000000E+00  0.00000000000E+00 -0.66171106091E+03  0.66171106093E+03  0.50400001928E-02 0. -1.
    10030    2    1    2    0    0  0.00000000000E+00  0.00000000000E+00 -0.47652860220E+03  0.84689351972E+03  0.70010650977E+03 0.  0.
        3    1    3    3  502    0  0.34237966553E+03 -0.61472320345E+02 -0.28565147487E+03  0.45011049403E+03  0.10100000352E+00 0. -1.
       -3    1    3    3    0  502 -0.34237966553E+03  0.61472320345E+02 -0.19087712732E+03  0.39678302569E+03  0.10100000352E+00 0.  1.
</event>
<event>
 5   0  0.6990118E-03  0.7018899E+03  0.7818609E-02  0.9714006E-01
        1   -1    0    0  501    0  0.00000000000E+00  0.00000000000E+00  0.45780892630E+03  0.45780892633E+03  0.50400001928E-02 0.  1.
       -1   -1    0    0    0  501  0.00000000000E+00  0.00000000000E+00 -0.26902564503E+03  0.26902564508E+03  0.50400001928E-02 0. -1.
    10030    2    1    2    0    0  0.00000000000E+00  0.00000000000E+00  0.18878328127E+03  0.72683457141E+03  0.70188985383E+03 0.  0.
        5    1    3    3  502    0  0.11917965185E+03 -0.10526244686E+03 -0.22954566207E+03  0.27927991891E+03  0.46999998093E+01 0. -1.
       -5    1    3    3    0  502 -0.11917965185E+03  0.10526244686E+03  0.41832894334E+03  0.44755465250E+03  0.46999998093E+01 0.  1.
</event>
<event>
 5   0  0.1119786E-02  0.6889923E+03  0.7818609E-02  0.9736244E-01
        2   -1    0    0  501    0  0.00000000000E+00  0.00000000000E+00  0.12145980595E+04  0.12145980595E+04  0.25500000920E-02 0.  1.
       -2   -1    0    0    0  501  0.00000000000E+00  0.00000000000E+00 -0.97709352659E+02  0.97709352692E+02  0.25500000920E-02 0. -1.
    10030    2    1    2    0    0  0.00000000000E+00  0.00000000000E+00  0.11168887068E+04  0.13123074122E+04  0.68899227907E+03 0.  0.
        3    1    3    3  502    0  0.15505566232E+03  0.21274715581E+03  0.98166831458E+03  0.10163544169E+04  0.10100000352E+00 0.  1.
       -3    1    3    3    0  502 -0.15505566232E+03 -0.21274715581E+03  0.13522039222E+03  0.29595299525E+03  0.10100000352E+00 0. -1.
</event>
<event>
 5   0  0.1119786E-02  0.6844154E+03  0.7818609E-02  0.9744261E-01
       -2   -1    0    0    0  501  0.00000000000E+00  0.00000000000E+00  0.46660382033E+03  0.46660382034E+03  0.25500000920E-02 0. -1.
        2   -1    0    0  501    0  0.00000000000E+00  0.00000000000E+00 -0.25097549819E+03  0.25097549821E+03  0.25500000920E-02 0.  1.
    10030    2    1    2    0    0  0.00000000000E+00  0.00000000000E+00  0.21562832214E+03  0.71757931854E+03  0.68441544773E+03 0.  0.
        3    1    3    3  502    0 -0.31201702110E+02  0.33874417576E+03  0.68795921895E+02  0.34706491020E+03  0.10100000352E+00 0. -1.
       -3    1    3    3    0  502  0.31201702110E+02 -0.33874417576E+03  0.14683240024E+03  0.37051440834E+03  0.10100000352E+00 0.  1.
</event>
<event>
 5   0  0.1100119E-02  0.7035918E+03  0.7818609E-02  0.9711109E-01
        2   -1    0    0  501    0  0.00000000000E+00  0.00000000000E+00  0.38502693198E+03  0.38502693199E+03  0.25500000920E-02 0.  1.
       -2   -1    0    0    0  501  0.00000000000E+00  0.00000000000E+00 -0.32143302837E+03  0.32143302838E+03  0.25500000920E-02 0. -1.
    10030    2    1    2    0    0  0.00000000000E+00  0.00000000000E+00  0.63593903611E+02  0.70645996037E+03  0.70359184975E+03 0.  0.
        4    1    3    3  502    0  0.44693578846E+02  0.30416131050E+03  0.20351204206E+03  0.36868737836E+03  0.12699999809E+01 0.  1.
       -4    1    3    3    0  502 -0.44693578846E+02 -0.30416131050E+03 -0.13991813845E+03  0.33777258202E+03  0.12699999809E+01 0. -1.
</event>
<event>
 5   0  0.1119786E-02  0.7019270E+03  0.7818609E-02  0.9713942E-01
       -2   -1    0    0    0  501  0.00000000000E+00  0.00000000000E+00  0.13560907587E+03  0.13560907589E+03  0.25500000920E-02 0.  1.
        2   -1    0    0  501    0  0.00000000000E+00  0.00000000000E+00 -0.90831221659E+03  0.90831221660E+03  0.25500000920E-02 0. -1.
    10030    2    1    2    0    0  0.00000000000E+00  0.00000000000E+00 -0.77270314072E+03  0.10439212925E+04  0.70192700563E+03 0.  0.
        3    1    3    3  502    0  0.19213401438E+03  0.17773915265E+03 -0.73408393592E+03  0.77934967828E+03  0.10100000352E+00 0. -1.
       -3    1    3    3    0  502 -0.19213401438E+03 -0.17773915265E+03 -0.38619204809E+02  0.26457161421E+03  0.10100000352E+00 0.  1.
</event>
<event>
 5   0  0.1109788E-02  0.7083456E+03  0.7818609E-02  0.9703066E-01
       -2   -1    0    0    0  501  0.00000000000E+00  0.00000000000E+00  0.21968647340E+03  0.21968647342E+03  0.25500000920E-02 0. -1.
        2   -1    0    0  501    0  0.00000000000E+00  0.00000000000E+00 -0.57098821044E+03  0.57098821044E+03  0.25500000920E-02 0.  1.
    10030    2    1    2    0    0  0.00000000000E+00  0.00000000000E+00 -0.35130173703E+03  0.79067468386E+03  0.70834563968E+03 0.  0.
        1    1    3    3  502    0  0.21627668249E+03  0.19015436352E+03 -0.40577810691E+03  0.49758432193E+03  0.50400001928E-02 0.  1.
       -1    1    3    3    0  502 -0.21627668249E+03 -0.19015436352E+03  0.54476369884E+02  0.29309036193E+03  0.50400001928E-02 0. -1.
</event>
<event>
 5   0  0.1119786E-02  0.7012887E+03  0.7818609E-02  0.9715031E-01
        2   -1    0    0  501    0  0.00000000000E+00  0.00000000000E+00  0.18672736193E+04  0.18672736193E+04  0.25500000920E-02 0.  1.
       -2   -1    0    0    0  501  0.00000000000E+00  0.00000000000E+00 -0.65845452027E+02  0.65845452076E+02  0.25500000920E-02 0. -1.
    10030    2    1    2    0    0  0.00000000000E+00  0.00000000000E+00  0.18014281673E+04  0.19331190714E+04  0.70128874388E+03 0.  0.
        3    1    3    3  502    0 -0.24476230555E+03  0.19902580982E+03  0.13226658089E+04  0.13597664180E+04  0.10100000352E+00 0.  1.
       -3    1    3    3    0  502  0.24476230555E+03 -0.19902580982E+03  0.47876235841E+03  0.57335265346E+03  0.10100000352E+00 0. -1.
</event>
<event>
 5   0  0.1099980E-02  0.6986653E+03  0.7818609E-02  0.9719517E-01
        2   -1    0    0  501    0  0.00000000000E+00  0.00000000000E+00  0.12398397157E+04  0.12398397157E+04  0.25500000920E-02 0.  1.
       -2   -1    0    0    0  501  0.00000000000E+00  0.00000000000E+00 -0.98426683269E+02  0.98426683302E+02  0.25500000920E-02 0. -1.
    10030    2    1    2    0    0  0.00000000000E+00  0.00000000000E+00  0.11414130324E+04  0.13382663990E+04  0.69866533055E+03 0.  0.
        5    1    3    3  502    0 -0.25977518518E+03  0.23324225494E+03  0.54919487895E+03  0.65078583373E+03  0.46999998093E+01 0. -1.
       -5    1    3    3    0  502  0.25977518518E+03 -0.23324225494E+03  0.59221815349E+03  0.68748056528E+03  0.46999998093E+01 0.  1.
</event>
<event>
 5   0  0.6785252E-03  0.7048202E+03  0.7818609E-02  0.9709024E-01
       -1   -1    0    0    0  501  0.00000000000E+00  0.00000000000E+00  0.74739716060E+02  0.74739716230E+02  0.50400001928E-02 0. -1.
        1   -1    0    0  501    0  0.00000000000E+00  0.00000000000E+00 -0.16616716480E+04  0.16616716480E+04  0.50400001928E-02 0.  1.
    10030    2    1    2    0    0  0.00000000000E+00  0.00000000000E+00 -0.15869319320E+04  0.17364113643E+04  0.70482016802E+03 0.  0.
        3    1    3    3  502    0  0.58353408089E+02 -0.34582058914E+03 -0.70827100219E+03  0.79034474936E+03  0.10100000352E+00 0.  1.
       -3    1    3    3    0  502 -0.58353408089E+02  0.34582058914E+03 -0.87866092977E+03  0.94606661489E+03  0.10100000352E+00 0. -1.
</event>
<event>
 5   0  0.4440500E-03  0.7002652E+03  0.7818609E-02  0.9716779E-01
       -3   -1    0    0    0  501  0.00000000000E+00  0.00000000000E+00  0.31212111945E+03  0.31212113579E+03  0.10100000352E+00 0. -1.
        3   -1    0    0  501    0  0.00000000000E+00  0.00000000000E+00 -0.39277324751E+03  0.39277326050E+03  0.10100000352E+00 0.  1.
    10030    2    1    2    0    0  0.00000000000E+00  0.00000000000E+00 -0.80652128070E+02  0.70489439629E+03  0.70026519559E+03 0.  0.
        1    1    3    3  502    0 -0.13240184924E+03 -0.42685524068E+02  0.28310865256E+03  0.31544066451E+03  0.50400001928E-02 0. -1.
       -1    1    3    3    0  502  0.13240184924E+03  0.42685524068E+02 -0.36376078063E+03  0.38945373178E+03  0.50400001928E-02 0.  1.
</event>
<event>
 5   0  0.6689415E-03  0.7028987E+03  0.7818609E-02  0.9712288E-01
        1   -1    0    0  501    0  0.00000000000E+00  0.00000000000E+00  0.81772478747E+03  0.81772478749E+03  0.50400001928E-02 0.  1.
       -1   -1    0    0    0  501  0.00000000000E+00  0.00000000000E+00 -0.15104915232E+03  0.15104915241E+03  0.50400001928E-02 0. -1.
    10030    2    1    2    0    0  0.00000000000E+00  0.00000000000E+00  0.66667563515E+03  0.96877393989E+03  0.70289867272E+03 0.  0.
        1    1    3    3  502    0 -0.46506434769E+02 -0.11056537368E+03 -0.12196462768E+03  0.17106408379E+03  0.50400001928E-02 0. -1.
       -1    1    3    3    0  502  0.46506434769E+02  0.11056537368E+03  0.78864026283E+03  0.79770985610E+03  0.50400001928E-02 0.  1.
</event>
<event>
 5   0  0.6785252E-03  0.7009857E+03  0.7818609E-02  0.9715548E-01
       -1   -1    0    0    0  501  0.00000000000E+00  0.00000000000E+00  0.42184622637E+03  0.42184622640E+03  0.50400001928E-02 0. -1.
        1   -1    0    0  501    0  0.00000000000E+00  0.00000000000E+00 -0.29120861008E+03  0.29120861012E+03  0.50400001928E-02 0.  1.
    10030    2    1    2    0    0  0.00000000000E+00  0.00000000000E+00  0.13063761629E+03  0.71305483653E+03  0.70098574387E+03 0.  0.
        3    1    3    3  502    0  0.38533012553E+02  0.16989184377E+03 -0.24405109709E+03  0.29984826134E+03  0.10100000352E+00 0.  1.
       -3    1    3    3    0  502 -0.38533012553E+02 -0.16989184377E+03  0.37468871339E+03  0.41320657519E+03  0.10100000352E+00 0. -1.
</event>
<event>
 5   0  0.6246998E-03  0.6944290E+03  0.7818609E-02  0.9726807E-01
        1   -1    0    0  501    0  0.00000000000E+00  0.00000000000E+00  0.51984666300E+03  0.51984666302E+03  0.50400001928E-02 0. -1.
       -1   -1    0    0    0  501  0.00000000000E+00  0.00000000000E+00 -0.23191049307E+03  0.23191049313E+03  0.50400001928E-02 0.  1.
    10030    2    1    2    0    0  0.00000000000E+00  0.00000000000E+00  0.28793616993E+03  0.75175715615E+03  0.69442896244E+03 0.  0.
        4    1    3    3  502    0  0.58330700727E+02  0.16087134539E+03  0.47102536212E+03  0.50114724890E+03  0.12699999809E+01 0. -1.
       -4    1    3    3    0  502 -0.58330700727E+02 -0.16087134539E+03 -0.18308919219E+03  0.25060990725E+03  0.12699999809E+01 0.  1.
</event>
<event>
 5   0  0.6246998E-03  0.6956362E+03  0.7818609E-02  0.9724724E-01
        1   -1    0    0  501    0  0.00000000000E+00  0.00000000000E+00  0.56732641490E+03  0.56732641492E+03  0.50400001928E-02 0.  1.
       -1   -1    0    0    0  501  0.00000000000E+00  0.00000000000E+00 -0.21324129885E+03  0.21324129891E+03  0.50400001928E-02 0. -1.
    10030    2    1    2    0    0  0.00000000000E+00  0.00000000000E+00  0.35408511605E+03  0.78056771384E+03  0.69563617393E+03 0.  0.
        4    1    3    3  502    0  0.22381417747E+03 -0.26584187408E+03  0.19334654429E+03  0.39767975451E+03  0.12699999809E+01 0. -1.
       -4    1    3    3    0  502 -0.22381417747E+03  0.26584187408E+03  0.16073857175E+03  0.38288795933E+03  0.12699999809E+01 0.  1.
</event>
<event>
 5   0  0.1100119E-02  0.7129101E+03  0.7818609E-02  0.9695405E-01
       -2   -1    0    0    0  501  0.00000000000E+00  0.00000000000E+00  0.14061320479E+03  0.14061320481E+03  0.25500000920E-02 0.  1.
        2   -1    0    0  501    0  0.00000000000E+00  0.00000000000E+00 -0.90361511342E+03  0.90361511342E+03  0.25500000920E-02 0. -1.
    10030    2    1    2    0    0  0.00000000000E+00  0.00000000000E+00 -0.76300190863E+03  0.10442283182E+04  0.71291014021E+03 0.  0.
        4    1    3    3  502    0  0.25875100039E+02  0.35405669975E+03 -0.42857673388E+03  0.55651172240E+03  0.12699999809E+01 0. -1.
       -4    1    3    3    0  502 -0.25875100039E+02 -0.35405669975E+03 -0.33442517475E+03  0.48771659583E+03  0.12699999809E+01 0.  1.
</event>
<event>
 5   0  0.1099980E-02  0.6994599E+03  0.7818609E-02  0.9718156E-01
       -2   -1    0    0    0  501  0.00000000000E+00  0.00000000000E+00  0.66677388423E+03  0.66677388423E+03  0.25500000920E-02 0. -1.
        2   -1    0    0  501    0  0.00000000000E+00  0.00000000000E+00 -0.18343705540E+03  0.18343705542E+03  0.25500000920E-02 0.  1.
    10030    2    1    2    0    0  0.00000000000E+00  0.00000000000E+00  0.48333682883E+03  0.85021093965E+03  0.69945990006E+03 0.  0.
        5    1    3    3  502    0  0.66584498949E+02 -0.26959364116E+03  0.50002028311E+03  0.57197604877E+03  0.46999998093E+01 0. -1.
       -5    1    3    3    0  502 -0.66584498949E+02  0.26959364116E+03 -0.16683454280E+02  0.27823489087E+03  0.46999998093E+01 0.  1.
</event>
<event>
 5   0  0.6246998E-03  0.7010612E+03  0.7818609E-02  0.9715419E-01
        1   -1    0    0  501    0  0.00000000000E+00  0.00000000000E+00  0.12927176806E+04  0.12927176806E+04  0.50400001928E-02 0.  1.
       -1   -1    0    0    0  501  0.00000000000E+00  0.00000000000E+00 -0.95049138775E+02  0.95049138909E+02  0.50400001928E-02 0. -1.
    10030    2    1    2    0    0  0.00000000000E+00  0.00000000000E+00  0.11976685418E+04  0.13877668195E+04  0.70106120223E+03 0.  0.
        4    1    3    3  502    0 -0.25918640529E+03  0.92545275382E+02  0.10285680241E+04  0.10647516207E+04  0.12699999809E+01 0.  1.
       -4    1    3    3    0  502  0.25918640529E+03 -0.92545275382E+02  0.16910051775E+03  0.32301519884E+03  0.12699999809E+01 0. -1.
</event>
<event>
 5   0  0.1119786E-02  0.6990066E+03  0.7818609E-02  0.9718933E-01
       -2   -1    0    0    0  501  0.00000000000E+00  0.00000000000E+00  0.12722058604E+03  0.12722058607E+03  0.25500000920E-02 0.  1.
        2   -1    0    0  501    0  0.00000000000E+00  0.00000000000E+00 -0.96016346797E+03  0.96016346797E+03  0.25500000920E-02 0. -1.
    10030    2    1    2    0    0  0.00000000000E+00  0.00000000000E+00 -0.83294288193E+03  0.10873840540E+04  0.69900660686E+03 0.  0.
        3    1    3    3  502    0 -0.13244091366E+03 -0.89273237949E+02  0.67127318684E+02  0.17325239894E+03  0.10100000352E+00 0.  1.
       -3    1    3    3    0  502  0.13244091366E+03  0.89273237949E+02 -0.90007020061E+03  0.91413165510E+03  0.10100000352E+00 0. -1.
</event>
<event>
 5   0  0.1109788E-02  0.7027560E+03  0.7818609E-02  0.9712531E-01
        2   -1    0    0  501    0  0.00000000000E+00  0.00000000000E+00  0.10979044322E+04  0.10979044322E+04  0.25500000920E-02 0.  1.
       -2   -1    0    0    0  501  0.00000000000E+00  0.00000000000E+00 -0.11245650059E+03  0.11245650062E+03  0.25500000920E-02 0. -1.
    10030    2    1    2    0    0  0.00000000000E+00  0.00000000000E+00  0.98544793159E+03  0.12103609328E+04  0.70275597597E+03 0.  0.
        1    1    3    3  502    0  0.31808039908E+03 -0.10171939729E+03  0.68095646059E+03  0.75843501851E+03  0.50400001928E-02 0.  1.
       -1    1    3    3    0  502 -0.31808039908E+03  0.10171939729E+03  0.30449147100E+03  0.45192591428E+03  0.50400001928E-02 0. -1.
</event>
<event>
 5   0  0.4440500E-03  0.7011917E+03  0.7818609E-02  0.9715196E-01
        3   -1    0    0  501    0  0.00000000000E+00  0.00000000000E+00  0.79043723436E+03  0.79043724081E+03  0.10100000352E+00 0. -1.
       -3   -1    0    0    0  501  0.00000000000E+00  0.00000000000E+00 -0.15550560196E+03  0.15550563476E+03  0.10100000352E+00 0.  1.
    10030    2    1    2    0    0  0.00000000000E+00  0.00000000000E+00  0.63493163240E+03  0.94594287557E+03  0.70119166141E+03 0.  0.
        3    1    3    3  502    0 -0.21501525046E+03  0.26344461787E+03  0.43259287508E+03  0.55024651783E+03  0.10100000352E+00 0.  1.
       -3    1    3    3    0  502  0.21501525046E+03 -0.26344461787E+03  0.20233875732E+03  0.39569635774E+03  0.10100000352E+00 0. -1.
</event>
<event>
 5   0  0.1079446E-02  0.7018977E+03  0.7818609E-02  0.9713992E-01
       -2   -1    0    0    0  501  0.00000000000E+00  0.00000000000E+00  0.50402422090E+03  0.50402422090E+03  0.25500000920E-02 0. -1.
        2   -1    0    0  501    0  0.00000000000E+00  0.00000000000E+00 -0.24436341660E+03  0.24436341661E+03  0.25500000920E-02 0.  1.
    10030    2    1    2    0    0  0.00000000000E+00  0.00000000000E+00  0.25966080430E+03  0.74838763751E+03  0.70189765828E+03 0.  0.
        2    1    3    3  502    0 -0.41399768854E+02  0.33554656785E+02  0.49968511092E+03  0.50251872197E+03  0.25500000920E-02 0. -1.
       -2    1    3    3    0  502  0.41399768854E+02 -0.33554656785E+02 -0.24002430662E+03  0.24586891554E+03  0.25500000920E-02 0.  1.
</event>
<event>
 5   0  0.4440500E-03  0.7065326E+03  0.7818609E-02  0.9706125E-01
       -4   -1    0    0    0  501  0.00000000000E+00  0.00000000000E+00  0.78159809340E+03  0.78159912519E+03  0.12699999809E+01 0. -1.
        4   -1    0    0  501    0  0.00000000000E+00  0.00000000000E+00 -0.15966547514E+03  0.15967052593E+03  0.12699999809E+01 0.  1.
    10030    2    1    2    0    0  0.00000000000E+00  0.00000000000E+00  0.62193261826E+03  0.94126965112E+03  0.70653264218E+03 0.  0.
        4    1    3    3  502    0  0.30417778473E+03  0.16864698378E+03  0.22852293734E+03  0.41616135771E+03  0.12699999809E+01 0.  1.
       -4    1    3    3    0  502 -0.30417778473E+03 -0.16864698378E+03  0.39340968092E+03  0.52510829341E+03  0.12699999809E+01 0. -1.
</event>
<event>
 5   0  0.6246998E-03  0.6998555E+03  0.7818609E-02  0.9717479E-01
       -1   -1    0    0    0  501  0.00000000000E+00  0.00000000000E+00  0.10302642587E+04  0.10302642587E+04  0.50400001928E-02 0. -1.
        1   -1    0    0  501    0  0.00000000000E+00  0.00000000000E+00 -0.11885246087E+03  0.11885246097E+03  0.50400001928E-02 0.  1.
    10030    2    1    2    0    0  0.00000000000E+00  0.00000000000E+00  0.91141179780E+03  0.11491167197E+04  0.69985553525E+03 0.  0.
        4    1    3    3  502    0  0.69828585413E+02 -0.20953766846E+02 -0.10624049593E+03  0.12885552980E+03  0.12699999809E+01 0.  1.
       -4    1    3    3    0  502 -0.69828585413E+02  0.20953766846E+02  0.10176522937E+04  0.10202611898E+04  0.12699999809E+01 0. -1.
</event>
<event>
 5   0  0.1099980E-02  0.7014661E+03  0.7818609E-02  0.9714728E-01
        2   -1    0    0  501    0  0.00000000000E+00  0.00000000000E+00  0.50200942527E+03  0.50200942528E+03  0.25500000920E-02 0.  1.
       -2   -1    0    0    0  501  0.00000000000E+00  0.00000000000E+00 -0.24504253602E+03  0.24504253603E+03  0.25500000920E-02 0. -1.
    10030    2    1    2    0    0  0.00000000000E+00  0.00000000000E+00  0.25696688925E+03  0.74705196131E+03  0.70146607240E+03 0.  0.
        5    1    3    3  502    0  0.70737271148E+02 -0.66594372297E+00 -0.23733188081E+03  0.24769480547E+03  0.46999998093E+01 0. -1.
       -5    1    3    3    0  502 -0.70737271148E+02  0.66594372297E+00  0.49429877006E+03  0.49935715584E+03  0.46999998093E+01 0.  1.
</event>
<event>
 5   0  0.4440500E-03  0.6511309E+03  0.7818609E-02  0.9804660E-01
        4   -1    0    0  501    0  0.00000000000E+00  0.00000000000E+00  0.79220887359E+03  0.79220989157E+03  0.12699999809E+01 0.  1.
       -4   -1    0    0    0  501  0.00000000000E+00  0.00000000000E+00 -0.13378995115E+03  0.13379597875E+03  0.12699999809E+01 0. -1.
    10030    2    1    2    0    0  0.00000000000E+00  0.00000000000E+00  0.65841892244E+03  0.92600587032E+03  0.65113085815E+03 0.  0.
        2    1    3    3  502    0 -0.19818146872E+03  0.53447495813E+02 -0.30176414442E+02  0.20746842012E+03  0.25500000920E-02 0. -1.
       -2    1    3    3    0  502  0.19818146872E+03 -0.53447495813E+02  0.68859533688E+03  0.71853745020E+03  0.25500000920E-02 0.  1.
</event>
<event>
 5   0  0.6990118E-03  0.7029439E+03  0.7818609E-02  0.9712211E-01
       -1   -1    0    0    0  501  0.00000000000E+00  0.00000000000E+00  0.15833968100E+03  0.15833968108E+03  0.50400001928E-02 0. -1.
        1   -1    0    0  501    0  0.00000000000E+00  0.00000000000E+00 -0.78017421617E+03  0.78017421619E+03  0.50400001928E-02 0.  1.
    10030    2    1    2    0    0  0.00000000000E+00  0.00000000000E+00 -0.62183453517E+03  0.93851389727E+03  0.70294391401E+03 0.  0.
        5    1    3    3  502    0  0.33217235883E+03 -0.90619155674E+02 -0.21688715292E+03  0.40695507669E+03  0.46999998093E+01 0. -1.
       -5    1    3    3    0  502 -0.33217235883E+03  0.90619155674E+02 -0.40494738225E+03  0.53155882058E+03  0.46999998093E+01 0.  1.
</event>
<event>
 5   0  0.6246998E-03  0.7027457E+03  0.7818609E-02  0.9712548E-01
        1   -1    0    0  501    0  0.00000000000E+00  0.00000000000E+00  0.39748545112E+03  0.39748545115E+03  0.50400001928E-02 0.  1.
       -1   -1    0    0    0  501  0.00000000000E+00  0.00000000000E+00 -0.31060981075E+03  0.31060981079E+03  0.50400001928E-02 0. -1.
    10030    2    1    2    0    0  0.00000000000E+00  0.00000000000E+00  0.86875640363E+02  0.70809526194E+03  0.70274570301E+03 0.  0.
        4    1    3    3  502    0  0.15985632343E+02 -0.31276939205E+03  0.20396484337E+03  0.37374256283E+03  0.12699999809E+01 0.  1.
       -4    1    3    3    0  502 -0.15985632343E+02  0.31276939205E+03 -0.11708920300E+03  0.33435269911E+03  0.12699999809E+01 0. -1.
</event>
<event>
 5   0  0.6785252E-03  0.6991239E+03  0.7818609E-02  0.9718732E-01
        1   -1    0    0  501    0  0.00000000000E+00  0.00000000000E+00  0.40574856166E+03  0.40574856169E+03  0.50400001928E-02 0.  1.
       -1   -1    0    0    0  501  0.00000000000E+00  0.00000000000E+00 -0.30115588956E+03  0.30115588960E+03  0.50400001928E-02 0. -1.
    10030    2    1    2    0    0  0.00000000000E+00  0.00000000000E+00  0.10459267210E+03  0.70690445129E+03  0.69912393479E+03 0.  0.
        3    1    3    3  502    0 -0.32903067882E+03  0.11785909133E+03  0.58818379020E+02  0.35441721872E+03  0.10100000352E+00 0.  1.
       -3    1    3    3    0  502  0.32903067882E+03 -0.11785909133E+03  0.45774293080E+02  0.35248723257E+03  0.10100000352E+00 0. -1.
</event>
<event>
 5   0  0.4440500E-03  0.7029014E+03  0.7818609E-02  0.9712283E-01
        3   -1    0    0  501    0  0.00000000000E+00  0.00000000000E+00  0.18582140482E+03  0.18582143227E+03  0.10100000352E+00 0.  1.
       -3   -1    0    0    0  501  0.00000000000E+00  0.00000000000E+00 -0.66471134663E+03  0.66471135430E+03  0.10100000352E+00 0. -1.
    10030    2    1    2    0    0  0.00000000000E+00  0.00000000000E+00 -0.47888994181E+03  0.85053278658E+03  0.70290144734E+03 0.  0.
        3    1    3    3  502    0 -0.10264131340E+03  0.52279644316E+02 -0.64122130003E+03  0.65148535382E+03  0.10100000352E+00 0. -1.
       -3    1    3    3    0  502  0.10264131340E+03 -0.52279644316E+02  0.16233135822E+03  0.19904743276E+03  0.10100000352E+00 0.  1.
</event>
<event>
 5   0  0.4440500E-03  0.6990941E+03  0.7818609E-02  0.9718783E-01
       -3   -1    0    0    0  501  0.00000000000E+00  0.00000000000E+00  0.40576230079E+03  0.40576231336E+03  0.10100000352E+00 0. -1.
        3   -1    0    0  501    0  0.00000000000E+00  0.00000000000E+00 -0.30111992629E+03  0.30111994323E+03  0.10100000352E+00 0.  1.
    10030    2    1    2    0    0  0.00000000000E+00  0.00000000000E+00  0.10464237450E+03  0.70688225658E+03  0.69909405528E+03 0.  0.
        2    1    3    3  502    0  0.25543039613E+03  0.55108324928E+01 -0.18889052542E+03  0.31773367329E+03  0.25500000920E-02 0.  1.
       -2    1    3    3    0  502 -0.25543039613E+03 -0.55108324928E+01  0.29353289992E+03  0.38914858330E+03  0.25500000920E-02 0. -1.
</event>
<event>
 5   0  0.6785252E-03  0.6926118E+03  0.7818609E-02  0.9729951E-01
        1   -1    0    0  501    0  0.00000000000E+00  0.00000000000E+00  0.32304402963E+03  0.32304402967E+03  0.50400001928E-02 0.  1.
       -1   -1    0    0    0  501  0.00000000000E+00  0.00000000000E+00 -0.37124277851E+03  0.37124277855E+03  0.50400001928E-02 0. -1.
    10030    2    1    2    0    0  0.00000000000E+00  0.00000000000E+00 -0.48198748888E+02  0.69428680821E+03  0.69261176186E+03 0.  0.
        3    1    3    3  502    0  0.13061259429E+02  0.22858454043E+03 -0.28454741172E+03  0.36522421653E+03  0.10100000352E+00 0. -1.
       -3    1    3    3    0  502 -0.13061259429E+02 -0.22858454043E+03  0.23634866283E+03  0.32906259168E+03  0.10100000352E+00 0.  1.
</event>
<event>
 5   0  0.6246998E-03  0.6983004E+03  0.7818609E-02  0.9720143E-01
        1   -1    0    0  501    0  0.00000000000E+00  0.00000000000E+00  0.28639327421E+03  0.28639327425E+03  0.50400001928E-02 0. -1.
       -1   -1    0    0    0  501  0.00000000000E+00  0.00000000000E+00 -0.42565896420E+03  0.42565896423E+03  0.50400001928E-02 0.  1.
    10030    2    1    2    0    0  0.00000000000E+00  0.00000000000E+00 -0.13926568999E+03  0.71205223848E+03  0.69830040664E+03 0.  0.
        4    1    3    3  502    0  0.10311389743E+02  0.43073552556E+02  0.28351477450E+03  0.28695626139E+03  0.12699999809E+01 0. -1.
       -4    1    3    3    0  502 -0.10311389743E+02 -0.43073552556E+02 -0.42278046449E+03  0.42509597710E+03  0.12699999809E+01 0.  1.
</event>
<event>
 5   0  0.6990118E-03  0.6986043E+03  0.7818609E-02  0.9719622E-01
        1   -1    0    0  501    0  0.00000000000E+00  0.00000000000E+00  0.66165329838E+03  0.66165329840E+03  0.50400001928E-02 0.  1.
       -1   -1    0    0    0  501  0.00000000000E+00  0.00000000000E+00 -0.18440470714E+03  0.18440470721E+03  0.50400001928E-02 0. -1.
    10030    2    1    2    0    0  0.00000000000E+00  0.00000000000E+00  0.47724859124E+03  0.84605800561E+03  0.69860427355E+03 0.  0.
        5    1    3    3  502    0 -0.23574894786E+03 -0.42804395734E+02 -0.69140040090E+02  0.24942377163E+03  0.46999998093E+01 0. -1.
       -5    1    3    3    0  502  0.23574894786E+03  0.42804395734E+02  0.54638863133E+03  0.59663423398E+03  0.46999998093E+01 0.  1.
</event>
<event>
 5   0  0.1109788E-02  0.6997226E+03  0.7818609E-02  0.9717707E-01
       -2   -1    0    0    0  501  0.00000000000E+00  0.00000000000E+00  0.48179411791E+03  0.48179411792E+03  0.25500000920E-02 0.  1.
        2   -1    0    0  501    0  0.00000000000E+00  0.00000000000E+00 -0.25405652619E+03  0.25405652620E+03  0.25500000920E-02 0. -1.
    10030    2    1    2    0    0  0.00000000000E+00  0.00000000000E+00  0.22773759172E+03  0.73585064412E+03  0.69972263059E+03 0.  0.
        1    1    3    3  502    0 -0.87388454911E+02  0.20041595342E+02 -0.24177024748E+03  0.25785899284E+03  0.50400001928E-02 0. -1.
       -1    1    3    3    0  502  0.87388454911E+02 -0.20041595342E+02  0.46950783920E+03  0.47799165128E+03  0.50400001928E-02 0.  1.
</event>
<event>
 5   0  0.6689415E-03  0.6978428E+03  0.7818609E-02  0.9720928E-01
       -1   -1    0    0    0  501  0.00000000000E+00  0.00000000000E+00  0.12347642804E+03  0.12347642814E+03  0.50400001928E-02 0. -1.
        1   -1    0    0  501    0  0.00000000000E+00  0.00000000000E+00 -0.98598685952E+03  0.98598685953E+03  0.50400001928E-02 0.  1.
    10030    2    1    2    0    0  0.00000000000E+00  0.00000000000E+00 -0.86251043148E+03  0.11094632877E+04  0.69784277763E+03 0.  0.
        1    1    3    3  502    0  0.15858804249E+03 -0.27701927733E+03 -0.65528428929E+03  0.72889460627E+03  0.50400001928E-02 0.  1.
       -1    1    3    3    0  502 -0.15858804249E+03  0.27701927733E+03 -0.20722614219E+03  0.38056868140E+03  0.50400001928E-02 0. -1.
</event>
<event>
 5   0  0.1100119E-02  0.7075103E+03  0.7818609E-02  0.9704474E-01
        2   -1    0    0  501    0  0.00000000000E+00  0.00000000000E+00  0.66321820261E+03  0.66321820262E+03  0.25500000920E-02 0.  1.
       -2   -1    0    0    0  501  0.00000000000E+00  0.00000000000E+00 -0.18869011919E+03  0.18869011921E+03  0.25500000920E-02 0. -1.
    10030    2    1    2    0    0  0.00000000000E+00  0.00000000000E+00  0.47452808343E+03  0.85190832183E+03  0.70751034398E+03 0.  0.
        4    1    3    3  502    0  0.29189956591E+03 -0.16761504444E+03  0.36828878702E+03  0.49893727386E+03  0.12699999809E+01 0.  1.
       -4    1    3    3    0  502 -0.29189956591E+03  0.16761504444E+03  0.10623929641E+03  0.35297104797E+03  0.12699999809E+01 0. -1.
</event>
<event>
 5   0  0.1099980E-02  0.6997393E+03  0.7818609E-02  0.9717678E-01
        2   -1    0    0  501    0  0.00000000000E+00  0.00000000000E+00  0.79522450375E+03  0.79522450376E+03  0.25500000920E-02 0. -1.
       -2   -1    0    0    0  501  0.00000000000E+00  0.00000000000E+00 -0.15392984822E+03  0.15392984824E+03  0.25500000920E-02 0.  1.
    10030    2    1    2    0    0  0.00000000000E+00  0.00000000000E+00  0.64129465553E+03  0.94915435199E+03  0.69973934340E+03 0.  0.
        5    1    3    3  502    0 -0.13258130380E+03  0.52848290007E+01  0.75972539970E+03  0.77123958954E+03  0.46999998093E+01 0. -1.
       -5    1    3    3    0  502  0.13258130380E+03 -0.52848290007E+01 -0.11843074417E+03  0.17791476245E+03  0.46999998093E+01 0.  1.
</event>
<event>
 5   0  0.4440500E-03  0.7051998E+03  0.7818609E-02  0.9708381E-01
        4   -1    0    0  501    0  0.00000000000E+00  0.00000000000E+00  0.89562491930E+03  0.89562581974E+03  0.12699999809E+01 0. -1.
       -4   -1    0    0    0  501  0.00000000000E+00  0.00000000000E+00 -0.13881169559E+03  0.13881750514E+03  0.12699999809E+01 0.  1.
    10030    2    1    2    0    0  0.00000000000E+00  0.00000000000E+00  0.75681322371E+03  0.10344433249E+04  0.70519978502E+03 0.  0.
        1    1    3    3  502    0  0.52479047581E+02 -0.27157871394E+03  0.57640425657E+02  0.28254462833E+03  0.50400001928E-02 0.  1.
       -1    1    3    3    0  502 -0.52479047581E+02  0.27157871394E+03  0.69917279805E+03  0.75189869655E+03  0.50400001928E-02 0. -1.
</event>
<event>
 5   0  0.6689415E-03  0.6986908E+03  0.7818609E-02  0.9719474E-01
       -1   -1    0    0    0  501  0.00000000000E+00  0.00000000000E+00  0.47704951187E+03  0.47704951189E+03  0.50400001928E-02 0.  1.
        1   -1    0    0  501    0  0.00000000000E+00  0.00000000000E+00 -0.25582711824E+03  0.25582711829E+03  0.50400001928E-02 0. -1.
    10030    2    1    2    0    0  0.00000000000E+00  0.00000000000E+00  0.22122239363E+03  0.73287663019E+03  0.69869078113E+03 0.  0.
        1    1    3    3  502    0 -0.19719198147E+03  0.16133510192E+03 -0.14009917779E+03  0.29076016287E+03  0.50400001928E-02 0. -1.
       -1    1    3    3    0  502  0.19719198147E+03 -0.16133510192E+03  0.36132157142E+03  0.44211646731E+03  0.50400001928E-02 0.  1.
</event>
<event>
 5   0  0.1079446E-02  0.7011336E+03  0.7818609E-02  0.9715296E-01
       -2   -1    0    0    0  501  0.00000000000E+00  0.00000000000E+00  0.26430437004E+03  0.26430437005E+03  0.25500000920E-02 0.  1.
        2   -1    0    0  501    0  0.00000000000E+00  0.00000000000E+00 -0.46498317992E+03  0.46498317993E+03  0.25500000920E-02 0. -1.
    10030    2    1    2    0    0  0.00000000000E+00  0.00000000000E+00 -0.20067880988E+03  0.72928754998E+03  0.70113361481E+03 0.  0.
        2    1    3    3  502    0  0.28382335594E+02 -0.16466856533E+03 -0.42089582161E+03  0.45285161592E+03  0.25500000920E-02 0. -1.
       -2    1    3    3    0  502 -0.28382335594E+02  0.16466856533E+03  0.22021701173E+03  0.27643593407E+03  0.25500000920E-02 0.  1.
</event>
<event>
 5   0  0.6785252E-03  0.6998104E+03  0.7818609E-02  0.9717556E-01
        1   -1    0    0  501    0  0.00000000000E+00  0.00000000000E+00  0.38997786549E+03  0.38997786552E+03  0.50400001928E-02 0.  1.
       -1   -1    0    0    0  501  0.00000000000E+00  0.00000000000E+00 -0.31395029632E+03  0.31395029636E+03  0.50400001928E-02 0. -1.
    10030    2    1    2    0    0  0.00000000000E+00  0.00000000000E+00  0.76027569175E+02  0.70392816188E+03  0.69981044992E+03 0.  0.
        3    1    3    3  502    0 -0.24971998094E+03 -0.34507317080E+02  0.28209944340E+03  0.37832648596E+03  0.10100000352E+00 0.  1.
       -3    1    3    3    0  502  0.24971998094E+03  0.34507317080E+02 -0.20607187422E+03  0.32560167592E+03  0.10100000352E+00 0. -1.
</event>
<event>
 5   0  0.6785252E-03  0.7044778E+03  0.7818609E-02  0.9709605E-01
        1   -1    0    0  501    0  0.00000000000E+00  0.00000000000E+00  0.79180828300E+03  0.79180828302E+03  0.50400001928E-02 0. -1.
       -1   -1    0    0    0  501  0.00000000000E+00  0.00000000000E+00 -0.15669479714E+03  0.15669479722E+03  0.50400001928E-02 0.  1.
    10030    2    1    2    0    0  0.00000000000E+00  0.00000000000E+00  0.63511348587E+03  0.94850308024E+03  0.70447778765E+03 0.  0.
        3    1    3    3  502    0  0.78364735329E+02  0.14866250370E+03  0.73435286802E+03  0.75333639014E+03  0.10100000352E+00 0. -1.
       -3    1    3    3    0  502 -0.78364735329E+02 -0.14866250370E+03 -0.99239382150E+02  0.19516669009E+03  0.10100000352E+00 0.  1.
</event>
<event>
 5   0  0.1079446E-02  0.6983449E+03  0.7818609E-02  0.9720067E-01
        2   -1    0    0  501    0  0.00000000000E+00  0.00000000000E+00  0.86189544652E+03  0.86189544652E+03  0.25500000920E-02 0. -1.
       -2   -1    0    0    0  501  0.00000000000E+00  0.00000000000E+00 -0.14145728718E+03  0.14145728721E+03  0.25500000920E-02 0.  1.
    10030    2    1    2    0    0  0.00000000000E+00  0.00000000000E+00  0.72043815933E+03  0.10033527337E+04  0.69834487673E+03 0.  0.
        2    1    3    3  502    0 -0.25950699941E+03  0.18622260282E+03  0.15754626158E+03  0.35615104252E+03  0.25500000920E-02 0.  1.
       -2    1    3    3    0  502  0.25950699941E+03 -0.18622260282E+03  0.56289189775E+03  0.64720169121E+03  0.25500000920E-02 0. -1.
</event>
<event>
 5   0  0.6785252E-03  0.7002234E+03  0.7818609E-02  0.9716850E-01
        1   -1    0    0  501    0  0.00000000000E+00  0.00000000000E+00  0.11339538181E+04  0.11339538182E+04  0.50400001928E-02 0.  1.
       -1   -1    0    0    0  501  0.00000000000E+00  0.00000000000E+00 -0.10809806877E+03  0.10809806889E+03  0.50400001928E-02 0. -1.
    10030    2    1    2    0    0  0.00000000000E+00  0.00000000000E+00  0.10258557494E+04  0.12420518870E+04  0.70022344404E+03 0.  0.
        3    1    3    3  502    0  0.34197094970E+01  0.27723273036E+03  0.13369873361E+03  0.30780682703E+03  0.10100000352E+00 0. -1.
       -3    1    3    3    0  502 -0.34197094970E+01 -0.27723273036E+03  0.89215701576E+03  0.93424506001E+03  0.10100000352E+00 0.  1.
</event>
<event>
 5   0  0.1119786E-02  0.6999280E+03  0.7818609E-02  0.9717355E-01
        2   -1    0    0  501    0  0.00000000000E+00  0.00000000000E+00  0.30978901788E+03  0.30978901789E+03  0.25500000920E-02 0.  1.
       -2   -1    0    0    0  501  0.00000000000E+00  0.00000000000E+00 -0.39534903865E+03  0.39534903866E+03  0.25500000920E-02 0. -1.
    10030    2    1    2    0    0  0.00000000000E+00  0.00000000000E+00 -0.85560020779E+02  0.70513805655E+03  0.69992796889E+03 0.  0.
        3    1    3    3  502    0  0.41814563023E+02 -0.32600470486E+03  0.78311438167E+02  0.33787603765E+03  0.10100000352E+00 0.  1.
       -3    1    3    3    0  502 -0.41814563023E+02  0.32600470486E+03 -0.16387145895E+03  0.36726201890E+03  0.10100000352E+00 0. -1.
</event>
<event>
 5   0  0.1119786E-02  0.7003177E+03  0.7818609E-02  0.9716689E-01
        2   -1    0    0  501    0  0.00000000000E+00  0.00000000000E+00  0.13284805457E+04  0.13284805457E+04  0.25500000920E-02 0. -1.
       -2   -1    0    0    0  501  0.00000000000E+00  0.00000000000E+00 -0.92294337704E+02  0.92294337739E+02  0.25500000920E-02 0.  1.
    10030    2    1    2    0    0  0.00000000000E+00  0.00000000000E+00  0.12361862080E+04  0.14207748834E+04  0.70031773401E+03 0.  0.
        3    1    3    3  502    0 -0.27157524210E+03 -0.13145354451E+03  0.97860780253E+03  0.10240636640E+04  0.10100000352E+00 0. -1.
       -3    1    3    3    0  502  0.27157524210E+03  0.13145354451E+03  0.25757840544E+03  0.39671121945E+03  0.10100000352E+00 0.  1.
</event>
<event>
 5   0  0.1079446E-02  0.7012299E+03  0.7818609E-02  0.9715131E-01
        2   -1    0    0  501    0  0.00000000000E+00  0.00000000000E+00  0.72149845329E+03  0.72149845329E+03  0.25500000920E-02 0.  1.
       -2   -1    0    0    0  501  0.00000000000E+00  0.00000000000E+00 -0.17038268969E+03  0.17038268971E+03  0.25500000920E-02 0. -1.
    10030    2    1    2    0    0  0.00000000000E+00  0.00000000000E+00  0.55111576360E+03  0.89188114301E+03  0.70122991120E+03 0.  0.
        2    1    3    3  502    0  0.22529924127E+03  0.25717127554E+03  0.17675936478E+03  0.38489048588E+03  0.25500000920E-02 0. -1.
       -2    1    3    3    0  502 -0.22529924127E+03 -0.25717127554E+03  0.37435639881E+03  0.50699065713E+03  0.25500000920E-02 0.  1.
</event>
<event>
 5   0  0.6246998E-03  0.6990247E+03  0.7818609E-02  0.9718902E-01
       -1   -1    0    0    0  501  0.00000000000E+00  0.00000000000E+00  0.12264779849E+03  0.12264779859E+03  0.50400001928E-02 0.  1.
        1   -1    0    0  501    0  0.00000000000E+00  0.00000000000E+00 -0.99601362345E+03  0.99601362346E+03  0.50400001928E-02 0. -1.
    10030    2    1    2    0    0  0.00000000000E+00  0.00000000000E+00 -0.87336582496E+03  0.11186614221E+04  0.69902468696E+03 0.  0.
        4    1    3    3  502    0  0.50360646520E+02 -0.57241872399E+02  0.10917418548E+03  0.13316697169E+03  0.12699999809E+01 0.  1.
       -4    1    3    3    0  502 -0.50360646520E+02  0.57241872399E+02 -0.98254001044E+03  0.98549445036E+03  0.12699999809E+01 0. -1.
</event>
<event>
 5   0  0.1109788E-02  0.6974501E+03  0.7818609E-02  0.9721603E-01
       -2   -1    0    0    0  501  0.00000000000E+00  0.00000000000E+00  0.48444088370E+03  0.48444088370E+03  0.25500000920E-02 0.  1.
        2   -1    0    0  501    0  0.00000000000E+00  0.00000000000E+00 -0.25102993754E+03  0.25102993755E+03  0.25500000920E-02 0. -1.
    10030    2    1    2    0    0  0.00000000000E+00  0.00000000000E+00  0.23341094616E+03  0.73547082125E+03  0.69745011229E+03 0.  0.
        1    1    3    3  502    0 -0.19187379599E+03 -0.29096650632E+03  0.10458528813E+03  0.36388891699E+03  0.50400001928E-02 0.  1.
       -1    1    3    3    0  502  0.19187379599E+03  0.29096650632E+03  0.12882565803E+03  0.37158190427E+03  0.50400001928E-02 0. -1.
</event>
<event>
 5   0  0.1079446E-02  0.6992390E+03  0.7818609E-02  0.9718534E-01
       -2   -1    0    0    0  501  0.00000000000E+00  0.00000000000E+00  0.23575461049E+03  0.23575461051E+03  0.25500000920E-02 0. -1.
        2   -1    0    0  501    0  0.00000000000E+00  0.00000000000E+00 -0.51847893380E+03  0.51847893380E+03  0.25500000920E-02 0.  1.
    10030    2    1    2    0    0  0.00000000000E+00  0.00000000000E+00 -0.28272432330E+03  0.75423354431E+03  0.69923901234E+03 0.  0.
        2    1    3    3  502    0  0.26220573829E+03  0.31610978618E+02 -0.38847098958E+03  0.46974547673E+03  0.25500000920E-02 0.  1.
       -2    1    3    3    0  502 -0.26220573829E+03 -0.31610978618E+02  0.10574666627E+03  0.28448806758E+03  0.25500000920E-02 0. -1.
</event>
<event>
 5   0  0.1100119E-02  0.6999943E+03  0.7818609E-02  0.9717242E-01
        2   -1    0    0  501    0  0.00000000000E+00  0.00000000000E+00  0.35465575765E+03  0.35465575766E+03  0.25500000920E-02 0. -1.
       -2   -1    0    0    0  501  0.00000000000E+00  0.00000000000E+00 -0.34539976935E+03  0.34539976936E+03  0.25500000920E-02 0.  1.
    10030    2    1    2    0    0  0.00000000000E+00  0.00000000000E+00  0.92559882965E+01  0.70005552702E+03  0.69999433397E+03 0.  0.
        4    1    3    3  502    0 -0.34855363579E+03 -0.31287349599E+02 -0.65155153627E+00  0.34995795846E+03  0.12699999809E+01 0. -1.
       -4    1    3    3    0  502  0.34855363579E+03  0.31287349599E+02  0.99075398328E+01  0.35009756856E+03  0.12699999809E+01 0.  1.
</event>
<event>
 5   0  0.1119786E-02  0.6991967E+03  0.7818609E-02  0.9718607E-01
        2   -1    0    0  501    0  0.00000000000E+00  0.00000000000E+00  0.32785544367E+03  0.32785544368E+03  0.25500000920E-02 0. -1.
       -2   -1    0    0    0  501  0.00000000000E+00  0.00000000000E+00 -0.37278321689E+03  0.37278321690E+03  0.25500000920E-02 0.  1.
    10030    2    1    2    0    0  0.00000000000E+00  0.00000000000E+00 -0.44927773221E+02  0.70063866058E+03  0.69919670186E+03 0.  0.
        3    1    3    3  502    0  0.19397248741E+03  0.93564610544E+02 -0.29842124779E+03  0.36801482790E+03  0.10100000352E+00 0.  1.
       -3    1    3    3    0  502 -0.19397248741E+03 -0.93564610544E+02  0.25349347457E+03  0.33262383268E+03  0.10100000352E+00 0. -1.
</event>
<event>
 5   0  0.4440500E-03  0.7007131E+03  0.7818609E-02  0.9716013E-01
       -4   -1    0    0    0  501  0.00000000000E+00  0.00000000000E+00  0.61288115448E+03  0.61288247031E+03  0.12699999809E+01 0.  1.
        4   -1    0    0  501    0  0.00000000000E+00  0.00000000000E+00 -0.20027952914E+03  0.20028355572E+03  0.12699999809E+01 0. -1.
    10030    2    1    2    0    0  0.00000000000E+00  0.00000000000E+00  0.41260162534E+03  0.81316602603E+03  0.70071312579E+03 0.  0.
        1    1    3    3  502    0 -0.98603652012E+02 -0.63775241352E+01 -0.18377767230E+03  0.20865662190E+03  0.50400001928E-02 0. -1.
       -1    1    3    3    0  502  0.98603652012E+02  0.63775241352E+01  0.59637929764E+03  0.60450940413E+03  0.50400001928E-02 0.  1.
</event>
<event>
 5   0  0.1109788E-02  0.6987265E+03  0.7818609E-02  0.9719413E-01
        2   -1    0    0  501    0  0.00000000000E+00  0.00000000000E+00  0.12648347278E+04  0.12648347278E+04  0.25500000920E-02 0. -1.
       -2   -1    0    0    0  501  0.00000000000E+00  0.00000000000E+00 -0.96498521109E+02  0.96498521143E+02  0.25500000920E-02 0.  1.
    10030    2    1    2    0    0  0.00000000000E+00  0.00000000000E+00  0.11683362067E+04  0.13613332489E+04  0.69872650072E+03 0.  0.
        1    1    3    3  502    0 -0.12676135649E+03  0.27644077417E+03  0.91917900506E+03  0.96818282700E+03  0.50400001928E-02 0. -1.
       -1    1    3    3    0  502  0.12676135649E+03 -0.27644077417E+03  0.24915720161E+03  0.39315042193E+03  0.50400001928E-02 0.  1.
</event>
<event>
 5   0  0.1100119E-02  0.6962894E+03  0.7818609E-02  0.9723599E-01
        2   -1    0    0  501    0  0.00000000000E+00  0.00000000000E+00  0.56200418327E+03  0.56200418328E+03  0.25500000920E-02 0.  1.
       -2   -1    0    0    0  501  0.00000000000E+00  0.00000000000E+00 -0.21566516573E+03  0.21566516575E+03  0.25500000920E-02 0. -1.
    10030    2    1    2    0    0  0.00000000000E+00  0.00000000000E+00  0.34633901754E+03  0.77766934903E+03  0.69628938046E+03 0.  0.
        4    1    3    3  502    0  0.15568195601E+03  0.21217142330E+03 -0.81393921284E+02  0.27546355043E+03  0.12699999809E+01 0. -1.
       -4    1    3    3    0  502 -0.15568195601E+03 -0.21217142330E+03  0.42773293882E+03  0.50220579860E+03  0.12699999809E+01 0.  1.
</event>
<event>
 5   0  0.6246998E-03  0.6989370E+03  0.7818609E-02  0.9719052E-01
        1   -1    0    0  501    0  0.00000000000E+00  0.00000000000E+00  0.23550748174E+03  0.23550748180E+03  0.50400001928E-02 0. -1.
       -1   -1    0    0    0  501  0.00000000000E+00  0.00000000000E+00 -0.51857472571E+03  0.51857472574E+03  0.50400001928E-02 0.  1.
    10030    2    1    2    0    0  0.00000000000E+00  0.00000000000E+00 -0.28306724397E+03  0.75408220753E+03  0.69893698651E+03 0.  0.
        4    1    3    3  502    0 -0.17920887293E+03 -0.13967524819E+03  0.14493708387E+03  0.26950578153E+03  0.12699999809E+01 0. -1.
       -4    1    3    3    0  502  0.17920887293E+03  0.13967524819E+03 -0.42800432784E+03  0.48457642601E+03  0.12699999809E+01 0.  1.
</event>
<event>
 5   0  0.6609285E-03  0.6998142E+03  0.7818609E-02  0.9717550E-01
        1   -1    0    0  501    0  0.00000000000E+00  0.00000000000E+00  0.87345652558E+03  0.87345652559E+03  0.50400001928E-02 0. -1.
       -1   -1    0    0    0  501  0.00000000000E+00  0.00000000000E+00 -0.14017293860E+03  0.14017293869E+03  0.50400001928E-02 0.  1.
    10030    2    1    2    0    0  0.00000000000E+00  0.00000000000E+00  0.73328358698E+03  0.10136294643E+04  0.69981416956E+03 0.  0.
        2    1    3    3  502    0  0.33396002703E+03 -0.55654756352E+02  0.49463072557E+03  0.59940496015E+03  0.25500000920E-02 0.  1.
       -2    1    3    3    0  502 -0.33396002703E+03  0.55654756352E+02  0.23865286141E+03  0.41422450414E+03  0.25500000920E-02 0. -1.
</event>
<event>
 5   0  0.6785252E-03  0.7000092E+03  0.7818609E-02  0.9717216E-01
        1   -1    0    0  501    0  0.00000000000E+00  0.00000000000E+00  0.43659945102E+03  0.43659945105E+03  0.50400001928E-02 0.  1.
       -1   -1    0    0    0  501  0.00000000000E+00  0.00000000000E+00 -0.28058492348E+03  0.28058492352E+03  0.50400001928E-02 0. -1.
    10030    2    1    2    0    0  0.00000000000E+00  0.00000000000E+00  0.15601452754E+03  0.71718437457E+03  0.70000921018E+03 0.  0.
        3    1    3    3  502    0 -0.33818136444E+03  0.19219393111E+02 -0.12286782395E+02  0.33894984223E+03  0.10100000352E+00 0.  1.
       -3    1    3    3    0  502  0.33818136444E+03 -0.19219393111E+02  0.16830130994E+03  0.37823453234E+03  0.10100000352E+00 0. -1.
</event>
<event>
 5   0  0.6990118E-03  0.6712397E+03  0.7818609E-02  0.9767721E-01
        1   -1    0    0  501    0  0.00000000000E+00  0.00000000000E+00  0.36542765858E+03  0.36542765862E+03  0.50400001928E-02 0. -1.
       -1   -1    0    0    0  501  0.00000000000E+00  0.00000000000E+00 -0.30824347879E+03  0.30824347883E+03  0.50400001928E-02 0.  1.
    10030    2    1    2    0    0  0.00000000000E+00  0.00000000000E+00  0.57184179797E+02  0.67367113745E+03  0.67123972693E+03 0.  0.
        5    1    3    3  502    0  0.13250791262E+03  0.22682161978E+02 -0.28000466359E+03  0.31064051411E+03  0.46999998093E+01 0.  1.
       -5    1    3    3    0  502 -0.13250791262E+03 -0.22682161978E+02  0.33718884338E+03  0.36303062333E+03  0.46999998093E+01 0. -1.
</event>
<event>
 5   0  0.6689415E-03  0.7032759E+03  0.7818609E-02  0.9711646E-01
       -1   -1    0    0    0  501  0.00000000000E+00  0.00000000000E+00  0.69561025456E+02  0.69561025639E+02  0.50400001928E-02 0. -1.
        1   -1    0    0  501    0  0.00000000000E+00  0.00000000000E+00 -0.17775651395E+04  0.17775651395E+04  0.50400001928E-02 0.  1.
    10030    2    1    2    0    0  0.00000000000E+00  0.00000000000E+00 -0.17080041140E+04  0.18471261651E+04  0.70327591767E+03 0.  0.
        1    1    3    3  502    0  0.34378006358E+03 -0.73844790805E+02 -0.84510737756E+03  0.91533833356E+03  0.50400001928E-02 0. -1.
       -1    1    3    3    0  502 -0.34378006358E+03  0.73844790805E+02 -0.86289673646E+03  0.93178783157E+03  0.50400001928E-02 0.  1.
</event>
<event>
 5   0  0.1100119E-02  0.6983696E+03  0.7818609E-02  0.9720024E-01
       -2   -1    0    0    0  501  0.00000000000E+00  0.00000000000E+00  0.85159959434E+02  0.85159959472E+02  0.25500000920E-02 0.  1.
        2   -1    0    0  501    0  0.00000000000E+00  0.00000000000E+00 -0.14317765999E+04  0.14317765999E+04  0.25500000920E-02 0. -1.
    10030    2    1    2    0    0  0.00000000000E+00  0.00000000000E+00 -0.13466166405E+04  0.15169365594E+04  0.69836963622E+03 0.  0.
        4    1    3    3  502    0  0.21064432961E+03  0.20750573724E+03 -0.26986380991E+03  0.40032206207E+03  0.12699999809E+01 0.  1.
       -4    1    3    3    0  502 -0.21064432961E+03 -0.20750573724E+03 -0.10767528306E+04  0.11166144973E+04  0.12699999809E+01 0. -1.
</event>
<event>
 5   0  0.6689415E-03  0.6984310E+03  0.7818609E-02  0.9719919E-01
        1   -1    0    0  501    0  0.00000000000E+00  0.00000000000E+00  0.49499271176E+03  0.49499271178E+03  0.50400001928E-02 0.  1.
       -1   -1    0    0    0  501  0.00000000000E+00  0.00000000000E+00 -0.24637020077E+03  0.24637020082E+03  0.50400001928E-02 0. -1.
    10030    2    1    2    0    0  0.00000000000E+00  0.00000000000E+00  0.24862251099E+03  0.74136291260E+03  0.69843096668E+03 0.  0.
        1    1    3    3  502    0 -0.10636924278E+03 -0.20765048755E+03  0.40012643303E+03  0.46317847880E+03  0.50400001928E-02 0.  1.
       -1    1    3    3    0  502  0.10636924278E+03  0.20765048755E+03 -0.15150392204E+03  0.27818443380E+03  0.50400001928E-02 0. -1.
</event>
<event>
 5   0  0.1099980E-02  0.7020311E+03  0.7818609E-02  0.9713765E-01
        2   -1    0    0  501    0  0.00000000000E+00  0.00000000000E+00  0.37152049897E+03  0.37152049898E+03  0.25500000920E-02 0.  1.
       -2   -1    0    0    0  501  0.00000000000E+00  0.00000000000E+00 -0.33164230586E+03  0.33164230587E+03  0.25500000920E-02 0. -1.
    10030    2    1    2    0    0  0.00000000000E+00  0.00000000000E+00  0.39878193105E+02  0.70316280485E+03  0.70203109606E+03 0.  0.
        5    1    3    3  502    0  0.69420016627E+02 -0.19813302205E+03  0.30166461677E+03  0.36755879005E+03  0.46999998093E+01 0.  1.
       -5    1    3    3    0  502 -0.69420016627E+02  0.19813302205E+03 -0.26178642366E+03  0.33560401480E+03  0.46999998093E+01 0. -1.
</event>
<event>
 5   0  0.1099980E-02  0.6914340E+03  0.7818609E-02  0.9731994E-01
        2   -1    0    0  501    0  0.00000000000E+00  0.00000000000E+00  0.22874862075E+04  0.22874862075E+04  0.25500000920E-02 0.  1.
       -2   -1    0    0    0  501  0.00000000000E+00  0.00000000000E+00 -0.52249595669E+02  0.52249595731E+02  0.25500000920E-02 0. -1.
    10030    2    1    2    0    0  0.00000000000E+00  0.00000000000E+00  0.22352366118E+04  0.23397358032E+04  0.69143395784E+03 0.  0.
        5    1    3    3  502    0  0.53816743279E+02 -0.33993882748E+03  0.12269284628E+04  0.12742959590E+04  0.46999998093E+01 0.  1.
       -5    1    3    3    0  502 -0.53816743279E+02  0.33993882748E+03  0.10083081490E+04  0.10654398443E+04  0.46999998093E+01 0. -1.
</event>
<event>
 5   0  0.1099980E-02  0.6983578E+03  0.7818609E-02  0.9720045E-01
       -2   -1    0    0    0  501  0.00000000000E+00  0.00000000000E+00  0.14720212573E+03  0.14720212575E+03  0.25500000920E-02 0. -1.
        2   -1    0    0  501    0  0.00000000000E+00  0.00000000000E+00 -0.82828895756E+03  0.82828895756E+03  0.25500000920E-02 0.  1.
    10030    2    1    2    0    0  0.00000000000E+00  0.00000000000E+00 -0.68108683183E+03  0.97549108331E+03  0.69835777445E+03 0.  0.
        5    1    3    3  502    0  0.32813506420E+03 -0.67180313975E+02 -0.20284353545E+03  0.39160363228E+03  0.46999998093E+01 0. -1.
       -5    1    3    3    0  502 -0.32813506420E+03  0.67180313975E+02 -0.47824329638E+03  0.58388745103E+03  0.46999998093E+01 0.  1.
</event>
<event>
 5   0  0.4440500E-03  0.6983153E+03  0.7818609E-02  0.9720118E-01
        3   -1    0    0  501    0  0.00000000000E+00  0.00000000000E+00  0.40362215492E+03  0.40362216755E+03  0.10100000352E+00 0.  1.
       -3   -1    0    0    0  501  0.00000000000E+00  0.00000000000E+00 -0.30204251140E+03  0.30204252828E+03  0.10100000352E+00 0. -1.
    10030    2    1    2    0    0  0.00000000000E+00  0.00000000000E+00  0.10157964352E+03  0.70566469584E+03  0.69831528622E+03 0.  0.
        5    1    3    3  502    0  0.18275369853E+03 -0.28479384682E+03 -0.36036052379E+02  0.34033386047E+03  0.46999998093E+01 0. -1.
       -5    1    3    3    0  502 -0.18275369853E+03  0.28479384682E+03  0.13761569590E+03  0.36533083537E+03  0.46999998093E+01 0.  1.
</event>
<event>
 5   0  0.1079446E-02  0.7021173E+03  0.7818609E-02  0.9713618E-01
        2   -1    0    0  501    0  0.00000000000E+00  0.00000000000E+00  0.64083366382E+03  0.64083366382E+03  0.25500000920E-02 0. -1.
       -2   -1    0    0    0  501  0.00000000000E+00  0.00000000000E+00 -0.19231540806E+03  0.19231540808E+03  0.25500000920E-02 0.  1.
    10030    2    1    2    0    0  0.00000000000E+00  0.00000000000E+00  0.44851825576E+03  0.83314907190E+03  0.70211733369E+03 0.  0.
        2    1    3    3  502    0  0.53312188646E+02  0.15413386048E+03 -0.14463153456E+03  0.21798558943E+03  0.25500000920E-02 0. -1.
       -2    1    3    3    0  502 -0.53312188646E+02 -0.15413386048E+03  0.59314979031E+03  0.61516348247E+03  0.25500000920E-02 0.  1.
</event>
<event>
 5   0  0.6246998E-03  0.6995409E+03  0.7818609E-02  0.9718018E-01
        1   -1    0    0  501    0  0.00000000000E+00  0.00000000000E+00  0.25110733678E+03  0.25110733683E+03  0.50400001928E-02 0. -1.
       -1   -1    0    0    0  501  0.00000000000E+00  0.00000000000E+00 -0.48719946141E+03  0.48719946144E+03  0.50400001928E-02 0.  1.
    10030    2    1    2    0    0  0.00000000000E+00  0.00000000000E+00 -0.23609212463E+03  0.73830679827E+03  0.69954087590E+03 0.  0.
        4    1    3    3  502    0  0.21256587631E+03 -0.11032855576E+03 -0.38708634768E+03  0.45518578125E+03  0.12699999809E+01 0.  1.
       -4    1    3    3    0  502 -0.21256587631E+03  0.11032855576E+03  0.15099422305E+03  0.28312101703E+03  0.12699999809E+01 0. -1.
</event>
<event>
 5   0  0.1109788E-02  0.6977288E+03  0.7818609E-02  0.9721124E-01
        2   -1    0    0  501    0  0.00000000000E+00  0.00000000000E+00  0.50648017236E+03  0.50648017236E+03  0.25500000920E-02 0.  1.
       -2   -1    0    0    0  501  0.00000000000E+00  0.00000000000E+00 -0.24029835827E+03  0.24029835829E+03  0.25500000920E-02 0. -1.
    10030    2    1    2    0    0  0.00000000000E+00  0.00000000000E+00  0.26618181409E+03  0.74677853065E+03  0.69772875510E+03 0.  0.
        1    1    3    3  502    0  0.30293574997E+03  0.73711322042E+01  0.31810707508E+03  0.43933644675E+03  0.50400001928E-02 0.  1.
       -1    1    3    3    0  502 -0.30293574997E+03 -0.73711322042E+01 -0.51925260998E+02  0.30744208390E+03  0.50400001928E-02 0. -1.
</event>
<event>
 5   0  0.1099980E-02  0.7075226E+03  0.7818609E-02  0.9704453E-01
       -2   -1    0    0    0  501  0.00000000000E+00  0.00000000000E+00  0.17566233478E+03  0.17566233480E+03  0.25500000920E-02 0.  1.
        2   -1    0    0  501    0  0.00000000000E+00  0.00000000000E+00 -0.71242969735E+03  0.71242969736E+03  0.25500000920E-02 0. -1.
    10030    2    1    2    0    0  0.00000000000E+00  0.00000000000E+00 -0.53676736257E+03  0.88809203216E+03  0.70752261876E+03 0.  0.
        5    1    3    3  502    0 -0.26024807090E+03 -0.23830475004E+03 -0.23746458927E+03  0.42535835886E+03  0.46999998093E+01 0. -1.
       -5    1    3    3    0  502  0.26024807090E+03  0.23830475004E+03 -0.29930277330E+03  0.46273367330E+03  0.46999998093E+01 0.  1.
</event>
<event>
 5   0  0.1100119E-02  0.7008943E+03  0.7818609E-02  0.9715704E-01
        2   -1    0    0  501    0  0.00000000000E+00  0.00000000000E+00  0.98228574438E+03  0.98228574438E+03  0.25500000920E-02 0. -1.
       -2   -1    0    0    0  501  0.00000000000E+00  0.00000000000E+00 -0.12502798788E+03  0.12502798790E+03  0.25500000920E-02 0.  1.
    10030    2    1    2    0    0  0.00000000000E+00  0.00000000000E+00  0.85725775650E+03  0.11073137323E+04  0.70089431488E+03 0.  0.
        4    1    3    3  502    0 -0.10555990565E+03  0.57974252395E+02 -0.91304614432E+02  0.15113587641E+03  0.12699999809E+01 0.  1.
       -4    1    3    3    0  502  0.10555990565E+03 -0.57974252395E+02  0.94856237093E+03  0.95617785587E+03  0.12699999809E+01 0. -1.
</event>
<event>
 5   0  0.1119786E-02  0.6981837E+03  0.7818609E-02  0.9720343E-01
       -2   -1    0    0    0  501  0.00000000000E+00  0.00000000000E+00  0.25173577551E+03  0.25173577552E+03  0.25500000920E-02 0.  1.
        2   -1    0    0  501    0  0.00000000000E+00  0.00000000000E+00 -0.48409939240E+03  0.48409939240E+03  0.25500000920E-02 0. -1.
    10030    2    1    2    0    0  0.00000000000E+00  0.00000000000E+00 -0.23236361689E+03  0.73583516792E+03  0.69818374652E+03 0.  0.
        3    1    3    3  502    0  0.13365927261E+02  0.27968552766E+02  0.25028240258E+03  0.25219472476E+03  0.10100000352E+00 0.  1.
       -3    1    3    3    0  502 -0.13365927261E+02 -0.27968552766E+02 -0.48264601947E+03  0.48364044316E+03  0.10100000352E+00 0. -1.
</event>
<event>
 5   0  0.1099980E-02  0.7072674E+03  0.7818609E-02  0.9704884E-01
        2   -1    0    0  501    0  0.00000000000E+00  0.00000000000E+00  0.40065642641E+03  0.40065642642E+03  0.25500000920E-02 0. -1.
       -2   -1    0    0    0  501  0.00000000000E+00  0.00000000000E+00 -0.31212974362E+03  0.31212974363E+03  0.25500000920E-02 0.  1.
    10030    2    1    2    0    0  0.00000000000E+00  0.00000000000E+00  0.88526682788E+02  0.71278617005E+03  0.70726738271E+03 0.  0.
        5    1    3    3  502    0 -0.17942427403E+03  0.24586682175E+03 -0.13711637050E+03  0.33386607076E+03  0.46999998093E+01 0.  1.
       -5    1    3    3    0  502  0.17942427403E+03 -0.24586682175E+03  0.22564305329E+03  0.37892009929E+03  0.46999998093E+01 0. -1.
</event>
<event>
 5   0  0.6246998E-03  0.6987196E+03  0.7818609E-02  0.9719424E-01
        1   -1    0    0  501    0  0.00000000000E+00  0.00000000000E+00  0.10873668733E+04  0.10873668733E+04  0.50400001928E-02 0.  1.
       -1   -1    0    0    0  501  0.00000000000E+00  0.00000000000E+00 -0.11224571265E+03  0.11224571276E+03  0.50400001928E-02 0. -1.
    10030    2    1    2    0    0  0.00000000000E+00  0.00000000000E+00  0.97512116062E+03  0.11996125860E+04  0.69871959949E+03 0.  0.
        4    1    3    3  502    0 -0.11954521698E+03  0.54691481140E+02 -0.68155963676E+02  0.14808465585E+03  0.12699999809E+01 0. -1.
       -4    1    3    3    0  502  0.11954521698E+03 -0.54691481140E+02  0.10432771243E+04  0.10515279302E+04  0.12699999809E+01 0.  1.
</event>
<event>
 5   0  0.6785252E-03  0.7002976E+03  0.7818609E-02  0.9716723E-01
       -1   -1    0    0    0  501  0.00000000000E+00  0.00000000000E+00  0.14410135340E+03  0.14410135349E+03  0.50400001928E-02 0. -1.
        1   -1    0    0  501    0  0.00000000000E+00  0.00000000000E+00 -0.85081906035E+03  0.85081906036E+03  0.50400001928E-02 0.  1.
    10030    2    1    2    0    0  0.00000000000E+00  0.00000000000E+00 -0.70671770695E+03  0.99492041386E+03  0.70029758860E+03 0.  0.
        3    1    3    3  502    0  0.19760281235E+03  0.47364549735E+02  0.51765261907E+02  0.20969006787E+03  0.10100000352E+00 0. -1.
       -3    1    3    3    0  502 -0.19760281235E+03 -0.47364549735E+02 -0.75848296885E+03  0.78523034599E+03  0.10100000352E+00 0.  1.
</event>
<event>
 5   0  0.6990118E-03  0.7002673E+03  0.7818609E-02  0.9716775E-01
       -1   -1    0    0    0  501  0.00000000000E+00  0.00000000000E+00  0.29688717061E+03  0.29688717065E+03  0.50400001928E-02 0. -1.
        1   -1    0    0  501    0  0.00000000000E+00  0.00000000000E+00 -0.41292984671E+03  0.41292984674E+03  0.50400001928E-02 0.  1.
    10030    2    1    2    0    0  0.00000000000E+00  0.00000000000E+00 -0.11604267610E+03  0.70981701740E+03  0.70026730290E+03 0.  0.
        5    1    3    3  502    0  0.12036100393E+03 -0.32179761982E+03 -0.12625203454E+03  0.36606303503E+03  0.46999998093E+01 0.  1.
       -5    1    3    3    0  502 -0.12036100393E+03  0.32179761982E+03  0.10209358443E+02  0.34375398236E+03  0.46999998093E+01 0. -1.
</event>
<event>
 5   0  0.1109788E-02  0.6991157E+03  0.7818609E-02  0.9718746E-01
        2   -1    0    0  501    0  0.00000000000E+00  0.00000000000E+00  0.18424173893E+03  0.18424173895E+03  0.25500000920E-02 0.  1.
       -2   -1    0    0    0  501  0.00000000000E+00  0.00000000000E+00 -0.66320861199E+03  0.66320861199E+03  0.25500000920E-02 0. -1.
    10030    2    1    2    0    0  0.00000000000E+00  0.00000000000E+00 -0.47896687306E+03  0.84745035094E+03  0.69911574994E+03 0.  0.
        1    1    3    3  502    0 -0.38971245748E+02  0.24274062387E+03 -0.54070074888E+03  0.59396891193E+03  0.50400001928E-02 0. -1.
       -1    1    3    3    0  502  0.38971245748E+02 -0.24274062387E+03  0.61733875820E+02  0.25348143901E+03  0.50400001928E-02 0.  1.
</event>
<event>
 5   0  0.1099980E-02  0.6977639E+03  0.7818609E-02  0.9721064E-01
        2   -1    0    0  501    0  0.00000000000E+00  0.00000000000E+00  0.74844576355E+03  0.74844576355E+03  0.25500000920E-02 0. -1.
       -2   -1    0    0    0  501  0.00000000000E+00  0.00000000000E+00 -0.16262850156E+03  0.16262850158E+03  0.25500000920E-02 0.  1.
    10030    2    1    2    0    0  0.00000000000E+00  0.00000000000E+00  0.58581726198E+03  0.91107426513E+03  0.69776389427E+03 0.  0.
        5    1    3    3  502    0 -0.21867574063E+03  0.15992625516E+03  0.57987004988E+03  0.64005222551E+03  0.46999998093E+01 0. -1.
       -5    1    3    3    0  502  0.21867574063E+03 -0.15992625516E+03  0.59472121023E+01  0.27102203962E+03  0.46999998093E+01 0.  1.
</event>
<event>
 5   0  0.6990118E-03  0.6919778E+03  0.7818609E-02  0.9731050E-01
        1   -1    0    0  501    0  0.00000000000E+00  0.00000000000E+00  0.17061301961E+03  0.17061301968E+03  0.50400001928E-02 0.  1.
       -1   -1    0    0    0  501  0.00000000000E+00  0.00000000000E+00 -0.70163657675E+03  0.70163657676E+03  0.50400001928E-02 0. -1.
    10030    2    1    2    0    0  0.00000000000E+00  0.00000000000E+00 -0.53102355714E+03  0.87224959645E+03  0.69197784666E+03 0.  0.
        5    1    3    3  502    0  0.89558493218E+02  0.28224091881E+03 -0.49101952857E+03  0.57341340008E+03  0.46999998093E+01 0. -1.
       -5    1    3    3    0  502 -0.89558493218E+02 -0.28224091881E+03 -0.40004028566E+02  0.29883619636E+03  0.46999998093E+01 0.  1.
</event>
<event>
 5   0  0.6689415E-03  0.7006980E+03  0.7818609E-02  0.9716039E-01
        1   -1    0    0  501    0  0.00000000000E+00  0.00000000000E+00  0.61474089578E+03  0.61474089580E+03  0.50400001928E-02 0.  1.
       -1   -1    0    0    0  501  0.00000000000E+00  0.00000000000E+00 -0.19966856138E+03  0.19966856144E+03  0.50400001928E-02 0. -1.
    10030    2    1    2    0    0  0.00000000000E+00  0.00000000000E+00  0.41507233440E+03  0.81440945724E+03  0.70069802430E+03 0.  0.
        1    1    3    3  502    0  0.18607604215E+03 -0.15371312806E+03  0.50270209392E+03  0.55763914358E+03  0.50400001928E-02 0.  1.
       -1    1    3    3    0  502 -0.18607604215E+03  0.15371312806E+03 -0.87629759521E+02  0.25677031366E+03  0.50400001928E-02 0. -1.
</event>
<event>
 5   0  0.4440500E-03  0.6997729E+03  0.7818609E-02  0.9717621E-01
       -3   -1    0    0    0  501  0.00000000000E+00  0.00000000000E+00  0.97522176943E+02  0.97522229244E+02  0.10100000352E+00 0.  1.
        3   -1    0    0  501    0  0.00000000000E+00  0.00000000000E+00 -0.12553092320E+04  0.12553092361E+04  0.10100000352E+00 0. -1.
    10030    2    1    2    0    0  0.00000000000E+00  0.00000000000E+00 -0.11577870551E+04  0.13528314653E+04  0.69977289793E+03 0.  0.
        5    1    3    3  502    0  0.11184649917E+03 -0.15660937946E+03 -0.14061087220E+02  0.19301798176E+03  0.46999998093E+01 0.  1.
       -5    1    3    3    0  502 -0.11184649917E+03  0.15660937946E+03 -0.11437259679E+04  0.11598134836E+04  0.46999998093E+01 0. -1.
</event>
<event>
 5   0  0.1079446E-02  0.7005032E+03  0.7818609E-02  0.9716372E-01
        2   -1    0    0  501    0  0.00000000000E+00  0.00000000000E+00  0.58045125844E+03  0.58045125845E+03  0.25500000920E-02 0. -1.
       -2   -1    0    0    0  501  0.00000000000E+00  0.00000000000E+00 -0.21134623307E+03  0.21134623309E+03  0.25500000920E-02 0.  1.
    10030    2    1    2    0    0  0.00000000000E+00  0.00000000000E+00  0.36910502537E+03  0.79179749154E+03  0.70050321045E+03 0.  0.
        2    1    3    3  502    0  0.97557507691E+02  0.10367592327E+02  0.56460330528E+03  0.57306356246E+03  0.25500000920E-02 0. -1.
       -2    1    3    3    0  502 -0.97557507691E+02 -0.10367592327E+02 -0.19549827991E+03  0.21873392908E+03  0.25500000920E-02 0.  1.
</event>
<event>
 5   0  0.6246998E-03  0.6968962E+03  0.7818609E-02  0.9722555E-01
       -1   -1    0    0    0  501  0.00000000000E+00  0.00000000000E+00  0.20525835365E+03  0.20525835371E+03  0.50400001928E-02 0.  1.
        1   -1    0    0  501    0  0.00000000000E+00  0.00000000000E+00 -0.59152810785E+03  0.59152810788E+03  0.50400001928E-02 0. -1.
    10030    2    1    2    0    0  0.00000000000E+00  0.00000000000E+00 -0.38626975421E+03  0.79678646158E+03  0.69689622064E+03 0.  0.
        4    1    3    3  502    0 -0.15899705803E+03 -0.20988969009E+03 -0.45405787077E+03  0.52488466292E+03  0.12699999809E+01 0. -1.
       -4    1    3    3    0  502  0.15899705803E+03  0.20988969009E+03  0.67788116556E+02  0.27190179866E+03  0.12699999809E+01 0.  1.
</event>
<event>
 5   0  0.1100119E-02  0.6875513E+03  0.7818609E-02  0.9738761E-01
        2   -1    0    0  501    0  0.00000000000E+00  0.00000000000E+00  0.51140204104E+03  0.51140204105E+03  0.25500000920E-02 0.  1.
       -2   -1    0    0    0  501  0.00000000000E+00  0.00000000000E+00 -0.23109352752E+03  0.23109352753E+03  0.25500000920E-02 0. -1.
    10030    2    1    2    0    0  0.00000000000E+00  0.00000000000E+00  0.28030851352E+03  0.74249556858E+03  0.68755131198E+03 0.  0.
        4    1    3    3  502    0  0.26705156682E+03 -0.96113885171E+02 -0.69320104469E+02  0.29216657586E+03  0.12699999809E+01 0. -1.
       -4    1    3    3    0  502 -0.26705156682E+03  0.96113885171E+02  0.34962861799E+03  0.45032899272E+03  0.12699999809E+01 0.  1.
</event>
<event>
 5   0  0.1109788E-02  0.6705351E+03  0.7818609E-02  0.9768992E-01
       -2   -1    0    0    0  501  0.00000000000E+00  0.00000000000E+00  0.43097528591E+03  0.43097528592E+03  0.25500000920E-02 0.  1.
        2   -1    0    0  501    0  0.00000000000E+00  0.00000000000E+00 -0.26081387115E+03  0.26081387116E+03  0.25500000920E-02 0. -1.
    10030    2    1    2    0    0  0.00000000000E+00  0.00000000000E+00  0.17016141477E+03  0.69178915708E+03  0.67053510779E+03 0.  0.
        1    1    3    3  502    0 -0.28349747774E+03 -0.92911993673E+02 -0.72741557029E+02  0.30707457172E+03  0.50400001928E-02 0. -1.
       -1    1    3    3    0  502  0.28349747774E+03  0.92911993673E+02  0.24290297180E+03  0.38471458536E+03  0.50400001928E-02 0.  1.
</event>
<event>
 5   0  0.1099980E-02  0.6985173E+03  0.7818609E-02  0.9719771E-01
        2   -1    0    0  501    0  0.00000000000E+00  0.00000000000E+00  0.46234654518E+03  0.46234654519E+03  0.25500000920E-02 0. -1.
       -2   -1    0    0    0  501  0.00000000000E+00  0.00000000000E+00 -0.26383153134E+03  0.26383153135E+03  0.25500000920E-02 0.  1.
    10030    2    1    2    0    0  0.00000000000E+00  0.00000000000E+00  0.19851501385E+03  0.72617807654E+03  0.69851727833E+03 0.  0.
        5    1    3    3  502    0 -0.33418689275E+03  0.84500308344E+02  0.15749665086E+03  0.37900985003E+03  0.46999998093E+01 0. -1.
       -5    1    3    3    0  502  0.33418689275E+03 -0.84500308344E+02  0.41018362990E+02  0.34716822650E+03  0.46999998093E+01 0.  1.
</event>
<event>
 5   0  0.6689415E-03  0.7000615E+03  0.7818609E-02  0.9717127E-01
        1   -1    0    0  501    0  0.00000000000E+00  0.00000000000E+00  0.78552151139E+03  0.78552151140E+03  0.50400001928E-02 0. -1.
       -1   -1    0    0    0  501  0.00000000000E+00  0.00000000000E+00 -0.15597475591E+03  0.15597475599E+03  0.50400001928E-02 0.  1.
    10030    2    1    2    0    0  0.00000000000E+00  0.00000000000E+00  0.62954675548E+03  0.94149626739E+03  0.70006150029E+03 0.  0.
        1    1    3    3  502    0 -0.40507306008E+02 -0.31253547008E+03  0.51962886021E+03  0.60772807594E+03  0.50400001928E-02 0.  1.
       -1    1    3    3    0  502  0.40507306008E+02  0.31253547008E+03  0.10991789527E+03  0.33376819145E+03  0.50400001928E-02 0. -1.
</event>
<event>
 5   0  0.6990118E-03  0.6975368E+03  0.7818609E-02  0.9721454E-01
        1   -1    0    0  501    0  0.00000000000E+00  0.00000000000E+00  0.48991143510E+03  0.48991143513E+03  0.50400001928E-02 0.  1.
       -1   -1    0    0    0  501  0.00000000000E+00  0.00000000000E+00 -0.24828855498E+03  0.24828855504E+03  0.50400001928E-02 0. -1.
    10030    2    1    2    0    0  0.00000000000E+00  0.00000000000E+00  0.24162288011E+03  0.73819999016E+03  0.69753681572E+03 0.  0.
        5    1    3    3  502    0  0.17262487956E+03 -0.20790936530E+03  0.35409695010E+03  0.44545751009E+03  0.46999998093E+01 0.  1.
       -5    1    3    3    0  502 -0.17262487956E+03  0.20790936530E+03 -0.11247406999E+03  0.29274248008E+03  0.46999998093E+01 0. -1.
</event>
<event>
 5   0  0.1100119E-02  0.6873876E+03  0.7818609E-02  0.9739048E-01
       -2   -1    0    0    0  501  0.00000000000E+00  0.00000000000E+00  0.93393237231E+02  0.93393237266E+02  0.25500000920E-02 0. -1.
        2   -1    0    0  501    0  0.00000000000E+00  0.00000000000E+00 -0.12648176340E+04  0.12648176340E+04  0.25500000920E-02 0.  1.
    10030    2    1    2    0    0  0.00000000000E+00  0.00000000000E+00 -0.11714243968E+04  0.13582108713E+04  0.68738755699E+03 0.  0.
        4    1    3    3  502    0  0.52913690789E+02 -0.22141669584E+01 -0.12567021922E+04  0.12578182595E+04  0.12699999809E+01 0.  1.
       -4    1    3    3    0  502 -0.52913690789E+02  0.22141669584E+01  0.85277795408E+02  0.10039261177E+03  0.12699999809E+01 0. -1.
</event>
<event>
 5   0  0.4440500E-03  0.7042322E+03  0.7818609E-02  0.9710022E-01
        3   -1    0    0  501    0  0.00000000000E+00  0.00000000000E+00  0.49749330761E+02  0.49749433285E+02  0.10100000352E+00 0.  1.
       -3   -1    0    0    0  501  0.00000000000E+00  0.00000000000E+00 -0.24922064046E+04  0.24922064066E+04  0.10100000352E+00 0. -1.
    10030    2    1    2    0    0  0.00000000000E+00  0.00000000000E+00 -0.24424570738E+04  0.25419558399E+04  0.70423215960E+03 0.  0.
        1    1    3    3  502    0 -0.30861768729E+03  0.21195420256E+01 -0.18331110727E+04  0.18589097811E+04  0.50400001928E-02 0. -1.
       -1    1    3    3    0  502  0.30861768729E+03 -0.21195420256E+01 -0.60934600115E+03  0.68304605885E+03  0.50400001928E-02 0.  1.
</event>
<event>
 5   0  0.6246998E-03  0.6991035E+03  0.7818609E-02  0.9718767E-01
       -1   -1    0    0    0  501  0.00000000000E+00  0.00000000000E+00  0.32299538666E+03  0.32299538670E+03  0.50400001928E-02 0. -1.
        1   -1    0    0  501    0  0.00000000000E+00  0.00000000000E+00 -0.37829150674E+03  0.37829150677E+03  0.50400001928E-02 0.  1.
    10030    2    1    2    0    0  0.00000000000E+00  0.00000000000E+00 -0.55296120081E+02  0.70128689347E+03  0.69910345877E+03 0.  0.
        4    1    3    3  502    0 -0.10461143766E+03  0.28791370121E+03  0.14124329211E+03  0.33732644826E+03  0.12699999809E+01 0. -1.
       -4    1    3    3    0  502  0.10461143766E+03 -0.28791370121E+03 -0.19653941219E+03  0.36396044521E+03  0.12699999809E+01 0.  1.
</event>
<event>
 5   0  0.1100119E-02  0.6987260E+03  0.7818609E-02  0.9719413E-01
       -2   -1    0    0    0  501  0.00000000000E+00  0.00000000000E+00  0.17284926911E+03  0.17284926913E+03  0.25500000920E-02 0. -1.
        2   -1    0    0  501    0  0.00000000000E+00  0.00000000000E+00 -0.70613251286E+03  0.70613251287E+03  0.25500000920E-02 0.  1.
    10030    2    1    2    0    0  0.00000000000E+00  0.00000000000E+00 -0.53328324376E+03  0.87898178200E+03  0.69872595129E+03 0.  0.
        4    1    3    3  502    0 -0.10489269457E+03 -0.32571842473E+01 -0.68583297400E+03  0.69381666725E+03  0.12699999809E+01 0.  1.
       -4    1    3    3    0  502  0.10489269457E+03  0.32571842473E+01  0.15254973024E+03  0.18516511475E+03  0.12699999809E+01 0. -1.
</event>
<event>
 5   0  0.4440500E-03  0.6975253E+03  0.7818609E-02  0.9721474E-01
       -4   -1    0    0    0  501  0.00000000000E+00  0.00000000000E+00  0.12553367708E+03  0.12554010109E+03  0.12699999809E+01 0. -1.
        4   -1    0    0  501    0  0.00000000000E+00  0.00000000000E+00 -0.96891465919E+03  0.96891549151E+03  0.12699999809E+01 0.  1.
    10030    2    1    2    0    0  0.00000000000E+00  0.00000000000E+00 -0.84338098211E+03  0.10944555926E+04  0.69752531366E+03 0.  0.
        1    1    3    3  502    0  0.28649148961E+03  0.13784069374E+03 -0.64666234298E+03  0.72058976979E+03  0.50400001928E-02 0.  1.
       -1    1    3    3    0  502 -0.28649148961E+03 -0.13784069374E+03 -0.19671863912E+03  0.37386582282E+03  0.50400001928E-02 0. -1.
</event>
<event>
 5   0  0.1109788E-02  0.6996894E+03  0.7818609E-02  0.9717763E-01
        2   -1    0    0  501    0  0.00000000000E+00  0.00000000000E+00  0.13566288918E+04  0.13566288918E+04  0.25500000920E-02 0.  1.
       -2   -1    0    0    0  501  0.00000000000E+00  0.00000000000E+00 -0.90217251023E+02  0.90217251059E+02  0.25500000920E-02 0. -1.
    10030    2    1    2    0    0  0.00000000000E+00  0.00000000000E+00  0.12664116407E+04  0.14468461428E+04  0.69968944340E+03 0.  0.
        1    1    3    3  502    0  0.11864628296E+03 -0.27341663388E+03  0.25440288361E+03  0.39186020895E+03  0.50400001928E-02 0. -1.
       -1    1    3    3    0  502 -0.11864628296E+03  0.27341663388E+03  0.10120087571E+04  0.10549859339E+04  0.50400001928E-02 0.  1.
</event>
<event>
 5   0  0.6689415E-03  0.6938648E+03  0.7818609E-02  0.9727782E-01
        1   -1    0    0  501    0  0.00000000000E+00  0.00000000000E+00  0.50855025644E+03  0.50855025647E+03  0.50400001928E-02 0. -1.
       -1   -1    0    0    0  501  0.00000000000E+00  0.00000000000E+00 -0.23667686483E+03  0.23667686489E+03  0.50400001928E-02 0.  1.
    10030    2    1    2    0    0  0.00000000000E+00  0.00000000000E+00  0.27187339161E+03  0.74522712136E+03  0.69386477165E+03 0.  0.
        1    1    3    3  502    0 -0.10718333735E+03  0.47333172957E+02 -0.21478320359E+03  0.24466409961E+03  0.50400001928E-02 0.  1.
       -1    1    3    3    0  502  0.10718333735E+03 -0.47333172957E+02  0.48665659520E+03  0.50056302175E+03  0.50400001928E-02 0. -1.
</event>
<event>
 5   0  0.6246998E-03  0.6990366E+03  0.7818609E-02  0.9718881E-01
        1   -1    0    0  501    0  0.00000000000E+00  0.00000000000E+00  0.44455316617E+03  0.44455316619E+03  0.50400001928E-02 0.  1.
       -1   -1    0    0    0  501  0.00000000000E+00  0.00000000000E+00 -0.27479963300E+03  0.27479963304E+03  0.50400001928E-02 0. -1.
    10030    2    1    2    0    0  0.00000000000E+00  0.00000000000E+00  0.16975353317E+03  0.71935279924E+03  0.69903661403E+03 0.  0.
        4    1    3    3  502    0  0.23421945877E+03  0.24824035935E+03  0.16242883110E+03  0.37797720691E+03  0.12699999809E+01 0. -1.
       -4    1    3    3    0  502 -0.23421945877E+03 -0.24824035935E+03  0.73247020664E+01  0.34137559232E+03  0.12699999809E+01 0.  1.
</event>
<event>
 5   0  0.6689415E-03  0.7010496E+03  0.7818609E-02  0.9715439E-01
        1   -1    0    0  501    0  0.00000000000E+00  0.00000000000E+00  0.11923434314E+03  0.11923434325E+03  0.50400001928E-02 0.  1.
       -1   -1    0    0    0  501  0.00000000000E+00  0.00000000000E+00 -0.10304719875E+04  0.10304719875E+04  0.50400001928E-02 0. -1.
    10030    2    1    2    0    0  0.00000000000E+00  0.00000000000E+00 -0.91123764434E+03  0.11497063307E+04  0.70104964338E+03 0.  0.
        1    1    3    3  502    0 -0.25581074315E+01  0.26503880328E+03 -0.79439288534E+02  0.27669967790E+03  0.50400001928E-02 0.  1.
       -1    1    3    3    0  502  0.25581074315E+01 -0.26503880328E+03 -0.83179835580E+03  0.87300665284E+03  0.50400001928E-02 0. -1.
</event>
<event>
 5   0  0.1119786E-02  0.7017767E+03  0.7818609E-02  0.9714199E-01
       -2   -1    0    0    0  501  0.00000000000E+00  0.00000000000E+00  0.32368547782E+03  0.32368547783E+03  0.25500000920E-02 0.  1.
        2   -1    0    0  501    0  0.00000000000E+00  0.00000000000E+00 -0.38037740195E+03  0.38037740196E+03  0.25500000920E-02 0. -1.
    10030    2    1    2    0    0  0.00000000000E+00  0.00000000000E+00 -0.56691924131E+02  0.70406287979E+03  0.70177671979E+03 0.  0.
        3    1    3    3  502    0  0.92745280093E+02 -0.17592024971E+03  0.26168576703E+03  0.32867776332E+03  0.10100000352E+00 0.  1.
       -3    1    3    3    0  502 -0.92745280093E+02  0.17592024971E+03 -0.31837769116E+03  0.37538511647E+03  0.10100000352E+00 0. -1.
</event>
<event>
 5   0  0.1079446E-02  0.6996122E+03  0.7818609E-02  0.9717896E-01
        2   -1    0    0  501    0  0.00000000000E+00  0.00000000000E+00  0.63873311375E+03  0.63873311376E+03  0.25500000920E-02 0.  1.
       -2   -1    0    0    0  501  0.00000000000E+00  0.00000000000E+00 -0.19157346387E+03  0.19157346389E+03  0.25500000920E-02 0. -1.
    10030    2    1    2    0    0  0.00000000000E+00  0.00000000000E+00  0.44715964988E+03  0.83030657764E+03  0.69961222144E+03 0.  0.
        2    1    3    3  502    0  0.30286725880E+02  0.32463917368E+03  0.73194426623E+02  0.33416358710E+03  0.25500000920E-02 0. -1.
       -2    1    3    3    0  502 -0.30286725880E+02 -0.32463917368E+03  0.37396522326E+03  0.49614299054E+03  0.25500000920E-02 0.  1.
</event>
<event>
 5   0  0.6609285E-03  0.7078953E+03  0.7818609E-02  0.9703825E-01
        1   -1    0    0  501    0  0.00000000000E+00  0.00000000000E+00  0.81426447559E+03  0.81426447560E+03  0.50400001928E-02 0.  1.
       -1   -1    0    0    0  501  0.00000000000E+00  0.00000000000E+00 -0.15385532103E+03  0.15385532111E+03  0.50400001928E-02 0. -1.
    10030    2    1    2    0    0  0.00000000000E+00  0.00000000000E+00  0.66040915456E+03  0.96811979671E+03  0.70789525310E+03 0.  0.
        2    1    3    3  502    0  0.16717851238E+03  0.60908234023E+02  0.74865640882E+03  0.76950951031E+03  0.25500000920E-02 0.  1.
       -2    1    3    3    0  502 -0.16717851238E+03 -0.60908234023E+02 -0.88247254268E+02  0.19861028641E+03  0.25500000920E-02 0. -1.
</event>
<event>
 5   0  0.1100119E-02  0.6984000E+03  0.7818609E-02  0.9719972E-01
        2   -1    0    0  501    0  0.00000000000E+00  0.00000000000E+00  0.14119900069E+04  0.14119900069E+04  0.25500000920E-02 0. -1.
       -2   -1    0    0    0  501  0.00000000000E+00  0.00000000000E+00 -0.86360838576E+02  0.86360838614E+02  0.25500000920E-02 0.  1.
    10030    2    1    2    0    0  0.00000000000E+00  0.00000000000E+00  0.13256291683E+04  0.14983508455E+04  0.69840000311E+03 0.  0.
        4    1    3    3  502    0 -0.17564017047E+03  0.92422870661E+02  0.46416279369E+02  0.20383213778E+03  0.12699999809E+01 0.  1.
       -4    1    3    3    0  502  0.17564017047E+03 -0.92422870661E+02  0.12792128890E+04  0.12945187077E+04  0.12699999809E+01 0. -1.
</event>
<event>
 5   0  0.1099980E-02  0.6993771E+03  0.7818609E-02  0.9718298E-01
       -2   -1    0    0    0  501  0.00000000000E+00  0.00000000000E+00  0.14087893812E+03  0.14087893814E+03  0.25500000920E-02 0.  1.
        2   -1    0    0  501    0  0.00000000000E+00  0.00000000000E+00 -0.86799408508E+03  0.86799408508E+03  0.25500000920E-02 0. -1.
    10030    2    1    2    0    0  0.00000000000E+00  0.00000000000E+00 -0.72711514696E+03  0.10088730232E+04  0.69937710861E+03 0.  0.
        5    1    3    3  502    0  0.24042783421E+03  0.20808793851E+03 -0.57336454906E+03  0.65564863283E+03  0.46999998093E+01 0. -1.
       -5    1    3    3    0  502 -0.24042783421E+03 -0.20808793851E+03 -0.15375059790E+03  0.35322439039E+03  0.46999998093E+01 0.  1.
</event>
<event>
 5   0  0.6246998E-03  0.7000598E+03  0.7818609E-02  0.9717130E-01
        1   -1    0    0  501    0  0.00000000000E+00  0.00000000000E+00  0.35106649387E+03  0.35106649391E+03  0.50400001928E-02 0. -1.
       -1   -1    0    0    0  501  0.00000000000E+00  0.00000000000E+00 -0.34899634416E+03  0.34899634419E+03  0.50400001928E-02 0.  1.
    10030    2    1    2    0    0  0.00000000000E+00  0.00000000000E+00  0.20701497133E+01  0.70006283810E+03  0.70005977728E+03 0.  0.
        4    1    3    3  502    0  0.50285189281E+02  0.10226913542E+03 -0.32992216033E+03  0.34905274830E+03  0.12699999809E+01 0.  1.
       -4    1    3    3    0  502 -0.50285189281E+02 -0.10226913542E+03  0.33199231004E+03  0.35101008980E+03  0.12699999809E+01 0. -1.
</event>
<event>
 5   0  0.1109788E-02  0.7063586E+03  0.7818609E-02  0.9706419E-01
       -2   -1    0    0    0  501  0.00000000000E+00  0.00000000000E+00  0.22945295776E+03  0.22945295777E+03  0.25500000920E-02 0. -1.
        2   -1    0    0  501    0  0.00000000000E+00  0.00000000000E+00 -0.54362181659E+03  0.54362181660E+03  0.25500000920E-02 0.  1.
    10030    2    1    2    0    0  0.00000000000E+00  0.00000000000E+00 -0.31416885884E+03  0.77307477437E+03  0.70635864467E+03 0.  0.
        1    1    3    3  502    0  0.25820029127E+03  0.13519091573E+03  0.61234937914E+02  0.29781486154E+03  0.50400001928E-02 0. -1.
       -1    1    3    3    0  502 -0.25820029127E+03 -0.13519091573E+03 -0.37540379675E+03  0.47525991283E+03  0.50400001928E-02 0.  1.
</event>
<event>
 5   0  0.6246998E-03  0.6999672E+03  0.7818609E-02  0.9717288E-01
        1   -1    0    0  501    0  0.00000000000E+00  0.00000000000E+00  0.11517831568E+04  0.11517831568E+04  0.50400001928E-02 0. -1.
       -1   -1    0    0    0  501  0.00000000000E+00  0.00000000000E+00 -0.10634687185E+03  0.10634687197E+03  0.50400001928E-02 0.  1.
    10030    2    1    2    0    0  0.00000000000E+00  0.00000000000E+00  0.10454362850E+04  0.12581300288E+04  0.69996724453E+03 0.  0.
        4    1    3    3  502    0 -0.78191434437E+02 -0.12146041533E+03  0.10956965282E+04  0.11051782787E+04  0.12699999809E+01 0. -1.
       -4    1    3    3    0  502  0.78191434437E+02  0.12146041533E+03 -0.50260243217E+02  0.15295175010E+03  0.12699999809E+01 0.  1.
</event>
<event>
 5   0  0.1109788E-02  0.7032664E+03  0.7818609E-02  0.9711663E-01
       -2   -1    0    0    0  501  0.00000000000E+00  0.00000000000E+00  0.99427838057E+02  0.99427838090E+02  0.25500000920E-02 0.  1.
        2   -1    0    0  501    0  0.00000000000E+00  0.00000000000E+00 -0.12435742304E+04  0.12435742304E+04  0.25500000920E-02 0. -1.
    10030    2    1    2    0    0  0.00000000000E+00  0.00000000000E+00 -0.11441463924E+04  0.13430020685E+04  0.70326637121E+03 0.  0.
        1    1    3    3  502    0  0.15027430482E+03  0.16979127938E+03 -0.58823120816E+02  0.23424688858E+03  0.50400001928E-02 0.  1.
       -1    1    3    3    0  502 -0.15027430482E+03 -0.16979127938E+03 -0.10853232715E+04  0.11087551799E+04  0.50400001928E-02 0. -1.
</event>
<event>
 5   0  0.6609285E-03  0.6846950E+03  0.7818609E-02  0.9743770E-01
       -1   -1    0    0    0  501  0.00000000000E+00  0.00000000000E+00  0.57776647643E+03  0.57776647645E+03  0.50400001928E-02 0.  1.
        1   -1    0    0  501    0  0.00000000000E+00  0.00000000000E+00 -0.20285326726E+03  0.20285326732E+03  0.50400001928E-02 0. -1.
    10030    2    1    2    0    0  0.00000000000E+00  0.00000000000E+00  0.37491320917E+03  0.78061974378E+03  0.68469501967E+03 0.  0.
        2    1    3    3  502    0 -0.12359323515E+03 -0.93947834884E+02  0.53532740953E+03  0.55738399588E+03  0.25500000920E-02 0.  1.
       -2    1    3    3    0  502  0.12359323515E+03  0.93947834884E+02 -0.16041420036E+03  0.22323574790E+03  0.25500000920E-02 0. -1.
</event>
<event>
 5   0  0.1079446E-02  0.6968255E+03  0.7818609E-02  0.9722676E-01
        2   -1    0    0  501    0  0.00000000000E+00  0.00000000000E+00  0.82320338041E+03  0.82320338041E+03  0.25500000920E-02 0.  1.
       -2   -1    0    0    0  501  0.00000000000E+00  0.00000000000E+00 -0.14746228493E+03  0.14746228495E+03  0.25500000920E-02 0. -1.
    10030    2    1    2    0    0  0.00000000000E+00  0.00000000000E+00  0.67574109548E+03  0.97066566537E+03  0.69682552035E+03 0.  0.
        2    1    3    3  502    0 -0.22630149579E+03 -0.16917483776E+03  0.53896959652E+02  0.28764105234E+03  0.25500000920E-02 0. -1.
       -2    1    3    3    0  502  0.22630149579E+03  0.16917483776E+03  0.62184413583E+03  0.68302461302E+03  0.25500000920E-02 0.  1.
</event>
<event>
 5   0  0.1079446E-02  0.7002134E+03  0.7818609E-02  0.9716867E-01
        2   -1    0    0  501    0  0.00000000000E+00  0.00000000000E+00  0.90933921321E+03  0.90933921321E+03  0.25500000920E-02 0. -1.
       -2   -1    0    0    0  501  0.00000000000E+00  0.00000000000E+00 -0.13479533523E+03  0.13479533526E+03  0.25500000920E-02 0.  1.
    10030    2    1    2    0    0  0.00000000000E+00  0.00000000000E+00  0.77454387798E+03  0.10441345485E+04  0.70021335062E+03 0.  0.
        2    1    3    3  502    0  0.75738432221E+02  0.34051687139E+03  0.43167351002E+03  0.55500456672E+03  0.25500000920E-02 0. -1.
       -2    1    3    3    0  502 -0.75738432221E+02 -0.34051687139E+03  0.34287036795E+03  0.48912998175E+03  0.25500000920E-02 0.  1.
</event>
<event>
 5   0  0.6246998E-03  0.6972043E+03  0.7818609E-02  0.9722025E-01
       -1   -1    0    0    0  501  0.00000000000E+00  0.00000000000E+00  0.65236039141E+02  0.65236039336E+02  0.50400001928E-02 0. -1.
        1   -1    0    0  501    0  0.00000000000E+00  0.00000000000E+00 -0.18628269816E+04  0.18628269816E+04  0.50400001928E-02 0.  1.
    10030    2    1    2    0    0  0.00000000000E+00  0.00000000000E+00 -0.17975909424E+04  0.19280630209E+04  0.69720428593E+03 0.  0.
        4    1    3    3  502    0  0.18885046985E+03  0.10207735681E+03 -0.13924790332E+03  0.25588254770E+03  0.12699999809E+01 0. -1.
       -4    1    3    3    0  502 -0.18885046985E+03 -0.10207735681E+03 -0.16583430391E+04  0.16721804732E+04  0.12699999809E+01 0.  1.
</event>
<event>
 5   0  0.6990118E-03  0.6990087E+03  0.7818609E-02  0.9718929E-01
        1   -1    0    0  501    0  0.00000000000E+00  0.00000000000E+00  0.32866814269E+03  0.32866814273E+03  0.50400001928E-02 0. -1.
       -1   -1    0    0    0  501  0.00000000000E+00  0.00000000000E+00 -0.37166150488E+03  0.37166150491E+03  0.50400001928E-02 0.  1.
    10030    2    1    2    0    0  0.00000000000E+00  0.00000000000E+00 -0.42993362185E+02  0.70032964764E+03  0.69900871680E+03 0.  0.
        5    1    3    3  502    0 -0.33301557080E+03  0.25189543688E+02 -0.12463451524E+03  0.35649647388E+03  0.46999998093E+01 0. -1.
       -5    1    3    3    0  502  0.33301557080E+03 -0.25189543688E+02  0.81641153055E+02  0.34383317375E+03  0.46999998093E+01 0.  1.
</event>
<event>
 5   0  0.4440500E-03  0.7002795E+03  0.7818609E-02  0.9716754E-01
        4   -1    0    0  501    0  0.00000000000E+00  0.00000000000E+00  0.32252940683E+03  0.32253190721E+03  0.12699999809E+01 0. -1.
       -4   -1    0    0    0  501  0.00000000000E+00  0.00000000000E+00 -0.38010868887E+03  0.38011081050E+03  0.12699999809E+01 0.  1.
    10030    2    1    2    0    0  0.00000000000E+00  0.00000000000E+00 -0.57579282045E+02  0.70264271771E+03  0.70027952635E+03 0.  0.
        1    1    3    3  502    0 -0.23974256562E+00  0.34885934802E+02 -0.37836278490E+03  0.37996773935E+03  0.50400001928E-02 0.  1.
       -1    1    3    3    0  502  0.23974256562E+00 -0.34885934802E+02  0.32078350286E+03  0.32267497835E+03  0.50400001928E-02 0. -1.
</event>
<event>
 5   0  0.1119786E-02  0.7020301E+03  0.7818609E-02  0.9713767E-01
        2   -1    0    0  501    0  0.00000000000E+00  0.00000000000E+00  0.75367525388E+03  0.75367525388E+03  0.25500000920E-02 0. -1.
       -2   -1    0    0    0  501  0.00000000000E+00  0.00000000000E+00 -0.16348099248E+03  0.16348099250E+03  0.25500000920E-02 0.  1.
    10030    2    1    2    0    0  0.00000000000E+00  0.00000000000E+00  0.59019426140E+03  0.91715624638E+03  0.70203013759E+03 0.  0.
        3    1    3    3  502    0  0.16907730802E+03  0.25605739541E+03  0.72393025952E+02  0.31526700785E+03  0.10100000352E+00 0.  1.
       -3    1    3    3    0  502 -0.16907730802E+03 -0.25605739541E+03  0.51780123544E+03  0.60188923853E+03  0.10100000352E+00 0. -1.
</event>
<event>
 5   0  0.4440500E-03  0.7000329E+03  0.7818609E-02  0.9717176E-01
       -4   -1    0    0    0  501  0.00000000000E+00  0.00000000000E+00  0.20554099292E+03  0.20554491643E+03  0.12699999809E+01 0.  1.
        4   -1    0    0  501    0  0.00000000000E+00  0.00000000000E+00 -0.59603385645E+03  0.59603520948E+03  0.12699999809E+01 0. -1.
    10030    2    1    2    0    0  0.00000000000E+00  0.00000000000E+00 -0.39049286353E+03  0.80158012591E+03  0.70003287193E+03 0.  0.
        3    1    3    3  502    0 -0.19286982540E+03 -0.28912423832E+03 -0.24273402616E+03  0.42392382852E+03  0.10100000352E+00 0.  1.
       -3    1    3    3    0  502  0.19286982540E+03  0.28912423832E+03 -0.14775883737E+03  0.37765629739E+03  0.10100000352E+00 0. -1.
</event>
<event>
 5   0  0.6689415E-03  0.7019636E+03  0.7818609E-02  0.9713880E-01
        1   -1    0    0  501    0  0.00000000000E+00  0.00000000000E+00  0.12377033889E+03  0.12377033900E+03  0.50400001928E-02 0.  1.
       -1   -1    0    0    0  501  0.00000000000E+00  0.00000000000E+00 -0.99529683080E+03  0.99529683082E+03  0.50400001928E-02 0. -1.
    10030    2    1    2    0    0  0.00000000000E+00  0.00000000000E+00 -0.87152649191E+03  0.11190671698E+04  0.70196360622E+03 0.  0.
        1    1    3    3  502    0 -0.93185706839E+02  0.27350600255E+03 -0.11812559142E+03  0.31215823674E+03  0.50400001928E-02 0.  1.
       -1    1    3    3    0  502  0.93185706839E+02 -0.27350600255E+03 -0.75340090049E+03  0.80690893307E+03  0.50400001928E-02 0. -1.
</event>
<event>
 5   0  0.1109788E-02  0.7000294E+03  0.7818609E-02  0.9717182E-01
       -2   -1    0    0    0  501  0.00000000000E+00  0.00000000000E+00  0.99774066865E+03  0.99774066866E+03  0.25500000920E-02 0.  1.
        2   -1    0    0  501    0  0.00000000000E+00  0.00000000000E+00 -0.12278769636E+03  0.12278769638E+03  0.25500000920E-02 0. -1.
    10030    2    1    2    0    0  0.00000000000E+00  0.00000000000E+00  0.87495297230E+03  0.11205283650E+04  0.70002936590E+03 0.  0.
        1    1    3    3  502    0 -0.26829485181E+03  0.22256435517E+03  0.38702920635E+03  0.52087294640E+03  0.50400001928E-02 0. -1.
       -1    1    3    3    0  502  0.26829485181E+03 -0.22256435517E+03  0.48792376595E+03  0.59965541864E+03  0.50400001928E-02 0.  1.
</event>
<event>
 5   0  0.6990118E-03  0.6996777E+03  0.7818609E-02  0.9717784E-01
        1   -1    0    0  501    0  0.00000000000E+00  0.00000000000E+00  0.11682613965E+04  0.11682613965E+04  0.50400001928E-02 0.  1.
       -1   -1    0    0    0  501  0.00000000000E+00  0.00000000000E+00 -0.10476013150E+03  0.10476013162E+03  0.50400001928E-02 0. -1.
    10030    2    1    2    0    0  0.00000000000E+00  0.00000000000E+00  0.10635012650E+04  0.12730215282E+04  0.69967769041E+03 0.  0.
        5    1    3    3  502    0 -0.19448951294E+03  0.27158043304E+03  0.72068372578E+03  0.79434830198E+03  0.46999998093E+01 0. -1.
       -5    1    3    3    0  502  0.19448951294E+03 -0.27158043304E+03  0.34281753925E+03  0.47867322619E+03  0.46999998093E+01 0.  1.
</event>
<event>
 5   0  0.6990118E-03  0.6989865E+03  0.7818609E-02  0.9718967E-01
       -1   -1    0    0    0  501  0.00000000000E+00  0.00000000000E+00  0.48264868563E+03  0.48264868566E+03  0.50400001928E-02 0. -1.
        1   -1    0    0  501    0  0.00000000000E+00  0.00000000000E+00 -0.25307339260E+03  0.25307339265E+03  0.50400001928E-02 0.  1.
    10030    2    1    2    0    0  0.00000000000E+00  0.00000000000E+00  0.22957529303E+03  0.73572207831E+03  0.69898652444E+03 0.  0.
        5    1    3    3  502    0 -0.27489622387E+03 -0.19884977872E+03  0.20294054469E+03  0.39536833848E+03  0.46999998093E+01 0.  1.
       -5    1    3    3    0  502  0.27489622387E+03  0.19884977872E+03  0.26634748336E+02  0.34035373983E+03  0.46999998093E+01 0. -1.
</event>
<event>
 5   0  0.1079446E-02  0.7015285E+03  0.7818609E-02  0.9714622E-01
       -2   -1    0    0    0  501  0.00000000000E+00  0.00000000000E+00  0.19086569336E+03  0.19086569337E+03  0.25500000920E-02 0. -1.
        2   -1    0    0  501    0  0.00000000000E+00  0.00000000000E+00 -0.64461842872E+03  0.64461842872E+03  0.25500000920E-02 0.  1.
    10030    2    1    2    0    0  0.00000000000E+00  0.00000000000E+00 -0.45375273536E+03  0.83548412210E+03  0.70152845518E+03 0.  0.
        2    1    3    3  502    0  0.61349868186E+02 -0.29103584296E+03 -0.54436374735E+01  0.29748159843E+03  0.25500000920E-02 0.  1.
       -2    1    3    3    0  502 -0.61349868186E+02  0.29103584296E+03 -0.44830909789E+03  0.53800252366E+03  0.25500000920E-02 0. -1.
</event>
<event>
 5   0  0.1079446E-02  0.7019793E+03  0.7818609E-02  0.9713853E-01
        2   -1    0    0  501    0  0.00000000000E+00  0.00000000000E+00  0.77115646964E+03  0.77115646965E+03  0.25500000920E-02 0.  1.
       -2   -1    0    0    0  501  0.00000000000E+00  0.00000000000E+00 -0.15975192695E+03  0.15975192697E+03  0.25500000920E-02 0. -1.
    10030    2    1    2    0    0  0.00000000000E+00  0.00000000000E+00  0.61140454270E+03  0.93090839661E+03  0.70197929318E+03 0.  0.
        2    1    3    3  502    0  0.18993546655E+03 -0.13553867595E+03 -0.42002905902E+02  0.23708744851E+03  0.25500000920E-02 0. -1.
       -2    1    3    3    0  502 -0.18993546655E+03  0.13553867595E+03  0.65340744860E+03  0.69382094810E+03  0.25500000920E-02 0.  1.
</event>
<event>
 5   0  0.6689415E-03  0.6999702E+03  0.7818609E-02  0.9717283E-01
        1   -1    0    0  501    0  0.00000000000E+00  0.00000000000E+00  0.70680798027E+03  0.70680798029E+03  0.50400001928E-02 0.  1.
       -1   -1    0    0    0  501  0.00000000000E+00  0.00000000000E+00 -0.17329963917E+03  0.17329963925E+03  0.50400001928E-02 0. -1.
    10030    2    1    2    0    0  0.00000000000E+00  0.00000000000E+00  0.53350834110E+03  0.88010761954E+03  0.69997019362E+03 0.  0.
        1    1    3    3  502    0  0.20792847362E+03  0.98793117861E+02  0.59821617787E+03  0.64098122107E+03  0.50400001928E-02 0.  1.
       -1    1    3    3    0  502 -0.20792847362E+03 -0.98793117861E+02 -0.64707836768E+02  0.23912639847E+03  0.50400001928E-02 0. -1.
</event>
<event>
 5   0  0.1099980E-02  0.7068535E+03  0.7818609E-02  0.9705583E-01
       -2   -1    0    0    0  501  0.00000000000E+00  0.00000000000E+00  0.67232923545E+02  0.67232923593E+02  0.25500000920E-02 0.  1.
        2   -1    0    0  501    0  0.00000000000E+00  0.00000000000E+00 -0.18578767219E+04  0.18578767219E+04  0.25500000920E-02 0. -1.
    10030    2    1    2    0    0  0.00000000000E+00  0.00000000000E+00 -0.17906437984E+04  0.19251096455E+04  0.70685354537E+03 0.  0.
        5    1    3    3  502    0 -0.25773067901E+03 -0.11190766021E+03 -0.14790644690E+04  0.15055239024E+04  0.46999998093E+01 0. -1.
       -5    1    3    3    0  502  0.25773067901E+03  0.11190766021E+03 -0.31157932940E+03  0.41958574311E+03  0.46999998093E+01 0.  1.
</event>
<event>
 5   0  0.6246998E-03  0.6984375E+03  0.7818609E-02  0.9719908E-01
        1   -1    0    0  501    0  0.00000000000E+00  0.00000000000E+00  0.21262653225E+03  0.21262653231E+03  0.50400001928E-02 0.  1.
       -1   -1    0    0    0  501  0.00000000000E+00  0.00000000000E+00 -0.57355845700E+03  0.57355845702E+03  0.50400001928E-02 0. -1.
    10030    2    1    2    0    0  0.00000000000E+00  0.00000000000E+00 -0.36093192474E+03  0.78618498933E+03  0.69843752989E+03 0.  0.
        4    1    3    3  502    0 -0.47107389637E+01  0.98596698406E+02 -0.55752583404E+03  0.56619799410E+03  0.12699999809E+01 0. -1.
       -4    1    3    3    0  502  0.47107389637E+01 -0.98596698406E+02  0.19659390930E+03  0.21998699523E+03  0.12699999809E+01 0.  1.
</event>
<event>
 5   0  0.1079446E-02  0.6990533E+03  0.7818609E-02  0.9718853E-01
       -2   -1    0    0    0  501  0.00000000000E+00  0.00000000000E+00  0.83152522988E+02  0.83152523027E+02  0.25500000920E-02 0. -1.
        2   -1    0    0  501    0  0.00000000000E+00  0.00000000000E+00 -0.14692143944E+04  0.14692143944E+04  0.25500000920E-02 0.  1.
    10030    2    1    2    0    0  0.00000000000E+00  0.00000000000E+00 -0.13860618714E+04  0.15523669174E+04  0.69905331338E+03 0.  0.
        2    1    3    3  502    0 -0.13271042266E+03  0.26222955163E+03 -0.27290447571E+03  0.40106514046E+03  0.25500000920E-02 0. -1.
       -2    1    3    3    0  502  0.13271042266E+03 -0.26222955163E+03 -0.11131573957E+04  0.11513017770E+04  0.25500000920E-02 0.  1.
</event>
<event>
 5   0  0.6785252E-03  0.7004359E+03  0.7818609E-02  0.9716487E-01
        1   -1    0    0  501    0  0.00000000000E+00  0.00000000000E+00  0.12510584681E+04  0.12510584681E+04  0.50400001928E-02 0.  1.
       -1   -1    0    0    0  501  0.00000000000E+00  0.00000000000E+00 -0.98039073878E+02  0.98039074007E+02  0.50400001928E-02 0. -1.
    10030    2    1    2    0    0  0.00000000000E+00  0.00000000000E+00  0.11530193942E+04  0.13490975421E+04  0.70043590335E+03 0.  0.
        3    1    3    3  502    0  0.40366323187E+02 -0.23053036491E+03  0.10783232603E+04  0.11034286352E+04  0.10100000352E+00 0.  1.
       -3    1    3    3    0  502 -0.40366323187E+02  0.23053036491E+03  0.74696133975E+02  0.24566890692E+03  0.10100000352E+00 0. -1.
</event>
<event>
 5   0  0.6990118E-03  0.6845690E+03  0.7818609E-02  0.9743991E-01
        1   -1    0    0  501    0  0.00000000000E+00  0.00000000000E+00  0.31222531476E+03  0.31222531480E+03  0.50400001928E-02 0.  1.
       -1   -1    0    0    0  501  0.00000000000E+00  0.00000000000E+00 -0.37523763579E+03  0.37523763583E+03  0.50400001928E-02 0. -1.
    10030    2    1    2    0    0  0.00000000000E+00  0.00000000000E+00 -0.63012321032E+02  0.68746295063E+03  0.68456902931E+03 0.  0.
        5    1    3    3  502    0  0.87177130298E+02 -0.30424582651E+03 -0.16233052479E+03  0.35572273511E+03  0.46999998093E+01 0.  1.
       -5    1    3    3    0  502 -0.87177130298E+02  0.30424582651E+03  0.99318203760E+02  0.33174021552E+03  0.46999998093E+01 0. -1.
</event>
<event>
 5   0  0.4440500E-03  0.6976010E+03  0.7818609E-02  0.9721344E-01
       -4   -1    0    0    0  501  0.00000000000E+00  0.00000000000E+00  0.32379782752E+03  0.32380031811E+03  0.12699999809E+01 0.  1.
        4   -1    0    0  501    0  0.00000000000E+00  0.00000000000E+00 -0.37572878237E+03  0.37573092872E+03  0.12699999809E+01 0. -1.
    10030    2    1    2    0    0  0.00000000000E+00  0.00000000000E+00 -0.51930954847E+02  0.69953124683E+03  0.69760098998E+03 0.  0.
        3    1    3    3  502    0 -0.34365838416E+03  0.31499292485E+02  0.24854974120E+02  0.34599287618E+03  0.10100000352E+00 0.  1.
       -3    1    3    3    0  502  0.34365838416E+03 -0.31499292485E+02 -0.76785928967E+02  0.35353837064E+03  0.10100000352E+00 0. -1.
</event>
<event>
 5   0  0.6785252E-03  0.7002742E+03  0.7818609E-02  0.9716763E-01
        1   -1    0    0  501    0  0.00000000000E+00  0.00000000000E+00  0.60782146765E+03  0.60782146767E+03  0.50400001928E-02 0.  1.
       -1   -1    0    0    0  501  0.00000000000E+00  0.00000000000E+00 -0.20169735915E+03  0.20169735921E+03  0.50400001928E-02 0. -1.
    10030    2    1    2    0    0  0.00000000000E+00  0.00000000000E+00  0.40612410850E+03  0.80951882688E+03  0.70027418885E+03 0.  0.
        3    1    3    3  502    0  0.13577897995E+03 -0.28478784486E+03  0.27532550122E+02  0.31669875196E+03  0.10100000352E+00 0. -1.
       -3    1    3    3    0  502 -0.13577897995E+03  0.28478784486E+03  0.37859155838E+03  0.49282007492E+03  0.10100000352E+00 0.  1.
</event>
<event>
 5   0  0.1079446E-02  0.6987558E+03  0.7818609E-02  0.9719362E-01
       -2   -1    0    0    0  501  0.00000000000E+00  0.00000000000E+00  0.13415803268E+03  0.13415803270E+03  0.25500000920E-02 0. -1.
        2   -1    0    0  501    0  0.00000000000E+00  0.00000000000E+00 -0.90985928257E+03  0.90985928257E+03  0.25500000920E-02 0.  1.
    10030    2    1    2    0    0  0.00000000000E+00  0.00000000000E+00 -0.77570124989E+03  0.10440173153E+04  0.69875584112E+03 0.  0.
        2    1    3    3  502    0  0.26335629343E+03 -0.14028672899E+03 -0.65938422065E+03  0.72375717894E+03  0.25500000920E-02 0.  1.
       -2    1    3    3    0  502 -0.26335629343E+03  0.14028672899E+03 -0.11631702924E+03  0.32026013633E+03  0.25500000920E-02 0. -1.
</event>
<event>
 5   0  0.1079446E-02  0.7137883E+03  0.7818609E-02  0.9693939E-01
        2   -1    0    0  501    0  0.00000000000E+00  0.00000000000E+00  0.94090845695E+03  0.94090845696E+03  0.25500000920E-02 0. -1.
       -2   -1    0    0    0  501  0.00000000000E+00  0.00000000000E+00 -0.13537281950E+03  0.13537281952E+03  0.25500000920E-02 0.  1.
    10030    2    1    2    0    0  0.00000000000E+00  0.00000000000E+00  0.80553563746E+03  0.10762812765E+04  0.71378828996E+03 0.  0.
        2    1    3    3  502    0  0.20435088778E+03 -0.19052534493E+03  0.67923811199E+02  0.28752884469E+03  0.25500000920E-02 0.  1.
       -2    1    3    3    0  502 -0.20435088778E+03  0.19052534493E+03  0.73761182626E+03  0.78875243178E+03  0.25500000920E-02 0. -1.
</event>
<event>
 5   0  0.6609285E-03  0.7003648E+03  0.7818609E-02  0.9716608E-01
        1   -1    0    0  501    0  0.00000000000E+00  0.00000000000E+00  0.17707550313E+03  0.17707550320E+03  0.50400001928E-02 0.  1.
       -1   -1    0    0    0  501  0.00000000000E+00  0.00000000000E+00 -0.69251659336E+03  0.69251659338E+03  0.50400001928E-02 0. -1.
    10030    2    1    2    0    0  0.00000000000E+00  0.00000000000E+00 -0.51544109023E+03  0.86959209657E+03  0.70036483130E+03 0.  0.
        2    1    3    3  502    0  0.25009396067E+03 -0.10823991032E+03 -0.53077936406E+03  0.59664864089E+03  0.25500000920E-02 0.  1.
       -2    1    3    3    0  502 -0.25009396067E+03  0.10823991032E+03  0.15338273831E+02  0.27294345569E+03  0.25500000920E-02 0. -1.
</event>
<event>
 5   0  0.1100119E-02  0.7101960E+03  0.7818609E-02  0.9699953E-01
       -2   -1    0    0    0  501  0.00000000000E+00  0.00000000000E+00  0.29894134613E+03  0.29894134614E+03  0.25500000920E-02 0. -1.
        2   -1    0    0  501    0  0.00000000000E+00  0.00000000000E+00 -0.42180377926E+03  0.42180377927E+03  0.25500000920E-02 0.  1.
    10030    2    1    2    0    0  0.00000000000E+00  0.00000000000E+00 -0.12286243313E+03  0.72074512540E+03  0.71019599993E+03 0.  0.
        4    1    3    3  502    0 -0.13289564134E+02  0.25798919345E+03  0.18582254249E+03  0.31822423957E+03  0.12699999809E+01 0. -1.
       -4    1    3    3    0  502  0.13289564134E+02 -0.25798919345E+03 -0.30868497562E+03  0.40252088583E+03  0.12699999809E+01 0.  1.
</event>
<event>
 5   0  0.6990118E-03  0.7013694E+03  0.7818609E-02  0.9714893E-01
        1   -1    0    0  501    0  0.00000000000E+00  0.00000000000E+00  0.55552532328E+03  0.55552532330E+03  0.50400001928E-02 0. -1.
       -1   -1    0    0    0  501  0.00000000000E+00  0.00000000000E+00 -0.22137560051E+03  0.22137560056E+03  0.50400001928E-02 0.  1.
    10030    2    1    2    0    0  0.00000000000E+00  0.00000000000E+00  0.33414972277E+03  0.77690092386E+03  0.70136938076E+03 0.  0.
        5    1    3    3  502    0  0.27491643930E+03 -0.16386215416E+03  0.32577968370E+03  0.45671035293E+03  0.46999998093E+01 0. -1.
       -5    1    3    3    0  502 -0.27491643930E+03  0.16386215416E+03  0.83700390699E+01  0.32019057093E+03  0.46999998093E+01 0.  1.
</event>
<event>
 5   0  0.6990118E-03  0.7126696E+03  0.7818609E-02  0.9695808E-01
        1   -1    0    0  501    0  0.00000000000E+00  0.00000000000E+00  0.35516573172E+03  0.35516573176E+03  0.50400001928E-02 0.  1.
       -1   -1    0    0    0  501  0.00000000000E+00  0.00000000000E+00 -0.35750770680E+03  0.35750770683E+03  0.50400001928E-02 0. -1.
    10030    2    1    2    0    0  0.00000000000E+00  0.00000000000E+00 -0.23419750751E+01  0.71267343859E+03  0.71266959050E+03 0.  0.
        5    1    3    3  502    0  0.61245530336E+02  0.31622381393E+03 -0.15350001106E+03  0.35683730029E+03  0.46999998093E+01 0. -1.
       -5    1    3    3    0  502 -0.61245530336E+02 -0.31622381393E+03  0.15115803599E+03  0.35583613830E+03  0.46999998093E+01 0.  1.
</event>
<event>
 5   0  0.6785252E-03  0.7020675E+03  0.7818609E-02  0.9713703E-01
        1   -1    0    0  501    0  0.00000000000E+00  0.00000000000E+00  0.38656011181E+03  0.38656011184E+03  0.50400001928E-02 0.  1.
       -1   -1    0    0    0  501  0.00000000000E+00  0.00000000000E+00 -0.31877241190E+03  0.31877241194E+03  0.50400001928E-02 0. -1.
    10030    2    1    2    0    0  0.00000000000E+00  0.00000000000E+00  0.67787699903E+02  0.70533252378E+03  0.70206751587E+03 0.  0.
        3    1    3    3  502    0  0.34465206439E+02 -0.33790031254E+03  0.12296402557E+03  0.36122656803E+03  0.10100000352E+00 0.  1.
       -3    1    3    3    0  502 -0.34465206439E+02  0.33790031254E+03 -0.55176325664E+02  0.34410595575E+03  0.10100000352E+00 0. -1.
</event>
<event>
 5   0  0.1079446E-02  0.7001579E+03  0.7818609E-02  0.9716962E-01
       -2   -1    0    0    0  501  0.00000000000E+00  0.00000000000E+00  0.17304870842E+03  0.17304870844E+03  0.25500000920E-02 0. -1.
        2   -1    0    0  501    0  0.00000000000E+00  0.00000000000E+00 -0.70821256699E+03  0.70821256699E+03  0.25500000920E-02 0.  1.
    10030    2    1    2    0    0  0.00000000000E+00  0.00000000000E+00 -0.53516385857E+03  0.88126127543E+03  0.70015789651E+03 0.  0.
        2    1    3    3  502    0  0.35735242072E+02 -0.14755786330E+03 -0.66461896098E+03  0.68173946185E+03  0.25500000920E-02 0.  1.
       -2    1    3    3    0  502 -0.35735242072E+02  0.14755786330E+03  0.12945510241E+03  0.19952181358E+03  0.25500000920E-02 0. -1.
</event>
<event>
 5   0  0.6246998E-03  0.6996685E+03  0.7818609E-02  0.9717799E-01
        1   -1    0    0  501    0  0.00000000000E+00  0.00000000000E+00  0.44899183554E+03  0.44899183557E+03  0.50400001928E-02 0.  1.
       -1   -1    0    0    0  501  0.00000000000E+00  0.00000000000E+00 -0.27257508528E+03  0.27257508533E+03  0.50400001928E-02 0. -1.
    10030    2    1    2    0    0  0.00000000000E+00  0.00000000000E+00  0.17641675026E+03  0.72156692090E+03  0.69966845832E+03 0.  0.
        4    1    3    3  502    0  0.49200018997E+02 -0.32672308376E+03  0.20675727310E+03  0.38976762078E+03  0.12699999809E+01 0.  1.
       -4    1    3    3    0  502 -0.49200018997E+02  0.32672308376E+03 -0.30340522844E+02  0.33179930012E+03  0.12699999809E+01 0. -1.
</event>
<event>
 5   0  0.1079446E-02  0.7001810E+03  0.7818609E-02  0.9716923E-01
       -2   -1    0    0    0  501  0.00000000000E+00  0.00000000000E+00  0.36859877116E+03  0.36859877116E+03  0.25500000920E-02 0. -1.
        2   -1    0    0  501    0  0.00000000000E+00  0.00000000000E+00 -0.33251155809E+03  0.33251155810E+03  0.25500000920E-02 0.  1.
    10030    2    1    2    0    0  0.00000000000E+00  0.00000000000E+00  0.36087213062E+02  0.70111032927E+03  0.70018098150E+03 0.  0.
        2    1    3    3  502    0  0.14170669535E+03 -0.31590793788E+03 -0.33839633626E+02  0.34788465550E+03  0.25500000920E-02 0. -1.
       -2    1    3    3    0  502 -0.14170669535E+03  0.31590793788E+03  0.69926846688E+02  0.35322567377E+03  0.25500000920E-02 0.  1.
</event>
<event>
 5   0  0.1079446E-02  0.6976868E+03  0.7818609E-02  0.9721196E-01
       -2   -1    0    0    0  501  0.00000000000E+00  0.00000000000E+00  0.55428552990E+02  0.55428553048E+02  0.25500000920E-02 0. -1.
        2   -1    0    0  501    0  0.00000000000E+00  0.00000000000E+00 -0.21954700860E+04  0.21954700860E+04  0.25500000920E-02 0.  1.
    10030    2    1    2    0    0  0.00000000000E+00  0.00000000000E+00 -0.21400415330E+04  0.22508986391E+04  0.69768683539E+03 0.  0.
        2    1    3    3  502    0 -0.12042284178E+03 -0.20943037948E+03 -0.18819098000E+04  0.18973526926E+04  0.25500000920E-02 0.  1.
       -2    1    3    3    0  502  0.12042284178E+03  0.20943037948E+03 -0.25813173300E+03  0.35354594646E+03  0.25500000920E-02 0. -1.
</event>
<event>
 5   0  0.6785252E-03  0.6998420E+03  0.7818609E-02  0.9717502E-01
       -1   -1    0    0    0  501  0.00000000000E+00  0.00000000000E+00  0.60510204595E+02  0.60510204805E+02  0.50400001928E-02 0. -1.
        1   -1    0    0  501    0  0.00000000000E+00  0.00000000000E+00 -0.20235383802E+04  0.20235383802E+04  0.50400001928E-02 0.  1.
    10030    2    1    2    0    0  0.00000000000E+00  0.00000000000E+00 -0.19630281756E+04  0.20840485850E+04  0.69984204394E+03 0.  0.
        3    1    3    3  502    0  0.80838260238E+02 -0.89108169597E+02 -0.30191155582E+01  0.12035038624E+03  0.10100000352E+00 0. -1.
       -3    1    3    3    0  502 -0.80838260238E+02  0.89108169597E+02 -0.19600090600E+04  0.19636981987E+04  0.10100000352E+00 0.  1.
</event>
<event>
 5   0  0.6689415E-03  0.7004906E+03  0.7818609E-02  0.9716394E-01
       -1   -1    0    0    0  501  0.00000000000E+00  0.00000000000E+00  0.29721366538E+03  0.29721366542E+03  0.50400001928E-02 0.  1.
        1   -1    0    0  501    0  0.00000000000E+00  0.00000000000E+00 -0.41273930986E+03  0.41273930990E+03  0.50400001928E-02 0. -1.
    10030    2    1    2    0    0  0.00000000000E+00  0.00000000000E+00 -0.11552564449E+03  0.70995297531E+03  0.70049057997E+03 0.  0.
        1    1    3    3  502    0 -0.34946285294E+03  0.23351032139E+02 -0.59268434016E+02  0.35522148525E+03  0.50400001928E-02 0. -1.
       -1    1    3    3    0  502  0.34946285294E+03 -0.23351032139E+02 -0.56257210471E+02  0.35473149006E+03  0.50400001928E-02 0.  1.
</event>
<event>
 5   0  0.6785252E-03  0.6736738E+03  0.7818609E-02  0.9763344E-01
       -1   -1    0    0    0  501  0.00000000000E+00  0.00000000000E+00  0.53373117300E+02  0.53373117538E+02  0.50400001928E-02 0.  1.
        1   -1    0    0  501    0  0.00000000000E+00  0.00000000000E+00 -0.21257723228E+04  0.21257723228E+04  0.50400001928E-02 0. -1.
    10030    2    1    2    0    0  0.00000000000E+00  0.00000000000E+00 -0.20723992055E+04  0.21791454404E+04  0.67367379585E+03 0.  0.
        3    1    3    3  502    0 -0.10751861994E+03 -0.10363852807E+03 -0.20128377600E+04  0.20183699008E+04  0.10100000352E+00 0. -1.
       -3    1    3    3    0  502  0.10751861994E+03  0.10363852807E+03 -0.59561445537E+02  0.16077553959E+03  0.10100000352E+00 0.  1.
</event>
<event>
 5   0  0.6990118E-03  0.7022072E+03  0.7818609E-02  0.9713465E-01
       -1   -1    0    0    0  501  0.00000000000E+00  0.00000000000E+00  0.13202473746E+03  0.13202473756E+03  0.50400001928E-02 0.  1.
        1   -1    0    0  501    0  0.00000000000E+00  0.00000000000E+00 -0.93371693739E+03  0.93371693740E+03  0.50400001928E-02 0. -1.
    10030    2    1    2    0    0  0.00000000000E+00  0.00000000000E+00 -0.80169219993E+03  0.10657416750E+04  0.70220718760E+03 0.  0.
        5    1    3    3  502    0 -0.36225266630E+02 -0.54649815183E+02 -0.92429460122E+03  0.92662909089E+03  0.46999998093E+01 0. -1.
       -5    1    3    3    0  502  0.36225266630E+02  0.54649815183E+02  0.12260240130E+03  0.13911258406E+03  0.46999998093E+01 0.  1.
</event>
<event>
 5   0  0.6246998E-03  0.6986618E+03  0.7818609E-02  0.9719524E-01
       -1   -1    0    0    0  501  0.00000000000E+00  0.00000000000E+00  0.38112222563E+03  0.38112222566E+03  0.50400001928E-02 0.  1.
        1   -1    0    0  501    0  0.00000000000E+00  0.00000000000E+00 -0.32019141086E+03  0.32019141090E+03  0.50400001928E-02 0. -1.
    10030    2    1    2    0    0  0.00000000000E+00  0.00000000000E+00  0.60930814769E+02  0.70131363656E+03  0.69866175839E+03 0.  0.
        4    1    3    3  502    0 -0.20688270259E+03 -0.24877606670E+03 -0.10171762066E+03  0.33917262750E+03  0.12699999809E+01 0. -1.
       -4    1    3    3    0  502  0.20688270259E+03  0.24877606670E+03  0.16264843543E+03  0.36214100906E+03  0.12699999809E+01 0.  1.
</event>
<event>
 5   0  0.6246998E-03  0.7001730E+03  0.7818609E-02  0.9716936E-01
       -1   -1    0    0    0  501  0.00000000000E+00  0.00000000000E+00  0.26972962874E+03  0.26972962879E+03  0.50400001928E-02 0.  1.
        1   -1    0    0  501    0  0.00000000000E+00  0.00000000000E+00 -0.45438294371E+03  0.45438294374E+03  0.50400001928E-02 0. -1.
    10030    2    1    2    0    0  0.00000000000E+00  0.00000000000E+00 -0.18465331497E+03  0.72411257253E+03  0.70017295789E+03 0.  0.
        4    1    3    3  502    0  0.17643573535E+03 -0.98446662228E+02 -0.38799970495E+03  0.43745479533E+03  0.12699999809E+01 0. -1.
       -4    1    3    3    0  502 -0.17643573535E+03  0.98446662228E+02  0.20334638998E+03  0.28665777720E+03  0.12699999809E+01 0.  1.
</event>
<event>
 5   0  0.1109788E-02  0.6994533E+03  0.7818609E-02  0.9718168E-01
       -2   -1    0    0    0  501  0.00000000000E+00  0.00000000000E+00  0.72864676900E+02  0.72864676944E+02  0.25500000920E-02 0.  1.
        2   -1    0    0  501    0  0.00000000000E+00  0.00000000000E+00 -0.16785737038E+04  0.16785737038E+04  0.25500000920E-02 0. -1.
    10030    2    1    2    0    0  0.00000000000E+00  0.00000000000E+00 -0.16057090269E+04  0.17514383807E+04  0.69945330256E+03 0.  0.
        1    1    3    3  502    0 -0.23563777202E+03 -0.12552189174E+03 -0.23721509240E+03  0.35714409556E+03  0.50400001928E-02 0.  1.
       -1    1    3    3    0  502  0.23563777202E+03  0.12552189174E+03 -0.13684939344E+04  0.13942942851E+04  0.50400001928E-02 0. -1.
</event>
<event>
 5   0  0.1119786E-02  0.7007083E+03  0.7818609E-02  0.9716022E-01
        2   -1    0    0  501    0  0.00000000000E+00  0.00000000000E+00  0.19682701295E+04  0.19682701295E+04  0.25500000920E-02 0.  1.
       -2   -1    0    0    0  501  0.00000000000E+00  0.00000000000E+00 -0.62363409982E+02  0.62363410034E+02  0.25500000920E-02 0. -1.
    10030    2    1    2    0    0  0.00000000000E+00  0.00000000000E+00  0.19059067196E+04  0.20306335396E+04  0.70070831906E+03 0.  0.
        3    1    3    3  502    0 -0.30522289543E+03  0.16621123822E+03  0.10812794134E+04  0.11357607018E+04  0.10100000352E+00 0.  1.
       -3    1    3    3    0  502  0.30522289543E+03 -0.16621123822E+03  0.82462730614E+03  0.89487283781E+03  0.10100000352E+00 0. -1.
</event>
<event>
 5   0  0.6990118E-03  0.7048505E+03  0.7818609E-02  0.9708973E-01
       -1   -1    0    0    0  501  0.00000000000E+00  0.00000000000E+00  0.15461354578E+03  0.15461354586E+03  0.50400001928E-02 0.  1.
        1   -1    0    0  501    0  0.00000000000E+00  0.00000000000E+00 -0.80331610999E+03  0.80331611000E+03  0.50400001928E-02 0. -1.
    10030    2    1    2    0    0  0.00000000000E+00  0.00000000000E+00 -0.64870256421E+03  0.95792965587E+03  0.70485048683E+03 0.  0.
        5    1    3    3  502    0  0.51403478747E+02  0.94093295661E+02 -0.78056760314E+03  0.78791099687E+03  0.46999998093E+01 0. -1.
       -5    1    3    3    0  502 -0.51403478747E+02 -0.94093295661E+02  0.13186503894E+03  0.17001865900E+03  0.46999998093E+01 0.  1.
</event>
<event>
 5   0  0.1079446E-02  0.7012405E+03  0.7818609E-02  0.9715113E-01
        2   -1    0    0  501    0  0.00000000000E+00  0.00000000000E+00  0.73259280860E+03  0.73259280861E+03  0.25500000920E-02 0.  1.
       -2   -1    0    0    0  501  0.00000000000E+00  0.00000000000E+00 -0.16780747497E+03  0.16780747499E+03  0.25500000920E-02 0. -1.
    10030    2    1    2    0    0  0.00000000000E+00  0.00000000000E+00  0.56478533363E+03  0.90040028360E+03  0.70124047061E+03 0.  0.
        2    1    3    3  502    0 -0.19731752656E+03  0.21492194096E+02 -0.88725147460E+02  0.21741267786E+03  0.25500000920E-02 0. -1.
       -2    1    3    3    0  502  0.19731752656E+03 -0.21492194096E+02  0.65351048109E+03  0.68298760574E+03  0.25500000920E-02 0.  1.
</event>
<event>
 5   0  0.1100119E-02  0.6975477E+03  0.7818609E-02  0.9721435E-01
       -2   -1    0    0    0  501  0.00000000000E+00  0.00000000000E+00  0.68127971587E+03  0.68127971588E+03  0.25500000920E-02 0.  1.
        2   -1    0    0  501    0  0.00000000000E+00  0.00000000000E+00 -0.17855105985E+03  0.17855105986E+03  0.25500000920E-02 0. -1.
    10030    2    1    2    0    0  0.00000000000E+00  0.00000000000E+00  0.50272865603E+03  0.85983077574E+03  0.69754774842E+03 0.  0.
        4    1    3    3  502    0  0.22533678887E+03  0.86927901628E+02  0.56151302926E+03  0.61125413981E+03  0.12699999809E+01 0.  1.
       -4    1    3    3    0  502 -0.22533678887E+03 -0.86927901628E+02 -0.58784373234E+02  0.24857663594E+03  0.12699999809E+01 0. -1.
</event>
<event>
 5   0  0.6246998E-03  0.6995784E+03  0.7818609E-02  0.9717953E-01
       -1   -1    0    0    0  501  0.00000000000E+00  0.00000000000E+00  0.91279788069E+02  0.91279788209E+02  0.50400001928E-02 0. -1.
        1   -1    0    0  501    0  0.00000000000E+00  0.00000000000E+00 -0.13404117516E+04  0.13404117516E+04  0.50400001928E-02 0.  1.
    10030    2    1    2    0    0  0.00000000000E+00  0.00000000000E+00 -0.12491319635E+04  0.14316915398E+04  0.69957844654E+03 0.  0.
        4    1    3    3  502    0  0.30577514533E+03 -0.36994405694E+02 -0.96384102893E+03  0.10118587686E+04  0.12699999809E+01 0.  1.
       -4    1    3    3    0  502 -0.30577514533E+03  0.36994405694E+02 -0.28529093457E+03  0.41983277123E+03  0.12699999809E+01 0. -1.
</event>
<event>
 5   0  0.1099980E-02  0.6991858E+03  0.7818609E-02  0.9718626E-01
       -2   -1    0    0    0  501  0.00000000000E+00  0.00000000000E+00  0.12713091588E+03  0.12713091591E+03  0.25500000920E-02 0. -1.
        2   -1    0    0  501    0  0.00000000000E+00  0.00000000000E+00 -0.96133346253E+03  0.96133346253E+03  0.25500000920E-02 0.  1.
    10030    2    1    2    0    0  0.00000000000E+00  0.00000000000E+00 -0.83420254665E+03  0.10884643784E+04  0.69918582244E+03 0.  0.
        5    1    3    3  502    0  0.24914150475E+03  0.20113845522E+02 -0.79752781302E+03  0.83579229400E+03  0.46999998093E+01 0.  1.
       -5    1    3    3    0  502 -0.24914150475E+03 -0.20113845522E+02 -0.36674733624E+02  0.25267208444E+03  0.46999998093E+01 0. -1.
</event>
<event>
 5   0  0.1109788E-02  0.6996194E+03  0.7818609E-02  0.9717883E-01
       -2   -1    0    0    0  501  0.00000000000E+00  0.00000000000E+00  0.36511408516E+03  0.36511408517E+03  0.25500000920E-02 0. -1.
        2   -1    0    0  501    0  0.00000000000E+00  0.00000000000E+00 -0.33514685482E+03  0.33514685483E+03  0.25500000920E-02 0.  1.
    10030    2    1    2    0    0  0.00000000000E+00  0.00000000000E+00  0.29967230335E+02  0.70026094000E+03  0.69961943169E+03 0.  0.
        1    1    3    3  502    0  0.38235565164E+02 -0.13088703890E+03 -0.30745065254E+03  0.33633209654E+03  0.50400001928E-02 0.  1.
       -1    1    3    3    0  502 -0.38235565164E+02  0.13088703890E+03  0.33741788287E+03  0.36392884346E+03  0.50400001928E-02 0. -1.
</event>
<event>
 5   0  0.6246998E-03  0.7019111E+03  0.7818609E-02  0.9713970E-01
       -1   -1    0    0    0  501  0.00000000000E+00  0.00000000000E+00  0.13010662898E+03  0.13010662907E+03  0.50400001928E-02 0. -1.
        1   -1    0    0  501    0  0.00000000000E+00  0.00000000000E+00 -0.94668350629E+03  0.94668350630E+03  0.50400001928E-02 0.  1.
    10030    2    1    2    0    0  0.00000000000E+00  0.00000000000E+00 -0.81657687731E+03  0.10767901354E+04  0.70191110483E+03 0.  0.
        4    1    3    3  502    0 -0.18119613786E+03 -0.13388438875E+02 -0.86891442046E+03  0.88770781998E+03  0.12699999809E+01 0.  1.
       -4    1    3    3    0  502  0.18119613786E+03  0.13388438875E+02  0.52337543146E+02  0.18908231539E+03  0.12699999809E+01 0. -1.
</event>
<event>
 5   0  0.4440500E-03  0.7010865E+03  0.7818609E-02  0.9715376E-01
       -3   -1    0    0    0  501  0.00000000000E+00  0.00000000000E+00  0.41688220338E+03  0.41688221562E+03  0.10100000352E+00 0. -1.
        3   -1    0    0  501    0  0.00000000000E+00  0.00000000000E+00 -0.29476085494E+03  0.29476087225E+03  0.10100000352E+00 0.  1.
    10030    2    1    2    0    0  0.00000000000E+00  0.00000000000E+00  0.12212134844E+03  0.71164308786E+03  0.70108648593E+03 0.  0.
        4    1    3    3  502    0  0.92838940958E+02  0.14761873477E+03  0.36972594160E+03  0.40878997616E+03  0.12699999809E+01 0. -1.
       -4    1    3    3    0  502 -0.92838940958E+02 -0.14761873477E+03 -0.24760459316E+03  0.30285311170E+03  0.12699999809E+01 0.  1.
</event>
<event>
 5   0  0.6689415E-03  0.7044317E+03  0.7818609E-02  0.9709683E-01
        1   -1    0    0  501    0  0.00000000000E+00  0.00000000000E+00  0.81148896695E+03  0.81148896697E+03  0.50400001928E-02 0.  1.
       -1   -1    0    0    0  501  0.00000000000E+00  0.00000000000E+00 -0.15287452324E+03  0.15287452333E+03  0.50400001928E-02 0. -1.
    10030    2    1    2    0    0  0.00000000000E+00  0.00000000000E+00  0.65861444371E+03  0.96436349029E+03  0.70443165456E+03 0.  0.
        1    1    3    3  502    0 -0.73233758228E+02  0.68508765608E+02 -0.13291741849E+03  0.16650427764E+03  0.50400001928E-02 0. -1.
       -1    1    3    3    0  502  0.73233758228E+02 -0.68508765608E+02  0.79153186220E+03  0.79785921265E+03  0.50400001928E-02 0.  1.
</event>
<event>
 5   0  0.1100119E-02  0.7011977E+03  0.7818609E-02  0.9715186E-01
       -2   -1    0    0    0  501  0.00000000000E+00  0.00000000000E+00  0.99098592898E+02  0.99098592931E+02  0.25500000920E-02 0.  1.
        2   -1    0    0  501    0  0.00000000000E+00  0.00000000000E+00 -0.12403762357E+04  0.12403762357E+04  0.25500000920E-02 0. -1.
    10030    2    1    2    0    0  0.00000000000E+00  0.00000000000E+00 -0.11412776428E+04  0.13394748286E+04  0.70119766012E+03 0.  0.
        4    1    3    3  502    0  0.15076414684E+03  0.29650276258E+03 -0.78227547360E+03  0.85005896600E+03  0.12699999809E+01 0. -1.
       -4    1    3    3    0  502 -0.15076414684E+03 -0.29650276258E+03 -0.35900216916E+03  0.48941586259E+03  0.12699999809E+01 0.  1.
</event>
<event>
 5   0  0.1119786E-02  0.7001640E+03  0.7818609E-02  0.9716952E-01
       -2   -1    0    0    0  501  0.00000000000E+00  0.00000000000E+00  0.20390571826E+03  0.20390571828E+03  0.25500000920E-02 0. -1.
        2   -1    0    0  501    0  0.00000000000E+00  0.00000000000E+00 -0.60104944919E+03  0.60104944920E+03  0.25500000920E-02 0.  1.
    10030    2    1    2    0    0  0.00000000000E+00  0.00000000000E+00 -0.39714373093E+03  0.80495516747E+03  0.70016403694E+03 0.  0.
        3    1    3    3  502    0  0.70661439385E+02 -0.11629669656E+03  0.17225476425E+03  0.21952146742E+03  0.10100000352E+00 0. -1.
       -3    1    3    3    0  502 -0.70661439385E+02  0.11629669656E+03 -0.56939849518E+03  0.58543370006E+03  0.10100000352E+00 0.  1.
</event>
<event>
 5   0  0.1079446E-02  0.6801437E+03  0.7818609E-02  0.9751805E-01
        2   -1    0    0  501    0  0.00000000000E+00  0.00000000000E+00  0.15572579821E+03  0.15572579823E+03  0.25500000920E-02 0. -1.
       -2   -1    0    0    0  501  0.00000000000E+00  0.00000000000E+00 -0.74264430843E+03  0.74264430843E+03  0.25500000920E-02 0.  1.
    10030    2    1    2    0    0  0.00000000000E+00  0.00000000000E+00 -0.58691851022E+03  0.89837010666E+03  0.68014374282E+03 0.  0.
        2    1    3    3  502    0  0.29737147779E+02  0.34827809482E+02 -0.73855272322E+03  0.73997121516E+03  0.25500000920E-02 0.  1.
       -2    1    3    3    0  502 -0.29737147779E+02 -0.34827809482E+02  0.15163421300E+03  0.15839889150E+03  0.25500000920E-02 0. -1.
</event>
<event>
 5   0  0.1079446E-02  0.6986027E+03  0.7818609E-02  0.9719625E-01
       -2   -1    0    0    0  501  0.00000000000E+00  0.00000000000E+00  0.29919735612E+03  0.29919735613E+03  0.25500000920E-02 0. -1.
        2   -1    0    0  501    0  0.00000000000E+00  0.00000000000E+00 -0.40779587672E+03  0.40779587673E+03  0.25500000920E-02 0.  1.
    10030    2    1    2    0    0  0.00000000000E+00  0.00000000000E+00 -0.10859852060E+03  0.70699323286E+03  0.69860274308E+03 0.  0.
        2    1    3    3  502    0  0.13353345510E+03 -0.18748017275E+03  0.21159469607E+03  0.31265366497E+03  0.25500000920E-02 0. -1.
       -2    1    3    3    0  502 -0.13353345510E+03  0.18748017275E+03 -0.32019321667E+03  0.39433956790E+03  0.25500000920E-02 0.  1.
</event>
<event>
 5   0  0.1100119E-02  0.7004913E+03  0.7818609E-02  0.9716392E-01
        2   -1    0    0  501    0  0.00000000000E+00  0.00000000000E+00  0.59950618841E+03  0.59950618841E+03  0.25500000920E-02 0. -1.
       -2   -1    0    0    0  501  0.00000000000E+00  0.00000000000E+00 -0.20462174202E+03  0.20462174204E+03  0.25500000920E-02 0.  1.
    10030    2    1    2    0    0  0.00000000000E+00  0.00000000000E+00  0.39488444639E+03  0.80412793045E+03  0.70049125800E+03 0.  0.
        4    1    3    3  502    0 -0.22502614627E+02  0.22857965773E+03  0.50097718894E+03  0.55112138802E+03  0.12699999809E+01 0. -1.
       -4    1    3    3    0  502  0.22502614627E+02 -0.22857965773E+03 -0.10609274255E+03  0.25300654243E+03  0.12699999809E+01 0.  1.
</event>
<event>
 5   0  0.1099980E-02  0.7009054E+03  0.7818609E-02  0.9715685E-01
        2   -1    0    0  501    0  0.00000000000E+00  0.00000000000E+00  0.17577300695E+04  0.17577300696E+04  0.25500000920E-02 0.  1.
       -2   -1    0    0    0  501  0.00000000000E+00  0.00000000000E+00 -0.69872556963E+02  0.69872557010E+02  0.25500000920E-02 0. -1.
    10030    2    1    2    0    0  0.00000000000E+00  0.00000000000E+00  0.16878575126E+04  0.18276026266E+04  0.70090539862E+03 0.  0.
        5    1    3    3  502    0 -0.20247882675E+03 -0.27766253521E+03  0.66515228234E+03  0.74869473581E+03  0.46999998093E+01 0. -1.
       -5    1    3    3    0  502  0.20247882675E+03  0.27766253521E+03  0.10227052303E+04  0.10789078907E+04  0.46999998093E+01 0.  1.
</event>
<event>
 5   0  0.1099980E-02  0.7000497E+03  0.7818609E-02  0.9717147E-01
        2   -1    0    0  501    0  0.00000000000E+00  0.00000000000E+00  0.17886607506E+04  0.17886607506E+04  0.25500000920E-02 0.  1.
       -2   -1    0    0    0  501  0.00000000000E+00  0.00000000000E+00 -0.68496727244E+02  0.68496727291E+02  0.25500000920E-02 0. -1.
    10030    2    1    2    0    0  0.00000000000E+00  0.00000000000E+00  0.17201640233E+04  0.18571574779E+04  0.70004973426E+03 0.  0.
        5    1    3    3  502    0  0.34015805505E+03 -0.14826173472E+01  0.64155027900E+03  0.72616702697E+03  0.46999998093E+01 0.  1.
       -5    1    3    3    0  502 -0.34015805505E+03  0.14826173472E+01  0.10786137443E+04  0.11309904509E+04  0.46999998093E+01 0. -1.
</event>
<event>
 5   0  0.1119786E-02  0.6672126E+03  0.7818609E-02  0.9775007E-01
        2   -1    0    0  501    0  0.00000000000E+00  0.00000000000E+00  0.11033057080E+04  0.11033057080E+04  0.25500000920E-02 0. -1.
       -2   -1    0    0    0  501  0.00000000000E+00  0.00000000000E+00 -0.10087245291E+03  0.10087245295E+03  0.25500000920E-02 0.  1.
    10030    2    1    2    0    0  0.00000000000E+00  0.00000000000E+00  0.10024332551E+04  0.12041781610E+04  0.66721256914E+03 0.  0.
        3    1    3    3  502    0 -0.42469850259E+02 -0.32051401220E+03  0.64960744566E+03  0.72561888334E+03  0.10100000352E+00 0. -1.
       -3    1    3    3    0  502  0.42469850259E+02  0.32051401220E+03  0.35282580946E+03  0.47855927765E+03  0.10100000352E+00 0.  1.
</event>
<event>
 5   0  0.6246998E-03  0.6745249E+03  0.7818609E-02  0.9761818E-01
       -1   -1    0    0    0  501  0.00000000000E+00  0.00000000000E+00  0.17788968491E+03  0.17788968498E+03  0.50400001928E-02 0.  1.
        1   -1    0    0  501    0  0.00000000000E+00  0.00000000000E+00 -0.63941851566E+03  0.63941851568E+03  0.50400001928E-02 0. -1.
    10030    2    1    2    0    0  0.00000000000E+00  0.00000000000E+00 -0.46152883075E+03  0.81730820066E+03  0.67452489446E+03 0.  0.
        4    1    3    3  502    0  0.24728751875E+03 -0.68754986015E+02 -0.49585930343E+03  0.55835152612E+03  0.12699999809E+01 0. -1.
       -4    1    3    3    0  502 -0.24728751875E+03  0.68754986015E+02  0.34330472675E+02  0.25895667453E+03  0.12699999809E+01 0.  1.
</event>
<event>
 5   0  0.6689415E-03  0.7007419E+03  0.7818609E-02  0.9715964E-01
        1   -1    0    0  501    0  0.00000000000E+00  0.00000000000E+00  0.20061744774E+04  0.20061744774E+04  0.50400001928E-02 0.  1.
       -1   -1    0    0    0  501  0.00000000000E+00  0.00000000000E+00 -0.61190981496E+02  0.61190981703E+02  0.50400001928E-02 0. -1.
    10030    2    1    2    0    0  0.00000000000E+00  0.00000000000E+00  0.19449834959E+04  0.20673654591E+04  0.70074185132E+03 0.  0.
        1    1    3    3  502    0 -0.11129874324E+03  0.30729911807E+03  0.60001575970E+03  0.68325622583E+03  0.50400001928E-02 0. -1.
       -1    1    3    3    0  502  0.11129874324E+03 -0.30729911807E+03  0.13449677362E+04  0.13841092333E+04  0.50400001928E-02 0.  1.
</event>
<event>
 5   0  0.1079446E-02  0.6987697E+03  0.7818609E-02  0.9719338E-01
        2   -1    0    0  501    0  0.00000000000E+00  0.00000000000E+00  0.67748654826E+03  0.67748654827E+03  0.25500000920E-02 0. -1.
       -2   -1    0    0    0  501  0.00000000000E+00  0.00000000000E+00 -0.18018038778E+03  0.18018038780E+03  0.25500000920E-02 0.  1.
    10030    2    1    2    0    0  0.00000000000E+00  0.00000000000E+00  0.49730616048E+03  0.85766693606E+03  0.69876974459E+03 0.  0.
        2    1    3    3  502    0 -0.58397794800E+02 -0.25331582438E+03 -0.37860551252E+02  0.26270255169E+03  0.25500000920E-02 0.  1.
       -2    1    3    3    0  502  0.58397794800E+02  0.25331582438E+03  0.53516671174E+03  0.59496438437E+03  0.25500000920E-02 0. -1.
</event>
<event>
 5   0  0.1100119E-02  0.7123500E+03  0.7818609E-02  0.9696342E-01
       -2   -1    0    0    0  501  0.00000000000E+00  0.00000000000E+00  0.84971557352E+03  0.84971557352E+03  0.25500000920E-02 0.  1.
        2   -1    0    0  501    0  0.00000000000E+00  0.00000000000E+00 -0.14929773842E+03  0.14929773844E+03  0.25500000920E-02 0. -1.
    10030    2    1    2    0    0  0.00000000000E+00  0.00000000000E+00  0.70041783510E+03  0.99901331196E+03  0.71234995175E+03 0.  0.
        4    1    3    3  502    0  0.19787468393E+03 -0.18563270224E+03  0.67381579270E+03  0.72639054652E+03  0.12699999809E+01 0.  1.
       -4    1    3    3    0  502 -0.19787468393E+03  0.18563270224E+03  0.26602042397E+02  0.27262276544E+03  0.12699999809E+01 0. -1.
</event>
<event>
 5   0  0.6990118E-03  0.7011705E+03  0.7818609E-02  0.9715233E-01
       -1   -1    0    0    0  501  0.00000000000E+00  0.00000000000E+00  0.64388666862E+02  0.64388667059E+02  0.50400001928E-02 0. -1.
        1   -1    0    0  501    0  0.00000000000E+00  0.00000000000E+00 -0.19088763475E+04  0.19088763475E+04  0.50400001928E-02 0.  1.
    10030    2    1    2    0    0  0.00000000000E+00  0.00000000000E+00 -0.18444876806E+04  0.19732650145E+04  0.70117045978E+03 0.  0.
        5    1    3    3  502    0 -0.13937851844E+03 -0.25616734242E+02 -0.18245825944E+04  0.18300836927E+04  0.46999998093E+01 0.  1.
       -5    1    3    3    0  502  0.13937851844E+03  0.25616734242E+02 -0.19905086236E+02  0.14318132187E+03  0.46999998093E+01 0. -1.
</event>
<event>
 5   0  0.6990118E-03  0.6993292E+03  0.7818609E-02  0.9718380E-01
        1   -1    0    0  501    0  0.00000000000E+00  0.00000000000E+00  0.67594163544E+03  0.67594163546E+03  0.50400001928E-02 0.  1.
       -1   -1    0    0    0  501  0.00000000000E+00  0.00000000000E+00 -0.18088150216E+03  0.18088150223E+03  0.50400001928E-02 0. -1.
    10030    2    1    2    0    0  0.00000000000E+00  0.00000000000E+00  0.49506013328E+03  0.85682313769E+03  0.69932921698E+03 0.  0.
        5    1    3    3  502    0 -0.26729599538E+03 -0.22535114021E+03  0.24311882903E+03  0.42586281895E+03  0.46999998093E+01 0.  1.
       -5    1    3    3    0  502  0.26729599538E+03  0.22535114021E+03  0.25194130425E+03  0.43096031874E+03  0.46999998093E+01 0. -1.
</event>
<event>
 5   0  0.1100119E-02  0.6860551E+03  0.7818609E-02  0.9741382E-01
        2   -1    0    0  501    0  0.00000000000E+00  0.00000000000E+00  0.12459381834E+04  0.12459381834E+04  0.25500000920E-02 0.  1.
       -2   -1    0    0    0  501  0.00000000000E+00  0.00000000000E+00 -0.94441190114E+02  0.94441190149E+02  0.25500000920E-02 0. -1.
    10030    2    1    2    0    0  0.00000000000E+00  0.00000000000E+00  0.11514969933E+04  0.13403793735E+04  0.68605505573E+03 0.  0.
        4    1    3    3  502    0 -0.11643446528E+02  0.27477911856E+03  0.97627722854E+03  0.10142770695E+04  0.12699999809E+01 0.  1.
       -4    1    3    3    0  502  0.11643446528E+02 -0.27477911856E+03  0.17521976473E+03  0.32610230404E+03  0.12699999809E+01 0. -1.
</event>
<event>
 5   0  0.4440500E-03  0.6988799E+03  0.7818609E-02  0.9719150E-01
       -3   -1    0    0    0  501  0.00000000000E+00  0.00000000000E+00  0.72330029927E+03  0.72330030633E+03  0.10100000352E+00 0.  1.
        3   -1    0    0  501    0  0.00000000000E+00  0.00000000000E+00 -0.16882099161E+03  0.16882102182E+03  0.10100000352E+00 0. -1.
    10030    2    1    2    0    0  0.00000000000E+00  0.00000000000E+00  0.55447930767E+03  0.89212132815E+03  0.69887993354E+03 0.  0.
        5    1    3    3  502    0  0.75095704397E+02  0.33162352166E+03  0.17454135103E+03  0.38223068710E+03  0.46999998093E+01 0. -1.
       -5    1    3    3    0  502 -0.75095704397E+02 -0.33162352166E+03  0.37993795664E+03  0.50989064105E+03  0.46999998093E+01 0.  1.
</event>
<event>
 5   0  0.6990118E-03  0.7021121E+03  0.7818609E-02  0.9713627E-01
       -1   -1    0    0    0  501  0.00000000000E+00  0.00000000000E+00  0.19815863704E+03  0.19815863711E+03  0.50400001928E-02 0.  1.
        1   -1    0    0  501    0  0.00000000000E+00  0.00000000000E+00 -0.62192774145E+03  0.62192774147E+03  0.50400001928E-02 0. -1.
    10030    2    1    2    0    0  0.00000000000E+00  0.00000000000E+00 -0.42376910441E+03  0.82008637858E+03  0.70211210962E+03 0.  0.
        5    1    3    3  502    0 -0.18321210979E+03  0.29696124216E+03 -0.25660044587E+03  0.43314955309E+03  0.46999998093E+01 0.  1.
       -5    1    3    3    0  502  0.18321210979E+03 -0.29696124216E+03 -0.16716865854E+03  0.38693682549E+03  0.46999998093E+01 0. -1.
</event>
<event>
 5   0  0.6246998E-03  0.7030949E+03  0.7818609E-02  0.9711954E-01
        1   -1    0    0  501    0  0.00000000000E+00  0.00000000000E+00  0.30353575292E+03  0.30353575296E+03  0.50400001928E-02 0. -1.
       -1   -1    0    0    0  501  0.00000000000E+00  0.00000000000E+00 -0.40715336639E+03  0.40715336642E+03  0.50400001928E-02 0.  1.
    10030    2    1    2    0    0  0.00000000000E+00  0.00000000000E+00 -0.10361761347E+03  0.71068911938E+03  0.70309488306E+03 0.  0.
        4    1    3    3  502    0  0.20085515273E+03  0.26749566079E+03 -0.16108417143E+03  0.37127677561E+03  0.12699999809E+01 0. -1.
       -4    1    3    3    0  502 -0.20085515273E+03 -0.26749566079E+03  0.57466557964E+02  0.33941234377E+03  0.12699999809E+01 0.  1.
</event>
<event>
 5   0  0.6246998E-03  0.7020251E+03  0.7818609E-02  0.9713775E-01
        1   -1    0    0  501    0  0.00000000000E+00  0.00000000000E+00  0.35518535290E+03  0.35518535293E+03  0.50400001928E-02 0.  1.
       -1   -1    0    0    0  501  0.00000000000E+00  0.00000000000E+00 -0.34688878429E+03  0.34688878433E+03  0.50400001928E-02 0. -1.
    10030    2    1    2    0    0  0.00000000000E+00  0.00000000000E+00  0.82965686087E+01  0.70207413726E+03  0.70202511434E+03 0.  0.
        4    1    3    3  502    0 -0.66838532136E+02  0.16286663002E+03  0.30783916860E+03  0.35462585238E+03  0.12699999809E+01 0.  1.
       -4    1    3    3    0  502  0.66838532136E+02 -0.16286663002E+03 -0.29954259999E+03  0.34744828488E+03  0.12699999809E+01 0. -1.
</event>
<event>
 5   0  0.6689415E-03  0.7004469E+03  0.7818609E-02  0.9716468E-01
        1   -1    0    0  501    0  0.00000000000E+00  0.00000000000E+00  0.12914309265E+04  0.12914309265E+04  0.50400001928E-02 0. -1.
       -1   -1    0    0    0  501  0.00000000000E+00  0.00000000000E+00 -0.94977175501E+02  0.94977175635E+02  0.50400001928E-02 0.  1.
    10030    2    1    2    0    0  0.00000000000E+00  0.00000000000E+00  0.11964537510E+04  0.13864081022E+04  0.70044689122E+03 0.  0.
        1    1    3    3  502    0  0.23468764999E+03 -0.70121223565E+02  0.10936943725E+04  0.11207866254E+04  0.50400001928E-02 0. -1.
       -1    1    3    3    0  502 -0.23468764999E+03  0.70121223565E+02  0.10275937850E+03  0.26562147682E+03  0.50400001928E-02 0.  1.
</event>
<event>
 5   0  0.6689415E-03  0.6994903E+03  0.7818609E-02  0.9718104E-01
        1   -1    0    0  501    0  0.00000000000E+00  0.00000000000E+00  0.39018932674E+03  0.39018932677E+03  0.50400001928E-02 0.  1.
       -1   -1    0    0    0  501  0.00000000000E+00  0.00000000000E+00 -0.31349311467E+03  0.31349311471E+03  0.50400001928E-02 0. -1.
    10030    2    1    2    0    0  0.00000000000E+00  0.00000000000E+00  0.76696212068E+02  0.70368244149E+03  0.69949029265E+03 0.  0.
        1    1    3    3  502    0  0.13137418959E+03 -0.26350425740E+03  0.22823313277E+03  0.37253729247E+03  0.50400001928E-02 0.  1.
       -1    1    3    3    0  502 -0.13137418959E+03  0.26350425740E+03 -0.15153692070E+03  0.33114514902E+03  0.50400001928E-02 0. -1.
</event>
<event>
 5   0  0.4440500E-03  0.7101537E+03  0.7818609E-02  0.9700024E-01
        4   -1    0    0  501    0  0.00000000000E+00  0.00000000000E+00  0.26002780370E+03  0.26003090508E+03  0.12699999809E+01 0.  1.
       -4   -1    0    0    0  501  0.00000000000E+00  0.00000000000E+00 -0.48486273224E+03  0.48486439550E+03  0.12699999809E+01 0. -1.
    10030    2    1    2    0    0  0.00000000000E+00  0.00000000000E+00 -0.22483492854E+03  0.74489530058E+03  0.71015369022E+03 0.  0.
        4    1    3    3  502    0 -0.25240821688E+03 -0.21314203332E+03  0.24097607079E+02  0.33124272352E+03  0.12699999809E+01 0.  1.
       -4    1    3    3    0  502  0.25240821688E+03  0.21314203332E+03 -0.24893253562E+03  0.41365257706E+03  0.12699999809E+01 0. -1.
</event>
<event>
 5   0  0.6990118E-03  0.6998111E+03  0.7818609E-02  0.9717555E-01
        1   -1    0    0  501    0  0.00000000000E+00  0.00000000000E+00  0.53746617907E+03  0.53746617909E+03  0.50400001928E-02 0. -1.
       -1   -1    0    0    0  501  0.00000000000E+00  0.00000000000E+00 -0.22779835430E+03  0.22779835435E+03  0.50400001928E-02 0.  1.
    10030    2    1    2    0    0  0.00000000000E+00  0.00000000000E+00  0.30966782477E+03  0.76526453344E+03  0.69981114913E+03 0.  0.
        5    1    3    3  502    0 -0.27224723279E+03 -0.17577427277E+02 -0.84707335736E+02  0.28570079531E+03  0.46999998093E+01 0.  1.
       -5    1    3    3    0  502  0.27224723279E+03  0.17577427277E+02  0.39437516050E+03  0.47956373814E+03  0.46999998093E+01 0. -1.
</event>
<event>
 5   0  0.1119786E-02  0.6999631E+03  0.7818609E-02  0.9717295E-01
       -2   -1    0    0    0  501  0.00000000000E+00  0.00000000000E+00  0.60493689973E+03  0.60493689974E+03  0.25500000920E-02 0. -1.
        2   -1    0    0  501    0  0.00000000000E+00  0.00000000000E+00 -0.20247908537E+03  0.20247908538E+03  0.25500000920E-02 0.  1.
    10030    2    1    2    0    0  0.00000000000E+00  0.00000000000E+00  0.40245781437E+03  0.80741598512E+03  0.69996305666E+03 0.  0.
        3    1    3    3  502    0 -0.74644780701E+02  0.26117091166E+03 -0.53342059342E+02  0.27681667919E+03  0.10100000352E+00 0.  1.
       -3    1    3    3    0  502  0.74644780701E+02 -0.26117091166E+03  0.45579987371E+03  0.53059930593E+03  0.10100000352E+00 0. -1.
</event>
<event>
 5   0  0.6785252E-03  0.7011678E+03  0.7818609E-02  0.9715237E-01
       -1   -1    0    0    0  501  0.00000000000E+00  0.00000000000E+00  0.18198816612E+03  0.18198816619E+03  0.50400001928E-02 0. -1.
        1   -1    0    0  501    0  0.00000000000E+00  0.00000000000E+00 -0.67536853906E+03  0.67536853908E+03  0.50400001928E-02 0.  1.
    10030    2    1    2    0    0  0.00000000000E+00  0.00000000000E+00 -0.49338037293E+03  0.85735670527E+03  0.70116783132E+03 0.  0.
        3    1    3    3  502    0  0.25951189756E+03 -0.12877096110E+03 -0.52751556082E+01  0.28975200235E+03  0.10100000352E+00 0. -1.
       -3    1    3    3    0  502 -0.25951189756E+03  0.12877096110E+03 -0.48810521732E+03  0.56760470292E+03  0.10100000352E+00 0.  1.
</event>
<event>
 5   0  0.4440500E-03  0.7084173E+03  0.7818609E-02  0.9702945E-01
        3   -1    0    0  501    0  0.00000000000E+00  0.00000000000E+00  0.14805321031E+03  0.14805324476E+03  0.10100000352E+00 0. -1.
       -3   -1    0    0    0  501  0.00000000000E+00  0.00000000000E+00 -0.84742344573E+03  0.84742345175E+03  0.10100000352E+00 0.  1.
    10030    2    1    2    0    0  0.00000000000E+00  0.00000000000E+00 -0.69937023542E+03  0.99547669651E+03  0.70841733965E+03 0.  0.
        3    1    3    3  502    0 -0.39770593171E+02 -0.51590019917E+01  0.14485267587E+03  0.15030177407E+03  0.10100000352E+00 0. -1.
       -3    1    3    3    0  502  0.39770593171E+02  0.51590019917E+01 -0.84422291128E+03  0.84517492244E+03  0.10100000352E+00 0.  1.
</event>
<event>
 5   0  0.4440500E-03  0.6989665E+03  0.7818609E-02  0.9719001E-01
        4   -1    0    0  501    0  0.00000000000E+00  0.00000000000E+00  0.22517411690E+03  0.22517769832E+03  0.12699999809E+01 0. -1.
       -4   -1    0    0    0  501  0.00000000000E+00  0.00000000000E+00 -0.54240954834E+03  0.54241103513E+03  0.12699999809E+01 0.  1.
    10030    2    1    2    0    0  0.00000000000E+00  0.00000000000E+00 -0.31723543144E+03  0.76758873345E+03  0.69896648329E+03 0.  0.
        3    1    3    3  502    0  0.33329424320E+03  0.88124649877E+02 -0.95651671408E+02  0.35777123824E+03  0.10100000352E+00 0. -1.
       -3    1    3    3    0  502 -0.33329424320E+03 -0.88124649877E+02 -0.22158376003E+03  0.40981749521E+03  0.10100000352E+00 0.  1.
</event>
<event>
 5   0  0.1099980E-02  0.6998655E+03  0.7818609E-02  0.9717462E-01
       -2   -1    0    0    0  501  0.00000000000E+00  0.00000000000E+00  0.14093188453E+03  0.14093188456E+03  0.25500000920E-02 0. -1.
        2   -1    0    0  501    0  0.00000000000E+00  0.00000000000E+00 -0.86888018669E+03  0.86888018669E+03  0.25500000920E-02 0.  1.
    10030    2    1    2    0    0  0.00000000000E+00  0.00000000000E+00 -0.72794830215E+03  0.10098120712E+04  0.69986547895E+03 0.  0.
        5    1    3    3  502    0 -0.21072155942E+03  0.23354310807E+03 -0.14285818860E+03  0.34550906063E+03  0.46999998093E+01 0. -1.
       -5    1    3    3    0  502  0.21072155942E+03 -0.23354310807E+03 -0.58509011356E+03  0.66430301061E+03  0.46999998093E+01 0.  1.
</event>
<event>
 5   0  0.1119786E-02  0.7016875E+03  0.7818609E-02  0.9714351E-01
        2   -1    0    0  501    0  0.00000000000E+00  0.00000000000E+00  0.27079671738E+03  0.27079671740E+03  0.25500000920E-02 0. -1.
       -2   -1    0    0    0  501  0.00000000000E+00  0.00000000000E+00 -0.45455251250E+03  0.45455251251E+03  0.25500000920E-02 0.  1.
    10030    2    1    2    0    0  0.00000000000E+00  0.00000000000E+00 -0.18375579512E+03  0.72534922991E+03  0.70168747537E+03 0.  0.
        3    1    3    3  502    0  0.11719872295E+03  0.33061030557E+03 -0.99375281561E+02  0.36457395902E+03  0.10100000352E+00 0.  1.
       -3    1    3    3    0  502 -0.11719872295E+03 -0.33061030557E+03 -0.84380513559E+02  0.36077527088E+03  0.10100000352E+00 0. -1.
</event>
<event>
 5   0  0.6689415E-03  0.6998280E+03  0.7818609E-02  0.9717526E-01
       -1   -1    0    0    0  501  0.00000000000E+00  0.00000000000E+00  0.23930875341E+03  0.23930875346E+03  0.50400001928E-02 0. -1.
        1   -1    0    0  501    0  0.00000000000E+00  0.00000000000E+00 -0.51163941308E+03  0.51163941311E+03  0.50400001928E-02 0.  1.
    10030    2    1    2    0    0  0.00000000000E+00  0.00000000000E+00 -0.27233065967E+03  0.75094816657E+03  0.69982795076E+03 0.  0.
        1    1    3    3  502    0  0.85803596644E+02 -0.21352034884E+03 -0.41902380006E+03  0.47805244650E+03  0.50400001928E-02 0.  1.
       -1    1    3    3    0  502 -0.85803596644E+02  0.21352034884E+03  0.14669314039E+03  0.27289572006E+03  0.50400001928E-02 0. -1.
</event>
<event>
 5   0  0.1100119E-02  0.6993451E+03  0.7818609E-02  0.9718353E-01
        2   -1    0    0  501    0  0.00000000000E+00  0.00000000000E+00  0.16502345751E+04  0.16502345751E+04  0.25500000920E-02 0.  1.
       -2   -1    0    0    0  501  0.00000000000E+00  0.00000000000E+00 -0.74093040449E+02  0.74093040493E+02  0.25500000920E-02 0. -1.
    10030    2    1    2    0    0  0.00000000000E+00  0.00000000000E+00  0.15761415347E+04  0.17243276156E+04  0.69934511413E+03 0.  0.
        4    1    3    3  502    0  0.27981271342E+03 -0.16310822776E+03  0.46311361977E+03  0.56513298105E+03  0.12699999809E+01 0. -1.
       -4    1    3    3    0  502 -0.27981271342E+03  0.16310822776E+03  0.11130279149E+04  0.11591946346E+04  0.12699999809E+01 0.  1.
</event>
<event>
 5   0  0.1109788E-02  0.7071047E+03  0.7818609E-02  0.9705159E-01
        2   -1    0    0  501    0  0.00000000000E+00  0.00000000000E+00  0.25006475852E+04  0.25006475852E+04  0.25500000920E-02 0. -1.
       -2   -1    0    0    0  501  0.00000000000E+00  0.00000000000E+00 -0.49986757197E+02  0.49986757262E+02  0.25500000920E-02 0.  1.
    10030    2    1    2    0    0  0.00000000000E+00  0.00000000000E+00  0.24506608280E+04  0.25506343425E+04  0.70710469879E+03 0.  0.
        1    1    3    3  502    0 -0.63426675323E+02 -0.34073553901E+03  0.14772019526E+04  0.15173164665E+04  0.50400001928E-02 0.  1.
       -1    1    3    3    0  502  0.63426675323E+02  0.34073553901E+03  0.97345887539E+03  0.10333178760E+04  0.50400001928E-02 0. -1.
</event>
<event>
 5   0  0.1119786E-02  0.6991642E+03  0.7818609E-02  0.9718663E-01
       -2   -1    0    0    0  501  0.00000000000E+00  0.00000000000E+00  0.68759493831E+03  0.68759493832E+03  0.25500000920E-02 0. -1.
        2   -1    0    0  501    0  0.00000000000E+00  0.00000000000E+00 -0.17773204969E+03  0.17773204970E+03  0.25500000920E-02 0.  1.
    10030    2    1    2    0    0  0.00000000000E+00  0.00000000000E+00  0.50986288862E+03  0.86532698802E+03  0.69916423750E+03 0.  0.
        3    1    3    3  502    0  0.25253965506E+03  0.11935562559E+03  0.51509199603E+03  0.58595376721E+03  0.10100000352E+00 0. -1.
       -3    1    3    3    0  502 -0.25253965506E+03 -0.11935562559E+03 -0.52291074045E+01  0.27937322081E+03  0.10100000352E+00 0.  1.
</event>
<event>
 5   0  0.6990118E-03  0.6965494E+03  0.7818609E-02  0.9723151E-01
        1   -1    0    0  501    0  0.00000000000E+00  0.00000000000E+00  0.51491572532E+03  0.51491572535E+03  0.50400001928E-02 0. -1.
       -1   -1    0    0    0  501  0.00000000000E+00  0.00000000000E+00 -0.23556333836E+03  0.23556333841E+03  0.50400001928E-02 0.  1.
    10030    2    1    2    0    0  0.00000000000E+00  0.00000000000E+00  0.27935238696E+03  0.75047906376E+03  0.69654940172E+03 0.  0.
        5    1    3    3  502    0  0.27560655776E+03  0.37233124883E+02  0.36549331325E+03  0.45929590929E+03  0.46999998093E+01 0. -1.
       -5    1    3    3    0  502 -0.27560655776E+03 -0.37233124883E+02 -0.86140926282E+02  0.29118315447E+03  0.46999998093E+01 0.  1.
</event>
<event>
 5   0  0.6609285E-03  0.7153196E+03  0.7818609E-02  0.9691387E-01
       -1   -1    0    0    0  501  0.00000000000E+00  0.00000000000E+00  0.85691682814E+02  0.85691682962E+02  0.50400001928E-02 0. -1.
        1   -1    0    0  501    0  0.00000000000E+00  0.00000000000E+00 -0.14927996878E+04  0.14927996878E+04  0.50400001928E-02 0.  1.
    10030    2    1    2    0    0  0.00000000000E+00  0.00000000000E+00 -0.14071080050E+04  0.15784913708E+04  0.71531955790E+03 0.  0.
        2    1    3    3  502    0  0.11209514420E+03  0.17177400858E+03 -0.56993091776E+02  0.21288457881E+03  0.25500000920E-02 0. -1.
       -2    1    3    3    0  502 -0.11209514420E+03 -0.17177400858E+03 -0.13501149132E+04  0.13656067920E+04  0.25500000920E-02 0.  1.
</event>
<event>
 5   0  0.6689415E-03  0.6997889E+03  0.7818609E-02  0.9717593E-01
       -1   -1    0    0    0  501  0.00000000000E+00  0.00000000000E+00  0.16087164841E+03  0.16087164849E+03  0.50400001928E-02 0.  1.
        1   -1    0    0  501    0  0.00000000000E+00  0.00000000000E+00 -0.76101735416E+03  0.76101735417E+03  0.50400001928E-02 0. -1.
    10030    2    1    2    0    0  0.00000000000E+00  0.00000000000E+00 -0.60014570575E+03  0.92188900266E+03  0.69978887180E+03 0.  0.
        1    1    3    3  502    0  0.95563656582E+02  0.21321178095E+03  0.43039793227E+02  0.23757967047E+03  0.50400001928E-02 0.  1.
       -1    1    3    3    0  502 -0.95563656582E+02 -0.21321178095E+03 -0.64318549898E+03  0.68430933218E+03  0.50400001928E-02 0. -1.
</event>
<event>
 5   0  0.1079446E-02  0.7020625E+03  0.7818609E-02  0.9713712E-01
        2   -1    0    0  501    0  0.00000000000E+00  0.00000000000E+00  0.21026987792E+03  0.21026987794E+03  0.25500000920E-02 0. -1.
       -2   -1    0    0    0  501  0.00000000000E+00  0.00000000000E+00 -0.58602271459E+03  0.58602271459E+03  0.25500000920E-02 0.  1.
    10030    2    1    2    0    0  0.00000000000E+00  0.00000000000E+00 -0.37575283667E+03  0.79629259253E+03  0.70206246065E+03 0.  0.
        2    1    3    3  502    0  0.30460922628E+03 -0.12140893226E+03 -0.45777220043E+02  0.33109283207E+03  0.25500000920E-02 0. -1.
       -2    1    3    3    0  502 -0.30460922628E+03  0.12140893226E+03 -0.32997561662E+03  0.46519976047E+03  0.25500000920E-02 0.  1.
</event>
<event>
 5   0  0.1100119E-02  0.6979447E+03  0.7818609E-02  0.9720753E-01
        2   -1    0    0  501    0  0.00000000000E+00  0.00000000000E+00  0.20712465349E+04  0.20712465349E+04  0.25500000920E-02 0. -1.
       -2   -1    0    0    0  501  0.00000000000E+00  0.00000000000E+00 -0.58796339690E+02  0.58796339745E+02  0.25500000920E-02 0.  1.
    10030    2    1    2    0    0  0.00000000000E+00  0.00000000000E+00  0.20124501952E+04  0.21300428746E+04  0.69794473966E+03 0.  0.
        4    1    3    3  502    0  0.16488987593E+03 -0.17551931088E+03  0.17769946529E+04  0.17932393340E+04  0.12699999809E+01 0. -1.
       -4    1    3    3    0  502 -0.16488987593E+03  0.17551931088E+03  0.23545554226E+03  0.33680354060E+03  0.12699999809E+01 0.  1.
</event>
<event>
 5   0  0.6609285E-03  0.6994375E+03  0.7818609E-02  0.9718195E-01
        1   -1    0    0  501    0  0.00000000000E+00  0.00000000000E+00  0.42951244350E+03  0.42951244353E+03  0.50400001928E-02 0. -1.
       -1   -1    0    0    0  501  0.00000000000E+00  0.00000000000E+00 -0.28474891183E+03  0.28474891188E+03  0.50400001928E-02 0.  1.
    10030    2    1    2    0    0  0.00000000000E+00  0.00000000000E+00  0.14476353166E+03  0.71426135540E+03  0.69943749094E+03 0.  0.
        2    1    3    3  502    0 -0.81528295999E+02 -0.11379629243E+03 -0.25488938376E+03  0.29080071729E+03  0.25500000920E-02 0.  1.
       -2    1    3    3    0  502  0.81528295999E+02  0.11379629243E+03  0.39965291542E+03  0.42346063811E+03  0.25500000920E-02 0. -1.
</event>
<event>
 5   0  0.4440500E-03  0.6986525E+03  0.7818609E-02  0.9719539E-01
        3   -1    0    0  501    0  0.00000000000E+00  0.00000000000E+00  0.66277049356E+03  0.66277050125E+03  0.10100000352E+00 0.  1.
       -3   -1    0    0    0  501  0.00000000000E+00  0.00000000000E+00 -0.18411928029E+03  0.18411930799E+03  0.10100000352E+00 0. -1.
    10030    2    1    2    0    0  0.00000000000E+00  0.00000000000E+00  0.47865121327E+03  0.84688980924E+03  0.69865253526E+03 0.  0.
        4    1    3    3  502    0 -0.17453196568E+03 -0.27978167462E+03  0.99593546088E+02  0.34447014358E+03  0.12699999809E+01 0.  1.
       -4    1    3    3    0  502  0.17453196568E+03  0.27978167462E+03  0.37905766718E+03  0.50241966566E+03  0.12699999809E+01 0. -1.
</event>
<event>
 5   0  0.6785252E-03  0.6987076E+03  0.7818609E-02  0.9719445E-01
       -1   -1    0    0    0  501  0.00000000000E+00  0.00000000000E+00  0.25256482082E+03  0.25256482087E+03  0.50400001928E-02 0. -1.
        1   -1    0    0  501    0  0.00000000000E+00  0.00000000000E+00 -0.48323460058E+03  0.48323460061E+03  0.50400001928E-02 0.  1.
    10030    2    1    2    0    0  0.00000000000E+00  0.00000000000E+00 -0.23066977976E+03  0.73579942148E+03  0.69870755067E+03 0.  0.
        3    1    3    3  502    0  0.18576906511E+03  0.12555272509E+03 -0.39746461435E+03  0.45634609913E+03  0.10100000352E+00 0.  1.
       -3    1    3    3    0  502 -0.18576906511E+03 -0.12555272509E+03  0.16679483459E+03  0.27945332235E+03  0.10100000352E+00 0. -1.
</event>
<event>
 5   0  0.6609285E-03  0.6992028E+03  0.7818609E-02  0.9718596E-01
        1   -1    0    0  501    0  0.00000000000E+00  0.00000000000E+00  0.64738901310E+03  0.64738901312E+03  0.50400001928E-02 0.  1.
       -1   -1    0    0    0  501  0.00000000000E+00  0.00000000000E+00 -0.18879090087E+03  0.18879090093E+03  0.50400001928E-02 0. -1.
    10030    2    1    2    0    0  0.00000000000E+00  0.00000000000E+00  0.45859811223E+03  0.83617991405E+03  0.69920284619E+03 0.  0.
        2    1    3    3  502    0 -0.31753140589E+03  0.31249599721E+02  0.40018551509E+03  0.51181166234E+03  0.25500000920E-02 0.  1.
       -2    1    3    3    0  502  0.31753140589E+03 -0.31249599721E+02  0.58412597144E+02  0.32436825172E+03  0.25500000920E-02 0. -1.
</event>
<event>
 5   0  0.6990118E-03  0.7015294E+03  0.7818609E-02  0.9714620E-01
        1   -1    0    0  501    0  0.00000000000E+00  0.00000000000E+00  0.87648715143E+03  0.87648715145E+03  0.50400001928E-02 0. -1.
       -1   -1    0    0    0  501  0.00000000000E+00  0.00000000000E+00 -0.14037384487E+03  0.14037384496E+03  0.50400001928E-02 0.  1.
    10030    2    1    2    0    0  0.00000000000E+00  0.00000000000E+00  0.73611330657E+03  0.10168609964E+04  0.70152939062E+03 0.  0.
        5    1    3    3  502    0 -0.88738259904E+02  0.11011404207E+03  0.83328296276E+03  0.84521131503E+03  0.46999998093E+01 0. -1.
       -5    1    3    3    0  502  0.88738259904E+02 -0.11011404207E+03 -0.97169656196E+02  0.17164968137E+03  0.46999998093E+01 0.  1.
</event>
<event>
 5   0  0.1079446E-02  0.6993496E+03  0.7818609E-02  0.9718345E-01
        2   -1    0    0  501    0  0.00000000000E+00  0.00000000000E+00  0.50737913220E+03  0.50737913221E+03  0.25500000920E-02 0.  1.
       -2   -1    0    0    0  501  0.00000000000E+00  0.00000000000E+00 -0.24098836826E+03  0.24098836827E+03  0.25500000920E-02 0. -1.
    10030    2    1    2    0    0  0.00000000000E+00  0.00000000000E+00  0.26639076394E+03  0.74836750048E+03  0.69934960975E+03 0.  0.
        2    1    3    3  502    0  0.10550091106E+03  0.77801057588E+02 -0.21370059086E+03  0.25070179364E+03  0.25500000920E-02 0. -1.
       -2    1    3    3    0  502 -0.10550091106E+03 -0.77801057588E+02  0.48009135480E+03  0.49766570684E+03  0.25500000920E-02 0.  1.
</event>
<event>
 5   0  0.1119786E-02  0.6984559E+03  0.7818609E-02  0.9719876E-01
       -2   -1    0    0    0  501  0.00000000000E+00  0.00000000000E+00  0.56826997474E+03  0.56826997475E+03  0.25500000920E-02 0. -1.
        2   -1    0    0  501    0  0.00000000000E+00  0.00000000000E+00 -0.21461657996E+03  0.21461657998E+03  0.25500000920E-02 0.  1.
    10030    2    1    2    0    0  0.00000000000E+00  0.00000000000E+00  0.35365339478E+03  0.78288655473E+03  0.69845589262E+03 0.  0.
        3    1    3    3  502    0  0.23294699063E+02  0.34390426988E+03  0.11394374103E+03  0.36303715536E+03  0.10100000352E+00 0.  1.
       -3    1    3    3    0  502 -0.23294699063E+02 -0.34390426988E+03  0.23970965375E+03  0.41984939937E+03  0.10100000352E+00 0. -1.
</event>
<event>
 5   0  0.1079446E-02  0.6920658E+03  0.7818609E-02  0.9730898E-01
        2   -1    0    0  501    0  0.00000000000E+00  0.00000000000E+00  0.10228065571E+04  0.10228065571E+04  0.25500000920E-02 0. -1.
       -2   -1    0    0    0  501  0.00000000000E+00  0.00000000000E+00 -0.11706884513E+03  0.11706884516E+03  0.25500000920E-02 0.  1.
    10030    2    1    2    0    0  0.00000000000E+00  0.00000000000E+00  0.90573771197E+03  0.11398754023E+04  0.69206584211E+03 0.  0.
        2    1    3    3  502    0 -0.89078136824E+02 -0.10087962863E+03 -0.72198332786E+02  0.15272266759E+03  0.25500000920E-02 0.  1.
       -2    1    3    3    0  502  0.89078136824E+02  0.10087962863E+03  0.97793604476E+03  0.98715273468E+03  0.25500000920E-02 0. -1.
</event>
<event>
 5   0  0.6689415E-03  0.6990156E+03  0.7818609E-02  0.9718917E-01
        1   -1    0    0  501    0  0.00000000000E+00  0.00000000000E+00  0.12349107233E+04  0.12349107233E+04  0.50400001928E-02 0. -1.
       -1   -1    0    0    0  501  0.00000000000E+00  0.00000000000E+00 -0.98918639029E+02  0.98918639158E+02  0.50400001928E-02 0.  1.
    10030    2    1    2    0    0  0.00000000000E+00  0.00000000000E+00  0.11359920843E+04  0.13338293625E+04  0.69901555967E+03 0.  0.
        1    1    3    3  502    0 -0.12797175476E+03 -0.32513806459E+03  0.55271208857E+03  0.65389768614E+03  0.50400001928E-02 0. -1.
       -1    1    3    3    0  502  0.12797175476E+03  0.32513806459E+03  0.58327999570E+03  0.67993167633E+03  0.50400001928E-02 0.  1.
</event>
<event>
 5   0  0.6785252E-03  0.6965740E+03  0.7818609E-02  0.9723109E-01
       -1   -1    0    0    0  501  0.00000000000E+00  0.00000000000E+00  0.10611153466E+03  0.10611153478E+03  0.50400001928E-02 0. -1.
        1   -1    0    0  501    0  0.00000000000E+00  0.00000000000E+00 -0.11431728476E+04  0.11431728476E+04  0.50400001928E-02 0.  1.
    10030    2    1    2    0    0  0.00000000000E+00  0.00000000000E+00 -0.10370613129E+04  0.12492843824E+04  0.69657397401E+03 0.  0.
        3    1    3    3  502    0 -0.16677333100E+03  0.10248492978E+03 -0.18765192742E+01  0.19575504155E+03  0.10100000352E+00 0. -1.
       -3    1    3    3    0  502  0.16677333100E+03 -0.10248492978E+03 -0.10351847937E+04  0.10535293408E+04  0.10100000352E+00 0.  1.
</event>
<event>
 5   0  0.1099980E-02  0.6993807E+03  0.7818609E-02  0.9718292E-01
       -2   -1    0    0    0  501  0.00000000000E+00  0.00000000000E+00  0.20330566143E+03  0.20330566145E+03  0.25500000920E-02 0. -1.
        2   -1    0    0  501    0  0.00000000000E+00  0.00000000000E+00 -0.60147538352E+03  0.60147538352E+03  0.25500000920E-02 0.  1.
    10030    2    1    2    0    0  0.00000000000E+00  0.00000000000E+00 -0.39816972208E+03  0.80478104497E+03  0.69938072804E+03 0.  0.
        5    1    3    3  502    0  0.10264411576E+03  0.23959340680E+03 -0.46727681229E+03  0.53507992336E+03  0.46999998093E+01 0.  1.
       -5    1    3    3    0  502 -0.10264411576E+03 -0.23959340680E+03  0.69107090207E+02  0.26970112161E+03  0.46999998093E+01 0. -1.
</event>
<event>
 5   0  0.6785252E-03  0.7003975E+03  0.7818609E-02  0.9716553E-01
       -1   -1    0    0    0  501  0.00000000000E+00  0.00000000000E+00  0.43683146795E+03  0.43683146798E+03  0.50400001928E-02 0.  1.
        1   -1    0    0  501    0  0.00000000000E+00  0.00000000000E+00 -0.28074707152E+03  0.28074707156E+03  0.50400001928E-02 0. -1.
    10030    2    1    2    0    0  0.00000000000E+00  0.00000000000E+00  0.15608439643E+03  0.71757853954E+03  0.70039747401E+03 0.  0.
        3    1    3    3  502    0 -0.30625216677E+03 -0.15507497854E+03  0.70569009316E+01  0.34334887311E+03  0.10100000352E+00 0.  1.
       -3    1    3    3    0  502  0.30625216677E+03  0.15507497854E+03  0.14902749550E+03  0.37422966643E+03  0.10100000352E+00 0. -1.
</event>
<event>
 5   0  0.6609285E-03  0.6965526E+03  0.7818609E-02  0.9723146E-01
        1   -1    0    0  501    0  0.00000000000E+00  0.00000000000E+00  0.12016711357E+03  0.12016711367E+03  0.50400001928E-02 0.  1.
       -1   -1    0    0    0  501  0.00000000000E+00  0.00000000000E+00 -0.10093976069E+04  0.10093976069E+04  0.50400001928E-02 0. -1.
    10030    2    1    2    0    0  0.00000000000E+00  0.00000000000E+00 -0.88923049332E+03  0.11295647206E+04  0.69655264532E+03 0.  0.
        2    1    3    3  502    0 -0.32067971676E+03 -0.11414657718E+03 -0.32510199297E+03  0.47069759683E+03  0.25500000920E-02 0.  1.
       -2    1    3    3    0  502  0.32067971676E+03  0.11414657718E+03 -0.56412850035E+03  0.65886712373E+03  0.25500000920E-02 0. -1.
</event>
<event>
 5   0  0.1099980E-02  0.6970608E+03  0.7818609E-02  0.9722272E-01
       -2   -1    0    0    0  501  0.00000000000E+00  0.00000000000E+00  0.81429629128E+02  0.81429629168E+02  0.25500000920E-02 0.  1.
        2   -1    0    0  501    0  0.00000000000E+00  0.00000000000E+00 -0.14917595351E+04  0.14917595351E+04  0.25500000920E-02 0. -1.
    10030    2    1    2    0    0  0.00000000000E+00  0.00000000000E+00 -0.14103299060E+04  0.15731891643E+04  0.69706075983E+03 0.  0.
        5    1    3    3  502    0 -0.23330061009E+03 -0.21766230267E+03 -0.10214942793E+04  0.10701769504E+04  0.46999998093E+01 0. -1.
       -5    1    3    3    0  502  0.23330061009E+03  0.21766230267E+03 -0.38883562668E+03  0.50301221381E+03  0.46999998093E+01 0.  1.
</event>
<event>
 5   0  0.6689415E-03  0.7011997E+03  0.7818609E-02  0.9715183E-01
       -1   -1    0    0    0  501  0.00000000000E+00  0.00000000000E+00  0.67247593635E+02  0.67247593824E+02  0.50400001928E-02 0. -1.
        1   -1    0    0  501    0  0.00000000000E+00  0.00000000000E+00 -0.18278761375E+04  0.18278761375E+04  0.50400001928E-02 0.  1.
    10030    2    1    2    0    0  0.00000000000E+00  0.00000000000E+00 -0.17606285439E+04  0.18951237313E+04  0.70119974871E+03 0.  0.
        1    1    3    3  502    0  0.25579399004E+03 -0.77063809885E+02 -0.26667401664E+03  0.37747109467E+03  0.50400001928E-02 0. -1.
       -1    1    3    3    0  502 -0.25579399004E+03  0.77063809885E+02 -0.14939545272E+04  0.15176526367E+04  0.50400001928E-02 0.  1.
</event>
<event>
 5   0  0.1119786E-02  0.7032948E+03  0.7818609E-02  0.9711614E-01
       -2   -1    0    0    0  501  0.00000000000E+00  0.00000000000E+00  0.17780956403E+03  0.17780956404E+03  0.25500000920E-02 0.  1.
        2   -1    0    0  501    0  0.00000000000E+00  0.00000000000E+00 -0.69543999257E+03  0.69543999257E+03  0.25500000920E-02 0. -1.
    10030    2    1    2    0    0  0.00000000000E+00  0.00000000000E+00 -0.51763042854E+03  0.87324955662E+03  0.70329476578E+03 0.  0.
        3    1    3    3  502    0  0.15483525394E+03 -0.24040615147E+03 -0.46947906618E+01  0.28599147678E+03  0.10100000352E+00 0.  1.
       -3    1    3    3    0  502 -0.15483525394E+03  0.24040615147E+03 -0.51293563788E+03  0.58725807984E+03  0.10100000352E+00 0. -1.
</event>
<event>
 5   0  0.1100119E-02  0.6994978E+03  0.7818609E-02  0.9718091E-01
       -2   -1    0    0    0  501  0.00000000000E+00  0.00000000000E+00  0.71085710715E+02  0.71085710760E+02  0.25500000920E-02 0.  1.
        2   -1    0    0  501    0  0.00000000000E+00  0.00000000000E+00 -0.17207998124E+04  0.17207998124E+04  0.25500000920E-02 0. -1.
    10030    2    1    2    0    0  0.00000000000E+00  0.00000000000E+00 -0.16497141017E+04  0.17918855232E+04  0.69949775613E+03 0.  0.
        4    1    3    3  502    0 -0.75036487851E+02  0.65873892855E+02 -0.16835065578E+04  0.16864654717E+04  0.12699999809E+01 0. -1.
       -4    1    3    3    0  502  0.75036487851E+02 -0.65873892855E+02  0.33792456063E+02  0.10542005149E+03  0.12699999809E+01 0.  1.
</event>
<event>
 5   0  0.1119786E-02  0.7013511E+03  0.7818609E-02  0.9714925E-01
        2   -1    0    0  501    0  0.00000000000E+00  0.00000000000E+00  0.23157977060E+03  0.23157977062E+03  0.25500000920E-02 0.  1.
       -2   -1    0    0    0  501  0.00000000000E+00  0.00000000000E+00 -0.53101928679E+03  0.53101928680E+03  0.25500000920E-02 0. -1.
    10030    2    1    2    0    0  0.00000000000E+00  0.00000000000E+00 -0.29943951619E+03  0.76259905742E+03  0.70135105227E+03 0.  0.
        3    1    3    3  502    0 -0.68074681832E+02  0.10315192841E+03 -0.50655382316E+03  0.52141276221E+03  0.10100000352E+00 0. -1.
       -3    1    3    3    0  502  0.68074681832E+02 -0.10315192841E+03  0.20711430697E+03  0.24118629520E+03  0.10100000352E+00 0.  1.
</event>
<event>
 5   0  0.4440500E-03  0.6989662E+03  0.7818609E-02  0.9719002E-01
       -4   -1    0    0    0  501  0.00000000000E+00  0.00000000000E+00  0.13460816487E+04  0.13460822478E+04  0.12699999809E+01 0.  1.
        4   -1    0    0  501    0  0.00000000000E+00  0.00000000000E+00 -0.90731200851E+02  0.90740088758E+02  0.12699999809E+01 0. -1.
    10030    2    1    2    0    0  0.00000000000E+00  0.00000000000E+00  0.12553504478E+04  0.14368223366E+04  0.69896615078E+03 0.  0.
        4    1    3    3  502    0 -0.34754010031E+03  0.12273669812E+02  0.55640520237E+03  0.65614261134E+03  0.12699999809E+01 0. -1.
       -4    1    3    3    0  502  0.34754010031E+03 -0.12273669812E+02  0.69894524548E+03  0.78067972522E+03  0.12699999809E+01 0.  1.
</event>
<event>
 5   0  0.1100119E-02  0.7024166E+03  0.7818609E-02  0.9713108E-01
       -2   -1    0    0    0  501  0.00000000000E+00  0.00000000000E+00  0.34018353197E+03  0.34018353198E+03  0.25500000920E-02 0. -1.
        2   -1    0    0  501    0  0.00000000000E+00  0.00000000000E+00 -0.36259034273E+03  0.36259034274E+03  0.25500000920E-02 0.  1.
    10030    2    1    2    0    0  0.00000000000E+00  0.00000000000E+00 -0.22406810757E+02  0.70277387472E+03  0.70241658139E+03 0.  0.
        4    1    3    3  502    0  0.10121685727E+03 -0.16908310966E+03 -0.30206023993E+03  0.36066043810E+03  0.12699999809E+01 0.  1.
       -4    1    3    3    0  502 -0.10121685727E+03  0.16908310966E+03  0.27965342917E+03  0.34211343662E+03  0.12699999809E+01 0. -1.
</event>
<event>
 5   0  0.6785252E-03  0.7010309E+03  0.7818609E-02  0.9715471E-01
       -1   -1    0    0    0  501  0.00000000000E+00  0.00000000000E+00  0.28457435130E+03  0.28457435135E+03  0.50400001928E-02 0. -1.
        1   -1    0    0  501    0  0.00000000000E+00  0.00000000000E+00 -0.43173634197E+03  0.43173634200E+03  0.50400001928E-02 0.  1.
    10030    2    1    2    0    0  0.00000000000E+00  0.00000000000E+00 -0.14716199067E+03  0.71631069335E+03  0.70103092507E+03 0.  0.
        3    1    3    3  502    0 -0.15990350953E+03  0.25161308823E+03 -0.26194323356E+03  0.39685330582E+03  0.10100000352E+00 0.  1.
       -3    1    3    3    0  502  0.15990350953E+03 -0.25161308823E+03  0.11478124290E+03  0.31945738753E+03  0.10100000352E+00 0. -1.
</event>
<event>
 5   0  0.4440500E-03  0.7039863E+03  0.7818609E-02  0.9710439E-01
        4   -1    0    0  501    0  0.00000000000E+00  0.00000000000E+00  0.42397875457E+03  0.42398065667E+03  0.12699999809E+01 0. -1.
       -4   -1    0    0    0  501  0.00000000000E+00  0.00000000000E+00 -0.29222571308E+03  0.29222847275E+03  0.12699999809E+01 0.  1.
    10030    2    1    2    0    0  0.00000000000E+00  0.00000000000E+00  0.13175304150E+03  0.71620912942E+03  0.70398625918E+03 0.  0.
        2    1    3    3  502    0 -0.16731092872E+03  0.26682360624E+03 -0.94051353941E+02  0.32868440927E+03  0.25500000920E-02 0.  1.
       -2    1    3    3    0  502  0.16731092872E+03 -0.26682360624E+03  0.22580439544E+03  0.38752472014E+03  0.25500000920E-02 0. -1.
</event>
<event>
 5   0  0.4440500E-03  0.7039889E+03  0.7818609E-02  0.9710435E-01
        3   -1    0    0  501    0  0.00000000000E+00  0.00000000000E+00  0.11865223595E+04  0.11865223638E+04  0.10100000352E+00 0. -1.
       -3   -1    0    0    0  501  0.00000000000E+00  0.00000000000E+00 -0.10442284969E+03  0.10442289853E+03  0.10100000352E+00 0.  1.
    10030    2    1    2    0    0  0.00000000000E+00  0.00000000000E+00  0.10820995098E+04  0.12909452623E+04  0.70398886439E+03 0.  0.
        2    1    3    3  502    0  0.12402200161E+03 -0.30195170566E+03  0.78254804065E+03  0.84790195505E+03  0.25500000920E-02 0. -1.
       -2    1    3    3    0  502 -0.12402200161E+03  0.30195170566E+03  0.29955146913E+03  0.44304330725E+03  0.25500000920E-02 0.  1.
</event>
<event>
 5   0  0.4440500E-03  0.7006592E+03  0.7818609E-02  0.9716106E-01
        3   -1    0    0  501    0  0.00000000000E+00  0.00000000000E+00  0.56532139328E+03  0.56532140231E+03  0.10100000352E+00 0.  1.
       -3   -1    0    0    0  501  0.00000000000E+00  0.00000000000E+00 -0.21709918612E+03  0.21709920962E+03  0.10100000352E+00 0. -1.
    10030    2    1    2    0    0  0.00000000000E+00  0.00000000000E+00  0.34822220716E+03  0.78242061192E+03  0.70065919561E+03 0.  0.
        4    1    3    3  502    0  0.14689660132E+03 -0.31804127113E+03  0.17344802798E+03  0.39091519915E+03  0.12699999809E+01 0. -1.
       -4    1    3    3    0  502 -0.14689660132E+03  0.31804127113E+03  0.17477417918E+03  0.39150541277E+03  0.12699999809E+01 0.  1.
</event>
<event>
 5   0  0.6990118E-03  0.6959429E+03  0.7818609E-02  0.9724196E-01
       -1   -1    0    0    0  501  0.00000000000E+00  0.00000000000E+00  0.14846555348E+03  0.14846555357E+03  0.50400001928E-02 0. -1.
        1   -1    0    0  501    0  0.00000000000E+00  0.00000000000E+00 -0.81557048609E+03  0.81557048610E+03  0.50400001928E-02 0.  1.
    10030    2    1    2    0    0  0.00000000000E+00  0.00000000000E+00 -0.66710493260E+03  0.96403603967E+03  0.69594288177E+03 0.  0.
        5    1    3    3  502    0  0.14711365954E+03 -0.66118064281E+02 -0.76061471145E+03  0.77754154649E+03  0.46999998093E+01 0.  1.
       -5    1    3    3    0  502 -0.14711365954E+03  0.66118064281E+02  0.93509778849E+02  0.18649449318E+03  0.46999998093E+01 0. -1.
</event>
<event>
 5   0  0.4440500E-03  0.7095366E+03  0.7818609E-02  0.9701061E-01
        4   -1    0    0  501    0  0.00000000000E+00  0.00000000000E+00  0.18789360535E+03  0.18789789736E+03  0.12699999809E+01 0.  1.
       -4   -1    0    0    0  501  0.00000000000E+00  0.00000000000E+00 -0.66983761550E+03  0.66983881945E+03  0.12699999809E+01 0. -1.
    10030    2    1    2    0    0  0.00000000000E+00  0.00000000000E+00 -0.48194401015E+03  0.85773671681E+03  0.70953664207E+03 0.  0.
        3    1    3    3  502    0 -0.14330250194E+03 -0.94351682700E+02 -0.61635001427E+03  0.63978527443E+03  0.10100000352E+00 0. -1.
       -3    1    3    3    0  502  0.14330250194E+03  0.94351682700E+02  0.13440600411E+03  0.21795144238E+03  0.10100000352E+00 0.  1.
</event>
<event>
 5   0  0.6785252E-03  0.7000732E+03  0.7818609E-02  0.9717107E-01
       -1   -1    0    0    0  501  0.00000000000E+00  0.00000000000E+00  0.31678860909E+03  0.31678860913E+03  0.50400001928E-02 0.  1.
        1   -1    0    0  501    0  0.00000000000E+00  0.00000000000E+00 -0.38677407922E+03  0.38677407925E+03  0.50400001928E-02 0. -1.
    10030    2    1    2    0    0  0.00000000000E+00  0.00000000000E+00 -0.69985470123E+02  0.70356268838E+03  0.70007320364E+03 0.  0.
        3    1    3    3  502    0 -0.19386120746E+03  0.18219960892E+03 -0.26360570860E+03  0.37452215563E+03  0.10100000352E+00 0. -1.
       -3    1    3    3    0  502  0.19386120746E+03 -0.18219960892E+03  0.19362023848E+03  0.32904053276E+03  0.10100000352E+00 0.  1.
</event>
<event>
 5   0  0.6785252E-03  0.7278071E+03  0.7818609E-02  0.9670826E-01
        1   -1    0    0  501    0  0.00000000000E+00  0.00000000000E+00  0.50443804106E+03  0.50443804109E+03  0.50400001928E-02 0.  1.
       -1   -1    0    0    0  501  0.00000000000E+00  0.00000000000E+00 -0.26252141643E+03  0.26252141648E+03  0.50400001928E-02 0. -1.
    10030    2    1    2    0    0  0.00000000000E+00  0.00000000000E+00  0.24191662463E+03  0.76695945757E+03  0.72780708727E+03 0.  0.
        3    1    3    3  502    0  0.29655563254E+03  0.20404320814E+03  0.17718501369E+03  0.40121492153E+03  0.10100000352E+00 0.  1.
       -3    1    3    3    0  502 -0.29655563254E+03 -0.20404320814E+03  0.64731610938E+02  0.36574453603E+03  0.10100000352E+00 0. -1.
</event>
<event>
 5   0  0.1099980E-02  0.6976841E+03  0.7818609E-02  0.9721201E-01
        2   -1    0    0  501    0  0.00000000000E+00  0.00000000000E+00  0.15847316790E+03  0.15847316792E+03  0.25500000920E-02 0. -1.
       -2   -1    0    0    0  501  0.00000000000E+00  0.00000000000E+00 -0.76789519217E+03  0.76789519218E+03  0.25500000920E-02 0.  1.
    10030    2    1    2    0    0  0.00000000000E+00  0.00000000000E+00 -0.60942202427E+03  0.92636836010E+03  0.69768412259E+03 0.  0.
        5    1    3    3  502    0  0.13139452870E+03 -0.15474343014E+03 -0.68133781519E+03  0.71095243142E+03  0.46999998093E+01 0.  1.
       -5    1    3    3    0  502 -0.13139452870E+03  0.15474343014E+03  0.71915790916E+02  0.21541592867E+03  0.46999998093E+01 0. -1.
</event>
<event>
 5   0  0.6689415E-03  0.6980798E+03  0.7818609E-02  0.9720522E-01
        1   -1    0    0  501    0  0.00000000000E+00  0.00000000000E+00  0.12835506164E+03  0.12835506174E+03  0.50400001928E-02 0. -1.
       -1   -1    0    0    0  501  0.00000000000E+00  0.00000000000E+00 -0.94915513093E+03  0.94915513094E+03  0.50400001928E-02 0.  1.
    10030    2    1    2    0    0  0.00000000000E+00  0.00000000000E+00 -0.82080006928E+03  0.10775101927E+04  0.69807983899E+03 0.  0.
        1    1    3    3  502    0  0.10426056359E+03 -0.33304391197E+03 -0.42020517837E+03  0.54622422537E+03  0.50400001928E-02 0. -1.
       -1    1    3    3    0  502 -0.10426056359E+03  0.33304391197E+03 -0.40059489091E+03  0.53128596731E+03  0.50400001928E-02 0.  1.
</event>
<event>
 5   0  0.6990118E-03  0.6981903E+03  0.7818609E-02  0.9720332E-01
       -1   -1    0    0    0  501  0.00000000000E+00  0.00000000000E+00  0.27781101096E+03  0.27781101101E+03  0.50400001928E-02 0.  1.
        1   -1    0    0  501    0  0.00000000000E+00  0.00000000000E+00 -0.43867029393E+03  0.43867029396E+03  0.50400001928E-02 0. -1.
    10030    2    1    2    0    0  0.00000000000E+00  0.00000000000E+00 -0.16085928297E+03  0.71648130497E+03  0.69819034042E+03 0.  0.
        5    1    3    3  502    0 -0.28635543657E+03  0.17523334488E+03 -0.17853320894E+03  0.38026616719E+03  0.46999998093E+01 0. -1.
       -5    1    3    3    0  502  0.28635543657E+03 -0.17523334488E+03  0.17673925971E+02  0.33621513778E+03  0.46999998093E+01 0.  1.
</event>
<event>
 5   0  0.6246998E-03  0.7081927E+03  0.7818609E-02  0.9703323E-01
        1   -1    0    0  501    0  0.00000000000E+00  0.00000000000E+00  0.62015548957E+03  0.62015548959E+03  0.50400001928E-02 0. -1.
       -1   -1    0    0    0  501  0.00000000000E+00  0.00000000000E+00 -0.20218191486E+03  0.20218191492E+03  0.50400001928E-02 0.  1.
    10030    2    1    2    0    0  0.00000000000E+00  0.00000000000E+00  0.41797357471E+03  0.82233740451E+03  0.70819269815E+03 0.  0.
        4    1    3    3  502    0 -0.19066217446E+03 -0.24298664479E+03  0.79050537634E+01  0.30896387667E+03  0.12699999809E+01 0.  1.
       -4    1    3    3    0  502  0.19066217446E+03  0.24298664479E+03  0.41006852094E+03  0.51337352784E+03  0.12699999809E+01 0. -1.
</event>
<event>
 5   0  0.6609285E-03  0.7012783E+03  0.7818609E-02  0.9715049E-01
        1   -1    0    0  501    0  0.00000000000E+00  0.00000000000E+00  0.22752050154E+03  0.22752050160E+03  0.50400001928E-02 0. -1.
       -1   -1    0    0    0  501  0.00000000000E+00  0.00000000000E+00 -0.54038118427E+03  0.54038118429E+03  0.50400001928E-02 0.  1.
    10030    2    1    2    0    0  0.00000000000E+00  0.00000000000E+00 -0.31286068273E+03  0.76790168589E+03  0.70127825604E+03 0.  0.
        2    1    3    3  502    0  0.17878671192E+03  0.20555630474E+03  0.85289435614E+02  0.28546868586E+03  0.25500000920E-02 0. -1.
       -2    1    3    3    0  502 -0.17878671192E+03 -0.20555630474E+03 -0.39815011834E+03  0.48243300003E+03  0.25500000920E-02 0.  1.
</event>
<event>
 5   0  0.1079446E-02  0.6996508E+03  0.7818609E-02  0.9717829E-01
        2   -1    0    0  501    0  0.00000000000E+00  0.00000000000E+00  0.35940685863E+03  0.35940685864E+03  0.25500000920E-02 0. -1.
       -2   -1    0    0    0  501  0.00000000000E+00  0.00000000000E+00 -0.34049940860E+03  0.34049940861E+03  0.25500000920E-02 0.  1.
    10030    2    1    2    0    0  0.00000000000E+00  0.00000000000E+00  0.18907450025E+02  0.69990626725E+03  0.69965083525E+03 0.  0.
        2    1    3    3  502    0  0.50257439482E+02 -0.33327805905E+03  0.10317756594E+03  0.35248501385E+03  0.25500000920E-02 0. -1.
       -2    1    3    3    0  502 -0.50257439482E+02  0.33327805905E+03 -0.84270115918E+02  0.34742125340E+03  0.25500000920E-02 0.  1.
</event>
<event>
 5   0  0.1119786E-02  0.6997998E+03  0.7818609E-02  0.9717575E-01
        2   -1    0    0  501    0  0.00000000000E+00  0.00000000000E+00  0.61710294075E+03  0.61710294075E+03  0.25500000920E-02 0.  1.
       -2   -1    0    0    0  501  0.00000000000E+00  0.00000000000E+00 -0.19839470160E+03  0.19839470161E+03  0.25500000920E-02 0. -1.
    10030    2    1    2    0    0  0.00000000000E+00  0.00000000000E+00  0.41870823915E+03  0.81549764236E+03  0.69979983936E+03 0.  0.
        3    1    3    3  502    0  0.80778174740E+02  0.75152215189E+02  0.59630149666E+03  0.60642266950E+03  0.10100000352E+00 0.  1.
       -3    1    3    3    0  502 -0.80778174740E+02 -0.75152215189E+02 -0.17759325751E+03  0.20907497286E+03  0.10100000352E+00 0. -1.
</event>
<event>
 5   0  0.1100119E-02  0.6971911E+03  0.7818609E-02  0.9722048E-01
        2   -1    0    0  501    0  0.00000000000E+00  0.00000000000E+00  0.22903478803E+03  0.22903478805E+03  0.25500000920E-02 0. -1.
       -2   -1    0    0    0  501  0.00000000000E+00  0.00000000000E+00 -0.53056944509E+03  0.53056944510E+03  0.25500000920E-02 0.  1.
    10030    2    1    2    0    0  0.00000000000E+00  0.00000000000E+00 -0.30153465706E+03  0.75960423315E+03  0.69719110838E+03 0.  0.
        4    1    3    3  502    0  0.17739595032E+03  0.41731845714E+02 -0.47453357550E+03  0.50832528691E+03  0.12699999809E+01 0.  1.
       -4    1    3    3    0  502 -0.17739595032E+03 -0.41731845714E+02  0.17299891844E+03  0.25127894623E+03  0.12699999809E+01 0. -1.
</event>
<event>
 5   0  0.6785252E-03  0.7001293E+03  0.7818609E-02  0.9717011E-01
       -1   -1    0    0    0  501  0.00000000000E+00  0.00000000000E+00  0.17530403068E+03  0.17530403076E+03  0.50400001928E-02 0.  1.
        1   -1    0    0  501    0  0.00000000000E+00  0.00000000000E+00 -0.69904424466E+03  0.69904424468E+03  0.50400001928E-02 0. -1.
    10030    2    1    2    0    0  0.00000000000E+00  0.00000000000E+00 -0.52374021398E+03  0.87434827544E+03  0.70012934163E+03 0.  0.
        3    1    3    3  502    0 -0.15731052680E+03 -0.15793549168E+03 -0.59895243599E+03  0.63908861056E+03  0.10100000352E+00 0. -1.
       -3    1    3    3    0  502  0.15731052680E+03  0.15793549168E+03  0.75212222011E+02  0.23525966487E+03  0.10100000352E+00 0.  1.
</event>
<event>
 5   0  0.1109788E-02  0.6999926E+03  0.7818609E-02  0.9717245E-01
       -2   -1    0    0    0  501  0.00000000000E+00  0.00000000000E+00  0.15383978662E+03  0.15383978664E+03  0.25500000920E-02 0. -1.
        2   -1    0    0  501    0  0.00000000000E+00  0.00000000000E+00 -0.79626606522E+03  0.79626606523E+03  0.25500000920E-02 0.  1.
    10030    2    1    2    0    0  0.00000000000E+00  0.00000000000E+00 -0.64242627860E+03  0.95010585187E+03  0.69999257591E+03 0.  0.
        1    1    3    3  502    0 -0.75213871497E+02 -0.33080481827E+03 -0.43803985209E+03  0.55404680877E+03  0.50400001928E-02 0.  1.
       -1    1    3    3    0  502  0.75213871497E+02  0.33080481827E+03 -0.20438642651E+03  0.39605904310E+03  0.50400001928E-02 0. -1.
</event>
<event>
 5   0  0.1099980E-02  0.6984812E+03  0.7818609E-02  0.9719833E-01
       -2   -1    0    0    0  501  0.00000000000E+00  0.00000000000E+00  0.10261531693E+03  0.10261531697E+03  0.25500000920E-02 0.  1.
        2   -1    0    0  501    0  0.00000000000E+00  0.00000000000E+00 -0.11886040431E+04  0.11886040431E+04  0.25500000920E-02 0. -1.
    10030    2    1    2    0    0  0.00000000000E+00  0.00000000000E+00 -0.10859887261E+04  0.12912193600E+04  0.69848115397E+03 0.  0.
        5    1    3    3  502    0 -0.25168668949E+02 -0.60713593615E+02 -0.11770091383E+04  0.11788520704E+04  0.46999998093E+01 0. -1.
       -5    1    3    3    0  502  0.25168668949E+02  0.60713593615E+02  0.91020412156E+02  0.11236728961E+03  0.46999998093E+01 0.  1.
</event>
<event>
 5   0  0.6246998E-03  0.7001783E+03  0.7818609E-02  0.9716927E-01
        1   -1    0    0  501    0  0.00000000000E+00  0.00000000000E+00  0.65507114848E+03  0.65507114850E+03  0.50400001928E-02 0.  1.
       -1   -1    0    0    0  501  0.00000000000E+00  0.00000000000E+00 -0.18709786369E+03  0.18709786376E+03  0.50400001928E-02 0. -1.
    10030    2    1    2    0    0  0.00000000000E+00  0.00000000000E+00  0.46797328479E+03  0.84216901225E+03  0.70017829867E+03 0.  0.
        4    1    3    3  502    0  0.26192326083E+03  0.15847735593E+03  0.29717488163E+02  0.30757699671E+03  0.12699999809E+01 0. -1.
       -4    1    3    3    0  502 -0.26192326083E+03 -0.15847735593E+03  0.43825579663E+03  0.53459201554E+03  0.12699999809E+01 0.  1.
</event>
<event>
 5   0  0.6609285E-03  0.7028129E+03  0.7818609E-02  0.9712434E-01
        1   -1    0    0  501    0  0.00000000000E+00  0.00000000000E+00  0.50725699975E+03  0.50725699978E+03  0.50400001928E-02 0.  1.
       -1   -1    0    0    0  501  0.00000000000E+00  0.00000000000E+00 -0.24343971404E+03  0.24343971409E+03  0.50400001928E-02 0. -1.
    10030    2    1    2    0    0  0.00000000000E+00  0.00000000000E+00  0.26381728571E+03  0.75069671387E+03  0.70281291676E+03 0.  0.
        2    1    3    3  502    0  0.24410295055E+03  0.23981557077E+03  0.21728397484E+03  0.40535180298E+03  0.25500000920E-02 0.  1.
       -2    1    3    3    0  502 -0.24410295055E+03 -0.23981557077E+03  0.46533310874E+02  0.34534491089E+03  0.25500000920E-02 0. -1.
</event>
<event>
 5   0  0.4440500E-03  0.7036039E+03  0.7818609E-02  0.9711089E-01
       -4   -1    0    0    0  501  0.00000000000E+00  0.00000000000E+00  0.19461744230E+03  0.19462158603E+03  0.12699999809E+01 0.  1.
        4   -1    0    0  501    0  0.00000000000E+00  0.00000000000E+00 -0.63592646410E+03  0.63592773225E+03  0.12699999809E+01 0. -1.
    10030    2    1    2    0    0  0.00000000000E+00  0.00000000000E+00 -0.44130902180E+03  0.83054931828E+03  0.70360394924E+03 0.  0.
        5    1    3    3  502    0 -0.47718845596E+02  0.28041712394E+03 -0.46495242083E+03  0.54508136572E+03  0.46999998093E+01 0.  1.
       -5    1    3    3    0  502  0.47718845596E+02 -0.28041712394E+03  0.23643399029E+02  0.28546795256E+03  0.46999998093E+01 0. -1.
</event>
<event>
 5   0  0.6785252E-03  0.6964420E+03  0.7818609E-02  0.9723336E-01
       -1   -1    0    0    0  501  0.00000000000E+00  0.00000000000E+00  0.11712313871E+03  0.11712313882E+03  0.50400001928E-02 0.  1.
        1   -1    0    0  501    0  0.00000000000E+00  0.00000000000E+00 -0.10353024927E+04  0.10353024927E+04  0.50400001928E-02 0. -1.
    10030    2    1    2    0    0  0.00000000000E+00  0.00000000000E+00 -0.91817935396E+03  0.11524256315E+04  0.69644203643E+03 0.  0.
        3    1    3    3  502    0  0.23833730598E+03  0.24863716657E+03 -0.54399466017E+03  0.64385969940E+03  0.10100000352E+00 0.  1.
       -3    1    3    3    0  502 -0.23833730598E+03 -0.24863716657E+03 -0.37418469379E+03  0.50856593210E+03  0.10100000352E+00 0. -1.
</event>
<event>
 5   0  0.6609285E-03  0.6973241E+03  0.7818609E-02  0.9721819E-01
        1   -1    0    0  501    0  0.00000000000E+00  0.00000000000E+00  0.50389252245E+03  0.50389252248E+03  0.50400001928E-02 0.  1.
       -1   -1    0    0    0  501  0.00000000000E+00  0.00000000000E+00 -0.24125229657E+03  0.24125229662E+03  0.50400001928E-02 0. -1.
    10030    2    1    2    0    0  0.00000000000E+00  0.00000000000E+00  0.26264022588E+03  0.74514481910E+03  0.69732410913E+03 0.  0.
        2    1    3    3  502    0 -0.13676108414E+03  0.70026142794E+02  0.46576603240E+03  0.49045412808E+03  0.25500000920E-02 0.  1.
       -2    1    3    3    0  502  0.13676108414E+03 -0.70026142794E+02 -0.20312580652E+03  0.25469069101E+03  0.25500000920E-02 0. -1.
</event>
<event>
 5   0  0.1079446E-02  0.6971771E+03  0.7818609E-02  0.9722072E-01
       -2   -1    0    0    0  501  0.00000000000E+00  0.00000000000E+00  0.78098150229E+02  0.78098150271E+02  0.25500000920E-02 0.  1.
        2   -1    0    0  501    0  0.00000000000E+00  0.00000000000E+00 -0.15559135677E+04  0.15559135677E+04  0.25500000920E-02 0. -1.
    10030    2    1    2    0    0  0.00000000000E+00  0.00000000000E+00 -0.14778154175E+04  0.16340117180E+04  0.69717708393E+03 0.  0.
        2    1    3    3  502    0 -0.27647230752E+03  0.18100317962E+03 -0.47881557296E+03  0.58177610881E+03  0.25500000920E-02 0.  1.
       -2    1    3    3    0  502  0.27647230752E+03 -0.18100317962E+03 -0.99899984449E+03  0.10522356092E+04  0.25500000920E-02 0. -1.
</event>
<event>
 5   0  0.1079446E-02  0.6993141E+03  0.7818609E-02  0.9718406E-01
        2   -1    0    0  501    0  0.00000000000E+00  0.00000000000E+00  0.30404792190E+03  0.30404792192E+03  0.25500000920E-02 0. -1.
       -2   -1    0    0    0  501  0.00000000000E+00  0.00000000000E+00 -0.40210780923E+03  0.40210780924E+03  0.25500000920E-02 0.  1.
    10030    2    1    2    0    0  0.00000000000E+00  0.00000000000E+00 -0.98059887323E+02  0.70615573115E+03  0.69931407475E+03 0.  0.
        2    1    3    3  502    0 -0.32801515741E+03  0.92463300485E+02  0.29944144590E+02  0.34211117671E+03  0.25500000920E-02 0.  1.
       -2    1    3    3    0  502  0.32801515741E+03 -0.92463300485E+02 -0.12800403191E+03  0.36404455444E+03  0.25500000920E-02 0. -1.
</event>
<event>
 5   0  0.1119786E-02  0.7003475E+03  0.7818609E-02  0.9716638E-01
        2   -1    0    0  501    0  0.00000000000E+00  0.00000000000E+00  0.32795640312E+03  0.32795640313E+03  0.25500000920E-02 0.  1.
       -2   -1    0    0    0  501  0.00000000000E+00  0.00000000000E+00 -0.37389616240E+03  0.37389616241E+03  0.25500000920E-02 0. -1.
    10030    2    1    2    0    0  0.00000000000E+00  0.00000000000E+00 -0.45939759277E+02  0.70185256553E+03  0.70034745824E+03 0.  0.
        3    1    3    3  502    0  0.21690633718E+02  0.22278119986E+03 -0.29284340715E+03  0.36859085436E+03  0.10100000352E+00 0. -1.
       -3    1    3    3    0  502 -0.21690633718E+02 -0.22278119986E+03  0.24690364787E+03  0.33326171118E+03  0.10100000352E+00 0.  1.
</event>
<event>
 5   0  0.4440500E-03  0.6873298E+03  0.7818609E-02  0.9739149E-01
        3   -1    0    0  501    0  0.00000000000E+00  0.00000000000E+00  0.35968920433E+03  0.35968921851E+03  0.10100000352E+00 0.  1.
       -3   -1    0    0    0  501  0.00000000000E+00  0.00000000000E+00 -0.32835449483E+03  0.32835451037E+03  0.10100000352E+00 0. -1.
    10030    2    1    2    0    0  0.00000000000E+00  0.00000000000E+00  0.31334709496E+02  0.68804372888E+03  0.68732983991E+03 0.  0.
        4    1    3    3  502    0 -0.22342836169E+03 -0.15684475752E+03  0.22465069303E+03  0.35353932956E+03  0.12699999809E+01 0.  1.
       -4    1    3    3    0  502  0.22342836169E+03  0.15684475752E+03 -0.19331598353E+03  0.33450439931E+03  0.12699999809E+01 0. -1.
</event>
<event>
 5   0  0.6246998E-03  0.6996480E+03  0.7818609E-02  0.9717834E-01
        1   -1    0    0  501    0  0.00000000000E+00  0.00000000000E+00  0.85260459865E+03  0.85260459866E+03  0.50400001928E-02 0. -1.
       -1   -1    0    0    0  501  0.00000000000E+00  0.00000000000E+00 -0.14353292554E+03  0.14353292563E+03  0.50400001928E-02 0.  1.
    10030    2    1    2    0    0  0.00000000000E+00  0.00000000000E+00  0.70907167310E+03  0.99613752430E+03  0.69964800415E+03 0.  0.
        4    1    3    3  502    0 -0.18897815512E+03  0.20736412168E+02  0.77263098958E+03  0.79567769911E+03  0.12699999809E+01 0. -1.
       -4    1    3    3    0  502  0.18897815512E+03 -0.20736412168E+02 -0.63559316480E+02  0.20045982518E+03  0.12699999809E+01 0.  1.
</event>
<event>
 5   0  0.6609285E-03  0.7018501E+03  0.7818609E-02  0.9714074E-01
       -1   -1    0    0    0  501  0.00000000000E+00  0.00000000000E+00  0.16467558958E+03  0.16467558966E+03  0.50400001928E-02 0. -1.
        1   -1    0    0  501    0  0.00000000000E+00  0.00000000000E+00 -0.74782412414E+03  0.74782412415E+03  0.50400001928E-02 0.  1.
    10030    2    1    2    0    0  0.00000000000E+00  0.00000000000E+00 -0.58314853456E+03  0.91249971381E+03  0.70185006543E+03 0.  0.
        2    1    3    3  502    0  0.25483376052E+03  0.49957344979E+01 -0.60518224587E+03  0.65666639444E+03  0.25500000920E-02 0.  1.
       -2    1    3    3    0  502 -0.25483376052E+03 -0.49957344979E+01  0.22033711310E+02  0.25583331937E+03  0.25500000920E-02 0. -1.
</event>
<event>
 5   0  0.4440500E-03  0.6993706E+03  0.7818609E-02  0.9718309E-01
        3   -1    0    0  501    0  0.00000000000E+00  0.00000000000E+00  0.42543929589E+03  0.42543930788E+03  0.10100000352E+00 0. -1.
       -3   -1    0    0    0  501  0.00000000000E+00  0.00000000000E+00 -0.28742005081E+03  0.28742006855E+03  0.10100000352E+00 0.  1.
    10030    2    1    2    0    0  0.00000000000E+00  0.00000000000E+00  0.13801924509E+03  0.71285937643E+03  0.69937055883E+03 0.  0.
        3    1    3    3  502    0 -0.26048695434E+03 -0.31406367169E+02 -0.16661985912E+03  0.31080862430E+03  0.10100000352E+00 0.  1.
       -3    1    3    3    0  502  0.26048695434E+03  0.31406367169E+02  0.30463910421E+03  0.40205075214E+03  0.10100000352E+00 0. -1.
</event>
<event>
 5   0  0.6609285E-03  0.7139728E+03  0.7818609E-02  0.9693631E-01
       -1   -1    0    0    0  501  0.00000000000E+00  0.00000000000E+00  0.25146503319E+03  0.25146503324E+03  0.50400001928E-02 0.  1.
        1   -1    0    0  501    0  0.00000000000E+00  0.00000000000E+00 -0.50678727406E+03  0.50678727409E+03  0.50400001928E-02 0. -1.
    10030    2    1    2    0    0  0.00000000000E+00  0.00000000000E+00 -0.25532224087E+03  0.75825230733E+03  0.71397276901E+03 0.  0.
        2    1    3    3  502    0  0.30479579910E+02  0.87257338741E+02 -0.49385956995E+03  0.50243419748E+03  0.25500000920E-02 0. -1.
       -2    1    3    3    0  502 -0.30479579910E+02 -0.87257338741E+02  0.23853732908E+03  0.25581810985E+03  0.25500000920E-02 0.  1.
</event>
<event>
 5   0  0.1119786E-02  0.6934422E+03  0.7818609E-02  0.9728513E-01
       -2   -1    0    0    0  501  0.00000000000E+00  0.00000000000E+00  0.44641603914E+02  0.44641603987E+02  0.25500000920E-02 0. -1.
        2   -1    0    0  501    0  0.00000000000E+00  0.00000000000E+00 -0.26929031108E+04  0.26929031108E+04  0.25500000920E-02 0.  1.
    10030    2    1    2    0    0  0.00000000000E+00  0.00000000000E+00 -0.26482615069E+04  0.27375447148E+04  0.69344217972E+03 0.  0.
        3    1    3    3  502    0  0.50189494932E+02  0.15593774359E+03 -0.25304930602E+04  0.25357899565E+04  0.10100000352E+00 0.  1.
       -3    1    3    3    0  502 -0.50189494932E+02 -0.15593774359E+03 -0.11776844667E+03  0.20175475833E+03  0.10100000352E+00 0. -1.
</event>
<event>
 5   0  0.1079446E-02  0.7018341E+03  0.7818609E-02  0.9714101E-01
        2   -1    0    0  501    0  0.00000000000E+00  0.00000000000E+00  0.12963008419E+03  0.12963008421E+03  0.25500000920E-02 0. -1.
       -2   -1    0    0    0  501  0.00000000000E+00  0.00000000000E+00 -0.94995518280E+03  0.94995518280E+03  0.25500000920E-02 0.  1.
    10030    2    1    2    0    0  0.00000000000E+00  0.00000000000E+00 -0.82032509861E+03  0.10795852670E+04  0.70183408392E+03 0.  0.
        2    1    3    3  502    0 -0.20834401034E+03 -0.10272504707E+03 -0.81475942900E+03  0.84722640958E+03  0.25500000920E-02 0.  1.
       -2    1    3    3    0  502  0.20834401034E+03  0.10272504707E+03 -0.55656696031E+01  0.23235885743E+03  0.25500000920E-02 0. -1.
</event>
<event>
 5   0  0.1079446E-02  0.6995590E+03  0.7818609E-02  0.9717987E-01
       -2   -1    0    0    0  501  0.00000000000E+00  0.00000000000E+00  0.33234068451E+03  0.33234068452E+03  0.25500000920E-02 0. -1.
        2   -1    0    0  501    0  0.00000000000E+00  0.00000000000E+00 -0.36813333516E+03  0.36813333516E+03  0.25500000920E-02 0.  1.
    10030    2    1    2    0    0  0.00000000000E+00  0.00000000000E+00 -0.35792650644E+02  0.70047401969E+03  0.69955895993E+03 0.  0.
        2    1    3    3  502    0  0.21985725796E+03 -0.19377032879E+03 -0.20909512231E+03  0.36000683935E+03  0.25500000920E-02 0.  1.
       -2    1    3    3    0  502 -0.21985725796E+03  0.19377032879E+03  0.17330247167E+03  0.34046718034E+03  0.25500000920E-02 0. -1.
</event>
<event>
 5   0  0.6609285E-03  0.6851953E+03  0.7818609E-02  0.9742891E-01
        1   -1    0    0  501    0  0.00000000000E+00  0.00000000000E+00  0.35403759203E+03  0.35403759206E+03  0.50400001928E-02 0.  1.
       -1   -1    0    0    0  501  0.00000000000E+00  0.00000000000E+00 -0.33152737115E+03  0.33152737119E+03  0.50400001928E-02 0. -1.
    10030    2    1    2    0    0  0.00000000000E+00  0.00000000000E+00  0.22510220873E+02  0.68556496325E+03  0.68519530705E+03 0.  0.
        2    1    3    3  502    0  0.16563231716E+03  0.29226305056E+03  0.78532720366E+02  0.34499151205E+03  0.25500000920E-02 0.  1.
       -2    1    3    3    0  502 -0.16563231716E+03 -0.29226305056E+03 -0.56022499493E+02  0.34057345121E+03  0.25500000920E-02 0. -1.
</event>
<event>
 5   0  0.6990118E-03  0.7009707E+03  0.7818609E-02  0.9715574E-01
        1   -1    0    0  501    0  0.00000000000E+00  0.00000000000E+00  0.14617577613E+04  0.14617577613E+04  0.50400001928E-02 0.  1.
       -1   -1    0    0    0  501  0.00000000000E+00  0.00000000000E+00 -0.84035798616E+02  0.84035798767E+02  0.50400001928E-02 0. -1.
    10030    2    1    2    0    0  0.00000000000E+00  0.00000000000E+00  0.13777219627E+04  0.15457935601E+04  0.70097070117E+03 0.  0.
        5    1    3    3  502    0  0.21690136530E+03 -0.15758276031E+03  0.19114867416E+03  0.32929991535E+03  0.46999998093E+01 0. -1.
       -5    1    3    3    0  502 -0.21690136530E+03  0.15758276031E+03  0.11865732885E+04  0.12164936447E+04  0.46999998093E+01 0.  1.
</event>
<event>
 5   0  0.4440500E-03  0.6960451E+03  0.7818609E-02  0.9724020E-01
       -3   -1    0    0    0  501  0.00000000000E+00  0.00000000000E+00  0.25493369190E+03  0.25493371191E+03  0.10100000352E+00 0. -1.
        3   -1    0    0  501    0  0.00000000000E+00  0.00000000000E+00 -0.47510274450E+03  0.47510275523E+03  0.10100000352E+00 0.  1.
    10030    2    1    2    0    0  0.00000000000E+00  0.00000000000E+00 -0.22016905259E+03  0.73003646714E+03  0.69604513621E+03 0.  0.
        5    1    3    3  502    0 -0.92024264895E+02  0.19045407165E+03  0.17973648766E+03  0.27761216424E+03  0.46999998093E+01 0. -1.
       -5    1    3    3    0  502  0.92024264895E+02 -0.19045407165E+03 -0.39990554025E+03  0.45242430291E+03  0.46999998093E+01 0.  1.
</event>
<event>
 5   0  0.1109788E-02  0.7050284E+03  0.7818609E-02  0.9708671E-01
        2   -1    0    0  501    0  0.00000000000E+00  0.00000000000E+00  0.75122336089E+03  0.75122336089E+03  0.25500000920E-02 0. -1.
       -2   -1    0    0    0  501  0.00000000000E+00  0.00000000000E+00 -0.16541850908E+03  0.16541850910E+03  0.25500000920E-02 0.  1.
    10030    2    1    2    0    0  0.00000000000E+00  0.00000000000E+00  0.58580485181E+03  0.91664186999E+03  0.70502836355E+03 0.  0.
        1    1    3    3  502    0  0.28864233577E+03  0.81971889555E+02  0.52348663350E+02  0.30458852778E+03  0.50400001928E-02 0.  1.
       -1    1    3    3    0  502 -0.28864233577E+03 -0.81971889555E+02  0.53345618846E+03  0.61205334221E+03  0.50400001928E-02 0. -1.
</event>
<event>
 5   0  0.1119786E-02  0.6998617E+03  0.7818609E-02  0.9717469E-01
        2   -1    0    0  501    0  0.00000000000E+00  0.00000000000E+00  0.16070692939E+04  0.16070692939E+04  0.25500000920E-02 0.  1.
       -2   -1    0    0    0  501  0.00000000000E+00  0.00000000000E+00 -0.76195583670E+02  0.76195583712E+02  0.25500000920E-02 0. -1.
    10030    2    1    2    0    0  0.00000000000E+00  0.00000000000E+00  0.15308737102E+04  0.16832648776E+04  0.69986165170E+03 0.  0.
        3    1    3    3  502    0 -0.16842964165E+03  0.30134497924E+03  0.90306111217E+03  0.96679714688E+03  0.10100000352E+00 0.  1.
       -3    1    3    3    0  502  0.16842964165E+03 -0.30134497924E+03  0.62781259802E+03  0.71646773070E+03  0.10100000352E+00 0. -1.
</event>
<event>
 5   0  0.4440500E-03  0.7003531E+03  0.7818609E-02  0.9716629E-01
        4   -1    0    0  501    0  0.00000000000E+00  0.00000000000E+00  0.17539249889E+03  0.17539709680E+03  0.12699999809E+01 0.  1.
       -4   -1    0    0    0  501  0.00000000000E+00  0.00000000000E+00 -0.69912390590E+03  0.69912505941E+03  0.12699999809E+01 0. -1.
    10030    2    1    2    0    0  0.00000000000E+00  0.00000000000E+00 -0.52373140701E+03  0.87452215621E+03  0.70035306454E+03 0.  0.
        4    1    3    3  502    0 -0.23605812209E+02 -0.10302496958E+03 -0.67873029973E+03  0.68691179303E+03  0.12699999809E+01 0. -1.
       -4    1    3    3    0  502  0.23605812209E+02  0.10302496958E+03  0.15499889272E+03  0.18761036318E+03  0.12699999809E+01 0.  1.
</event>
<event>
 5   0  0.1119786E-02  0.7026704E+03  0.7818609E-02  0.9712676E-01
       -2   -1    0    0    0  501  0.00000000000E+00  0.00000000000E+00  0.47087356929E+03  0.47087356930E+03  0.25500000920E-02 0.  1.
        2   -1    0    0  501    0  0.00000000000E+00  0.00000000000E+00 -0.26214346201E+03  0.26214346202E+03  0.25500000920E-02 0. -1.
    10030    2    1    2    0    0  0.00000000000E+00  0.00000000000E+00  0.20873010728E+03  0.73301703132E+03  0.70267041386E+03 0.  0.
        3    1    3    3  502    0 -0.13676533364E+02 -0.60672408783E+02 -0.25635500701E+03  0.26379175228E+03  0.10100000352E+00 0. -1.
       -3    1    3    3    0  502  0.13676533364E+02  0.60672408783E+02  0.46508511429E+03  0.46922527904E+03  0.10100000352E+00 0.  1.
</event>
<event>
 5   0  0.1079446E-02  0.6989682E+03  0.7818609E-02  0.9718998E-01
        2   -1    0    0  501    0  0.00000000000E+00  0.00000000000E+00  0.10191879502E+04  0.10191879502E+04  0.25500000920E-02 0.  1.
       -2   -1    0    0    0  501  0.00000000000E+00  0.00000000000E+00 -0.11983965863E+03  0.11983965865E+03  0.25500000920E-02 0. -1.
    10030    2    1    2    0    0  0.00000000000E+00  0.00000000000E+00  0.89934829158E+03  0.11390276089E+04  0.69896819970E+03 0.  0.
        2    1    3    3  502    0  0.98529083956E+02  0.14001565069E+03 -0.46819232365E+02  0.17749479809E+03  0.25500000920E-02 0. -1.
       -2    1    3    3    0  502 -0.98529083956E+02 -0.14001565069E+03  0.94616752395E+03  0.96153281078E+03  0.25500000920E-02 0.  1.
</event>
<event>
 5   0  0.1119786E-02  0.7014404E+03  0.7818609E-02  0.9714772E-01
       -2   -1    0    0    0  501  0.00000000000E+00  0.00000000000E+00  0.56393453368E+02  0.56393453426E+02  0.25500000920E-02 0.  1.
        2   -1    0    0  501    0  0.00000000000E+00  0.00000000000E+00 -0.21811868029E+04  0.21811868029E+04  0.25500000920E-02 0. -1.
    10030    2    1    2    0    0  0.00000000000E+00  0.00000000000E+00 -0.21247933495E+04  0.22375802563E+04  0.70144039326E+03 0.  0.
        3    1    3    3  502    0 -0.16651105778E+03 -0.28854720907E+03 -0.14121211493E+04  0.14508864789E+04  0.10100000352E+00 0. -1.
       -3    1    3    3    0  502  0.16651105778E+03  0.28854720907E+03 -0.71267220028E+03  0.78669377745E+03  0.10100000352E+00 0.  1.
</event>
<event>
 5   0  0.6785252E-03  0.6972868E+03  0.7818609E-02  0.9721883E-01
        1   -1    0    0  501    0  0.00000000000E+00  0.00000000000E+00  0.15978418561E+04  0.15978418561E+04  0.50400001928E-02 0. -1.
       -1   -1    0    0    0  501  0.00000000000E+00  0.00000000000E+00 -0.76072755453E+02  0.76072755620E+02  0.50400001928E-02 0.  1.
    10030    2    1    2    0    0  0.00000000000E+00  0.00000000000E+00  0.15217691006E+04  0.16739146117E+04  0.69728683600E+03 0.  0.
        3    1    3    3  502    0 -0.12641385049E+03  0.17172685510E+02 -0.18027272049E+02  0.12884236672E+03  0.10100000352E+00 0.  1.
       -3    1    3    3    0  502  0.12641385049E+03 -0.17172685510E+02  0.15397963726E+04  0.15450722450E+04  0.10100000352E+00 0. -1.
</event>
<event>
 5   0  0.6990118E-03  0.7006281E+03  0.7818609E-02  0.9716159E-01
       -1   -1    0    0    0  501  0.00000000000E+00  0.00000000000E+00  0.30587327399E+03  0.30587327403E+03  0.50400001928E-02 0.  1.
        1   -1    0    0  501    0  0.00000000000E+00  0.00000000000E+00 -0.40121172186E+03  0.40121172189E+03  0.50400001928E-02 0. -1.
    10030    2    1    2    0    0  0.00000000000E+00  0.00000000000E+00 -0.95338447871E+02  0.70708499592E+03  0.70062812662E+03 0.  0.
        5    1    3    3  502    0 -0.11149168429E+03 -0.24001338704E+03 -0.27926398655E+03  0.38476913313E+03  0.46999998093E+01 0. -1.
       -5    1    3    3    0  502  0.11149168429E+03  0.24001338704E+03  0.18392553868E+03  0.32231586279E+03  0.46999998093E+01 0.  1.
</event>
<event>
 5   0  0.1109788E-02  0.6986736E+03  0.7818609E-02  0.9719503E-01
       -2   -1    0    0    0  501  0.00000000000E+00  0.00000000000E+00  0.99356859584E+02  0.99356859617E+02  0.25500000920E-02 0.  1.
        2   -1    0    0  501    0  0.00000000000E+00  0.00000000000E+00 -0.12282616003E+04  0.12282616003E+04  0.25500000920E-02 0. -1.
    10030    2    1    2    0    0  0.00000000000E+00  0.00000000000E+00 -0.11289047407E+04  0.13276184599E+04  0.69867364450E+03 0.  0.
        1    1    3    3  502    0  0.14404828976E+03  0.17443097737E+03 -0.58627797415E+02  0.23369487436E+03  0.50400001928E-02 0.  1.
       -1    1    3    3    0  502 -0.14404828976E+03 -0.17443097737E+03 -0.10702769433E+04  0.10939235856E+04  0.50400001928E-02 0. -1.
</event>
<event>
 5   0  0.6609285E-03  0.7016938E+03  0.7818609E-02  0.9714340E-01
       -1   -1    0    0    0  501  0.00000000000E+00  0.00000000000E+00  0.42301380324E+03  0.42301380327E+03  0.50400001928E-02 0.  1.
        1   -1    0    0  501    0  0.00000000000E+00  0.00000000000E+00 -0.29099183055E+03  0.29099183059E+03  0.50400001928E-02 0. -1.
    10030    2    1    2    0    0  0.00000000000E+00  0.00000000000E+00  0.13202197269E+03  0.71400563387E+03  0.70169383917E+03 0.  0.
        2    1    3    3  502    0  0.19704994745E+03 -0.26120425302E+03 -0.62849119347E+02  0.33317616271E+03  0.25500000920E-02 0. -1.
       -2    1    3    3    0  502 -0.19704994745E+03  0.26120425302E+03  0.19487109204E+03  0.38082947116E+03  0.25500000920E-02 0.  1.
</event>
<event>
 5   0  0.1079446E-02  0.6973991E+03  0.7818609E-02  0.9721690E-01
       -2   -1    0    0    0  501  0.00000000000E+00  0.00000000000E+00  0.16782253615E+03  0.16782253617E+03  0.25500000920E-02 0. -1.
        2   -1    0    0  501    0  0.00000000000E+00  0.00000000000E+00 -0.72452348210E+03  0.72452348211E+03  0.25500000920E-02 0.  1.
    10030    2    1    2    0    0  0.00000000000E+00  0.00000000000E+00 -0.55670094596E+03  0.89234601827E+03  0.69739907736E+03 0.  0.
        2    1    3    3  502    0  0.65853194719E+02  0.30823094242E+02 -0.71471604949E+03  0.71840499567E+03  0.25500000920E-02 0.  1.
       -2    1    3    3    0  502 -0.65853194719E+02 -0.30823094242E+02  0.15801510353E+03  0.17394102260E+03  0.25500000920E-02 0. -1.
</event>
<event>
 5   0  0.6689415E-03  0.7003229E+03  0.7818609E-02  0.9716680E-01
       -1   -1    0    0    0  501  0.00000000000E+00  0.00000000000E+00  0.28065039160E+03  0.28065039165E+03  0.50400001928E-02 0.  1.
        1   -1    0    0  501    0  0.00000000000E+00  0.00000000000E+00 -0.43688890985E+03  0.43688890988E+03  0.50400001928E-02 0. -1.
    10030    2    1    2    0    0  0.00000000000E+00  0.00000000000E+00 -0.15623851825E+03  0.71753930153E+03  0.70032290742E+03 0.  0.
        1    1    3    3  502    0 -0.15317434345E+02  0.21749782356E+03 -0.35884974934E+03  0.41989649877E+03  0.50400001928E-02 0. -1.
       -1    1    3    3    0  502  0.15317434345E+02 -0.21749782356E+03  0.20261123109E+03  0.29764280276E+03  0.50400001928E-02 0.  1.
</event>
<event>
 5   0  0.1100119E-02  0.7096140E+03  0.7818609E-02  0.9700931E-01
        2   -1    0    0  501    0  0.00000000000E+00  0.00000000000E+00  0.67402968270E+03  0.67402968270E+03  0.25500000920E-02 0. -1.
       -2   -1    0    0    0  501  0.00000000000E+00  0.00000000000E+00 -0.18676923403E+03  0.18676923405E+03  0.25500000920E-02 0.  1.
    10030    2    1    2    0    0  0.00000000000E+00  0.00000000000E+00  0.48726044867E+03  0.86079891675E+03  0.70961400088E+03 0.  0.
        4    1    3    3  502    0  0.31897262045E+03  0.11443504100E+03  0.11612992156E+03  0.35822713854E+03  0.12699999809E+01 0.  1.
       -4    1    3    3    0  502 -0.31897262045E+03 -0.11443504100E+03  0.37113052711E+03  0.50257177821E+03  0.12699999809E+01 0. -1.
</event>
<event>
 5   0  0.6246998E-03  0.7042286E+03  0.7818609E-02  0.9710028E-01
        1   -1    0    0  501    0  0.00000000000E+00  0.00000000000E+00  0.33012046375E+03  0.33012046378E+03  0.50400001928E-02 0.  1.
       -1   -1    0    0    0  501  0.00000000000E+00  0.00000000000E+00 -0.37557347590E+03  0.37557347593E+03  0.50400001928E-02 0. -1.
    10030    2    1    2    0    0  0.00000000000E+00  0.00000000000E+00 -0.45453012152E+02  0.70569393972E+03  0.70422862782E+03 0.  0.
        4    1    3    3  502    0  0.16019925146E+03 -0.23675760717E+03  0.18328557958E+03  0.33957794584E+03  0.12699999809E+01 0.  1.
       -4    1    3    3    0  502 -0.16019925146E+03  0.23675760717E+03 -0.22873859174E+03  0.36611599387E+03  0.12699999809E+01 0. -1.
</event>
<event>
 5   0  0.1099980E-02  0.6980765E+03  0.7818609E-02  0.9720527E-01
       -2   -1    0    0    0  501  0.00000000000E+00  0.00000000000E+00  0.22545193875E+03  0.22545193877E+03  0.25500000920E-02 0.  1.
        2   -1    0    0  501    0  0.00000000000E+00  0.00000000000E+00 -0.54037109342E+03  0.54037109342E+03  0.25500000920E-02 0. -1.
    10030    2    1    2    0    0  0.00000000000E+00  0.00000000000E+00 -0.31491915467E+03  0.76582303219E+03  0.69807653066E+03 0.  0.
        5    1    3    3  502    0  0.28989621921E+03  0.19433117998E+03 -0.15865894951E+03  0.38340471786E+03  0.46999998093E+01 0.  1.
       -5    1    3    3    0  502 -0.28989621921E+03 -0.19433117998E+03 -0.15626020515E+03  0.38241831433E+03  0.46999998093E+01 0. -1.
</event>
<event>
 5   0  0.6609285E-03  0.7015677E+03  0.7818609E-02  0.9714555E-01
       -1   -1    0    0    0  501  0.00000000000E+00  0.00000000000E+00  0.11329650164E+03  0.11329650175E+03  0.50400001928E-02 0. -1.
        1   -1    0    0  501    0  0.00000000000E+00  0.00000000000E+00 -0.10860821568E+04  0.10860821569E+04  0.50400001928E-02 0.  1.
    10030    2    1    2    0    0  0.00000000000E+00  0.00000000000E+00 -0.97278565520E+03  0.11993786586E+04  0.70156769862E+03 0.  0.
        2    1    3    3  502    0  0.15987774299E+03 -0.54410150011E+02 -0.10120067444E+04  0.10260014658E+04  0.25500000920E-02 0.  1.
       -2    1    3    3    0  502 -0.15987774299E+03  0.54410150011E+02  0.39221089213E+02  0.17337719277E+03  0.25500000920E-02 0. -1.
</event>
<event>
 5   0  0.6785252E-03  0.6952214E+03  0.7818609E-02  0.9725439E-01
        1   -1    0    0  501    0  0.00000000000E+00  0.00000000000E+00  0.12835050323E+04  0.12835050323E+04  0.50400001928E-02 0. -1.
       -1   -1    0    0    0  501  0.00000000000E+00  0.00000000000E+00 -0.94143131844E+02  0.94143131979E+02  0.50400001928E-02 0.  1.
    10030    2    1    2    0    0  0.00000000000E+00  0.00000000000E+00  0.11893619004E+04  0.13776481643E+04  0.69522135633E+03 0.  0.
        3    1    3    3  502    0  0.54519929800E+02  0.37971643871E+01  0.12749383086E+04  0.12761091420E+04  0.10100000352E+00 0. -1.
       -3    1    3    3    0  502 -0.54519929800E+02 -0.37971643871E+01 -0.85576408212E+02  0.10153902228E+03  0.10100000352E+00 0.  1.
</event>
<event>
 5   0  0.1109788E-02  0.6993266E+03  0.7818609E-02  0.9718385E-01
       -2   -1    0    0    0  501  0.00000000000E+00  0.00000000000E+00  0.40867003112E+03  0.40867003113E+03  0.25500000920E-02 0. -1.
        2   -1    0    0  501    0  0.00000000000E+00  0.00000000000E+00 -0.29917636434E+03  0.29917636435E+03  0.25500000920E-02 0.  1.
    10030    2    1    2    0    0  0.00000000000E+00  0.00000000000E+00  0.10949366679E+03  0.70784639548E+03  0.69932657359E+03 0.  0.
        1    1    3    3  502    0  0.15848185428E+03 -0.11600338339E+03 -0.23807180184E+03  0.30862836219E+03  0.50400001928E-02 0.  1.
       -1    1    3    3    0  502 -0.15848185428E+03  0.11600338339E+03  0.34756546863E+03  0.39921803328E+03  0.50400001928E-02 0. -1.
</event>
<event>
 5   0  0.6785252E-03  0.7003503E+03  0.7818609E-02  0.9716633E-01
       -1   -1    0    0    0  501  0.00000000000E+00  0.00000000000E+00  0.24034625110E+03  0.24034625115E+03  0.50400001928E-02 0.  1.
        1   -1    0    0  501    0  0.00000000000E+00  0.00000000000E+00 -0.51019159496E+03  0.51019159498E+03  0.50400001928E-02 0. -1.
    10030    2    1    2    0    0  0.00000000000E+00  0.00000000000E+00 -0.26984534386E+03  0.75053784613E+03  0.70035030440E+03 0.  0.
        3    1    3    3  502    0 -0.99860682534E+02 -0.32801037554E+03 -0.21115130655E+03  0.40267585828E+03  0.10100000352E+00 0. -1.
       -3    1    3    3    0  502  0.99860682534E+02  0.32801037554E+03 -0.58694037307E+02  0.34786198786E+03  0.10100000352E+00 0.  1.
</event>
<event>
 5   0  0.1109788E-02  0.7004108E+03  0.7818609E-02  0.9716530E-01
       -2   -1    0    0    0  501  0.00000000000E+00  0.00000000000E+00  0.21123097992E+03  0.21123097993E+03  0.25500000920E-02 0.  1.
        2   -1    0    0  501    0  0.00000000000E+00  0.00000000000E+00 -0.58061479156E+03  0.58061479157E+03  0.25500000920E-02 0. -1.
    10030    2    1    2    0    0  0.00000000000E+00  0.00000000000E+00 -0.36938381165E+03  0.79184577150E+03  0.70041082625E+03 0.  0.
        1    1    3    3  502    0 -0.21919334555E+03 -0.16646091674E+03 -0.42949823585E+03  0.51012125436E+03  0.50400001928E-02 0. -1.
       -1    1    3    3    0  502  0.21919334555E+03  0.16646091674E+03  0.60114424198E+02  0.28172451714E+03  0.50400001928E-02 0.  1.
</event>
<event>
 5   0  0.6689415E-03  0.6989846E+03  0.7818609E-02  0.9718970E-01
        1   -1    0    0  501    0  0.00000000000E+00  0.00000000000E+00  0.33360145751E+03  0.33360145755E+03  0.50400001928E-02 0.  1.
       -1   -1    0    0    0  501  0.00000000000E+00  0.00000000000E+00 -0.36614009002E+03  0.36614009006E+03  0.50400001928E-02 0. -1.
    10030    2    1    2    0    0  0.00000000000E+00  0.00000000000E+00 -0.32538632512E+02  0.69974154760E+03  0.69898459986E+03 0.  0.
        1    1    3    3  502    0 -0.71741795518E+02  0.27151430717E+03 -0.22452816427E+03  0.35955500385E+03  0.50400001928E-02 0. -1.
       -1    1    3    3    0  502  0.71741795518E+02 -0.27151430717E+03  0.19198953176E+03  0.34018654375E+03  0.50400001928E-02 0.  1.
</event>
<event>
 5   0  0.6785252E-03  0.7012865E+03  0.7818609E-02  0.9715035E-01
        1   -1    0    0  501    0  0.00000000000E+00  0.00000000000E+00  0.77939301377E+03  0.77939301379E+03  0.50400001928E-02 0. -1.
       -1   -1    0    0    0  501  0.00000000000E+00  0.00000000000E+00 -0.15775184533E+03  0.15775184541E+03  0.50400001928E-02 0.  1.
    10030    2    1    2    0    0  0.00000000000E+00  0.00000000000E+00  0.62164116844E+03  0.93714485920E+03  0.70128649269E+03 0.  0.
        3    1    3    3  502    0 -0.17051091484E+03  0.12697215849E+03 -0.61806816626E+02  0.22139555979E+03  0.10100000352E+00 0.  1.
       -3    1    3    3    0  502  0.17051091484E+03 -0.12697215849E+03  0.68344798507E+03  0.71574929941E+03  0.10100000352E+00 0. -1.
</event>
<event>
 5   0  0.1100119E-02  0.7046177E+03  0.7818609E-02  0.9709368E-01
        2   -1    0    0  501    0  0.00000000000E+00  0.00000000000E+00  0.14464739740E+04  0.14464739740E+04  0.25500000920E-02 0. -1.
       -2   -1    0    0    0  501  0.00000000000E+00  0.00000000000E+00 -0.85809713810E+02  0.85809713848E+02  0.25500000920E-02 0.  1.
    10030    2    1    2    0    0  0.00000000000E+00  0.00000000000E+00  0.13606642602E+04  0.15322836878E+04  0.70461767724E+03 0.  0.
        4    1    3    3  502    0  0.99834137696E+02 -0.17505219059E+03  0.13087583757E+04  0.13241828511E+04  0.12699999809E+01 0. -1.
       -4    1    3    3    0  502 -0.99834137696E+02  0.17505219059E+03  0.51905884485E+02  0.20810083667E+03  0.12699999809E+01 0.  1.
</event>
<event>
 5   0  0.1079446E-02  0.7012543E+03  0.7818609E-02  0.9715090E-01
        2   -1    0    0  501    0  0.00000000000E+00  0.00000000000E+00  0.48360826285E+03  0.48360826285E+03  0.25500000920E-02 0. -1.
       -2   -1    0    0    0  501  0.00000000000E+00  0.00000000000E+00 -0.25421280738E+03  0.25421280739E+03  0.25500000920E-02 0.  1.
    10030    2    1    2    0    0  0.00000000000E+00  0.00000000000E+00  0.22939545547E+03  0.73782107025E+03  0.70125434523E+03 0.  0.
        2    1    3    3  502    0 -0.13288212237E+03 -0.15761966604E+03  0.41310236707E+03  0.46168732196E+03  0.25500000920E-02 0. -1.
       -2    1    3    3    0  502  0.13288212237E+03  0.15761966604E+03 -0.18370691160E+03  0.27613374829E+03  0.25500000920E-02 0.  1.
</event>
<event>
 5   0  0.6246998E-03  0.7026447E+03  0.7818609E-02  0.9712720E-01
        1   -1    0    0  501    0  0.00000000000E+00  0.00000000000E+00  0.59537294792E+03  0.59537294794E+03  0.50400001928E-02 0. -1.
       -1   -1    0    0    0  501  0.00000000000E+00  0.00000000000E+00 -0.20731105845E+03  0.20731105851E+03  0.50400001928E-02 0.  1.
    10030    2    1    2    0    0  0.00000000000E+00  0.00000000000E+00  0.38806188947E+03  0.80268400645E+03  0.70264470691E+03 0.  0.
        4    1    3    3  502    0 -0.20149778298E+02 -0.33374131364E+03  0.31726198472E+03  0.46091871066E+03  0.12699999809E+01 0. -1.
       -4    1    3    3    0  502  0.20149778298E+02  0.33374131364E+03  0.70799904757E+02  0.34176529579E+03  0.12699999809E+01 0.  1.
</event>
<event>
 5   0  0.4440500E-03  0.6989610E+03  0.7818609E-02  0.9719011E-01
        3   -1    0    0  501    0  0.00000000000E+00  0.00000000000E+00  0.84502670064E+03  0.84502670668E+03  0.10100000352E+00 0. -1.
       -3   -1    0    0    0  501  0.00000000000E+00  0.00000000000E+00 -0.14453579303E+03  0.14453582832E+03  0.10100000352E+00 0.  1.
    10030    2    1    2    0    0  0.00000000000E+00  0.00000000000E+00  0.70049090761E+03  0.98956253499E+03  0.69896101395E+03 0.  0.
        2    1    3    3  502    0  0.46331944186E+02 -0.34538939252E+03  0.31289124057E+03  0.46833899042E+03  0.25500000920E-02 0.  1.
       -2    1    3    3    0  502 -0.46331944186E+02  0.34538939252E+03  0.38759966704E+03  0.52122354457E+03  0.25500000920E-02 0. -1.
</event>
<event>
 5   0  0.1099980E-02  0.7016758E+03  0.7818609E-02  0.9714371E-01
       -2   -1    0    0    0  501  0.00000000000E+00  0.00000000000E+00  0.45314264073E+03  0.45314264073E+03  0.25500000920E-02 0. -1.
        2   -1    0    0  501    0  0.00000000000E+00  0.00000000000E+00 -0.27163018035E+03  0.27163018036E+03  0.25500000920E-02 0.  1.
    10030    2    1    2    0    0  0.00000000000E+00  0.00000000000E+00  0.18151246038E+03  0.72477282109E+03  0.70167575768E+03 0.  0.
        5    1    3    3  502    0  0.11472276062E+03  0.17375203791E+03  0.38238666795E+03  0.43542248025E+03  0.46999998093E+01 0. -1.
       -5    1    3    3    0  502 -0.11472276062E+03 -0.17375203791E+03 -0.20087420757E+03  0.28935034084E+03  0.46999998093E+01 0.  1.
</event>
<event>
 5   0  0.6246998E-03  0.6989856E+03  0.7818609E-02  0.9718969E-01
       -1   -1    0    0    0  501  0.00000000000E+00  0.00000000000E+00  0.21292833301E+03  0.21292833307E+03  0.50400001928E-02 0.  1.
        1   -1    0    0  501    0  0.00000000000E+00  0.00000000000E+00 -0.57364468436E+03  0.57364468438E+03  0.50400001928E-02 0. -1.
    10030    2    1    2    0    0  0.00000000000E+00  0.00000000000E+00 -0.36071635134E+03  0.78657301745E+03  0.69898556899E+03 0.  0.
        4    1    3    3  502    0  0.16372441407E+03  0.24607263116E+02  0.16599572837E+03  0.23445126550E+03  0.12699999809E+01 0.  1.
       -4    1    3    3    0  502 -0.16372441407E+03 -0.24607263116E+02 -0.52671207971E+03  0.55212175195E+03  0.12699999809E+01 0. -1.
</event>
<event>
 5   0  0.1100119E-02  0.7060580E+03  0.7818609E-02  0.9706928E-01
        2   -1    0    0  501    0  0.00000000000E+00  0.00000000000E+00  0.39327521139E+03  0.39327521140E+03  0.25500000920E-02 0.  1.
       -2   -1    0    0    0  501  0.00000000000E+00  0.00000000000E+00 -0.31690144376E+03  0.31690144377E+03  0.25500000920E-02 0. -1.
    10030    2    1    2    0    0  0.00000000000E+00  0.00000000000E+00  0.76373767630E+02  0.71017665517E+03  0.70605802111E+03 0.  0.
        4    1    3    3  502    0  0.26902500240E+03 -0.96853380055E+02 -0.17007851812E+03  0.33269106446E+03  0.12699999809E+01 0. -1.
       -4    1    3    3    0  502 -0.26902500240E+03  0.96853380055E+02  0.24645228575E+03  0.37748559071E+03  0.12699999809E+01 0.  1.
</event>
<event>
 5   0  0.6609285E-03  0.6581205E+03  0.7818609E-02  0.9791660E-01
        1   -1    0    0  501    0  0.00000000000E+00  0.00000000000E+00  0.66511565494E+03  0.66511565495E+03  0.50400001928E-02 0. -1.
       -1   -1    0    0    0  501  0.00000000000E+00  0.00000000000E+00 -0.16279973980E+03  0.16279973988E+03  0.50400001928E-02 0.  1.
    10030    2    1    2    0    0  0.00000000000E+00  0.00000000000E+00  0.50231591514E+03  0.82791539483E+03  0.65812052270E+03 0.  0.
        2    1    3    3  502    0  0.34992835881E+01  0.17560721755E+03 -0.98897296355E+02  0.20157086861E+03  0.25500000920E-02 0.  1.
       -2    1    3    3    0  502 -0.34992835881E+01 -0.17560721755E+03  0.60121321149E+03  0.62634452622E+03  0.25500000920E-02 0. -1.
</event>
<event>
 5   0  0.6609285E-03  0.6978699E+03  0.7818609E-02  0.9720882E-01
        1   -1    0    0  501    0  0.00000000000E+00  0.00000000000E+00  0.10741476653E+04  0.10741476653E+04  0.50400001928E-02 0.  1.
       -1   -1    0    0    0  501  0.00000000000E+00  0.00000000000E+00 -0.11335088826E+03  0.11335088837E+03  0.50400001928E-02 0. -1.
    10030    2    1    2    0    0  0.00000000000E+00  0.00000000000E+00  0.96079677705E+03  0.11874985537E+04  0.69786987916E+03 0.  0.
        2    1    3    3  502    0 -0.21242511265E+03  0.17812628994E+03  0.11982606447E+03  0.30201273050E+03  0.25500000920E-02 0. -1.
       -2    1    3    3    0  502  0.21242511265E+03 -0.17812628994E+03  0.84097071258E+03  0.88548582319E+03  0.25500000920E-02 0.  1.
</event>
<event>
 5   0  0.1079446E-02  0.7087118E+03  0.7818609E-02  0.9702449E-01
       -2   -1    0    0    0  501  0.00000000000E+00  0.00000000000E+00  0.74575216863E+02  0.74575216906E+02  0.25500000920E-02 0. -1.
        2   -1    0    0  501    0  0.00000000000E+00  0.00000000000E+00 -0.16837778429E+04  0.16837778429E+04  0.25500000920E-02 0.  1.
    10030    2    1    2    0    0  0.00000000000E+00  0.00000000000E+00 -0.16092026261E+04  0.17583530598E+04  0.70871178295E+03 0.  0.
        2    1    3    3  502    0  0.88590398496E+02  0.65238033028E+02  0.31127092011E+02  0.11433790064E+03  0.25500000920E-02 0. -1.
       -2    1    3    3    0  502 -0.88590398496E+02 -0.65238033028E+02 -0.16403297181E+04  0.16440151592E+04  0.25500000920E-02 0.  1.
</event>
<event>
 5   0  0.6990118E-03  0.7000397E+03  0.7818609E-02  0.9717164E-01
        1   -1    0    0  501    0  0.00000000000E+00  0.00000000000E+00  0.19483259114E+04  0.19483259114E+04  0.50400001928E-02 0. -1.
       -1   -1    0    0    0  501  0.00000000000E+00  0.00000000000E+00 -0.62881620581E+02  0.62881620783E+02  0.50400001928E-02 0.  1.
    10030    2    1    2    0    0  0.00000000000E+00  0.00000000000E+00  0.18854442908E+04  0.20112075322E+04  0.70003968727E+03 0.  0.
        5    1    3    3  502    0  0.32270326693E+03  0.12962966062E+03  0.82959219191E+03  0.89954796552E+03  0.46999998093E+01 0. -1.
       -5    1    3    3    0  502 -0.32270326693E+03 -0.12962966062E+03  0.10558520989E+04  0.11116595667E+04  0.46999998093E+01 0.  1.
</event>
<event>
 5   0  0.6246998E-03  0.6977979E+03  0.7818609E-02  0.9721005E-01
        1   -1    0    0  501    0  0.00000000000E+00  0.00000000000E+00  0.21844511848E+03  0.21844511854E+03  0.50400001928E-02 0.  1.
       -1   -1    0    0    0  501  0.00000000000E+00  0.00000000000E+00 -0.55725889326E+03  0.55725889328E+03  0.50400001928E-02 0. -1.
    10030    2    1    2    0    0  0.00000000000E+00  0.00000000000E+00 -0.33881377478E+03  0.77570401181E+03  0.69779792201E+03 0.  0.
        4    1    3    3  502    0  0.14072919014E+03  0.31224960453E+03 -0.24334888553E+03  0.42014856119E+03  0.12699999809E+01 0. -1.
       -4    1    3    3    0  502 -0.14072919014E+03 -0.31224960453E+03 -0.95464889252E+02  0.35555545062E+03  0.12699999809E+01 0.  1.
</event>
<event>
 5   0  0.6990118E-03  0.6976379E+03  0.7818609E-02  0.9721280E-01
       -1   -1    0    0    0  501  0.00000000000E+00  0.00000000000E+00  0.56453330157E+03  0.56453330160E+03  0.50400001928E-02 0.  1.
        1   -1    0    0  501    0  0.00000000000E+00  0.00000000000E+00 -0.21553142796E+03  0.21553142802E+03  0.50400001928E-02 0. -1.
    10030    2    1    2    0    0  0.00000000000E+00  0.00000000000E+00  0.34900187361E+03  0.78006472962E+03  0.69763792515E+03 0.  0.
        5    1    3    3  502    0 -0.23314881502E+03  0.22699744337E+03  0.31490071092E+03  0.45284738818E+03  0.46999998093E+01 0.  1.
       -5    1    3    3    0  502  0.23314881502E+03 -0.22699744337E+03  0.34101162690E+02  0.32721734144E+03  0.46999998093E+01 0. -1.
</event>
<event>
 5   0  0.1079446E-02  0.7187050E+03  0.7818609E-02  0.9685768E-01
       -2   -1    0    0    0  501  0.00000000000E+00  0.00000000000E+00  0.23481021509E+03  0.23481021510E+03  0.25500000920E-02 0. -1.
        2   -1    0    0  501    0  0.00000000000E+00  0.00000000000E+00 -0.54995145531E+03  0.54995145531E+03  0.25500000920E-02 0.  1.
    10030    2    1    2    0    0  0.00000000000E+00  0.00000000000E+00 -0.31514124022E+03  0.78476167041E+03  0.71870500073E+03 0.  0.
        2    1    3    3  502    0 -0.12210959664E+03 -0.27556260834E+03  0.56089028992E+02  0.30658030577E+03  0.25500000920E-02 0. -1.
       -2    1    3    3    0  502  0.12210959664E+03  0.27556260834E+03 -0.37123026921E+03  0.47818136464E+03  0.25500000920E-02 0.  1.
</event>
<event>
 5   0  0.1079446E-02  0.7009828E+03  0.7818609E-02  0.9715553E-01
        2   -1    0    0  501    0  0.00000000000E+00  0.00000000000E+00  0.29759640470E+03  0.29759640471E+03  0.25500000920E-02 0. -1.
       -2   -1    0    0    0  501  0.00000000000E+00  0.00000000000E+00 -0.41278797923E+03  0.41278797924E+03  0.25500000920E-02 0.  1.
    10030    2    1    2    0    0  0.00000000000E+00  0.00000000000E+00 -0.11519157454E+03  0.71038438395E+03  0.70098279160E+03 0.  0.
        2    1    3    3  502    0 -0.20609220366E+03  0.24332851636E+03  0.89825029968E+02  0.33128733646E+03  0.25500000920E-02 0. -1.
       -2    1    3    3    0  502  0.20609220366E+03 -0.24332851636E+03 -0.20501660450E+03  0.37909704749E+03  0.25500000920E-02 0.  1.
</event>
<event>
 5   0  0.6246998E-03  0.6974442E+03  0.7818609E-02  0.9721613E-01
        1   -1    0    0  501    0  0.00000000000E+00  0.00000000000E+00  0.50601475511E+03  0.50601475514E+03  0.50400001928E-02 0. -1.
       -1   -1    0    0    0  501  0.00000000000E+00  0.00000000000E+00 -0.24032323188E+03  0.24032323193E+03  0.50400001928E-02 0.  1.
    10030    2    1    2    0    0  0.00000000000E+00  0.00000000000E+00  0.26569152323E+03  0.74633798707E+03  0.69744419521E+03 0.  0.
        4    1    3    3  502    0 -0.24767181101E+03  0.16776609422E+03 -0.58935010660E+02  0.30489627207E+03  0.12699999809E+01 0.  1.
       -4    1    3    3    0  502  0.24767181101E+03 -0.16776609422E+03  0.32462653389E+03  0.44144171500E+03  0.12699999809E+01 0. -1.
</event>
<event>
 5   0  0.1119786E-02  0.6611047E+03  0.7818609E-02  0.9786162E-01
       -2   -1    0    0    0  501  0.00000000000E+00  0.00000000000E+00  0.63745913191E+02  0.63745913242E+02  0.25500000920E-02 0. -1.
        2   -1    0    0  501    0  0.00000000000E+00  0.00000000000E+00 -0.17140683262E+04  0.17140683262E+04  0.25500000920E-02 0.  1.
    10030    2    1    2    0    0  0.00000000000E+00  0.00000000000E+00 -0.16503224130E+04  0.17778142394E+04  0.66110468390E+03 0.  0.
        3    1    3    3  502    0  0.11311747145E+03  0.13750195222E+03 -0.76229837389E+02  0.19368362739E+03  0.10100000352E+00 0. -1.
       -3    1    3    3    0  502 -0.11311747145E+03 -0.13750195222E+03 -0.15740925756E+04  0.15841306120E+04  0.10100000352E+00 0.  1.
</event>
<event>
 5   0  0.1119786E-02  0.6993681E+03  0.7818609E-02  0.9718313E-01
        2   -1    0    0  501    0  0.00000000000E+00  0.00000000000E+00  0.86496781020E+03  0.86496781020E+03  0.25500000920E-02 0.  1.
       -2   -1    0    0    0  501  0.00000000000E+00  0.00000000000E+00 -0.14136818359E+03  0.14136818361E+03  0.25500000920E-02 0. -1.
    10030    2    1    2    0    0  0.00000000000E+00  0.00000000000E+00  0.72359962661E+03  0.10063359938E+04  0.69936808106E+03 0.  0.
        3    1    3    3  502    0  0.34151804036E+03  0.28143985487E+02  0.26156713644E+03  0.43109631508E+03  0.10100000352E+00 0.  1.
       -3    1    3    3    0  502 -0.34151804036E+03 -0.28143985487E+02  0.46203249017E+03  0.57523967873E+03  0.10100000352E+00 0. -1.
</event>
<event>
 5   0  0.1100119E-02  0.6983161E+03  0.7818609E-02  0.9720116E-01
        2   -1    0    0  501    0  0.00000000000E+00  0.00000000000E+00  0.58225408452E+03  0.58225408453E+03  0.25500000920E-02 0. -1.
       -2   -1    0    0    0  501  0.00000000000E+00  0.00000000000E+00 -0.20937824992E+03  0.20937824994E+03  0.25500000920E-02 0.  1.
    10030    2    1    2    0    0  0.00000000000E+00  0.00000000000E+00  0.37287583460E+03  0.79163233447E+03  0.69831609243E+03 0.  0.
        4    1    3    3  502    0 -0.34189399082E+03 -0.66061867416E+02  0.21542999166E+03  0.40947205704E+03  0.12699999809E+01 0. -1.
       -4    1    3    3    0  502  0.34189399082E+03  0.66061867416E+02  0.15744584294E+03  0.38216027743E+03  0.12699999809E+01 0.  1.
</event>
<event>
 5   0  0.6246998E-03  0.6990593E+03  0.7818609E-02  0.9718842E-01
        1   -1    0    0  501    0  0.00000000000E+00  0.00000000000E+00  0.34458825079E+03  0.34458825082E+03  0.50400001928E-02 0. -1.
       -1   -1    0    0    0  501  0.00000000000E+00  0.00000000000E+00 -0.35454192451E+03  0.35454192455E+03  0.50400001928E-02 0.  1.
    10030    2    1    2    0    0  0.00000000000E+00  0.00000000000E+00 -0.99536737265E+01  0.69913017537E+03  0.69905931543E+03 0.  0.
        4    1    3    3  502    0  0.23790760232E+03  0.15651616344E+03  0.19770606571E+03  0.34667944556E+03  0.12699999809E+01 0. -1.
       -4    1    3    3    0  502 -0.23790760232E+03 -0.15651616344E+03 -0.20765973943E+03  0.35245072981E+03  0.12699999809E+01 0.  1.
</event>
<event>
 5   0  0.6246998E-03  0.7024900E+03  0.7818609E-02  0.9712983E-01
       -1   -1    0    0    0  501  0.00000000000E+00  0.00000000000E+00  0.18444902987E+03  0.18444902994E+03  0.50400001928E-02 0.  1.
        1   -1    0    0  501    0  0.00000000000E+00  0.00000000000E+00 -0.66887344068E+03  0.66887344070E+03  0.50400001928E-02 0. -1.
    10030    2    1    2    0    0  0.00000000000E+00  0.00000000000E+00 -0.48442441081E+03  0.85332247064E+03  0.70249002064E+03 0.  0.
        4    1    3    3  502    0 -0.11787028247E+03  0.26128252167E+02 -0.64287424768E+03  0.65411390467E+03  0.12699999809E+01 0. -1.
       -4    1    3    3    0  502  0.11787028247E+03 -0.26128252167E+02  0.15844983687E+03  0.19920856597E+03  0.12699999809E+01 0.  1.
</event>
<event>
 5   0  0.1099980E-02  0.7000162E+03  0.7818609E-02  0.9717204E-01
       -2   -1    0    0    0  501  0.00000000000E+00  0.00000000000E+00  0.10289927658E+03  0.10289927661E+03  0.25500000920E-02 0.  1.
        2   -1    0    0  501    0  0.00000000000E+00  0.00000000000E+00 -0.11905396935E+04  0.11905396935E+04  0.25500000920E-02 0. -1.
    10030    2    1    2    0    0  0.00000000000E+00  0.00000000000E+00 -0.10876404169E+04  0.12934389701E+04  0.70001620900E+03 0.  0.
        5    1    3    3  502    0 -0.18802600380E+03 -0.12048361887E+02 -0.10887733189E+04  0.11049653258E+04  0.46999998093E+01 0. -1.
       -5    1    3    3    0  502  0.18802600380E+03  0.12048361887E+02  0.11329020571E+01  0.18847364430E+03  0.46999998093E+01 0.  1.
</event>
<event>
 5   0  0.6246998E-03  0.7043682E+03  0.7818609E-02  0.9709791E-01
        1   -1    0    0  501    0  0.00000000000E+00  0.00000000000E+00  0.11261288978E+04  0.11261288978E+04  0.50400001928E-02 0. -1.
       -1   -1    0    0    0  501  0.00000000000E+00  0.00000000000E+00 -0.11014160733E+03  0.11014160744E+03  0.50400001928E-02 0.  1.
    10030    2    1    2    0    0  0.00000000000E+00  0.00000000000E+00  0.10159872905E+04  0.12362705053E+04  0.70436821888E+03 0.  0.
        4    1    3    3  502    0 -0.16771740480E+03  0.27915937645E+03  0.27269283471E+03  0.42476120390E+03  0.12699999809E+01 0.  1.
       -4    1    3    3    0  502  0.16771740480E+03 -0.27915937645E+03  0.74329445579E+03  0.81150930139E+03  0.12699999809E+01 0. -1.
</event>
<event>
 5   0  0.1119786E-02  0.6739027E+03  0.7818609E-02  0.9762933E-01
        2   -1    0    0  501    0  0.00000000000E+00  0.00000000000E+00  0.11658727307E+04  0.11658727307E+04  0.25500000920E-02 0. -1.
       -2   -1    0    0    0  501  0.00000000000E+00  0.00000000000E+00 -0.97383031693E+02  0.97383031726E+02  0.25500000920E-02 0.  1.
    10030    2    1    2    0    0  0.00000000000E+00  0.00000000000E+00  0.10684896991E+04  0.12632557625E+04  0.67390272625E+03 0.  0.
        3    1    3    3  502    0 -0.27270332630E+03  0.12964720050E+03  0.81455373888E+03  0.86871934737E+03  0.10100000352E+00 0. -1.
       -3    1    3    3    0  502  0.27270332630E+03 -0.12964720050E+03  0.25393596018E+03  0.39453641511E+03  0.10100000352E+00 0.  1.
</event>
<event>
 5   0  0.1119786E-02  0.7007294E+03  0.7818609E-02  0.9715986E-01
       -2   -1    0    0    0  501  0.00000000000E+00  0.00000000000E+00  0.63299053940E+02  0.63299053991E+02  0.25500000920E-02 0.  1.
        2   -1    0    0  501    0  0.00000000000E+00  0.00000000000E+00 -0.19392930946E+04  0.19392930946E+04  0.25500000920E-02 0. -1.
    10030    2    1    2    0    0  0.00000000000E+00  0.00000000000E+00 -0.18759940407E+04  0.20025921486E+04  0.70072938644E+03 0.  0.
        3    1    3    3  502    0 -0.91840190483E+02  0.15364933424E+03 -0.77248762825E+02  0.19496184257E+03  0.10100000352E+00 0.  1.
       -3    1    3    3    0  502  0.91840190483E+02 -0.15364933424E+03 -0.17987452779E+04  0.18076303061E+04  0.10100000352E+00 0. -1.
</event>
<event>
 5   0  0.6246998E-03  0.7073023E+03  0.7818609E-02  0.9704825E-01
       -1   -1    0    0    0  501  0.00000000000E+00  0.00000000000E+00  0.53463256123E+03  0.53463256126E+03  0.50400001928E-02 0.  1.
        1   -1    0    0  501    0  0.00000000000E+00  0.00000000000E+00 -0.23393475477E+03  0.23393475482E+03  0.50400001928E-02 0. -1.
    10030    2    1    2    0    0  0.00000000000E+00  0.00000000000E+00  0.30069780646E+03  0.76856731608E+03  0.70730230350E+03 0.  0.
        4    1    3    3  502    0  0.30535216575E+03  0.17648342480E+03  0.12198880418E+03  0.37318792264E+03  0.12699999809E+01 0.  1.
       -4    1    3    3    0  502 -0.30535216575E+03 -0.17648342480E+03  0.17870900229E+03  0.39537939344E+03  0.12699999809E+01 0. -1.
</event>
<event>
 5   0  0.6785252E-03  0.7013589E+03  0.7818609E-02  0.9714911E-01
        1   -1    0    0  501    0  0.00000000000E+00  0.00000000000E+00  0.52302044759E+03  0.52302044762E+03  0.50400001928E-02 0.  1.
       -1   -1    0    0    0  501  0.00000000000E+00  0.00000000000E+00 -0.23512673239E+03  0.23512673244E+03  0.50400001928E-02 0. -1.
    10030    2    1    2    0    0  0.00000000000E+00  0.00000000000E+00  0.28789371520E+03  0.75814718006E+03  0.70135893477E+03 0.  0.
        3    1    3    3  502    0  0.27665488515E+03  0.17201108981E+03  0.28426618696E+03  0.43235750917E+03  0.10100000352E+00 0.  1.
       -3    1    3    3    0  502 -0.27665488515E+03 -0.17201108981E+03  0.36275282476E+01  0.32578967088E+03  0.10100000352E+00 0. -1.
</event>
<event>
 5   0  0.6246998E-03  0.6990941E+03  0.7818609E-02  0.9718783E-01
       -1   -1    0    0    0  501  0.00000000000E+00  0.00000000000E+00  0.20423834356E+03  0.20423834362E+03  0.50400001928E-02 0. -1.
        1   -1    0    0  501    0  0.00000000000E+00  0.00000000000E+00 -0.59823793299E+03  0.59823793301E+03  0.50400001928E-02 0.  1.
    10030    2    1    2    0    0  0.00000000000E+00  0.00000000000E+00 -0.39399958943E+03  0.80247627664E+03  0.69909405526E+03 0.  0.
        4    1    3    3  502    0  0.25173437977E+03  0.67291298041E+02  0.70442009502E+02  0.26992963223E+03  0.12699999809E+01 0. -1.
       -4    1    3    3    0  502 -0.25173437977E+03 -0.67291298041E+02 -0.46444159893E+03  0.53254664441E+03  0.12699999809E+01 0.  1.
</event>
<event>
 5   0  0.1099980E-02  0.6980284E+03  0.7818609E-02  0.9720610E-01
        2   -1    0    0  501    0  0.00000000000E+00  0.00000000000E+00  0.64470452727E+03  0.64470452728E+03  0.25500000920E-02 0. -1.
       -2   -1    0    0    0  501  0.00000000000E+00  0.00000000000E+00 -0.18894067161E+03  0.18894067163E+03  0.25500000920E-02 0.  1.
    10030    2    1    2    0    0  0.00000000000E+00  0.00000000000E+00  0.45576385566E+03  0.83364519890E+03  0.69802838447E+03 0.  0.
        5    1    3    3  502    0 -0.11026180507E+03  0.26665235761E+03  0.46230186657E+03  0.54498279909E+03  0.46999998093E+01 0.  1.
       -5    1    3    3    0  502  0.11026180507E+03 -0.26665235761E+03 -0.65380109089E+01  0.28866239981E+03  0.46999998093E+01 0. -1.
</event>
<event>
 5   0  0.6246998E-03  0.7013569E+03  0.7818609E-02  0.9714915E-01
        1   -1    0    0  501    0  0.00000000000E+00  0.00000000000E+00  0.13407629039E+04  0.13407629039E+04  0.50400001928E-02 0.  1.
       -1   -1    0    0    0  501  0.00000000000E+00  0.00000000000E+00 -0.91720451118E+02  0.91720451256E+02  0.50400001928E-02 0. -1.
    10030    2    1    2    0    0  0.00000000000E+00  0.00000000000E+00  0.12490424528E+04  0.14324833551E+04  0.70135690912E+03 0.  0.
        4    1    3    3  502    0 -0.28436033928E+02  0.11125954600E+03  0.13012660107E+04  0.13063239025E+04  0.12699999809E+01 0.  1.
       -4    1    3    3    0  502  0.28436033928E+02 -0.11125954600E+03 -0.52223557939E+02  0.12615945270E+03  0.12699999809E+01 0. -1.
</event>
<event>
 5   0  0.6990118E-03  0.6982451E+03  0.7818609E-02  0.9720238E-01
        1   -1    0    0  501    0  0.00000000000E+00  0.00000000000E+00  0.20663489258E+03  0.20663489264E+03  0.50400001928E-02 0. -1.
       -1   -1    0    0    0  501  0.00000000000E+00  0.00000000000E+00 -0.58986432525E+03  0.58986432527E+03  0.50400001928E-02 0.  1.
    10030    2    1    2    0    0  0.00000000000E+00  0.00000000000E+00 -0.38322943267E+03  0.79649921791E+03  0.69824509025E+03 0.  0.
        5    1    3    3  502    0 -0.31151387838E+03 -0.14052687556E+03 -0.27288431264E+03  0.43735184607E+03  0.46999998093E+01 0. -1.
       -5    1    3    3    0  502  0.31151387838E+03  0.14052687556E+03 -0.11034512003E+03  0.35914737183E+03  0.46999998093E+01 0.  1.
</event>
<event>
 5   0  0.6609285E-03  0.6997552E+03  0.7818609E-02  0.9717651E-01
        1   -1    0    0  501    0  0.00000000000E+00  0.00000000000E+00  0.36264341762E+03  0.36264341765E+03  0.50400001928E-02 0.  1.
       -1   -1    0    0    0  501  0.00000000000E+00  0.00000000000E+00 -0.33756118744E+03  0.33756118748E+03  0.50400001928E-02 0. -1.
    10030    2    1    2    0    0  0.00000000000E+00  0.00000000000E+00  0.25082230178E+02  0.70020460513E+03  0.69975522204E+03 0.  0.
        2    1    3    3  502    0  0.19698745392E+03  0.10761444312E+03  0.28109643837E+03  0.35972229990E+03  0.25500000920E-02 0.  1.
       -2    1    3    3    0  502 -0.19698745392E+03 -0.10761444312E+03 -0.25601420820E+03  0.34048230523E+03  0.25500000920E-02 0. -1.
</event>
<event>
 5   0  0.6990118E-03  0.7018874E+03  0.7818609E-02  0.9714010E-01
       -1   -1    0    0    0  501  0.00000000000E+00  0.00000000000E+00  0.34520174791E+03  0.34520174795E+03  0.50400001928E-02 0. -1.
        1   -1    0    0  501    0  0.00000000000E+00  0.00000000000E+00 -0.35678121031E+03  0.35678121034E+03  0.50400001928E-02 0.  1.
    10030    2    1    2    0    0  0.00000000000E+00  0.00000000000E+00 -0.11579462395E+02  0.70198295829E+03  0.70188744809E+03 0.  0.
        5    1    3    3  502    0 -0.93985387218E+02 -0.63076943508E+02 -0.33799069683E+03  0.35647125404E+03  0.46999998093E+01 0.  1.
       -5    1    3    3    0  502  0.93985387218E+02  0.63076943508E+02  0.32641123444E+03  0.34551170425E+03  0.46999998093E+01 0. -1.
</event>
<event>
 5   0  0.1079446E-02  0.6996357E+03  0.7818609E-02  0.9717855E-01
        2   -1    0    0  501    0  0.00000000000E+00  0.00000000000E+00  0.75687623151E+03  0.75687623151E+03  0.25500000920E-02 0. -1.
       -2   -1    0    0    0  501  0.00000000000E+00  0.00000000000E+00 -0.16168102331E+03  0.16168102333E+03  0.25500000920E-02 0.  1.
    10030    2    1    2    0    0  0.00000000000E+00  0.00000000000E+00  0.59519520820E+03  0.91855725484E+03  0.69963568702E+03 0.  0.
        2    1    3    3  502    0  0.64327814762E+02  0.15335668827E+03 -0.10646287041E+03  0.19746058942E+03  0.25500000920E-02 0.  1.
       -2    1    3    3    0  502 -0.64327814762E+02 -0.15335668827E+03  0.70165807862E+03  0.72109666542E+03  0.25500000920E-02 0. -1.
</event>
<event>
 5   0  0.1100119E-02  0.6997353E+03  0.7818609E-02  0.9717685E-01
        2   -1    0    0  501    0  0.00000000000E+00  0.00000000000E+00  0.95960603318E+03  0.95960603319E+03  0.25500000920E-02 0. -1.
       -2   -1    0    0    0  501  0.00000000000E+00  0.00000000000E+00 -0.12756002863E+03  0.12756002865E+03  0.25500000920E-02 0.  1.
    10030    2    1    2    0    0  0.00000000000E+00  0.00000000000E+00  0.83204600456E+03  0.10871660618E+04  0.69973530160E+03 0.  0.
        4    1    3    3  502    0  0.29378150915E+03 -0.18841398828E+03  0.37801795916E+03  0.51449644940E+03  0.12699999809E+01 0. -1.
       -4    1    3    3    0  502 -0.29378150915E+03  0.18841398828E+03  0.45402804540E+03  0.57266961244E+03  0.12699999809E+01 0.  1.
</event>
<event>
 5   0  0.1119786E-02  0.7077429E+03  0.7818609E-02  0.9704082E-01
       -2   -1    0    0    0  501  0.00000000000E+00  0.00000000000E+00  0.21464640733E+03  0.21464640735E+03  0.25500000920E-02 0. -1.
        2   -1    0    0  501    0  0.00000000000E+00  0.00000000000E+00 -0.58340138028E+03  0.58340138028E+03  0.25500000920E-02 0.  1.
    10030    2    1    2    0    0  0.00000000000E+00  0.00000000000E+00 -0.36875497294E+03  0.79804778763E+03  0.70774292033E+03 0.  0.
        3    1    3    3  502    0 -0.77456305984E+02  0.34494669089E+03 -0.20174762790E+03  0.40705013752E+03  0.10100000352E+00 0.  1.
       -3    1    3    3    0  502  0.77456305984E+02 -0.34494669089E+03 -0.16700734504E+03  0.39099765011E+03  0.10100000352E+00 0. -1.
</event>
<event>
 5   0  0.6246998E-03  0.6990699E+03  0.7818609E-02  0.9718824E-01
       -1   -1    0    0    0  501  0.00000000000E+00  0.00000000000E+00  0.91235977825E+02  0.91235977965E+02  0.50400001928E-02 0. -1.
        1   -1    0    0  501    0  0.00000000000E+00  0.00000000000E+00 -0.13391064764E+04  0.13391064764E+04  0.50400001928E-02 0.  1.
    10030    2    1    2    0    0  0.00000000000E+00  0.00000000000E+00 -0.12478704985E+04  0.14303424543E+04  0.69906992180E+03 0.  0.
        4    1    3    3  502    0  0.11814954730E+03 -0.23679769237E+03 -0.15673025081E+03  0.30756860545E+03  0.12699999809E+01 0. -1.
       -4    1    3    3    0  502 -0.11814954730E+03  0.23679769237E+03 -0.10911402477E+04  0.11227738489E+04  0.12699999809E+01 0.  1.
</event>
<event>
 5   0  0.6785252E-03  0.6971494E+03  0.7818609E-02  0.9722120E-01
       -1   -1    0    0    0  501  0.00000000000E+00  0.00000000000E+00  0.16416808622E+03  0.16416808630E+03  0.50400001928E-02 0. -1.
        1   -1    0    0  501    0  0.00000000000E+00  0.00000000000E+00 -0.74012136210E+03  0.74012136211E+03  0.50400001928E-02 0.  1.
    10030    2    1    2    0    0  0.00000000000E+00  0.00000000000E+00 -0.57595327587E+03  0.90428944842E+03  0.69714936027E+03 0.  0.
        3    1    3    3  502    0 -0.25000204762E+03  0.31278959021E+02 -0.60043261136E+03  0.65115184718E+03  0.10100000352E+00 0.  1.
       -3    1    3    3    0  502  0.25000204762E+03 -0.31278959021E+02  0.24479335490E+02  0.25313760124E+03  0.10100000352E+00 0. -1.
</event>
<event>
 5   0  0.6990118E-03  0.6996884E+03  0.7818609E-02  0.9717765E-01
       -1   -1    0    0    0  501  0.00000000000E+00  0.00000000000E+00  0.27102959837E+03  0.27102959842E+03  0.50400001928E-02 0.  1.
        1   -1    0    0  501    0  0.00000000000E+00  0.00000000000E+00 -0.45157789652E+03  0.45157789654E+03  0.50400001928E-02 0. -1.
    10030    2    1    2    0    0  0.00000000000E+00  0.00000000000E+00 -0.18054829814E+03  0.72260749496E+03  0.69968843339E+03 0.  0.
        5    1    3    3  502    0  0.62404885128E+02 -0.56041622930E+02  0.26045847719E+03  0.27367086349E+03  0.46999998093E+01 0.  1.
       -5    1    3    3    0  502 -0.62404885128E+02  0.56041622930E+02 -0.44100677533E+03  0.44893663147E+03  0.46999998093E+01 0. -1.
</event>
<event>
 5   0  0.6990118E-03  0.7019625E+03  0.7818609E-02  0.9713882E-01
       -1   -1    0    0    0  501  0.00000000000E+00  0.00000000000E+00  0.16706314516E+03  0.16706314524E+03  0.50400001928E-02 0. -1.
        1   -1    0    0  501    0  0.00000000000E+00  0.00000000000E+00 -0.73737288285E+03  0.73737288287E+03  0.50400001928E-02 0.  1.
    10030    2    1    2    0    0  0.00000000000E+00  0.00000000000E+00 -0.57030973769E+03  0.90443602810E+03  0.70196248620E+03 0.  0.
        5    1    3    3  502    0  0.12052492540E+03  0.32635707036E+03 -0.22568327040E+03  0.41471704035E+03  0.46999998093E+01 0. -1.
       -5    1    3    3    0  502 -0.12052492540E+03 -0.32635707036E+03 -0.34462646729E+03  0.48971898776E+03  0.46999998093E+01 0.  1.
</event>
<event>
 5   0  0.1079446E-02  0.7010197E+03  0.7818609E-02  0.9715490E-01
       -2   -1    0    0    0  501  0.00000000000E+00  0.00000000000E+00  0.10009248845E+03  0.10009248848E+03  0.25500000920E-02 0.  1.
        2   -1    0    0  501    0  0.00000000000E+00  0.00000000000E+00 -0.12274364831E+04  0.12274364831E+04  0.25500000920E-02 0. -1.
    10030    2    1    2    0    0  0.00000000000E+00  0.00000000000E+00 -0.11273439947E+04  0.13275289716E+04  0.70101974874E+03 0.  0.
        2    1    3    3  502    0  0.12638406177E+03 -0.13630206091E+03 -0.11264133559E+04  0.11416471571E+04  0.25500000920E-02 0. -1.
       -2    1    3    3    0  502 -0.12638406177E+03  0.13630206091E+03 -0.93063876028E+00  0.18588181453E+03  0.25500000920E-02 0.  1.
</event>
<event>
 5   0  0.1079446E-02  0.6998666E+03  0.7818609E-02  0.9717460E-01
        2   -1    0    0  501    0  0.00000000000E+00  0.00000000000E+00  0.58885608940E+03  0.58885608941E+03  0.25500000920E-02 0.  1.
       -2   -1    0    0    0  501  0.00000000000E+00  0.00000000000E+00 -0.20795115479E+03  0.20795115481E+03  0.25500000920E-02 0. -1.
    10030    2    1    2    0    0  0.00000000000E+00  0.00000000000E+00  0.38090493461E+03  0.79680724422E+03  0.69986656959E+03 0.  0.
        2    1    3    3  502    0  0.65742680054E+02 -0.14549070570E+03 -0.16406898611E+03  0.22892854264E+03  0.25500000920E-02 0. -1.
       -2    1    3    3    0  502 -0.65742680054E+02  0.14549070570E+03  0.54497392072E+03  0.56787870157E+03  0.25500000920E-02 0.  1.
</event>
<event>
 5   0  0.6689415E-03  0.7005649E+03  0.7818609E-02  0.9716267E-01
        1   -1    0    0  501    0  0.00000000000E+00  0.00000000000E+00  0.10614036328E+04  0.10614036328E+04  0.50400001928E-02 0.  1.
       -1   -1    0    0    0  501  0.00000000000E+00  0.00000000000E+00 -0.11559955158E+03  0.11559955169E+03  0.50400001928E-02 0. -1.
    10030    2    1    2    0    0  0.00000000000E+00  0.00000000000E+00  0.94580408121E+03  0.11770031845E+04  0.70056486944E+03 0.  0.
        1    1    3    3  502    0  0.66067502726E+02  0.20317577402E+02  0.10498320608E+04  0.10521050683E+04  0.50400001928E-02 0.  1.
       -1    1    3    3    0  502 -0.66067502726E+02 -0.20317577402E+02 -0.10402797958E+03  0.12489811619E+03  0.50400001928E-02 0. -1.
</event>
<event>
 5   0  0.6246998E-03  0.6991812E+03  0.7818609E-02  0.9718633E-01
        1   -1    0    0  501    0  0.00000000000E+00  0.00000000000E+00  0.44621719665E+03  0.44621719668E+03  0.50400001928E-02 0. -1.
       -1   -1    0    0    0  501  0.00000000000E+00  0.00000000000E+00 -0.27388814876E+03  0.27388814881E+03  0.50400001928E-02 0.  1.
    10030    2    1    2    0    0  0.00000000000E+00  0.00000000000E+00  0.17232904789E+03  0.72010534549E+03  0.69918124107E+03 0.  0.
        4    1    3    3  502    0  0.16114758772E+03 -0.30334604641E+03  0.19222305453E+02  0.34403267116E+03  0.12699999809E+01 0.  1.
       -4    1    3    3    0  502 -0.16114758772E+03  0.30334604641E+03  0.15310674244E+03  0.37607267433E+03  0.12699999809E+01 0. -1.
</event>
<event>
 5   0  0.1109788E-02  0.6891844E+03  0.7818609E-02  0.9735909E-01
        2   -1    0    0  501    0  0.00000000000E+00  0.00000000000E+00  0.55868855563E+03  0.55868855564E+03  0.25500000920E-02 0.  1.
       -2   -1    0    0    0  501  0.00000000000E+00  0.00000000000E+00 -0.21254019923E+03  0.21254019925E+03  0.25500000920E-02 0. -1.
    10030    2    1    2    0    0  0.00000000000E+00  0.00000000000E+00  0.34614835640E+03  0.77122875489E+03  0.68918437861E+03 0.  0.
        1    1    3    3  502    0  0.13521198462E+03 -0.65960950051E+02 -0.17384918190E+03  0.22990577590E+03  0.50400001928E-02 0. -1.
       -1    1    3    3    0  502 -0.13521198462E+03  0.65960950051E+02  0.51999753830E+03  0.54132297899E+03  0.50400001928E-02 0.  1.
</event>
<event>
 5   0  0.1099980E-02  0.7002093E+03  0.7818609E-02  0.9716874E-01
       -2   -1    0    0    0  501  0.00000000000E+00  0.00000000000E+00  0.21468899327E+03  0.21468899328E+03  0.25500000920E-02 0. -1.
        2   -1    0    0  501    0  0.00000000000E+00  0.00000000000E+00 -0.57093413188E+03  0.57093413188E+03  0.25500000920E-02 0.  1.
    10030    2    1    2    0    0  0.00000000000E+00  0.00000000000E+00 -0.35624513861E+03  0.78562312516E+03  0.70020932299E+03 0.  0.
        5    1    3    3  502    0  0.20988309299E+03 -0.24402258670E+03 -0.33258689670E+03  0.46285426367E+03  0.46999998093E+01 0.  1.
       -5    1    3    3    0  502 -0.20988309299E+03  0.24402258670E+03 -0.23658241914E+02  0.32276886150E+03  0.46999998093E+01 0. -1.
</event>
<event>
 5   0  0.6609285E-03  0.6997549E+03  0.7818609E-02  0.9717651E-01
        1   -1    0    0  501    0  0.00000000000E+00  0.00000000000E+00  0.28528995703E+03  0.28528995707E+03  0.50400001928E-02 0. -1.
       -1   -1    0    0    0  501  0.00000000000E+00  0.00000000000E+00 -0.42908703812E+03  0.42908703815E+03  0.50400001928E-02 0.  1.
    10030    2    1    2    0    0  0.00000000000E+00  0.00000000000E+00 -0.14379708109E+03  0.71437699522E+03  0.69975487906E+03 0.  0.
        2    1    3    3  502    0  0.70960541872E+02  0.15988331398E+03  0.23744500915E+03  0.29492067572E+03  0.25500000920E-02 0. -1.
       -2    1    3    3    0  502 -0.70960541872E+02 -0.15988331398E+03 -0.38124209024E+03  0.41945631950E+03  0.25500000920E-02 0.  1.
</event>
<event>
 5   0  0.6609285E-03  0.7113012E+03  0.7818609E-02  0.9698098E-01
       -1   -1    0    0    0  501  0.00000000000E+00  0.00000000000E+00  0.60837732462E+03  0.60837732464E+03  0.50400001928E-02 0. -1.
        1   -1    0    0  501    0  0.00000000000E+00  0.00000000000E+00 -0.20790937379E+03  0.20790937386E+03  0.50400001928E-02 0.  1.
    10030    2    1    2    0    0  0.00000000000E+00  0.00000000000E+00  0.40046795082E+03  0.81628669849E+03  0.71130119816E+03 0.  0.
        2    1    3    3  502    0 -0.26920599571E+03 -0.10246855550E+03  0.43962730483E+03  0.52558904112E+03  0.25500000920E-02 0. -1.
       -2    1    3    3    0  502  0.26920599571E+03  0.10246855550E+03 -0.39159354004E+02  0.29069765737E+03  0.25500000920E-02 0.  1.
</event>
<event>
 5   0  0.6785252E-03  0.7022282E+03  0.7818609E-02  0.9713429E-01
        1   -1    0    0  501    0  0.00000000000E+00  0.00000000000E+00  0.94696160759E+03  0.94696160761E+03  0.50400001928E-02 0.  1.
       -1   -1    0    0    0  501  0.00000000000E+00  0.00000000000E+00 -0.13018597600E+03  0.13018597610E+03  0.50400001928E-02 0. -1.
    10030    2    1    2    0    0  0.00000000000E+00  0.00000000000E+00  0.81677563160E+03  0.10771475837E+04  0.70222822836E+03 0.  0.
        3    1    3    3  502    0  0.28885111387E+02  0.34164260882E+03  0.52446955333E+03  0.62659583815E+03  0.10100000352E+00 0.  1.
       -3    1    3    3    0  502 -0.28885111387E+02 -0.34164260882E+03  0.29230607827E+03  0.45055174555E+03  0.10100000352E+00 0. -1.
</event>
<event>
 5   0  0.1119786E-02  0.7021416E+03  0.7818609E-02  0.9713577E-01
        2   -1    0    0  501    0  0.00000000000E+00  0.00000000000E+00  0.54315121994E+03  0.54315121995E+03  0.25500000920E-02 0.  1.
       -2   -1    0    0    0  501  0.00000000000E+00  0.00000000000E+00 -0.22691784989E+03  0.22691784990E+03  0.25500000920E-02 0. -1.
    10030    2    1    2    0    0  0.00000000000E+00  0.00000000000E+00  0.31623337005E+03  0.77006906985E+03  0.70214160111E+03 0.  0.
        3    1    3    3  502    0  0.57505252879E+02  0.34632675007E+03  0.15671865923E+03  0.38446042745E+03  0.10100000352E+00 0. -1.
       -3    1    3    3    0  502 -0.57505252879E+02 -0.34632675007E+03  0.15951471082E+03  0.38560864240E+03  0.10100000352E+00 0.  1.
</event>
<event>
 5   0  0.6785252E-03  0.6992988E+03  0.7818609E-02  0.9718432E-01
        1   -1    0    0  501    0  0.00000000000E+00  0.00000000000E+00  0.18613655207E+03  0.18613655214E+03  0.50400001928E-02 0. -1.
       -1   -1    0    0    0  501  0.00000000000E+00  0.00000000000E+00 -0.65680106862E+03  0.65680106864E+03  0.50400001928E-02 0.  1.
    10030    2    1    2    0    0  0.00000000000E+00  0.00000000000E+00 -0.47066451655E+03  0.84293762078E+03  0.69929875260E+03 0.  0.
        3    1    3    3  502    0 -0.12633141934E+03 -0.98911256289E+02 -0.60980694690E+03  0.63056132677E+03  0.10100000352E+00 0.  1.
       -3    1    3    3    0  502  0.12633141934E+03  0.98911256289E+02  0.13914243035E+03  0.21237629401E+03  0.10100000352E+00 0. -1.
</event>
<event>
 5   0  0.6609285E-03  0.6922670E+03  0.7818609E-02  0.9730549E-01
        1   -1    0    0  501    0  0.00000000000E+00  0.00000000000E+00  0.50191989847E+03  0.50191989850E+03  0.50400001928E-02 0.  1.
       -1   -1    0    0    0  501  0.00000000000E+00  0.00000000000E+00 -0.23870021380E+03  0.23870021386E+03  0.50400001928E-02 0. -1.
    10030    2    1    2    0    0  0.00000000000E+00  0.00000000000E+00  0.26321968467E+03  0.74062011236E+03  0.69226696327E+03 0.  0.
        2    1    3    3  502    0 -0.26676062322E+03 -0.22031311383E+03  0.14279416966E+03  0.37428501590E+03  0.25500000920E-02 0. -1.
       -2    1    3    3    0  502  0.26676062322E+03  0.22031311383E+03  0.12042551501E+03  0.36633509646E+03  0.25500000920E-02 0.  1.
</event>
<event>
 5   0  0.1109788E-02  0.7005329E+03  0.7818609E-02  0.9716321E-01
        2   -1    0    0  501    0  0.00000000000E+00  0.00000000000E+00  0.71514822941E+03  0.71514822941E+03  0.25500000920E-02 0. -1.
       -2   -1    0    0    0  501  0.00000000000E+00  0.00000000000E+00 -0.17155407857E+03  0.17155407859E+03  0.25500000920E-02 0.  1.
    10030    2    1    2    0    0  0.00000000000E+00  0.00000000000E+00  0.54359415083E+03  0.88670230800E+03  0.70053292727E+03 0.  0.
        1    1    3    3  502    0 -0.59040581888E+02  0.33885677851E+03  0.35553689976E+03  0.49468797617E+03  0.50400001928E-02 0. -1.
       -1    1    3    3    0  502  0.59040581888E+02 -0.33885677851E+03  0.18805725107E+03  0.39201433183E+03  0.50400001928E-02 0.  1.
</event>
<event>
 5   0  0.1099980E-02  0.6983584E+03  0.7818609E-02  0.9720044E-01
        2   -1    0    0  501    0  0.00000000000E+00  0.00000000000E+00  0.56533811511E+03  0.56533811511E+03  0.25500000920E-02 0.  1.
       -2   -1    0    0    0  501  0.00000000000E+00  0.00000000000E+00 -0.21566934232E+03  0.21566934234E+03  0.25500000920E-02 0. -1.
    10030    2    1    2    0    0  0.00000000000E+00  0.00000000000E+00  0.34966877278E+03  0.78100745745E+03  0.69835835925E+03 0.  0.
        5    1    3    3  502    0 -0.18281497032E+03  0.29448341600E+03  0.12788757019E+03  0.36948493377E+03  0.46999998093E+01 0. -1.
       -5    1    3    3    0  502  0.18281497032E+03 -0.29448341600E+03  0.22178120260E+03  0.41152252368E+03  0.46999998093E+01 0.  1.
</event>
<event>
 5   0  0.1099980E-02  0.7006504E+03  0.7818609E-02  0.9716121E-01
        2   -1    0    0  501    0  0.00000000000E+00  0.00000000000E+00  0.18223647533E+04  0.18223647533E+04  0.25500000920E-02 0. -1.
       -2   -1    0    0    0  501  0.00000000000E+00  0.00000000000E+00 -0.67345327247E+02  0.67345327295E+02  0.25500000920E-02 0.  1.
    10030    2    1    2    0    0  0.00000000000E+00  0.00000000000E+00  0.17550194260E+04  0.18897100806E+04  0.70065041417E+03 0.  0.
        5    1    3    3  502    0 -0.16866729046E+03  0.20977218074E+03  0.27290263184E+03  0.38334183068E+03  0.46999998093E+01 0.  1.
       -5    1    3    3    0  502  0.16866729046E+03 -0.20977218074E+03  0.14821167942E+04  0.15063682499E+04  0.46999998093E+01 0. -1.
</event>
<event>
 5   0  0.1099980E-02  0.7001748E+03  0.7818609E-02  0.9716933E-01
        2   -1    0    0  501    0  0.00000000000E+00  0.00000000000E+00  0.30138224265E+03  0.30138224266E+03  0.25500000920E-02 0.  1.
       -2   -1    0    0    0  501  0.00000000000E+00  0.00000000000E+00 -0.40666359499E+03  0.40666359500E+03  0.25500000920E-02 0. -1.
    10030    2    1    2    0    0  0.00000000000E+00  0.00000000000E+00 -0.10528135234E+03  0.70804583767E+03  0.70017479609E+03 0.  0.
        5    1    3    3  502    0  0.26003823915E+02  0.28236443190E+03 -0.26021195063E+03  0.38488728286E+03  0.46999998093E+01 0. -1.
       -5    1    3    3    0  502 -0.26003823915E+02 -0.28236443190E+03  0.15493059829E+03  0.32315855480E+03  0.46999998093E+01 0.  1.
</event>
<event>
 5   0  0.1079446E-02  0.7014233E+03  0.7818609E-02  0.9714801E-01
       -2   -1    0    0    0  501  0.00000000000E+00  0.00000000000E+00  0.12723996412E+03  0.12723996414E+03  0.25500000920E-02 0. -1.
        2   -1    0    0  501    0  0.00000000000E+00  0.00000000000E+00 -0.96666696072E+03  0.96666696072E+03  0.25500000920E-02 0.  1.
    10030    2    1    2    0    0  0.00000000000E+00  0.00000000000E+00 -0.83942699660E+03  0.10939069249E+04  0.70142332271E+03 0.  0.
        2    1    3    3  502    0 -0.21118330377E+03 -0.27751909600E+03 -0.47772034125E+03  0.59146594229E+03  0.25500000920E-02 0.  1.
       -2    1    3    3    0  502  0.21118330377E+03  0.27751909600E+03 -0.36170665535E+03  0.50244098258E+03  0.25500000920E-02 0. -1.
</event>
<event>
 5   0  0.1100119E-02  0.6986478E+03  0.7818609E-02  0.9719547E-01
       -2   -1    0    0    0  501  0.00000000000E+00  0.00000000000E+00  0.17354701166E+03  0.17354701168E+03  0.25500000920E-02 0. -1.
        2   -1    0    0  501    0  0.00000000000E+00  0.00000000000E+00 -0.70313612731E+03  0.70313612731E+03  0.25500000920E-02 0.  1.
    10030    2    1    2    0    0  0.00000000000E+00  0.00000000000E+00 -0.52958911565E+03  0.87668313899E+03  0.69864776159E+03 0.  0.
        4    1    3    3  502    0  0.38833812458E+02  0.11367065307E+03  0.14681306648E+03  0.18969652540E+03  0.12699999809E+01 0. -1.
       -4    1    3    3    0  502 -0.38833812458E+02 -0.11367065307E+03 -0.67640218213E+03  0.68698661359E+03  0.12699999809E+01 0.  1.
</event>
<event>
 5   0  0.1119786E-02  0.7000906E+03  0.7818609E-02  0.9717077E-01
        2   -1    0    0  501    0  0.00000000000E+00  0.00000000000E+00  0.64400816596E+03  0.64400816596E+03  0.25500000920E-02 0.  1.
       -2   -1    0    0    0  501  0.00000000000E+00  0.00000000000E+00 -0.19026419699E+03  0.19026419701E+03  0.25500000920E-02 0. -1.
    10030    2    1    2    0    0  0.00000000000E+00  0.00000000000E+00  0.45374396896E+03  0.83427236297E+03  0.70009055575E+03 0.  0.
        3    1    3    3  502    0 -0.30224614016E+03  0.46218368474E+02  0.42995472996E+03  0.52758880470E+03  0.10100000352E+00 0.  1.
       -3    1    3    3    0  502  0.30224614016E+03 -0.46218368474E+02  0.23789238998E+02  0.30668355828E+03  0.10100000352E+00 0. -1.
</event>
<event>
 5   0  0.1099980E-02  0.7040284E+03  0.7818609E-02  0.9710368E-01
       -2   -1    0    0    0  501  0.00000000000E+00  0.00000000000E+00  0.17214603553E+03  0.17214603555E+03  0.25500000920E-02 0. -1.
        2   -1    0    0  501    0  0.00000000000E+00  0.00000000000E+00 -0.71981900567E+03  0.71981900567E+03  0.25500000920E-02 0.  1.
    10030    2    1    2    0    0  0.00000000000E+00  0.00000000000E+00 -0.54767297014E+03  0.89196504122E+03  0.70402837481E+03 0.  0.
        5    1    3    3  502    0 -0.19015309574E+03  0.15663044588E+03  0.44669998222E+02  0.25041724209E+03  0.46999998093E+01 0. -1.
       -5    1    3    3    0  502  0.19015309574E+03 -0.15663044588E+03 -0.59234296836E+03  0.64154779913E+03  0.46999998093E+01 0.  1.
</event>
<event>
 5   0  0.1100119E-02  0.7001085E+03  0.7818609E-02  0.9717047E-01
        2   -1    0    0  501    0  0.00000000000E+00  0.00000000000E+00  0.34302485117E+03  0.34302485118E+03  0.25500000920E-02 0.  1.
       -2   -1    0    0    0  501  0.00000000000E+00  0.00000000000E+00 -0.35722765887E+03  0.35722765888E+03  0.25500000920E-02 0. -1.
    10030    2    1    2    0    0  0.00000000000E+00  0.00000000000E+00 -0.14202807700E+02  0.70025251006E+03  0.70010846167E+03 0.  0.
        4    1    3    3  502    0  0.19276359034E+03 -0.24056544542E+03  0.15878451068E+03  0.34676168909E+03  0.12699999809E+01 0.  1.
       -4    1    3    3    0  502 -0.19276359034E+03  0.24056544542E+03 -0.17298731838E+03  0.35349082097E+03  0.12699999809E+01 0. -1.
</event>
<event>
 5   0  0.6990118E-03  0.6995648E+03  0.7818609E-02  0.9717977E-01
        1   -1    0    0  501    0  0.00000000000E+00  0.00000000000E+00  0.10285595239E+04  0.10285595240E+04  0.50400001928E-02 0. -1.
       -1   -1    0    0    0  501  0.00000000000E+00  0.00000000000E+00 -0.11895056261E+03  0.11895056272E+03  0.50400001928E-02 0.  1.
    10030    2    1    2    0    0  0.00000000000E+00  0.00000000000E+00  0.90960896133E+03  0.11475100867E+04  0.69956481936E+03 0.  0.
        5    1    3    3  502    0 -0.42363653656E+02 -0.34683662824E+03  0.42964182990E+03  0.55380909873E+03  0.46999998093E+01 0.  1.
       -5    1    3    3    0  502  0.42363653656E+02  0.34683662824E+03  0.47996713143E+03  0.59370098794E+03  0.46999998093E+01 0. -1.
</event>
<event>
 5   0  0.1109788E-02  0.7015009E+03  0.7818609E-02  0.9714669E-01
       -2   -1    0    0    0  501  0.00000000000E+00  0.00000000000E+00  0.11534690866E+03  0.11534690869E+03  0.25500000920E-02 0.  1.
        2   -1    0    0  501    0  0.00000000000E+00  0.00000000000E+00 -0.10665726981E+04  0.10665726982E+04  0.25500000920E-02 0. -1.
    10030    2    1    2    0    0  0.00000000000E+00  0.00000000000E+00 -0.95122578949E+03  0.11819196068E+04  0.70150085847E+03 0.  0.
        1    1    3    3  502    0  0.90721512138E+02 -0.28889904924E+03 -0.77384844030E+03  0.83098403234E+03  0.50400001928E-02 0. -1.
       -1    1    3    3    0  502 -0.90721512138E+02  0.28889904924E+03 -0.17737734919E+03  0.35093557450E+03  0.50400001928E-02 0.  1.
</event>
<event>
 5   0  0.6609285E-03  0.6974224E+03  0.7818609E-02  0.9721650E-01
       -1   -1    0    0    0  501  0.00000000000E+00  0.00000000000E+00  0.80323930032E+02  0.80323930190E+02  0.50400001928E-02 0. -1.
        1   -1    0    0  501    0  0.00000000000E+00  0.00000000000E+00 -0.15138638821E+04  0.15138638821E+04  0.50400001928E-02 0.  1.
    10030    2    1    2    0    0  0.00000000000E+00  0.00000000000E+00 -0.14335399520E+04  0.15941878123E+04  0.69742238757E+03 0.  0.
        2    1    3    3  502    0  0.19532978549E+03  0.28456755172E+03 -0.83030640311E+03  0.89918915676E+03  0.25500000920E-02 0.  1.
       -2    1    3    3    0  502 -0.19532978549E+03 -0.28456755172E+03 -0.60323354891E+03  0.69499865549E+03  0.25500000920E-02 0. -1.
</event>
<event>
 5   0  0.1119786E-02  0.7040422E+03  0.7818609E-02  0.9710344E-01
       -2   -1    0    0    0  501  0.00000000000E+00  0.00000000000E+00  0.82848362119E+02  0.82848362159E+02  0.25500000920E-02 0.  1.
        2   -1    0    0  501    0  0.00000000000E+00  0.00000000000E+00 -0.14957309079E+04  0.14957309079E+04  0.25500000920E-02 0. -1.
    10030    2    1    2    0    0  0.00000000000E+00  0.00000000000E+00 -0.14128825458E+04  0.15785792701E+04  0.70404220306E+03 0.  0.
        3    1    3    3  502    0  0.19041846711E+03 -0.76291947132E+02 -0.65012602016E+02  0.21518899236E+03  0.10100000352E+00 0.  1.
       -3    1    3    3    0  502 -0.19041846711E+03  0.76291947132E+02 -0.13478699438E+04  0.13633902777E+04  0.10100000352E+00 0. -1.
</event>
<event>
 5   0  0.6246998E-03  0.6986614E+03  0.7818609E-02  0.9719524E-01
       -1   -1    0    0    0  501  0.00000000000E+00  0.00000000000E+00  0.65903078580E+03  0.65903078582E+03  0.50400001928E-02 0.  1.
        1   -1    0    0  501    0  0.00000000000E+00  0.00000000000E+00 -0.18516882093E+03  0.18516882100E+03  0.50400001928E-02 0. -1.
    10030    2    1    2    0    0  0.00000000000E+00  0.00000000000E+00  0.47386196487E+03  0.84419960682E+03  0.69866144477E+03 0.  0.
        4    1    3    3  502    0 -0.13203742079E+03 -0.25349896021E+03 -0.57400762128E+01  0.28588488014E+03  0.12699999809E+01 0. -1.
       -4    1    3    3    0  502  0.13203742079E+03  0.25349896021E+03  0.47960204108E+03  0.55831472668E+03  0.12699999809E+01 0.  1.
</event>
<event>
 5   0  0.6689415E-03  0.7012929E+03  0.7818609E-02  0.9715024E-01
       -1   -1    0    0    0  501  0.00000000000E+00  0.00000000000E+00  0.54635793532E+03  0.54635793535E+03  0.50400001928E-02 0. -1.
        1   -1    0    0  501    0  0.00000000000E+00  0.00000000000E+00 -0.22504098227E+03  0.22504098232E+03  0.50400001928E-02 0.  1.
    10030    2    1    2    0    0  0.00000000000E+00  0.00000000000E+00  0.32131695305E+03  0.77139891767E+03  0.70129288165E+03 0.  0.
        1    1    3    3  502    0  0.29464457001E+03 -0.49085524504E+02  0.36266976099E+03  0.46984483280E+03  0.50400001928E-02 0. -1.
       -1    1    3    3    0  502 -0.29464457001E+03  0.49085524504E+02 -0.41352807933E+02  0.30155408487E+03  0.50400001928E-02 0.  1.
</event>
<event>
 5   0  0.6990118E-03  0.7013763E+03  0.7818609E-02  0.9714881E-01
        1   -1    0    0  501    0  0.00000000000E+00  0.00000000000E+00  0.10178060526E+04  0.10178060526E+04  0.50400001928E-02 0. -1.
       -1   -1    0    0    0  501  0.00000000000E+00  0.00000000000E+00 -0.12083066424E+03  0.12083066434E+03  0.50400001928E-02 0.  1.
    10030    2    1    2    0    0  0.00000000000E+00  0.00000000000E+00  0.89697538835E+03  0.11386367169E+04  0.70137630831E+03 0.  0.
        5    1    3    3  502    0  0.35058358101E+03 -0.71463497334E+01  0.44781074685E+03  0.56878508471E+03  0.46999998093E+01 0. -1.
       -5    1    3    3    0  502 -0.35058358101E+03  0.71463497334E+01  0.44916464150E+03  0.56985163223E+03  0.46999998093E+01 0.  1.
</event>
<event>
 5   0  0.1100119E-02  0.7013427E+03  0.7818609E-02  0.9714939E-01
       -2   -1    0    0    0  501  0.00000000000E+00  0.00000000000E+00  0.17059402952E+03  0.17059402954E+03  0.25500000920E-02 0. -1.
        2   -1    0    0  501    0  0.00000000000E+00  0.00000000000E+00 -0.72083641841E+03  0.72083641842E+03  0.25500000920E-02 0.  1.
    10030    2    1    2    0    0  0.00000000000E+00  0.00000000000E+00 -0.55024238890E+03  0.89143044795E+03  0.70134268158E+03 0.  0.
        4    1    3    3  502    0 -0.43077577836E+02 -0.29998893343E+03 -0.50900773532E+02  0.30731342233E+03  0.12699999809E+01 0. -1.
       -4    1    3    3    0  502  0.43077577836E+02  0.29998893343E+03 -0.49934161536E+03  0.58411702563E+03  0.12699999809E+01 0.  1.
</event>
<event>
 5   0  0.6609285E-03  0.6945636E+03  0.7818609E-02  0.9726575E-01
        1   -1    0    0  501    0  0.00000000000E+00  0.00000000000E+00  0.34800917054E+03  0.34800917058E+03  0.50400001928E-02 0. -1.
       -1   -1    0    0    0  501  0.00000000000E+00  0.00000000000E+00 -0.34655595803E+03  0.34655595807E+03  0.50400001928E-02 0.  1.
    10030    2    1    2    0    0  0.00000000000E+00  0.00000000000E+00  0.14532125143E+01  0.69456512864E+03  0.69456360839E+03 0.  0.
        2    1    3    3  502    0 -0.17447707859E+03  0.20174781595E+03 -0.22167041675E+03  0.34681725139E+03  0.25500000920E-02 0.  1.
       -2    1    3    3    0  502  0.17447707859E+03 -0.20174781595E+03  0.22312362926E+03  0.34774787726E+03  0.25500000920E-02 0. -1.
</event>
<event>
 5   0  0.1079446E-02  0.7032784E+03  0.7818609E-02  0.9711642E-01
        2   -1    0    0  501    0  0.00000000000E+00  0.00000000000E+00  0.47959755084E+03  0.47959755085E+03  0.25500000920E-02 0. -1.
       -2   -1    0    0    0  501  0.00000000000E+00  0.00000000000E+00 -0.25782063335E+03  0.25782063336E+03  0.25500000920E-02 0.  1.
    10030    2    1    2    0    0  0.00000000000E+00  0.00000000000E+00  0.22177691749E+03  0.73741818421E+03  0.70327844932E+03 0.  0.
        2    1    3    3  502    0  0.69452870268E+02  0.18973149314E+03  0.41265853940E+03  0.45946578852E+03  0.25500000920E-02 0. -1.
       -2    1    3    3    0  502 -0.69452870268E+02 -0.18973149314E+03 -0.19088162191E+03  0.27795239569E+03  0.25500000920E-02 0.  1.
</event>
<event>
 5   0  0.4440500E-03  0.7016629E+03  0.7818609E-02  0.9714393E-01
        3   -1    0    0  501    0  0.00000000000E+00  0.00000000000E+00  0.16817424096E+03  0.16817427129E+03  0.10100000352E+00 0. -1.
       -3   -1    0    0    0  501  0.00000000000E+00  0.00000000000E+00 -0.73187591724E+03  0.73187592421E+03  0.10100000352E+00 0.  1.
    10030    2    1    2    0    0  0.00000000000E+00  0.00000000000E+00 -0.56370167628E+03  0.90005019550E+03  0.70166286391E+03 0.  0.
        1    1    3    3  502    0  0.29396880098E+03 -0.20749299280E+02 -0.37676847708E+02  0.29709886275E+03  0.50400001928E-02 0. -1.
       -1    1    3    3    0  502 -0.29396880098E+03  0.20749299280E+02 -0.52602482857E+03  0.60295133275E+03  0.50400001928E-02 0.  1.
</event>
<event>
 5   0  0.1109788E-02  0.6996787E+03  0.7818609E-02  0.9717782E-01
       -2   -1    0    0    0  501  0.00000000000E+00  0.00000000000E+00  0.31402103534E+03  0.31402103535E+03  0.25500000920E-02 0. -1.
        2   -1    0    0  501    0  0.00000000000E+00  0.00000000000E+00 -0.38974319995E+03  0.38974319996E+03  0.25500000920E-02 0.  1.
    10030    2    1    2    0    0  0.00000000000E+00  0.00000000000E+00 -0.75722164603E+02  0.70376423531E+03  0.69967867817E+03 0.  0.
        1    1    3    3  502    0 -0.66619465928E+02  0.33690053736E+03  0.29217441450E+02  0.34466474178E+03  0.50400001928E-02 0. -1.
       -1    1    3    3    0  502  0.66619465928E+02 -0.33690053736E+03 -0.10493960605E+03  0.35909949353E+03  0.50400001928E-02 0.  1.
</event>
<event>
 5   0  0.1099980E-02  0.7022456E+03  0.7818609E-02  0.9713400E-01
       -2   -1    0    0    0  501  0.00000000000E+00  0.00000000000E+00  0.17616041690E+03  0.17616041692E+03  0.25500000920E-02 0.  1.
        2   -1    0    0  501    0  0.00000000000E+00  0.00000000000E+00 -0.69985758532E+03  0.69985758532E+03  0.25500000920E-02 0. -1.
    10030    2    1    2    0    0  0.00000000000E+00  0.00000000000E+00 -0.52369716842E+03  0.87601800225E+03  0.70224555253E+03 0.  0.
        5    1    3    3  502    0  0.13176236059E+03  0.32415792615E+03 -0.22600883050E+03  0.41658343968E+03  0.46999998093E+01 0.  1.
       -5    1    3    3    0  502 -0.13176236059E+03 -0.32415792615E+03 -0.29768833792E+03  0.45943456257E+03  0.46999998093E+01 0. -1.
</event>
<event>
 5   0  0.6609285E-03  0.6998200E+03  0.7818609E-02  0.9717540E-01
        1   -1    0    0  501    0  0.00000000000E+00  0.00000000000E+00  0.61093230688E+03  0.61093230690E+03  0.50400001928E-02 0.  1.
       -1   -1    0    0    0  501  0.00000000000E+00  0.00000000000E+00 -0.20041012525E+03  0.20041012531E+03  0.50400001928E-02 0. -1.
    10030    2    1    2    0    0  0.00000000000E+00  0.00000000000E+00  0.41052218163E+03  0.81134243221E+03  0.69982003450E+03 0.  0.
        2    1    3    3  502    0  0.18395887543E+03 -0.29259489898E+02  0.54867408085E+03  0.57943095585E+03  0.25500000920E-02 0.  1.
       -2    1    3    3    0  502 -0.18395887543E+03  0.29259489898E+02 -0.13815189922E+03  0.23191147635E+03  0.25500000920E-02 0. -1.
</event>
<event>
 5   0  0.6246998E-03  0.6993406E+03  0.7818609E-02  0.9718360E-01
       -1   -1    0    0    0  501  0.00000000000E+00  0.00000000000E+00  0.14392161941E+03  0.14392161949E+03  0.50400001928E-02 0. -1.
        1   -1    0    0  501    0  0.00000000000E+00  0.00000000000E+00 -0.84955494984E+03  0.84955494986E+03  0.50400001928E-02 0.  1.
    10030    2    1    2    0    0  0.00000000000E+00  0.00000000000E+00 -0.70563333044E+03  0.99347656935E+03  0.69934061574E+03 0.  0.
        4    1    3    3  502    0  0.23910309029E+03  0.40162705167E+02 -0.71075014353E+03  0.75096651730E+03  0.12699999809E+01 0.  1.
       -4    1    3    3    0  502 -0.23910309029E+03 -0.40162705167E+02  0.51168130929E+01  0.24251005205E+03  0.12699999809E+01 0. -1.
</event>
<event>
 5   0  0.1100119E-02  0.7017825E+03  0.7818609E-02  0.9714189E-01
        2   -1    0    0  501    0  0.00000000000E+00  0.00000000000E+00  0.75594198536E+03  0.75594198536E+03  0.25500000920E-02 0. -1.
       -2   -1    0    0    0  501  0.00000000000E+00  0.00000000000E+00 -0.16287579749E+03  0.16287579751E+03  0.25500000920E-02 0.  1.
    10030    2    1    2    0    0  0.00000000000E+00  0.00000000000E+00  0.59306618786E+03  0.91881778287E+03  0.70178245556E+03 0.  0.
        4    1    3    3  502    0 -0.28294712964E+02 -0.26201946761E+03 -0.67761153345E+01  0.26363292820E+03  0.12699999809E+01 0.  1.
       -4    1    3    3    0  502  0.28294712964E+02  0.26201946761E+03  0.59984230320E+03  0.65518485468E+03  0.12699999809E+01 0. -1.
</event>
<event>
 5   0  0.1119786E-02  0.7002762E+03  0.7818609E-02  0.9716760E-01
        2   -1    0    0  501    0  0.00000000000E+00  0.00000000000E+00  0.18506139235E+03  0.18506139237E+03  0.25500000920E-02 0.  1.
       -2   -1    0    0    0  501  0.00000000000E+00  0.00000000000E+00 -0.66246498225E+03  0.66246498225E+03  0.25500000920E-02 0. -1.
    10030    2    1    2    0    0  0.00000000000E+00  0.00000000000E+00 -0.47740358989E+03  0.84752637462E+03  0.70027620839E+03 0.  0.
        3    1    3    3  502    0 -0.64490563683E+02  0.22450931412E+03  0.76976232238E+02  0.24594474066E+03  0.10100000352E+00 0.  1.
       -3    1    3    3    0  502  0.64490563683E+02 -0.22450931412E+03 -0.55437982213E+03  0.60158163396E+03  0.10100000352E+00 0. -1.
</event>
<event>
 5   0  0.6689415E-03  0.7064962E+03  0.7818609E-02  0.9706187E-01
        1   -1    0    0  501    0  0.00000000000E+00  0.00000000000E+00  0.35458498119E+03  0.35458498123E+03  0.50400001928E-02 0. -1.
       -1   -1    0    0    0  501  0.00000000000E+00  0.00000000000E+00 -0.35191627086E+03  0.35191627089E+03  0.50400001928E-02 0.  1.
    10030    2    1    2    0    0  0.00000000000E+00  0.00000000000E+00  0.26687103343E+01  0.70650125212E+03  0.70649621176E+03 0.  0.
        1    1    3    3  502    0  0.29601879281E+03  0.58070420580E+02 -0.18247371568E+03  0.35255631661E+03  0.50400001928E-02 0.  1.
       -1    1    3    3    0  502 -0.29601879281E+03 -0.58070420580E+02  0.18514242601E+03  0.35394493551E+03  0.50400001928E-02 0. -1.
</event>
<event>
 5   0  0.6689415E-03  0.6995321E+03  0.7818609E-02  0.9718033E-01
       -1   -1    0    0    0  501  0.00000000000E+00  0.00000000000E+00  0.37655078785E+03  0.37655078788E+03  0.50400001928E-02 0. -1.
        1   -1    0    0  501    0  0.00000000000E+00  0.00000000000E+00 -0.32488655662E+03  0.32488655666E+03  0.50400001928E-02 0.  1.
    10030    2    1    2    0    0  0.00000000000E+00  0.00000000000E+00  0.51664231230E+02  0.70143734454E+03  0.69953209756E+03 0.  0.
        1    1    3    3  502    0  0.80713234544E+02  0.33953735793E+03  0.49047824104E+02  0.35242862076E+03  0.50400001928E-02 0. -1.
       -1    1    3    3    0  502 -0.80713234544E+02 -0.33953735793E+03  0.26164071253E+01  0.34900872377E+03  0.50400001928E-02 0.  1.
</event>
<event>
 5   0  0.6609285E-03  0.7004155E+03  0.7818609E-02  0.9716522E-01
        1   -1    0    0  501    0  0.00000000000E+00  0.00000000000E+00  0.48302572605E+03  0.48302572608E+03  0.50400001928E-02 0. -1.
       -1   -1    0    0    0  501  0.00000000000E+00  0.00000000000E+00 -0.25391087651E+03  0.25391087656E+03  0.50400001928E-02 0.  1.
    10030    2    1    2    0    0  0.00000000000E+00  0.00000000000E+00  0.22911484954E+03  0.73693660264E+03  0.70041554954E+03 0.  0.
        2    1    3    3  502    0 -0.23368471775E+01  0.85512971053E+02 -0.24274905642E+03  0.25738110551E+03  0.25500000920E-02 0.  1.
       -2    1    3    3    0  502  0.23368471775E+01 -0.85512971053E+02  0.47186390596E+03  0.47955549713E+03  0.25500000920E-02 0. -1.
</event>
<event>
 5   0  0.6609285E-03  0.7004913E+03  0.7818609E-02  0.9716392E-01
        1   -1    0    0  501    0  0.00000000000E+00  0.00000000000E+00  0.31074104614E+03  0.31074104619E+03  0.50400001928E-02 0.  1.
       -1   -1    0    0    0  501  0.00000000000E+00  0.00000000000E+00 -0.39477248486E+03  0.39477248490E+03  0.50400001928E-02 0. -1.
    10030    2    1    2    0    0  0.00000000000E+00  0.00000000000E+00 -0.84031438720E+02  0.70551353108E+03  0.70049129891E+03 0.  0.
        2    1    3    3  502    0 -0.20776528696E+02 -0.32537710399E+03 -0.17087869315E+03  0.36810521828E+03  0.25500000920E-02 0. -1.
       -2    1    3    3    0  502  0.20776528696E+02  0.32537710399E+03  0.86847254427E+02  0.33740831281E+03  0.25500000920E-02 0.  1.
</event>
<event>
 5   0  0.1099980E-02  0.6998187E+03  0.7818609E-02  0.9717542E-01
        2   -1    0    0  501    0  0.00000000000E+00  0.00000000000E+00  0.97872728920E+03  0.97872728920E+03  0.25500000920E-02 0.  1.
       -2   -1    0    0    0  501  0.00000000000E+00  0.00000000000E+00 -0.12509773529E+03  0.12509773531E+03  0.25500000920E-02 0. -1.
    10030    2    1    2    0    0  0.00000000000E+00  0.00000000000E+00  0.85362955391E+03  0.11038250245E+04  0.69981874041E+03 0.  0.
        5    1    3    3  502    0  0.87764135049E+02  0.26867423237E+03  0.10154598365E+03  0.30036987754E+03  0.46999998093E+01 0. -1.
       -5    1    3    3    0  502 -0.87764135049E+02 -0.26867423237E+03  0.75208357026E+03  0.80345514697E+03  0.46999998093E+01 0.  1.
</event>
<event>
 5   0  0.6990118E-03  0.6986963E+03  0.7818609E-02  0.9719464E-01
        1   -1    0    0  501    0  0.00000000000E+00  0.00000000000E+00  0.30195130792E+03  0.30195130796E+03  0.50400001928E-02 0.  1.
       -1   -1    0    0    0  501  0.00000000000E+00  0.00000000000E+00 -0.40418484841E+03  0.40418484844E+03  0.50400001928E-02 0. -1.
    10030    2    1    2    0    0  0.00000000000E+00  0.00000000000E+00 -0.10223354049E+03  0.70613615641E+03  0.69869633932E+03 0.  0.
        5    1    3    3  502    0  0.58944117142E+02  0.17821121103E+03 -0.34885242432E+03  0.39617388686E+03  0.46999998093E+01 0.  1.
       -5    1    3    3    0  502 -0.58944117142E+02 -0.17821121103E+03  0.24661888383E+03  0.30996226954E+03  0.46999998093E+01 0. -1.
</event>
<event>
 5   0  0.6689415E-03  0.7005882E+03  0.7818609E-02  0.9716227E-01
       -1   -1    0    0    0  501  0.00000000000E+00  0.00000000000E+00  0.14506975759E+03  0.14506975768E+03  0.50400001928E-02 0.  1.
        1   -1    0    0  501    0  0.00000000000E+00  0.00000000000E+00 -0.84584116667E+03  0.84584116669E+03  0.50400001928E-02 0. -1.
    10030    2    1    2    0    0  0.00000000000E+00  0.00000000000E+00 -0.70077140908E+03  0.99091092437E+03  0.70058824730E+03 0.  0.
        1    1    3    3  502    0  0.21378816907E+03  0.26603752303E+03 -0.23879488304E+03  0.41653852293E+03  0.50400001928E-02 0.  1.
       -1    1    3    3    0  502 -0.21378816907E+03 -0.26603752303E+03 -0.46197652604E+03  0.57437240144E+03  0.50400001928E-02 0. -1.
</event>
<event>
 5   0  0.6785252E-03  0.7019977E+03  0.7818609E-02  0.9713822E-01
        1   -1    0    0  501    0  0.00000000000E+00  0.00000000000E+00  0.10074746037E+04  0.10074746037E+04  0.50400001928E-02 0. -1.
       -1   -1    0    0    0  501  0.00000000000E+00  0.00000000000E+00 -0.12228614524E+03  0.12228614534E+03  0.50400001928E-02 0.  1.
    10030    2    1    2    0    0  0.00000000000E+00  0.00000000000E+00  0.88518845848E+03  0.11297607491E+04  0.70199768028E+03 0.  0.
        3    1    3    3  502    0  0.25435448962E+03 -0.19140633575E+03  0.20460834131E+03  0.37841402629E+03  0.10100000352E+00 0.  1.
       -3    1    3    3    0  502 -0.25435448962E+03  0.19140633575E+03  0.68058011716E+03  0.75134672278E+03  0.10100000352E+00 0. -1.
</event>
<event>
 5   0  0.6246998E-03  0.6935620E+03  0.7818609E-02  0.9728306E-01
       -1   -1    0    0    0  501  0.00000000000E+00  0.00000000000E+00  0.50869071161E+03  0.50869071163E+03  0.50400001928E-02 0. -1.
        1   -1    0    0  501    0  0.00000000000E+00  0.00000000000E+00 -0.23640504039E+03  0.23640504045E+03  0.50400001928E-02 0.  1.
    10030    2    1    2    0    0  0.00000000000E+00  0.00000000000E+00  0.27228567121E+03  0.74509575208E+03  0.69356196048E+03 0.  0.
        4    1    3    3  502    0 -0.24413733652E+03 -0.24481745688E+03  0.10738020721E+03  0.36203694297E+03  0.12699999809E+01 0. -1.
       -4    1    3    3    0  502  0.24413733652E+03  0.24481745688E+03  0.16490546401E+03  0.38305880911E+03  0.12699999809E+01 0.  1.
</event>
<event>
 5   0  0.1079446E-02  0.6983280E+03  0.7818609E-02  0.9720096E-01
        2   -1    0    0  501    0  0.00000000000E+00  0.00000000000E+00  0.10719077474E+04  0.10719077474E+04  0.25500000920E-02 0.  1.
       -2   -1    0    0    0  501  0.00000000000E+00  0.00000000000E+00 -0.11373694847E+03  0.11373694850E+03  0.25500000920E-02 0. -1.
    10030    2    1    2    0    0  0.00000000000E+00  0.00000000000E+00  0.95817079892E+03  0.11856446959E+04  0.69832804970E+03 0.  0.
        2    1    3    3  502    0  0.22957760379E+03 -0.20093455721E+03  0.19077876877E+03  0.35982928044E+03  0.25500000920E-02 0. -1.
       -2    1    3    3    0  502 -0.22957760379E+03  0.20093455721E+03  0.76739203016E+03  0.82581541545E+03  0.25500000920E-02 0.  1.
</event>
<event>
 5   0  0.1109788E-02  0.6945411E+03  0.7818609E-02  0.9726613E-01
       -2   -1    0    0    0  501  0.00000000000E+00  0.00000000000E+00  0.55528057393E+02  0.55528057451E+02  0.25500000920E-02 0. -1.
        2   -1    0    0  501    0  0.00000000000E+00  0.00000000000E+00 -0.21718181001E+04  0.21718181001E+04  0.25500000920E-02 0.  1.
    10030    2    1    2    0    0  0.00000000000E+00  0.00000000000E+00 -0.21162900427E+04  0.22273461576E+04  0.69454111520E+03 0.  0.
        1    1    3    3  502    0  0.22552590094E+03  0.18338332963E+03 -0.44878183467E+03  0.53469291442E+03  0.50400001928E-02 0. -1.
       -1    1    3    3    0  502 -0.22552590094E+03 -0.18338332963E+03 -0.16675082081E+04  0.16926532432E+04  0.50400001928E-02 0.  1.
</event>
<event>
 5   0  0.6990118E-03  0.7015089E+03  0.7818609E-02  0.9714655E-01
       -1   -1    0    0    0  501  0.00000000000E+00  0.00000000000E+00  0.28265345803E+03  0.28265345808E+03  0.50400001928E-02 0. -1.
        1   -1    0    0  501    0  0.00000000000E+00  0.00000000000E+00 -0.43526338538E+03  0.43526338541E+03  0.50400001928E-02 0.  1.
    10030    2    1    2    0    0  0.00000000000E+00  0.00000000000E+00 -0.15260992735E+03  0.71791684349E+03  0.70150894808E+03 0.  0.
        5    1    3    3  502    0 -0.21513257687E+03  0.24796623413E+03 -0.20263173460E+03  0.38581211588E+03  0.46999998093E+01 0.  1.
       -5    1    3    3    0  502  0.21513257687E+03 -0.24796623413E+03  0.50021807250E+02  0.33210472760E+03  0.46999998093E+01 0. -1.
</event>
<event>
 5   0  0.6609285E-03  0.7006661E+03  0.7818609E-02  0.9716094E-01
       -1   -1    0    0    0  501  0.00000000000E+00  0.00000000000E+00  0.10824533447E+03  0.10824533459E+03  0.50400001928E-02 0. -1.
        1   -1    0    0  501    0  0.00000000000E+00  0.00000000000E+00 -0.11338431784E+04  0.11338431784E+04  0.50400001928E-02 0.  1.
    10030    2    1    2    0    0  0.00000000000E+00  0.00000000000E+00 -0.10255978439E+04  0.12420885130E+04  0.70066606641E+03 0.  0.
        2    1    3    3  502    0 -0.25211255978E+03  0.91166558985E+02 -0.11300650930E+03  0.29093393653E+03  0.25500000920E-02 0. -1.
       -2    1    3    3    0  502  0.25211255978E+03 -0.91166558985E+02 -0.91259133459E+03  0.95115457642E+03  0.25500000920E-02 0.  1.
</event>
<event>
 5   0  0.6785252E-03  0.7004189E+03  0.7818609E-02  0.9716516E-01
        1   -1    0    0  501    0  0.00000000000E+00  0.00000000000E+00  0.58356404532E+03  0.58356404534E+03  0.50400001928E-02 0.  1.
       -1   -1    0    0    0  501  0.00000000000E+00  0.00000000000E+00 -0.21016830019E+03  0.21016830025E+03  0.50400001928E-02 0. -1.
    10030    2    1    2    0    0  0.00000000000E+00  0.00000000000E+00  0.37339574512E+03  0.79373234559E+03  0.70041891320E+03 0.  0.
        3    1    3    3  502    0 -0.26038716370E+03 -0.17137482875E+03  0.58220478202E+01  0.31177670438E+03  0.10100000352E+00 0. -1.
       -3    1    3    3    0  502  0.26038716370E+03  0.17137482875E+03  0.36757369730E+03  0.48195564122E+03  0.10100000352E+00 0.  1.
</event>
<event>
 5   0  0.1079446E-02  0.7013554E+03  0.7818609E-02  0.9714917E-01
        2   -1    0    0  501    0  0.00000000000E+00  0.00000000000E+00  0.49700218611E+03  0.49700218611E+03  0.25500000920E-02 0. -1.
       -2   -1    0    0    0  501  0.00000000000E+00  0.00000000000E+00 -0.24743323609E+03  0.24743323610E+03  0.25500000920E-02 0.  1.
    10030    2    1    2    0    0  0.00000000000E+00  0.00000000000E+00  0.24956895002E+03  0.74443542221E+03  0.70135542846E+03 0.  0.
        2    1    3    3  502    0 -0.22808154058E+03  0.25793764791E+03  0.54203057937E+02  0.34855557787E+03  0.25500000920E-02 0.  1.
       -2    1    3    3    0  502  0.22808154058E+03 -0.25793764791E+03  0.19536589208E+03  0.39587984435E+03  0.25500000920E-02 0. -1.
</event>
<event>
 5   0  0.1109788E-02  0.7000996E+03  0.7818609E-02  0.9717062E-01
       -2   -1    0    0    0  501  0.00000000000E+00  0.00000000000E+00  0.37623025511E+03  0.37623025512E+03  0.25500000920E-02 0. -1.
        2   -1    0    0  501    0  0.00000000000E+00  0.00000000000E+00 -0.32569114114E+03  0.32569114115E+03  0.25500000920E-02 0.  1.
    10030    2    1    2    0    0  0.00000000000E+00  0.00000000000E+00  0.50539113976E+02  0.70192139627E+03  0.70009959612E+03 0.  0.
        1    1    3    3  502    0  0.86414496685E+02 -0.31661320544E+03 -0.96798955360E+02  0.34217163074E+03  0.50400001928E-02 0.  1.
       -1    1    3    3    0  502 -0.86414496685E+02  0.31661320544E+03  0.14733806934E+03  0.35974976553E+03  0.50400001928E-02 0. -1.
</event>
<event>
 5   0  0.6246998E-03  0.6974668E+03  0.7818609E-02  0.9721574E-01
        1   -1    0    0  501    0  0.00000000000E+00  0.00000000000E+00  0.11167440430E+04  0.11167440430E+04  0.50400001928E-02 0. -1.
       -1   -1    0    0    0  501  0.00000000000E+00  0.00000000000E+00 -0.10890139813E+03  0.10890139825E+03  0.50400001928E-02 0.  1.
    10030    2    1    2    0    0  0.00000000000E+00  0.00000000000E+00  0.10078426449E+04  0.12256454413E+04  0.69746680987E+03 0.  0.
        4    1    3    3  502    0  0.15282932393E+03  0.69993276980E+02 -0.33006547334E+02  0.17130938720E+03  0.12699999809E+01 0.  1.
       -4    1    3    3    0  502 -0.15282932393E+03 -0.69993276980E+02  0.10408491922E+04  0.10543360541E+04  0.12699999809E+01 0. -1.
</event>
<event>
 5   0  0.1079446E-02  0.6998074E+03  0.7818609E-02  0.9717562E-01
       -2   -1    0    0    0  501  0.00000000000E+00  0.00000000000E+00  0.10079975334E+03  0.10079975338E+03  0.25500000920E-02 0. -1.
        2   -1    0    0  501    0  0.00000000000E+00  0.00000000000E+00 -0.12146121107E+04  0.12146121107E+04  0.25500000920E-02 0.  1.
    10030    2    1    2    0    0  0.00000000000E+00  0.00000000000E+00 -0.11138123573E+04  0.13154118640E+04  0.69980740546E+03 0.  0.
        2    1    3    3  502    0 -0.85217488159E+02  0.33488333571E+03 -0.66026674829E+03  0.74522550126E+03  0.25500000920E-02 0.  1.
       -2    1    3    3    0  502  0.85217488159E+02 -0.33488333571E+03 -0.45354560903E+03  0.57018636278E+03  0.25500000920E-02 0. -1.
</event>
<event>
 5   0  0.6609285E-03  0.7008245E+03  0.7818609E-02  0.9715823E-01
        1   -1    0    0  501    0  0.00000000000E+00  0.00000000000E+00  0.23766774329E+03  0.23766774335E+03  0.50400001928E-02 0. -1.
       -1   -1    0    0    0  501  0.00000000000E+00  0.00000000000E+00 -0.51664028766E+03  0.51664028768E+03  0.50400001928E-02 0.  1.
    10030    2    1    2    0    0  0.00000000000E+00  0.00000000000E+00 -0.27897254436E+03  0.75430803103E+03  0.70082446102E+03 0.  0.
        2    1    3    3  502    0  0.32756233196E+03  0.39153502203E+02 -0.12323133401E+02  0.33012412465E+03  0.25500000920E-02 0.  1.
       -2    1    3    3    0  502 -0.32756233196E+03 -0.39153502203E+02 -0.26664941096E+03  0.42418390638E+03  0.25500000920E-02 0. -1.
</event>
<event>
 5   0  0.6990118E-03  0.7002732E+03  0.7818609E-02  0.9716765E-01
       -1   -1    0    0    0  501  0.00000000000E+00  0.00000000000E+00  0.59361680300E+03  0.59361680302E+03  0.50400001928E-02 0.  1.
        1   -1    0    0  501    0  0.00000000000E+00  0.00000000000E+00 -0.20652322180E+03  0.20652322186E+03  0.50400001928E-02 0. -1.
    10030    2    1    2    0    0  0.00000000000E+00  0.00000000000E+00  0.38709358120E+03  0.80014002488E+03  0.70027324582E+03 0.  0.
        5    1    3    3  502    0  0.20638425863E+03 -0.15734173852E+03  0.46205477228E+03  0.52996942127E+03  0.46999998093E+01 0.  1.
       -5    1    3    3    0  502 -0.20638425863E+03  0.15734173852E+03 -0.74961191084E+02  0.27017060361E+03  0.46999998093E+01 0. -1.
</event>
<event>
 5   0  0.6689415E-03  0.7009502E+03  0.7818609E-02  0.9715609E-01
       -1   -1    0    0    0  501  0.00000000000E+00  0.00000000000E+00  0.92664496565E+02  0.92664496702E+02  0.50400001928E-02 0. -1.
        1   -1    0    0  501    0  0.00000000000E+00  0.00000000000E+00 -0.13255649328E+04  0.13255649328E+04  0.50400001928E-02 0.  1.
    10030    2    1    2    0    0  0.00000000000E+00  0.00000000000E+00 -0.12329004362E+04  0.14182294295E+04  0.70095023294E+03 0.  0.
        1    1    3    3  502    0 -0.52163667184E+02  0.34067379552E+03 -0.48763883009E+03  0.59713592403E+03  0.50400001928E-02 0. -1.
       -1    1    3    3    0  502  0.52163667184E+02 -0.34067379552E+03 -0.74526160614E+03  0.82109350548E+03  0.50400001928E-02 0.  1.
</event>
<event>
 5   0  0.1099980E-02  0.7003830E+03  0.7818609E-02  0.9716577E-01
       -2   -1    0    0    0  501  0.00000000000E+00  0.00000000000E+00  0.16947296490E+03  0.16947296492E+03  0.25500000920E-02 0. -1.
        2   -1    0    0  501    0  0.00000000000E+00  0.00000000000E+00 -0.72362043647E+03  0.72362043648E+03  0.25500000920E-02 0.  1.
    10030    2    1    2    0    0  0.00000000000E+00  0.00000000000E+00 -0.55414747158E+03  0.89309340140E+03  0.70038304046E+03 0.  0.
        5    1    3    3  502    0 -0.68057880641E+02  0.29227499774E+03 -0.50715072572E+03  0.58930509757E+03  0.46999998093E+01 0.  1.
       -5    1    3    3    0  502  0.68057880641E+02 -0.29227499774E+03 -0.46996745853E+02  0.30378830383E+03  0.46999998093E+01 0. -1.
</event>
<event>
 5   0  0.1079446E-02  0.6979507E+03  0.7818609E-02  0.9720743E-01
       -2   -1    0    0    0  501  0.00000000000E+00  0.00000000000E+00  0.13513001188E+03  0.13513001191E+03  0.25500000920E-02 0.  1.
        2   -1    0    0  501    0  0.00000000000E+00  0.00000000000E+00 -0.90123422251E+03  0.90123422252E+03  0.25500000920E-02 0. -1.
    10030    2    1    2    0    0  0.00000000000E+00  0.00000000000E+00 -0.76610421063E+03  0.10363642344E+04  0.69795068941E+03 0.  0.
        2    1    3    3  502    0 -0.16270397920E+03 -0.29608613713E+03 -0.25322844179E+03  0.42221348769E+03  0.25500000920E-02 0.  1.
       -2    1    3    3    0  502  0.16270397920E+03  0.29608613713E+03 -0.51287576883E+03  0.61415074673E+03  0.25500000920E-02 0. -1.
</event>
<event>
 5   0  0.6990118E-03  0.7009904E+03  0.7818609E-02  0.9715540E-01
        1   -1    0    0  501    0  0.00000000000E+00  0.00000000000E+00  0.12606330340E+04  0.12606330340E+04  0.50400001928E-02 0. -1.
       -1   -1    0    0    0  501  0.00000000000E+00  0.00000000000E+00 -0.97448560202E+02  0.97448560332E+02  0.50400001928E-02 0.  1.
    10030    2    1    2    0    0  0.00000000000E+00  0.00000000000E+00  0.11631844738E+04  0.13580815944E+04  0.70099036856E+03 0.  0.
        5    1    3    3  502    0  0.26256441424E+03 -0.13171055938E+02  0.13259219123E+03  0.29447636155E+03  0.46999998093E+01 0.  1.
       -5    1    3    3    0  502 -0.26256441424E+03  0.13171055938E+02  0.10305922826E+04  0.10636052328E+04  0.46999998093E+01 0. -1.
</event>
<event>
 5   0  0.4440500E-03  0.7041659E+03  0.7818609E-02  0.9710134E-01
        3   -1    0    0  501    0  0.00000000000E+00  0.00000000000E+00  0.54593248423E+03  0.54593249357E+03  0.10100000352E+00 0.  1.
       -3   -1    0    0    0  501  0.00000000000E+00  0.00000000000E+00 -0.22706544520E+03  0.22706546766E+03  0.10100000352E+00 0. -1.
    10030    2    1    2    0    0  0.00000000000E+00  0.00000000000E+00  0.31886703902E+03  0.77299796123E+03  0.70416593179E+03 0.  0.
        5    1    3    3  502    0  0.13180071186E+03 -0.12335304863E+03 -0.17235745030E+03  0.24963289632E+03  0.46999998093E+01 0. -1.
       -5    1    3    3    0  502 -0.13180071186E+03  0.12335304863E+03  0.49122448932E+03  0.52336506491E+03  0.46999998093E+01 0.  1.
</event>
<event>
 5   0  0.6990118E-03  0.6980031E+03  0.7818609E-02  0.9720653E-01
       -1   -1    0    0    0  501  0.00000000000E+00  0.00000000000E+00  0.13928198182E+03  0.13928198191E+03  0.50400001928E-02 0.  1.
        1   -1    0    0  501    0  0.00000000000E+00  0.00000000000E+00 -0.87449983724E+03  0.87449983726E+03  0.50400001928E-02 0. -1.
    10030    2    1    2    0    0  0.00000000000E+00  0.00000000000E+00 -0.73521785543E+03  0.10137818192E+04  0.69800306728E+03 0.  0.
        5    1    3    3  502    0  0.33399911640E+03  0.57724960573E+02 -0.24702972903E+03  0.41944410576E+03  0.46999998093E+01 0. -1.
       -5    1    3    3    0  502 -0.33399911640E+03 -0.57724960573E+02 -0.48818812639E+03  0.59433771341E+03  0.46999998093E+01 0.  1.
</event>
<event>
 5   0  0.6609285E-03  0.6998516E+03  0.7818609E-02  0.9717486E-01
       -1   -1    0    0    0  501  0.00000000000E+00  0.00000000000E+00  0.73546791656E+03  0.73546791658E+03  0.50400001928E-02 0. -1.
        1   -1    0    0  501    0  0.00000000000E+00  0.00000000000E+00 -0.16649001828E+03  0.16649001835E+03  0.50400001928E-02 0.  1.
    10030    2    1    2    0    0  0.00000000000E+00  0.00000000000E+00  0.56897789828E+03  0.90195793493E+03  0.69985160402E+03 0.  0.
        2    1    3    3  502    0  0.74845114164E+02  0.27609407622E+03  0.24747421873E+02  0.28712743675E+03  0.25500000920E-02 0.  1.
       -2    1    3    3    0  502 -0.74845114164E+02 -0.27609407622E+03  0.54423047641E+03  0.61483049818E+03  0.25500000920E-02 0. -1.
</event>
<event>
 5   0  0.6689415E-03  0.6997219E+03  0.7818609E-02  0.9717708E-01
        1   -1    0    0  501    0  0.00000000000E+00  0.00000000000E+00  0.47153327026E+03  0.47153327029E+03  0.50400001928E-02 0.  1.
       -1   -1    0    0    0  501  0.00000000000E+00  0.00000000000E+00 -0.25958438025E+03  0.25958438030E+03  0.50400001928E-02 0. -1.
    10030    2    1    2    0    0  0.00000000000E+00  0.00000000000E+00  0.21194889001E+03  0.73111765059E+03  0.69972186405E+03 0.  0.
        1    1    3    3  502    0  0.15124588092E+03  0.30348728496E+03  0.15952917113E+02  0.33946184501E+03  0.50400001928E-02 0. -1.
       -1    1    3    3    0  502 -0.15124588092E+03 -0.30348728496E+03  0.19599597290E+03  0.39165580558E+03  0.50400001928E-02 0.  1.
</event>
<event>
 5   0  0.1079446E-02  0.7003817E+03  0.7818609E-02  0.9716580E-01
        2   -1    0    0  501    0  0.00000000000E+00  0.00000000000E+00  0.14666059535E+04  0.14666059535E+04  0.25500000920E-02 0.  1.
       -2   -1    0    0    0  501  0.00000000000E+00  0.00000000000E+00 -0.83617310540E+02  0.83617310579E+02  0.25500000920E-02 0. -1.
    10030    2    1    2    0    0  0.00000000000E+00  0.00000000000E+00  0.13829886430E+04  0.15502232641E+04  0.70038174016E+03 0.  0.
        2    1    3    3  502    0  0.32805286936E+03 -0.22469787683E+02  0.42487343115E+03  0.53725320749E+03  0.25500000920E-02 0.  1.
       -2    1    3    3    0  502 -0.32805286936E+03  0.22469787683E+02  0.95811521182E+03  0.10129700566E+04  0.25500000920E-02 0. -1.
</event>
<event>
 5   0  0.6689415E-03  0.7082587E+03  0.7818609E-02  0.9703212E-01
       -1   -1    0    0    0  501  0.00000000000E+00  0.00000000000E+00  0.34245774886E+03  0.34245774890E+03  0.50400001928E-02 0.  1.
        1   -1    0    0  501    0  0.00000000000E+00  0.00000000000E+00 -0.36619871711E+03  0.36619871715E+03  0.50400001928E-02 0. -1.
    10030    2    1    2    0    0  0.00000000000E+00  0.00000000000E+00 -0.23740968254E+02  0.70865646605E+03  0.70825867682E+03 0.  0.
        1    1    3    3  502    0  0.29819158453E+03  0.13490489773E+03 -0.14718709999E+03  0.35886152614E+03  0.50400001928E-02 0. -1.
       -1    1    3    3    0  502 -0.29819158453E+03 -0.13490489773E+03  0.12344613174E+03  0.34979493990E+03  0.50400001928E-02 0.  1.
</event>
<event>
 5   0  0.4440500E-03  0.6980630E+03  0.7818609E-02  0.9720551E-01
       -3   -1    0    0    0  501  0.00000000000E+00  0.00000000000E+00  0.42659448624E+03  0.42659449820E+03  0.10100000352E+00 0.  1.
        3   -1    0    0  501    0  0.00000000000E+00  0.00000000000E+00 -0.28557089462E+03  0.28557091248E+03  0.10100000352E+00 0. -1.
    10030    2    1    2    0    0  0.00000000000E+00  0.00000000000E+00  0.14102359162E+03  0.71216541068E+03  0.69806297623E+03 0.  0.
        4    1    3    3  502    0  0.16243428938E+03 -0.11184282313E+02 -0.24445056087E+03  0.29371359544E+03  0.12699999809E+01 0. -1.
       -4    1    3    3    0  502 -0.16243428938E+03  0.11184282313E+02  0.38547415249E+03  0.41845181524E+03  0.12699999809E+01 0.  1.
</event>
<event>
 5   0  0.4440500E-03  0.6960532E+03  0.7818609E-02  0.9724006E-01
        3   -1    0    0  501    0  0.00000000000E+00  0.00000000000E+00  0.65748041270E+03  0.65748042046E+03  0.10100000352E+00 0.  1.
       -3   -1    0    0    0  501  0.00000000000E+00  0.00000000000E+00 -0.18422222767E+03  0.18422225536E+03  0.10100000352E+00 0. -1.
    10030    2    1    2    0    0  0.00000000000E+00  0.00000000000E+00  0.47325818503E+03  0.84170267582E+03  0.69605321979E+03 0.  0.
        5    1    3    3  502    0  0.15955046184E+03  0.30436433475E+03  0.30293344374E+03  0.45813181452E+03  0.46999998093E+01 0.  1.
       -5    1    3    3    0  502 -0.15955046184E+03 -0.30436433475E+03  0.17032474129E+03  0.38357086130E+03  0.46999998093E+01 0. -1.
</event>
<event>
 5   0  0.1099980E-02  0.7025442E+03  0.7818609E-02  0.9712891E-01
        2   -1    0    0  501    0  0.00000000000E+00  0.00000000000E+00  0.52053752670E+03  0.52053752671E+03  0.25500000920E-02 0. -1.
       -2   -1    0    0    0  501  0.00000000000E+00  0.00000000000E+00 -0.23704743183E+03  0.23704743184E+03  0.25500000920E-02 0.  1.
    10030    2    1    2    0    0  0.00000000000E+00  0.00000000000E+00  0.28349009488E+03  0.75758495855E+03  0.70254418760E+03 0.  0.
        5    1    3    3  502    0  0.21000257965E+03 -0.79570107460E+02 -0.14948297428E+03  0.26981426030E+03  0.46999998093E+01 0.  1.
       -5    1    3    3    0  502 -0.21000257965E+03  0.79570107460E+02  0.43297306915E+03  0.48777069825E+03  0.46999998093E+01 0. -1.
</event>
<event>
 5   0  0.6785252E-03  0.7001843E+03  0.7818609E-02  0.9716917E-01
        1   -1    0    0  501    0  0.00000000000E+00  0.00000000000E+00  0.57184431278E+03  0.57184431281E+03  0.50400001928E-02 0. -1.
       -1   -1    0    0    0  501  0.00000000000E+00  0.00000000000E+00 -0.21433198221E+03  0.21433198227E+03  0.50400001928E-02 0.  1.
    10030    2    1    2    0    0  0.00000000000E+00  0.00000000000E+00  0.35751233057E+03  0.78617629507E+03  0.70018433317E+03 0.  0.
        3    1    3    3  502    0  0.94329251435E+02  0.17665832321E+03 -0.14366597770E+03  0.24646722741E+03  0.10100000352E+00 0.  1.
       -3    1    3    3    0  502 -0.94329251435E+02 -0.17665832321E+03  0.50117830828E+03  0.53970906767E+03  0.10100000352E+00 0. -1.
</event>
<event>
 5   0  0.6990118E-03  0.7010908E+03  0.7818609E-02  0.9715369E-01
       -1   -1    0    0    0  501  0.00000000000E+00  0.00000000000E+00  0.23262891497E+03  0.23262891502E+03  0.50400001928E-02 0.  1.
        1   -1    0    0  501    0  0.00000000000E+00  0.00000000000E+00 -0.52823221837E+03  0.52823221839E+03  0.50400001928E-02 0. -1.
    10030    2    1    2    0    0  0.00000000000E+00  0.00000000000E+00 -0.29560330340E+03  0.76086113341E+03  0.70109082961E+03 0.  0.
        5    1    3    3  502    0 -0.21127626472E+03  0.45109710969E+01  0.15568529252E+03  0.26252239752E+03  0.46999998093E+01 0.  1.
       -5    1    3    3    0  502  0.21127626472E+03 -0.45109710969E+01 -0.45128859592E+03  0.49833873590E+03  0.46999998093E+01 0. -1.
</event>
<event>
 5   0  0.6990118E-03  0.7008347E+03  0.7818609E-02  0.9715806E-01
        1   -1    0    0  501    0  0.00000000000E+00  0.00000000000E+00  0.72323019475E+03  0.72323019477E+03  0.50400001928E-02 0.  1.
       -1   -1    0    0    0  501  0.00000000000E+00  0.00000000000E+00 -0.16978317922E+03  0.16978317929E+03  0.50400001928E-02 0. -1.
    10030    2    1    2    0    0  0.00000000000E+00  0.00000000000E+00  0.55344701553E+03  0.89301337406E+03  0.70083470751E+03 0.  0.
        5    1    3    3  502    0  0.13886068805E+03  0.21606730100E+02 -0.13225965845E+03  0.19303846436E+03  0.46999998093E+01 0. -1.
       -5    1    3    3    0  502 -0.13886068805E+03 -0.21606730100E+02  0.68570667398E+03  0.69997490970E+03  0.46999998093E+01 0.  1.
</event>
<event>
 5   0  0.1079446E-02  0.7054856E+03  0.7818609E-02  0.9707897E-01
        2   -1    0    0  501    0  0.00000000000E+00  0.00000000000E+00  0.10024569312E+04  0.10024569312E+04  0.25500000920E-02 0.  1.
       -2   -1    0    0    0  501  0.00000000000E+00  0.00000000000E+00 -0.12412251542E+03  0.12412251544E+03  0.25500000920E-02 0. -1.
    10030    2    1    2    0    0  0.00000000000E+00  0.00000000000E+00  0.87833441579E+03  0.11265794467E+04  0.70548558005E+03 0.  0.
        2    1    3    3  502    0  0.17509229143E+02  0.34311537516E+03  0.56684556201E+03  0.66283378381E+03  0.25500000920E-02 0.  1.
       -2    1    3    3    0  502 -0.17509229143E+02 -0.34311537516E+03  0.31148885378E+03  0.46374566285E+03  0.25500000920E-02 0. -1.
</event>
<event>
 5   0  0.6990118E-03  0.7098226E+03  0.7818609E-02  0.9700580E-01
       -1   -1    0    0    0  501  0.00000000000E+00  0.00000000000E+00  0.36543394286E+03  0.36543394289E+03  0.50400001928E-02 0.  1.
        1   -1    0    0  501    0  0.00000000000E+00  0.00000000000E+00 -0.34469161805E+03  0.34469161808E+03  0.50400001928E-02 0. -1.
    10030    2    1    2    0    0  0.00000000000E+00  0.00000000000E+00  0.20742324812E+02  0.71012556098E+03  0.70982256115E+03 0.  0.
        5    1    3    3  502    0 -0.13618814764E+03 -0.23258750459E+03  0.24132847091E+03  0.36180889945E+03  0.46999998093E+01 0.  1.
       -5    1    3    3    0  502  0.13618814764E+03  0.23258750459E+03 -0.22058614610E+03  0.34831666153E+03  0.46999998093E+01 0. -1.
</event>
<event>
 5   0  0.6689415E-03  0.6998756E+03  0.7818609E-02  0.9717445E-01
        1   -1    0    0  501    0  0.00000000000E+00  0.00000000000E+00  0.17771398673E+03  0.17771398681E+03  0.50400001928E-02 0.  1.
       -1   -1    0    0    0  501  0.00000000000E+00  0.00000000000E+00 -0.68906479429E+03  0.68906479431E+03  0.50400001928E-02 0. -1.
    10030    2    1    2    0    0  0.00000000000E+00  0.00000000000E+00 -0.51135080756E+03  0.86677878112E+03  0.69987556537E+03 0.  0.
        1    1    3    3  502    0  0.51905628816E+02 -0.34785414360E+02 -0.68210005998E+03  0.68495599216E+03  0.50400001928E-02 0. -1.
       -1    1    3    3    0  502 -0.51905628816E+02  0.34785414360E+02  0.17074925242E+03  0.18182278895E+03  0.50400001928E-02 0.  1.
</event>
<event>
 5   0  0.1079446E-02  0.6995788E+03  0.7818609E-02  0.9717953E-01
        2   -1    0    0  501    0  0.00000000000E+00  0.00000000000E+00  0.71975764728E+03  0.71975764728E+03  0.25500000920E-02 0.  1.
       -2   -1    0    0    0  501  0.00000000000E+00  0.00000000000E+00 -0.16999141360E+03  0.16999141362E+03  0.25500000920E-02 0. -1.
    10030    2    1    2    0    0  0.00000000000E+00  0.00000000000E+00  0.54976623368E+03  0.88974906090E+03  0.69957878732E+03 0.  0.
        2    1    3    3  502    0 -0.20273181531E+03 -0.11051501505E+03 -0.59294778394E+02  0.23838965632E+03  0.25500000920E-02 0. -1.
       -2    1    3    3    0  502  0.20273181531E+03  0.11051501505E+03  0.60906101208E+03  0.65135940458E+03  0.25500000920E-02 0.  1.
</event>
<event>
 5   0  0.4440500E-03  0.6986520E+03  0.7818609E-02  0.9719540E-01
       -4   -1    0    0    0  501  0.00000000000E+00  0.00000000000E+00  0.10036338068E+03  0.10037141566E+03  0.12699999809E+01 0.  1.
        4   -1    0    0  501    0  0.00000000000E+00  0.00000000000E+00 -0.12158111803E+04  0.12158118436E+04  0.12699999809E+01 0. -1.
    10030    2    1    2    0    0  0.00000000000E+00  0.00000000000E+00 -0.11154477996E+04  0.13161832592E+04  0.69865197220E+03 0.  0.
        4    1    3    3  502    0 -0.26167615596E+03  0.15576376936E+03 -0.23530747712E+03  0.38484800134E+03  0.12699999809E+01 0.  1.
       -4    1    3    3    0  502  0.26167615596E+03 -0.15576376936E+03 -0.88014032248E+03  0.93133525789E+03  0.12699999809E+01 0. -1.
</event>
<event>
 5   0  0.6609285E-03  0.6984511E+03  0.7818609E-02  0.9719885E-01
       -1   -1    0    0    0  501  0.00000000000E+00  0.00000000000E+00  0.18841362450E+03  0.18841362457E+03  0.50400001928E-02 0. -1.
        1   -1    0    0  501    0  0.00000000000E+00  0.00000000000E+00 -0.64729118826E+03  0.64729118828E+03  0.50400001928E-02 0.  1.
    10030    2    1    2    0    0  0.00000000000E+00  0.00000000000E+00 -0.45887756376E+03  0.83570481285E+03  0.69845108325E+03 0.  0.
        2    1    3    3  502    0 -0.11674425455E+03  0.26705955925E+03  0.74109569690E+00  0.29146282505E+03  0.25500000920E-02 0. -1.
       -2    1    3    3    0  502  0.11674425455E+03 -0.26705955925E+03 -0.45961865946E+03  0.54424198780E+03  0.25500000920E-02 0.  1.
</event>
<event>
 5   0  0.6609285E-03  0.7002818E+03  0.7818609E-02  0.9716750E-01
       -1   -1    0    0    0  501  0.00000000000E+00  0.00000000000E+00  0.11753061950E+03  0.11753061961E+03  0.50400001928E-02 0.  1.
        1   -1    0    0  501    0  0.00000000000E+00  0.00000000000E+00 -0.10431210307E+04  0.10431210307E+04  0.50400001928E-02 0. -1.
    10030    2    1    2    0    0  0.00000000000E+00  0.00000000000E+00 -0.92559041119E+03  0.11606516503E+04  0.70028183191E+03 0.  0.
        2    1    3    3  502    0  0.26423479279E+03 -0.19794071890E+03 -0.65606690386E+03  0.73445512883E+03  0.25500000920E-02 0. -1.
       -2    1    3    3    0  502 -0.26423479279E+03  0.19794071890E+03 -0.26952350733E+03  0.42619652149E+03  0.25500000920E-02 0.  1.
</event>
<event>
 5   0  0.6246998E-03  0.6988976E+03  0.7818609E-02  0.9719119E-01
        1   -1    0    0  501    0  0.00000000000E+00  0.00000000000E+00  0.45629774208E+03  0.45629774211E+03  0.50400001928E-02 0. -1.
       -1   -1    0    0    0  501  0.00000000000E+00  0.00000000000E+00 -0.26762014872E+03  0.26762014877E+03  0.50400001928E-02 0.  1.
    10030    2    1    2    0    0  0.00000000000E+00  0.00000000000E+00  0.18867759337E+03  0.72391789088E+03  0.69889761660E+03 0.  0.
        4    1    3    3  502    0 -0.44591438062E+02  0.10771487920E+02  0.45316292405E+03  0.45548070204E+03  0.12699999809E+01 0. -1.
       -4    1    3    3    0  502  0.44591438062E+02 -0.10771487920E+02 -0.26448533069E+03  0.26843718883E+03  0.12699999809E+01 0.  1.
</event>
<event>
 5   0  0.6990118E-03  0.7005462E+03  0.7818609E-02  0.9716299E-01
       -1   -1    0    0    0  501  0.00000000000E+00  0.00000000000E+00  0.19583530434E+03  0.19583530440E+03  0.50400001928E-02 0. -1.
        1   -1    0    0  501    0  0.00000000000E+00  0.00000000000E+00 -0.62650211663E+03  0.62650211665E+03  0.50400001928E-02 0.  1.
    10030    2    1    2    0    0  0.00000000000E+00  0.00000000000E+00 -0.43066681229E+03  0.82233742105E+03  0.70054616611E+03 0.  0.
        5    1    3    3  502    0  0.19012923639E+03  0.20161160384E+02 -0.55980151751E+03  0.59157030683E+03  0.46999998093E+01 0.  1.
       -5    1    3    3    0  502 -0.19012923639E+03 -0.20161160384E+02  0.12913470522E+03  0.23076711422E+03  0.46999998093E+01 0. -1.
</event>
<event>
 5   0  0.6785252E-03  0.7025706E+03  0.7818609E-02  0.9712846E-01
       -1   -1    0    0    0  501  0.00000000000E+00  0.00000000000E+00  0.11252550063E+03  0.11252550075E+03  0.50400001928E-02 0. -1.
        1   -1    0    0  501    0  0.00000000000E+00  0.00000000000E+00 -0.10966522841E+04  0.10966522841E+04  0.50400001928E-02 0.  1.
    10030    2    1    2    0    0  0.00000000000E+00  0.00000000000E+00 -0.98412678342E+03  0.12091777848E+04  0.70257055833E+03 0.  0.
        3    1    3    3  502    0 -0.20564652484E+03  0.12978727347E+01 -0.19064430708E+01  0.20565948162E+03  0.10100000352E+00 0. -1.
       -3    1    3    3    0  502  0.20564652484E+03 -0.12978727347E+01 -0.98222034035E+03  0.10035183032E+04  0.10100000352E+00 0.  1.
</event>
<event>
 5   0  0.1099980E-02  0.6811193E+03  0.7818609E-02  0.9750077E-01
       -2   -1    0    0    0  501  0.00000000000E+00  0.00000000000E+00  0.19566770648E+03  0.19566770650E+03  0.25500000920E-02 0.  1.
        2   -1    0    0  501    0  0.00000000000E+00  0.00000000000E+00 -0.59274408423E+03  0.59274408423E+03  0.25500000920E-02 0. -1.
    10030    2    1    2    0    0  0.00000000000E+00  0.00000000000E+00 -0.39707637774E+03  0.78841179074E+03  0.68111930086E+03 0.  0.
        5    1    3    3  502    0  0.17497881358E+03  0.14556373029E+03 -0.49171956577E+03  0.54186401075E+03  0.46999998093E+01 0. -1.
       -5    1    3    3    0  502 -0.17497881358E+03 -0.14556373029E+03  0.94643188029E+02  0.24654777999E+03  0.46999998093E+01 0.  1.
</event>
<event>
 5   0  0.6990118E-03  0.6986647E+03  0.7818609E-02  0.9719518E-01
        1   -1    0    0  501    0  0.00000000000E+00  0.00000000000E+00  0.27170061673E+03  0.27170061677E+03  0.50400001928E-02 0.  1.
       -1   -1    0    0    0  501  0.00000000000E+00  0.00000000000E+00 -0.44914542095E+03  0.44914542097E+03  0.50400001928E-02 0. -1.
    10030    2    1    2    0    0  0.00000000000E+00  0.00000000000E+00 -0.17744480422E+03  0.72084603775E+03  0.69866469181E+03 0.  0.
        5    1    3    3  502    0  0.11054788560E+02 -0.24234868177E+03 -0.34800937915E+03  0.42424958442E+03  0.46999998093E+01 0. -1.
       -5    1    3    3    0  502 -0.11054788560E+02  0.24234868177E+03  0.17056457493E+03  0.29659645333E+03  0.46999998093E+01 0.  1.
</event>
<event>
 5   0  0.1109788E-02  0.6971016E+03  0.7818609E-02  0.9722202E-01
       -2   -1    0    0    0  501  0.00000000000E+00  0.00000000000E+00  0.15926694191E+03  0.15926694193E+03  0.25500000920E-02 0.  1.
        2   -1    0    0  501    0  0.00000000000E+00  0.00000000000E+00 -0.76279264306E+03  0.76279264306E+03  0.25500000920E-02 0. -1.
    10030    2    1    2    0    0  0.00000000000E+00  0.00000000000E+00 -0.60352570115E+03  0.92205958500E+03  0.69710157534E+03 0.  0.
        1    1    3    3  502    0  0.46118891599E+02 -0.69159474799E+02 -0.74948946287E+03  0.75408516767E+03  0.50400001928E-02 0. -1.
       -1    1    3    3    0  502 -0.46118891599E+02  0.69159474799E+02  0.14596376172E+03  0.16797441733E+03  0.50400001928E-02 0.  1.
</event>
<event>
 5   0  0.6785252E-03  0.6983722E+03  0.7818609E-02  0.9720020E-01
       -1   -1    0    0    0  501  0.00000000000E+00  0.00000000000E+00  0.16214107030E+03  0.16214107037E+03  0.50400001928E-02 0.  1.
        1   -1    0    0  501    0  0.00000000000E+00  0.00000000000E+00 -0.75200533473E+03  0.75200533474E+03  0.50400001928E-02 0. -1.
    10030    2    1    2    0    0  0.00000000000E+00  0.00000000000E+00 -0.58986426443E+03  0.91414640512E+03  0.69837224998E+03 0.  0.
        3    1    3    3  502    0  0.63719813485E+02  0.20126636269E+02  0.15369363363E+03  0.16759188327E+03  0.10100000352E+00 0.  1.
       -3    1    3    3    0  502 -0.63719813485E+02 -0.20126636269E+02 -0.74355789806E+03  0.74655452185E+03  0.10100000352E+00 0. -1.
</event>
<event>
 5   0  0.6609285E-03  0.7021272E+03  0.7818609E-02  0.9713601E-01
        1   -1    0    0  501    0  0.00000000000E+00  0.00000000000E+00  0.52598145898E+03  0.52598145901E+03  0.50400001928E-02 0.  1.
       -1   -1    0    0    0  501  0.00000000000E+00  0.00000000000E+00 -0.23431558652E+03  0.23431558658E+03  0.50400001928E-02 0. -1.
    10030    2    1    2    0    0  0.00000000000E+00  0.00000000000E+00  0.29166587246E+03  0.76029704559E+03  0.70212720811E+03 0.  0.
        2    1    3    3  502    0 -0.28425379318E+03 -0.62405418925E+02  0.35844373427E+03  0.46171047843E+03  0.25500000920E-02 0.  1.
       -2    1    3    3    0  502  0.28425379318E+03  0.62405418925E+02 -0.66777861810E+02  0.29858656715E+03  0.25500000920E-02 0. -1.
</event>
<event>
 5   0  0.4440500E-03  0.7149682E+03  0.7818609E-02  0.9691972E-01
       -3   -1    0    0    0  501  0.00000000000E+00  0.00000000000E+00  0.88651968508E+02  0.88652026042E+02  0.10100000352E+00 0.  1.
        3   -1    0    0  501    0  0.00000000000E+00  0.00000000000E+00 -0.14415341165E+04  0.14415341200E+04  0.10100000352E+00 0. -1.
    10030    2    1    2    0    0  0.00000000000E+00  0.00000000000E+00 -0.13528821480E+04  0.15301861460E+04  0.71496820579E+03 0.  0.
        2    1    3    3  502    0 -0.33677077532E+03 -0.46083133232E+02 -0.43949809433E+03  0.55560488227E+03  0.25500000920E-02 0.  1.
       -2    1    3    3    0  502  0.33677077532E+03  0.46083133232E+02 -0.91338405363E+03  0.97458126378E+03  0.25500000920E-02 0. -1.
</event>
<event>
 5   0  0.1109788E-02  0.6995552E+03  0.7818609E-02  0.9717993E-01
       -2   -1    0    0    0  501  0.00000000000E+00  0.00000000000E+00  0.79745322454E+03  0.79745322454E+03  0.25500000920E-02 0.  1.
        2   -1    0    0  501    0  0.00000000000E+00  0.00000000000E+00 -0.15341886914E+03  0.15341886916E+03  0.25500000920E-02 0. -1.
    10030    2    1    2    0    0  0.00000000000E+00  0.00000000000E+00  0.64403435540E+03  0.95087209370E+03  0.69955520700E+03 0.  0.
        1    1    3    3  502    0 -0.12668250866E+03  0.10483483946E+03 -0.97605789731E+02  0.19122157770E+03  0.50400001928E-02 0. -1.
       -1    1    3    3    0  502  0.12668250866E+03 -0.10483483946E+03  0.74164014513E+03  0.75965051600E+03  0.50400001928E-02 0.  1.
</event>
<event>
 5   0  0.1119786E-02  0.7016944E+03  0.7818609E-02  0.9714339E-01
        2   -1    0    0  501    0  0.00000000000E+00  0.00000000000E+00  0.51639137592E+03  0.51639137592E+03  0.25500000920E-02 0.  1.
       -2   -1    0    0    0  501  0.00000000000E+00  0.00000000000E+00 -0.23837297856E+03  0.23837297858E+03  0.25500000920E-02 0. -1.
    10030    2    1    2    0    0  0.00000000000E+00  0.00000000000E+00  0.27801839736E+03  0.75476435450E+03  0.70169437902E+03 0.  0.
        3    1    3    3  502    0  0.33206694577E+02  0.19462702308E+03  0.45096334083E+03  0.49229087707E+03  0.10100000352E+00 0.  1.
       -3    1    3    3    0  502 -0.33206694577E+02 -0.19462702308E+03 -0.17294494348E+03  0.26247347742E+03  0.10100000352E+00 0. -1.
</event>
<event>
 5   0  0.1109788E-02  0.7008296E+03  0.7818609E-02  0.9715814E-01
        2   -1    0    0  501    0  0.00000000000E+00  0.00000000000E+00  0.26829887444E+03  0.26829887445E+03  0.25500000920E-02 0.  1.
       -2   -1    0    0    0  501  0.00000000000E+00  0.00000000000E+00 -0.45766328055E+03  0.45766328056E+03  0.25500000920E-02 0. -1.
    10030    2    1    2    0    0  0.00000000000E+00  0.00000000000E+00 -0.18936440612E+03  0.72596215501E+03  0.70082963137E+03 0.  0.
        1    1    3    3  502    0  0.15351146621E+03  0.25435590898E+03  0.97798084132E+02  0.31277334282E+03  0.50400001928E-02 0.  1.
       -1    1    3    3    0  502 -0.15351146621E+03 -0.25435590898E+03 -0.28716249025E+03  0.41318881219E+03  0.50400001928E-02 0. -1.
</event>
<event>
 5   0  0.1119786E-02  0.6990427E+03  0.7818609E-02  0.9718871E-01
        2   -1    0    0  501    0  0.00000000000E+00  0.00000000000E+00  0.16238777432E+04  0.16238777432E+04  0.25500000920E-02 0.  1.
       -2   -1    0    0    0  501  0.00000000000E+00  0.00000000000E+00 -0.75230531452E+02  0.75230531496E+02  0.25500000920E-02 0. -1.
    10030    2    1    2    0    0  0.00000000000E+00  0.00000000000E+00  0.15486472117E+04  0.16991082747E+04  0.69904273309E+03 0.  0.
        3    1    3    3  502    0  0.25105823549E+03 -0.24316047758E+03  0.78116398297E+03  0.85578877882E+03  0.10100000352E+00 0.  1.
       -3    1    3    3    0  502 -0.25105823549E+03  0.24316047758E+03  0.76748322876E+03  0.84331949586E+03  0.10100000352E+00 0. -1.
</event>
<event>
 5   0  0.1079446E-02  0.7431792E+03  0.7818609E-02  0.9646112E-01
       -2   -1    0    0    0  501  0.00000000000E+00  0.00000000000E+00  0.20306335060E+03  0.20306335062E+03  0.25500000920E-02 0. -1.
        2   -1    0    0  501    0  0.00000000000E+00  0.00000000000E+00 -0.67997903121E+03  0.67997903122E+03  0.25500000920E-02 0.  1.
    10030    2    1    2    0    0  0.00000000000E+00  0.00000000000E+00 -0.47691568061E+03  0.88304238183E+03  0.74317917200E+03 0.  0.
        2    1    3    3  502    0  0.35668848375E+03  0.22579131666E+02 -0.35929407623E+03  0.50678271956E+03  0.25500000920E-02 0.  1.
       -2    1    3    3    0  502 -0.35668848375E+03 -0.22579131666E+02 -0.11762160438E+03  0.37625966227E+03  0.25500000920E-02 0. -1.
</event>
<event>
 5   0  0.1109788E-02  0.7002914E+03  0.7818609E-02  0.9716734E-01
       -2   -1    0    0    0  501  0.00000000000E+00  0.00000000000E+00  0.14589255968E+03  0.14589255970E+03  0.25500000920E-02 0. -1.
        2   -1    0    0  501    0  0.00000000000E+00  0.00000000000E+00 -0.84035810874E+03  0.84035810874E+03  0.25500000920E-02 0.  1.
    10030    2    1    2    0    0  0.00000000000E+00  0.00000000000E+00 -0.69446554906E+03  0.98625066844E+03  0.70029135520E+03 0.  0.
        1    1    3    3  502    0 -0.74182735395E+01  0.26732338097E+03 -0.28918593606E+02  0.26898532651E+03  0.50400001928E-02 0. -1.
       -1    1    3    3    0  502  0.74182735395E+01 -0.26732338097E+03 -0.66554695546E+03  0.71726534193E+03  0.50400001928E-02 0.  1.
</event>
<event>
 5   0  0.6990118E-03  0.7049455E+03  0.7818609E-02  0.9708812E-01
       -1   -1    0    0    0  501  0.00000000000E+00  0.00000000000E+00  0.17040459688E+03  0.17040459696E+03  0.50400001928E-02 0. -1.
        1   -1    0    0  501    0  0.00000000000E+00  0.00000000000E+00 -0.72907097991E+03  0.72907097993E+03  0.50400001928E-02 0.  1.
    10030    2    1    2    0    0  0.00000000000E+00  0.00000000000E+00 -0.55866638303E+03  0.89947557689E+03  0.70494551980E+03 0.  0.
        5    1    3    3  502    0 -0.26075271480E+03  0.22984185552E+03 -0.35368618463E+03  0.49591860624E+03  0.46999998093E+01 0.  1.
       -5    1    3    3    0  502  0.26075271480E+03 -0.22984185552E+03 -0.20498019840E+03  0.40355697064E+03  0.46999998093E+01 0. -1.
</event>
<event>
 5   0  0.6785252E-03  0.7005236E+03  0.7818609E-02  0.9716337E-01
        1   -1    0    0  501    0  0.00000000000E+00  0.00000000000E+00  0.91493480680E+03  0.91493480681E+03  0.50400001928E-02 0. -1.
       -1   -1    0    0    0  501  0.00000000000E+00  0.00000000000E+00 -0.13408968591E+03  0.13408968601E+03  0.50400001928E-02 0.  1.
    10030    2    1    2    0    0  0.00000000000E+00  0.00000000000E+00  0.78084512089E+03  0.10490244928E+04  0.70052357828E+03 0.  0.
        3    1    3    3  502    0 -0.12195735815E+03  0.26008649652E+03  0.90309230779E+02  0.30112181960E+03  0.10100000352E+00 0.  1.
       -3    1    3    3    0  502  0.12195735815E+03 -0.26008649652E+03  0.69053589011E+03  0.74790267322E+03  0.10100000352E+00 0. -1.
</event>
<event>
 5   0  0.1079446E-02  0.6995112E+03  0.7818609E-02  0.9718068E-01
       -2   -1    0    0    0  501  0.00000000000E+00  0.00000000000E+00  0.11951867603E+03  0.11951867606E+03  0.25500000920E-02 0. -1.
        2   -1    0    0  501    0  0.00000000000E+00  0.00000000000E+00 -0.10235135442E+04  0.10235135442E+04  0.25500000920E-02 0.  1.
    10030    2    1    2    0    0  0.00000000000E+00  0.00000000000E+00 -0.90399486812E+03  0.11430322202E+04  0.69951121138E+03 0.  0.
        2    1    3    3  502    0 -0.17226121884E+03  0.19524612551E+03 -0.70406984603E+02  0.26972601011E+03  0.25500000920E-02 0. -1.
       -2    1    3    3    0  502  0.17226121884E+03 -0.19524612551E+03 -0.83358788352E+03  0.87330621010E+03  0.25500000920E-02 0.  1.
</event>
<event>
 5   0  0.6785252E-03  0.6993466E+03  0.7818609E-02  0.9718350E-01
       -1   -1    0    0    0  501  0.00000000000E+00  0.00000000000E+00  0.36903626076E+03  0.36903626080E+03  0.50400001928E-02 0.  1.
        1   -1    0    0  501    0  0.00000000000E+00  0.00000000000E+00 -0.33132625072E+03  0.33132625075E+03  0.50400001928E-02 0. -1.
    10030    2    1    2    0    0  0.00000000000E+00  0.00000000000E+00  0.37710010046E+02  0.70036251155E+03  0.69934655410E+03 0.  0.
        3    1    3    3  502    0  0.18603850092E+03  0.48994581076E+02 -0.27356335594E+03  0.33443641057E+03  0.10100000352E+00 0. -1.
       -3    1    3    3    0  502 -0.18603850092E+03 -0.48994581076E+02  0.31127336599E+03  0.36592610098E+03  0.10100000352E+00 0.  1.
</event>
<event>
 5   0  0.6785252E-03  0.7031138E+03  0.7818609E-02  0.9711922E-01
        1   -1    0    0  501    0  0.00000000000E+00  0.00000000000E+00  0.54700667473E+03  0.54700667475E+03  0.50400001928E-02 0. -1.
       -1   -1    0    0    0  501  0.00000000000E+00  0.00000000000E+00 -0.22594288771E+03  0.22594288777E+03  0.50400001928E-02 0.  1.
    10030    2    1    2    0    0  0.00000000000E+00  0.00000000000E+00  0.32106378701E+03  0.77294956252E+03  0.70311383919E+03 0.  0.
        3    1    3    3  502    0 -0.14379177581E+03  0.22283483909E+03 -0.93173337908E+02  0.28109201590E+03  0.10100000352E+00 0.  1.
       -3    1    3    3    0  502  0.14379177581E+03 -0.22283483909E+03  0.41423712492E+03  0.49185754662E+03  0.10100000352E+00 0. -1.
</event>
<event>
 5   0  0.1099980E-02  0.6994175E+03  0.7818609E-02  0.9718229E-01
        2   -1    0    0  501    0  0.00000000000E+00  0.00000000000E+00  0.18512683485E+03  0.18512683486E+03  0.25500000920E-02 0.  1.
       -2   -1    0    0    0  501  0.00000000000E+00  0.00000000000E+00 -0.66060773586E+03  0.66060773586E+03  0.25500000920E-02 0. -1.
    10030    2    1    2    0    0  0.00000000000E+00  0.00000000000E+00 -0.47548090101E+03  0.84573457073E+03  0.69941752687E+03 0.  0.
        5    1    3    3  502    0 -0.36052281640E+02 -0.11075521168E+03 -0.63642335777E+03  0.64701102328E+03  0.46999998093E+01 0. -1.
       -5    1    3    3    0  502  0.36052281640E+02  0.11075521168E+03  0.16094245676E+03  0.19872354745E+03  0.46999998093E+01 0.  1.
</event>
<event>
 5   0  0.1119786E-02  0.6997969E+03  0.7818609E-02  0.9717580E-01
       -2   -1    0    0    0  501  0.00000000000E+00  0.00000000000E+00  0.70553605768E+02  0.70553605814E+02  0.25500000920E-02 0. -1.
        2   -1    0    0  501    0  0.00000000000E+00  0.00000000000E+00 -0.17352610684E+04  0.17352610684E+04  0.25500000920E-02 0.  1.
    10030    2    1    2    0    0  0.00000000000E+00  0.00000000000E+00 -0.16647074626E+04  0.18058146742E+04  0.69979690016E+03 0.  0.
        3    1    3    3  502    0 -0.26244568234E+03 -0.15672947368E+03 -0.12716961952E+04  0.13079193733E+04  0.10100000352E+00 0.  1.
       -3    1    3    3    0  502  0.26244568234E+03  0.15672947368E+03 -0.39301126745E+03  0.49789530088E+03  0.10100000352E+00 0. -1.
</event>
<event>
 5   0  0.6990118E-03  0.7015392E+03  0.7818609E-02  0.9714604E-01
        1   -1    0    0  501    0  0.00000000000E+00  0.00000000000E+00  0.88296580679E+03  0.88296580681E+03  0.50400001928E-02 0. -1.
       -1   -1    0    0    0  501  0.00000000000E+00  0.00000000000E+00 -0.13934776277E+03  0.13934776286E+03  0.50400001928E-02 0.  1.
    10030    2    1    2    0    0  0.00000000000E+00  0.00000000000E+00  0.74361804403E+03  0.10223135697E+04  0.70153919300E+03 0.  0.
        5    1    3    3  502    0  0.41063929409E+02 -0.33576558176E+03  0.50688889193E+03  0.60941218478E+03  0.46999998093E+01 0.  1.
       -5    1    3    3    0  502 -0.41063929409E+02  0.33576558176E+03  0.23672915209E+03  0.41290138489E+03  0.46999998093E+01 0. -1.
</event>
<event>
 5   0  0.1079446E-02  0.7005842E+03  0.7818609E-02  0.9716234E-01
       -2   -1    0    0    0  501  0.00000000000E+00  0.00000000000E+00  0.45274548211E+03  0.45274548212E+03  0.25500000920E-02 0. -1.
        2   -1    0    0  501    0  0.00000000000E+00  0.00000000000E+00 -0.27102326204E+03  0.27102326206E+03  0.25500000920E-02 0.  1.
    10030    2    1    2    0    0  0.00000000000E+00  0.00000000000E+00  0.18172222007E+03  0.72376874417E+03  0.70058420605E+03 0.  0.
        2    1    3    3  502    0 -0.23499776378E+03  0.11384907683E+03 -0.15035894224E+03  0.30131938669E+03  0.25500000920E-02 0.  1.
       -2    1    3    3    0  502  0.23499776378E+03 -0.11384907683E+03  0.33208116230E+03  0.42244935748E+03  0.25500000920E-02 0. -1.
</event>
<event>
 5   0  0.6689415E-03  0.6936827E+03  0.7818609E-02  0.9728097E-01
        1   -1    0    0  501    0  0.00000000000E+00  0.00000000000E+00  0.66381818865E+03  0.66381818867E+03  0.50400001928E-02 0.  1.
       -1   -1    0    0    0  501  0.00000000000E+00  0.00000000000E+00 -0.18122270840E+03  0.18122270847E+03  0.50400001928E-02 0. -1.
    10030    2    1    2    0    0  0.00000000000E+00  0.00000000000E+00  0.48259548025E+03  0.84504089714E+03  0.69368272306E+03 0.  0.
        1    1    3    3  502    0 -0.36379050049E+02  0.32910108673E+03  0.11547540762E+03  0.35066441274E+03  0.50400001928E-02 0. -1.
       -1    1    3    3    0  502  0.36379050049E+02 -0.32910108673E+03  0.36712007263E+03  0.49437648440E+03  0.50400001928E-02 0.  1.
</event>
<event>
 5   0  0.6990118E-03  0.6984423E+03  0.7818609E-02  0.9719900E-01
       -1   -1    0    0    0  501  0.00000000000E+00  0.00000000000E+00  0.71765076097E+02  0.71765076274E+02  0.50400001928E-02 0. -1.
        1   -1    0    0  501    0  0.00000000000E+00  0.00000000000E+00 -0.16993698860E+04  0.16993698861E+04  0.50400001928E-02 0.  1.
    10030    2    1    2    0    0  0.00000000000E+00  0.00000000000E+00 -0.16276048099E+04  0.17711349623E+04  0.69844229354E+03 0.  0.
        5    1    3    3  502    0 -0.23299364015E+03  0.11207234736E+02 -0.15486714287E+03  0.28003135610E+03  0.46999998093E+01 0. -1.
       -5    1    3    3    0  502  0.23299364015E+03 -0.11207234736E+02 -0.14727376671E+04  0.14911036062E+04  0.46999998093E+01 0.  1.
</event>
<event>
 5   0  0.1109788E-02  0.7007104E+03  0.7818609E-02  0.9716018E-01
       -2   -1    0    0    0  501  0.00000000000E+00  0.00000000000E+00  0.19624882866E+03  0.19624882868E+03  0.25500000920E-02 0. -1.
        2   -1    0    0  501    0  0.00000000000E+00  0.00000000000E+00 -0.62547519697E+03  0.62547519697E+03  0.25500000920E-02 0.  1.
    10030    2    1    2    0    0  0.00000000000E+00  0.00000000000E+00 -0.42922636831E+03  0.82172402565E+03  0.70071042455E+03 0.  0.
        1    1    3    3  502    0 -0.29490739312E+03 -0.15376787482E+03 -0.85435758256E+02  0.34338636935E+03  0.50400001928E-02 0. -1.
       -1    1    3    3    0  502  0.29490739312E+03  0.15376787482E+03 -0.34379061005E+03  0.47833765629E+03  0.50400001928E-02 0.  1.
</event>
<event>
 5   0  0.6609285E-03  0.6998766E+03  0.7818609E-02  0.9717443E-01
        1   -1    0    0  501    0  0.00000000000E+00  0.00000000000E+00  0.38278213124E+03  0.38278213128E+03  0.50400001928E-02 0. -1.
       -1   -1    0    0    0  501  0.00000000000E+00  0.00000000000E+00 -0.31991260373E+03  0.31991260377E+03  0.50400001928E-02 0.  1.
    10030    2    1    2    0    0  0.00000000000E+00  0.00000000000E+00  0.62869527509E+02  0.70269473505E+03  0.69987664140E+03 0.  0.
        2    1    3    3  502    0 -0.20485706823E+03 -0.17316859040E+03 -0.19419895464E+03  0.33116010191E+03  0.25500000920E-02 0.  1.
       -2    1    3    3    0  502  0.20485706823E+03  0.17316859040E+03  0.25706848215E+03  0.37153463314E+03  0.25500000920E-02 0. -1.
</event>
<event>
 5   0  0.6785252E-03  0.7015655E+03  0.7818609E-02  0.9714559E-01
       -1   -1    0    0    0  501  0.00000000000E+00  0.00000000000E+00  0.56049230433E+03  0.56049230435E+03  0.50400001928E-02 0.  1.
        1   -1    0    0  501    0  0.00000000000E+00  0.00000000000E+00 -0.21953656242E+03  0.21953656248E+03  0.50400001928E-02 0. -1.
    10030    2    1    2    0    0  0.00000000000E+00  0.00000000000E+00  0.34095574190E+03  0.78002886683E+03  0.70156554587E+03 0.  0.
        3    1    3    3  502    0  0.74647971931E+02  0.30187443317E+03 -0.99969692323E+01  0.31112769519E+03  0.10100000352E+00 0. -1.
       -3    1    3    3    0  502 -0.74647971931E+02 -0.30187443317E+03  0.35095271113E+03  0.46890117165E+03  0.10100000352E+00 0.  1.
</event>
<event>
 5   0  0.6990118E-03  0.7078062E+03  0.7818609E-02  0.9703975E-01
        1   -1    0    0  501    0  0.00000000000E+00  0.00000000000E+00  0.88088807183E+03  0.88088807184E+03  0.50400001928E-02 0. -1.
       -1   -1    0    0    0  501  0.00000000000E+00  0.00000000000E+00 -0.14218311120E+03  0.14218311129E+03  0.50400001928E-02 0.  1.
    10030    2    1    2    0    0  0.00000000000E+00  0.00000000000E+00  0.73870496063E+03  0.10230711831E+04  0.70780620717E+03 0.  0.
        5    1    3    3  502    0  0.93207524014E+02  0.63918207413E+02 -0.11535011104E+03  0.16155778498E+03  0.46999998093E+01 0.  1.
       -5    1    3    3    0  502 -0.93207524014E+02 -0.63918207413E+02  0.85405507167E+03  0.86151339816E+03  0.46999998093E+01 0. -1.
</event>
<event>
 5   0  0.6609285E-03  0.7016739E+03  0.7818609E-02  0.9714374E-01
        1   -1    0    0  501    0  0.00000000000E+00  0.00000000000E+00  0.80136641983E+03  0.80136641985E+03  0.50400001928E-02 0. -1.
       -1   -1    0    0    0  501  0.00000000000E+00  0.00000000000E+00 -0.15359587738E+03  0.15359587747E+03  0.50400001928E-02 0.  1.
    10030    2    1    2    0    0  0.00000000000E+00  0.00000000000E+00  0.64777054245E+03  0.95496229732E+03  0.70167393683E+03 0.  0.
        2    1    3    3  502    0  0.43209649401E+02  0.11085318261E+03  0.77307185683E+03  0.78217363656E+03  0.25500000920E-02 0. -1.
       -2    1    3    3    0  502 -0.43209649401E+02 -0.11085318261E+03 -0.12530131438E+03  0.17278866076E+03  0.25500000920E-02 0.  1.
</event>
<event>
 5   0  0.4440500E-03  0.6945651E+03  0.7818609E-02  0.9726572E-01
        3   -1    0    0  501    0  0.00000000000E+00  0.00000000000E+00  0.57116978635E+03  0.57116979528E+03  0.10100000352E+00 0. -1.
       -3   -1    0    0    0  501  0.00000000000E+00  0.00000000000E+00 -0.21115466427E+03  0.21115468843E+03  0.10100000352E+00 0.  1.
    10030    2    1    2    0    0  0.00000000000E+00  0.00000000000E+00  0.36001512208E+03  0.78232448371E+03  0.69456512271E+03 0.  0.
        1    1    3    3  502    0  0.10719859647E+03 -0.26245581575E+03 -0.45911104539E+02  0.28719753455E+03  0.50400001928E-02 0. -1.
       -1    1    3    3    0  502 -0.10719859647E+03  0.26245581575E+03  0.40592622662E+03  0.49512694916E+03  0.50400001928E-02 0.  1.
</event>
<event>
 5   0  0.1100119E-02  0.6978670E+03  0.7818609E-02  0.9720887E-01
       -2   -1    0    0    0  501  0.00000000000E+00  0.00000000000E+00  0.26892292668E+03  0.26892292669E+03  0.25500000920E-02 0. -1.
        2   -1    0    0  501    0  0.00000000000E+00  0.00000000000E+00 -0.45274902092E+03  0.45274902092E+03  0.25500000920E-02 0.  1.
    10030    2    1    2    0    0  0.00000000000E+00  0.00000000000E+00 -0.18382609424E+03  0.72167194761E+03  0.69786701244E+03 0.  0.
        4    1    3    3  502    0 -0.19945880704E+03  0.25801654122E+03 -0.22022879422E+03  0.39352088375E+03  0.12699999809E+01 0.  1.
       -4    1    3    3    0  502  0.19945880704E+03 -0.25801654122E+03  0.36402699988E+02  0.32815106386E+03  0.12699999809E+01 0. -1.
</event>
<event>
 5   0  0.6246998E-03  0.6996918E+03  0.7818609E-02  0.9717759E-01
        1   -1    0    0  501    0  0.00000000000E+00  0.00000000000E+00  0.12121827032E+04  0.12121827032E+04  0.50400001928E-02 0.  1.
       -1   -1    0    0    0  501  0.00000000000E+00  0.00000000000E+00 -0.10096839559E+03  0.10096839572E+03  0.50400001928E-02 0. -1.
    10030    2    1    2    0    0  0.00000000000E+00  0.00000000000E+00  0.11112143076E+04  0.13131510989E+04  0.69969176869E+03 0.  0.
        4    1    3    3  502    0  0.13286494670E+02  0.88675646042E+02  0.11902468232E+04  0.11936201298E+04  0.12699999809E+01 0.  1.
       -4    1    3    3    0  502 -0.13286494670E+02 -0.88675646042E+02 -0.79032515660E+02  0.11953096910E+03  0.12699999809E+01 0. -1.
</event>
<event>
 5   0  0.6785252E-03  0.7002265E+03  0.7818609E-02  0.9716845E-01
       -1   -1    0    0    0  501  0.00000000000E+00  0.00000000000E+00  0.12244106230E+04  0.12244106230E+04  0.50400001928E-02 0. -1.
        1   -1    0    0  501    0  0.00000000000E+00  0.00000000000E+00 -0.10011288460E+03  0.10011288472E+03  0.50400001928E-02 0.  1.
    10030    2    1    2    0    0  0.00000000000E+00  0.00000000000E+00  0.11242977384E+04  0.13245235078E+04  0.70022647621E+03 0.  0.
        3    1    3    3  502    0  0.12903126405E+03 -0.62078915542E+02 -0.42194605877E+02  0.14927576436E+03  0.10100000352E+00 0.  1.
       -3    1    3    3    0  502 -0.12903126405E+03  0.62078915542E+02  0.11664923443E+04  0.11752477434E+04  0.10100000352E+00 0. -1.
</event>
<event>
 5   0  0.4440500E-03  0.7005056E+03  0.7818609E-02  0.9716368E-01
        4   -1    0    0  501    0  0.00000000000E+00  0.00000000000E+00  0.71778058363E+03  0.71778170716E+03  0.12699999809E+01 0.  1.
       -4   -1    0    0    0  501  0.00000000000E+00  0.00000000000E+00 -0.17090796862E+03  0.17091268718E+03  0.12699999809E+01 0. -1.
    10030    2    1    2    0    0  0.00000000000E+00  0.00000000000E+00  0.54687261501E+03  0.88869439434E+03  0.70050558134E+03 0.  0.
        2    1    3    3  502    0 -0.14323375707E+03  0.23155825615E+03  0.55294746384E+03  0.61634895386E+03  0.25500000920E-02 0.  1.
       -2    1    3    3    0  502  0.14323375707E+03 -0.23155825615E+03 -0.60748488326E+01  0.27234544048E+03  0.25500000920E-02 0. -1.
</event>
<event>
 5   0  0.1109788E-02  0.6979966E+03  0.7818609E-02  0.9720664E-01
        2   -1    0    0  501    0  0.00000000000E+00  0.00000000000E+00  0.16499266801E+04  0.16499266801E+04  0.25500000920E-02 0.  1.
       -2   -1    0    0    0  501  0.00000000000E+00  0.00000000000E+00 -0.73821342020E+02  0.73821342064E+02  0.25500000920E-02 0. -1.
    10030    2    1    2    0    0  0.00000000000E+00  0.00000000000E+00  0.15761053380E+04  0.17237480221E+04  0.69799656674E+03 0.  0.
        1    1    3    3  502    0 -0.28947516378E+03  0.67845786358E+02  0.33671721228E+03  0.44919639608E+03  0.50400001928E-02 0. -1.
       -1    1    3    3    0  502  0.28947516378E+03 -0.67845786358E+02  0.12393881257E+04  0.12745516260E+04  0.50400001928E-02 0.  1.
</event>
<event>
 5   0  0.1119786E-02  0.7004538E+03  0.7818609E-02  0.9716456E-01
       -2   -1    0    0    0  501  0.00000000000E+00  0.00000000000E+00  0.48340686395E+03  0.48340686396E+03  0.25500000920E-02 0. -1.
        2   -1    0    0  501    0  0.00000000000E+00  0.00000000000E+00 -0.25373838652E+03  0.25373838653E+03  0.25500000920E-02 0.  1.
    10030    2    1    2    0    0  0.00000000000E+00  0.00000000000E+00  0.22966847743E+03  0.73714525049E+03  0.70045378920E+03 0.  0.
        3    1    3    3  502    0  0.29609370526E+03  0.52197979599E+02  0.30386144484E+03  0.42746683991E+03  0.10100000352E+00 0. -1.
       -3    1    3    3    0  502 -0.29609370526E+03 -0.52197979599E+02 -0.74192967403E+02  0.30967841058E+03  0.10100000352E+00 0.  1.
</event>
<event>
 5   0  0.1119786E-02  0.6920282E+03  0.7818609E-02  0.9730963E-01
       -2   -1    0    0    0  501  0.00000000000E+00  0.00000000000E+00  0.27398481929E+03  0.27398481930E+03  0.25500000920E-02 0. -1.
        2   -1    0    0  501    0  0.00000000000E+00  0.00000000000E+00 -0.43697955101E+03  0.43697955101E+03  0.25500000920E-02 0.  1.
    10030    2    1    2    0    0  0.00000000000E+00  0.00000000000E+00 -0.16299473172E+03  0.71096437031E+03  0.69202821712E+03 0.  0.
        3    1    3    3  502    0 -0.21078559356E+03  0.69952553283E+02  0.19109644965E+03  0.29298769502E+03  0.10100000352E+00 0. -1.
       -3    1    3    3    0  502  0.21078559356E+03 -0.69952553283E+02 -0.35409118137E+03  0.41797667529E+03  0.10100000352E+00 0.  1.
</event>
<event>
 5   0  0.6246998E-03  0.7025132E+03  0.7818609E-02  0.9712944E-01
       -1   -1    0    0    0  501  0.00000000000E+00  0.00000000000E+00  0.12233188339E+03  0.12233188349E+03  0.50400001928E-02 0.  1.
        1   -1    0    0  501    0  0.00000000000E+00  0.00000000000E+00 -0.10085776232E+04  0.10085776232E+04  0.50400001928E-02 0. -1.
    10030    2    1    2    0    0  0.00000000000E+00  0.00000000000E+00 -0.88624573979E+03  0.11309095067E+04  0.70251320344E+03 0.  0.
        4    1    3    3  502    0 -0.21753839681E+03 -0.24666080058E+03 -0.24455429324E+03  0.40984499493E+03  0.12699999809E+01 0.  1.
       -4    1    3    3    0  502  0.21753839681E+03  0.24666080058E+03 -0.64169144655E+03  0.72106451175E+03  0.12699999809E+01 0. -1.
</event>
<event>
 5   0  0.1109788E-02  0.7003137E+03  0.7818609E-02  0.9716696E-01
        2   -1    0    0  501    0  0.00000000000E+00  0.00000000000E+00  0.14329768278E+04  0.14329768278E+04  0.25500000920E-02 0.  1.
       -2   -1    0    0    0  501  0.00000000000E+00  0.00000000000E+00 -0.85563013830E+02  0.85563013868E+02  0.25500000920E-02 0. -1.
    10030    2    1    2    0    0  0.00000000000E+00  0.00000000000E+00  0.13474138140E+04  0.15185398417E+04  0.70031369018E+03 0.  0.
        1    1    3    3  502    0 -0.80523133880E+02  0.23523983244E+03  0.12083238577E+04  0.12336402632E+04  0.50400001928E-02 0. -1.
       -1    1    3    3    0  502  0.80523133880E+02 -0.23523983244E+03  0.13908995627E+03  0.28489957848E+03  0.50400001928E-02 0.  1.
</event>
<event>
 5   0  0.6609285E-03  0.7012847E+03  0.7818609E-02  0.9715038E-01
        1   -1    0    0  501    0  0.00000000000E+00  0.00000000000E+00  0.35315484005E+03  0.35315484009E+03  0.50400001928E-02 0. -1.
       -1   -1    0    0    0  501  0.00000000000E+00  0.00000000000E+00 -0.34814773038E+03  0.34814773042E+03  0.50400001928E-02 0.  1.
    10030    2    1    2    0    0  0.00000000000E+00  0.00000000000E+00  0.50071096720E+01  0.70130257050E+03  0.70128469558E+03 0.  0.
        2    1    3    3  502    0 -0.18081773361E+03 -0.27303728624E+03  0.12782890836E+03  0.35154607420E+03  0.25500000920E-02 0. -1.
       -2    1    3    3    0  502  0.18081773361E+03  0.27303728624E+03 -0.12282179869E+03  0.34975649630E+03  0.25500000920E-02 0.  1.
</event>
<event>
 5   0  0.6689415E-03  0.7005850E+03  0.7818609E-02  0.9716232E-01
       -1   -1    0    0    0  501  0.00000000000E+00  0.00000000000E+00  0.23403382594E+03  0.23403382599E+03  0.50400001928E-02 0. -1.
        1   -1    0    0  501    0  0.00000000000E+00  0.00000000000E+00 -0.52430377953E+03  0.52430377955E+03  0.50400001928E-02 0.  1.
    10030    2    1    2    0    0  0.00000000000E+00  0.00000000000E+00 -0.29026995359E+03  0.75833760555E+03  0.70058495419E+03 0.  0.
        1    1    3    3  502    0 -0.20738756440E+03  0.60368748814E+02 -0.44364146211E+03  0.49342855068E+03  0.50400001928E-02 0.  1.
       -1    1    3    3    0  502  0.20738756440E+03 -0.60368748814E+02  0.15337150852E+03  0.26490905487E+03  0.50400001928E-02 0. -1.
</event>
<event>
 5   0  0.6990118E-03  0.7015270E+03  0.7818609E-02  0.9714624E-01
        1   -1    0    0  501    0  0.00000000000E+00  0.00000000000E+00  0.10705001177E+04  0.10705001177E+04  0.50400001928E-02 0. -1.
       -1   -1    0    0    0  501  0.00000000000E+00  0.00000000000E+00 -0.11493229449E+03  0.11493229460E+03  0.50400001928E-02 0.  1.
    10030    2    1    2    0    0  0.00000000000E+00  0.00000000000E+00  0.95556782317E+03  0.11854324123E+04  0.70152700547E+03 0.  0.
        5    1    3    3  502    0 -0.13197148390E+03 -0.11573948794E+03 -0.35313531092E+02  0.17911235889E+03  0.46999998093E+01 0.  1.
       -5    1    3    3    0  502  0.13197148390E+03  0.11573948794E+03  0.99088135426E+03  0.10063200534E+04  0.46999998093E+01 0. -1.
</event>
<event>
 5   0  0.1079446E-02  0.6997311E+03  0.7818609E-02  0.9717692E-01
       -2   -1    0    0    0  501  0.00000000000E+00  0.00000000000E+00  0.16225068394E+03  0.16225068396E+03  0.25500000920E-02 0.  1.
        2   -1    0    0  501    0  0.00000000000E+00  0.00000000000E+00 -0.75442465235E+03  0.75442465236E+03  0.25500000920E-02 0. -1.
    10030    2    1    2    0    0  0.00000000000E+00  0.00000000000E+00 -0.59217396841E+03  0.91667533632E+03  0.69973113647E+03 0.  0.
        2    1    3    3  502    0  0.92610749517E+02 -0.18804501060E+03  0.70883639382E+02  0.22127396430E+03  0.25500000920E-02 0.  1.
       -2    1    3    3    0  502 -0.92610749517E+02  0.18804501060E+03 -0.66305760779E+03  0.69540137201E+03  0.25500000920E-02 0. -1.
</event>
<event>
 5   0  0.1109788E-02  0.7112320E+03  0.7818609E-02  0.9698214E-01
        2   -1    0    0  501    0  0.00000000000E+00  0.00000000000E+00  0.13196756865E+03  0.13196756868E+03  0.25500000920E-02 0.  1.
       -2   -1    0    0    0  501  0.00000000000E+00  0.00000000000E+00 -0.95828650370E+03  0.95828650371E+03  0.25500000920E-02 0. -1.
    10030    2    1    2    0    0  0.00000000000E+00  0.00000000000E+00 -0.82631893505E+03  0.10902540724E+04  0.71123200148E+03 0.  0.
        1    1    3    3  502    0  0.20959211128E+03  0.10919707796E+03 -0.82049207795E+03  0.85385016540E+03  0.50400001928E-02 0. -1.
       -1    1    3    3    0  502 -0.20959211128E+03 -0.10919707796E+03 -0.58268570965E+01  0.23640390698E+03  0.50400001928E-02 0.  1.
</event>
<event>
 5   0  0.1119786E-02  0.6976769E+03  0.7818609E-02  0.9721213E-01
       -2   -1    0    0    0  501  0.00000000000E+00  0.00000000000E+00  0.14319224513E+03  0.14319224515E+03  0.25500000920E-02 0.  1.
        2   -1    0    0  501    0  0.00000000000E+00  0.00000000000E+00 -0.84982440623E+03  0.84982440624E+03  0.25500000920E-02 0. -1.
    10030    2    1    2    0    0  0.00000000000E+00  0.00000000000E+00 -0.70663216110E+03  0.99301665139E+03  0.69767690146E+03 0.  0.
        3    1    3    3  502    0  0.15470647224E+03 -0.29746946093E+03 -0.21630671648E+03  0.39901225361E+03  0.10100000352E+00 0.  1.
       -3    1    3    3    0  502 -0.15470647224E+03  0.29746946093E+03 -0.49032544462E+03  0.59400439778E+03  0.10100000352E+00 0. -1.
</event>
<event>
 5   0  0.6990118E-03  0.6910935E+03  0.7818609E-02  0.9732586E-01
       -1   -1    0    0    0  501  0.00000000000E+00  0.00000000000E+00  0.14016651985E+03  0.14016651995E+03  0.50400001928E-02 0.  1.
        1   -1    0    0  501    0  0.00000000000E+00  0.00000000000E+00 -0.85186225013E+03  0.85186225014E+03  0.50400001928E-02 0. -1.
    10030    2    1    2    0    0  0.00000000000E+00  0.00000000000E+00 -0.71169573027E+03  0.99202877009E+03  0.69109353071E+03 0.  0.
        5    1    3    3  502    0  0.11184652946E+03  0.15923055401E+03 -0.76568386092E+03  0.79003663229E+03  0.46999998093E+01 0. -1.
       -5    1    3    3    0  502 -0.11184652946E+03 -0.15923055401E+03  0.53988130650E+02  0.20199213780E+03  0.46999998093E+01 0.  1.
</event>
<event>
 5   0  0.4440500E-03  0.7004238E+03  0.7818609E-02  0.9716508E-01
        4   -1    0    0  501    0  0.00000000000E+00  0.00000000000E+00  0.11733610424E+03  0.11734297703E+03  0.12699999809E+01 0. -1.
       -4   -1    0    0    0  501  0.00000000000E+00  0.00000000000E+00 -0.10452361791E+04  0.10452369506E+04  0.12699999809E+01 0.  1.
    10030    2    1    2    0    0  0.00000000000E+00  0.00000000000E+00 -0.92790007482E+03  0.11625799276E+04  0.70042382834E+03 0.  0.
        2    1    3    3  502    0 -0.30103443287E+03  0.17749427373E+03 -0.42601161913E+03  0.55100984258E+03  0.25500000920E-02 0.  1.
       -2    1    3    3    0  502  0.30103443287E+03 -0.17749427373E+03 -0.50188845569E+03  0.61157008506E+03  0.25500000920E-02 0. -1.
</event>
<event>
 5   0  0.1100119E-02  0.7039790E+03  0.7818609E-02  0.9710452E-01
        2   -1    0    0  501    0  0.00000000000E+00  0.00000000000E+00  0.17539762608E+04  0.17539762608E+04  0.25500000920E-02 0.  1.
       -2   -1    0    0    0  501  0.00000000000E+00  0.00000000000E+00 -0.70637564803E+02  0.70637564849E+02  0.25500000920E-02 0. -1.
    10030    2    1    2    0    0  0.00000000000E+00  0.00000000000E+00  0.16833386960E+04  0.18246138257E+04  0.70397901058E+03 0.  0.
        4    1    3    3  502    0 -0.44600709336E+02  0.17231333713E+03  0.54606485102E+02  0.18618429188E+03  0.12699999809E+01 0. -1.
       -4    1    3    3    0  502  0.44600709336E+02 -0.17231333713E+03  0.16287322109E+04  0.16384295338E+04  0.12699999809E+01 0.  1.
</event>
<event>
 5   0  0.1109788E-02  0.6992202E+03  0.7818609E-02  0.9718567E-01
        2   -1    0    0  501    0  0.00000000000E+00  0.00000000000E+00  0.15250390091E+04  0.15250390091E+04  0.25500000920E-02 0.  1.
       -2   -1    0    0    0  501  0.00000000000E+00  0.00000000000E+00 -0.80146959129E+02  0.80146959170E+02  0.25500000920E-02 0. -1.
    10030    2    1    2    0    0  0.00000000000E+00  0.00000000000E+00  0.14448920500E+04  0.16051859683E+04  0.69922024904E+03 0.  0.
        1    1    3    3  502    0 -0.57525348811E+02  0.33794959765E+03  0.56492585466E+03  0.66080278268E+03  0.50400001928E-02 0. -1.
       -1    1    3    3    0  502  0.57525348811E+02 -0.33794959765E+03  0.87996619531E+03  0.94438318559E+03  0.50400001928E-02 0.  1.
</event>
<event>
 5   0  0.6246998E-03  0.7002177E+03  0.7818609E-02  0.9716860E-01
       -1   -1    0    0    0  501  0.00000000000E+00  0.00000000000E+00  0.26404702826E+03  0.26404702831E+03  0.50400001928E-02 0. -1.
        1   -1    0    0  501    0  0.00000000000E+00  0.00000000000E+00 -0.46422118347E+03  0.46422118350E+03  0.50400001928E-02 0.  1.
    10030    2    1    2    0    0  0.00000000000E+00  0.00000000000E+00 -0.20017415521E+03  0.72826821181E+03  0.70021774893E+03 0.  0.
        4    1    3    3  502    0  0.24308744638E+02 -0.14907127086E+03 -0.42859028948E+03  0.45442756078E+03  0.12699999809E+01 0.  1.
       -4    1    3    3    0  502 -0.24308744638E+02  0.14907127086E+03  0.22841613427E+03  0.27384065103E+03  0.12699999809E+01 0. -1.
</event>
<event>
 5   0  0.6785252E-03  0.7008753E+03  0.7818609E-02  0.9715737E-01
       -1   -1    0    0    0  501  0.00000000000E+00  0.00000000000E+00  0.15510127452E+03  0.15510127460E+03  0.50400001928E-02 0. -1.
        1   -1    0    0  501    0  0.00000000000E+00  0.00000000000E+00 -0.79178290260E+03  0.79178290262E+03  0.50400001928E-02 0.  1.
    10030    2    1    2    0    0  0.00000000000E+00  0.00000000000E+00 -0.63668162808E+03  0.94688417722E+03  0.70087527388E+03 0.  0.
        3    1    3    3  502    0 -0.31661846512E+03  0.40823400969E+02 -0.12306266000E+03  0.34213773690E+03  0.10100000352E+00 0. -1.
       -3    1    3    3    0  502  0.31661846512E+03 -0.40823400969E+02 -0.51361896807E+03  0.60474644033E+03  0.10100000352E+00 0.  1.
</event>
<event>
 5   0  0.1099980E-02  0.7020277E+03  0.7818609E-02  0.9713771E-01
       -2   -1    0    0    0  501  0.00000000000E+00  0.00000000000E+00  0.16559079769E+04  0.16559079769E+04  0.25500000920E-02 0.  1.
        2   -1    0    0  501    0  0.00000000000E+00  0.00000000000E+00 -0.74406751652E+02  0.74406751696E+02  0.25500000920E-02 0. -1.
    10030    2    1    2    0    0  0.00000000000E+00  0.00000000000E+00  0.15815012252E+04  0.17303147286E+04  0.70202773060E+03 0.  0.
        5    1    3    3  502    0  0.17079020156E+03 -0.16551308216E+03  0.15455788614E+03  0.28367957889E+03  0.46999998093E+01 0. -1.
       -5    1    3    3    0  502 -0.17079020156E+03  0.16551308216E+03  0.14269433391E+04  0.14466351497E+04  0.46999998093E+01 0.  1.
</event>
<event>
 5   0  0.1099980E-02  0.7024904E+03  0.7818609E-02  0.9712983E-01
       -2   -1    0    0    0  501  0.00000000000E+00  0.00000000000E+00  0.22771472480E+03  0.22771472482E+03  0.25500000920E-02 0. -1.
        2   -1    0    0  501    0  0.00000000000E+00  0.00000000000E+00 -0.54178841404E+03  0.54178841405E+03  0.25500000920E-02 0.  1.
    10030    2    1    2    0    0  0.00000000000E+00  0.00000000000E+00 -0.31407368924E+03  0.76950313887E+03  0.70249042588E+03 0.  0.
        5    1    3    3  502    0 -0.30970681145E+03  0.15952092900E+03 -0.10822268628E+03  0.36482800834E+03  0.46999998093E+01 0.  1.
       -5    1    3    3    0  502  0.30970681145E+03 -0.15952092900E+03 -0.20585100296E+03  0.40467513052E+03  0.46999998093E+01 0. -1.
</event>
<event>
 5   0  0.1099980E-02  0.7042044E+03  0.7818609E-02  0.9710069E-01
       -2   -1    0    0    0  501  0.00000000000E+00  0.00000000000E+00  0.10554128526E+03  0.10554128529E+03  0.25500000920E-02 0.  1.
        2   -1    0    0  501    0  0.00000000000E+00  0.00000000000E+00 -0.11746680445E+04  0.11746680446E+04  0.25500000920E-02 0. -1.
    10030    2    1    2    0    0  0.00000000000E+00  0.00000000000E+00 -0.10691267593E+04  0.12802093298E+04  0.70420444530E+03 0.  0.
        5    1    3    3  502    0 -0.59444371593E+02 -0.30253184627E+03 -0.84358692809E+03  0.89817601090E+03  0.46999998093E+01 0. -1.
       -5    1    3    3    0  502  0.59444371593E+02  0.30253184627E+03 -0.22553983120E+03  0.38203331894E+03  0.46999998093E+01 0.  1.
</event>
<event>
 5   0  0.1100119E-02  0.6999846E+03  0.7818609E-02  0.9717259E-01
       -2   -1    0    0    0  501  0.00000000000E+00  0.00000000000E+00  0.14768530517E+03  0.14768530519E+03  0.25500000920E-02 0.  1.
        2   -1    0    0  501    0  0.00000000000E+00  0.00000000000E+00 -0.82942979812E+03  0.82942979813E+03  0.25500000920E-02 0. -1.
    10030    2    1    2    0    0  0.00000000000E+00  0.00000000000E+00 -0.68174449296E+03  0.97711510332E+03  0.69998455087E+03 0.  0.
        4    1    3    3  502    0  0.43622545614E+02  0.33158524742E+03 -0.19687501279E+03  0.38808901859E+03  0.12699999809E+01 0.  1.
       -4    1    3    3    0  502 -0.43622545614E+02 -0.33158524742E+03 -0.48486948016E+03  0.58902608472E+03  0.12699999809E+01 0. -1.
</event>
<event>
 5   0  0.1100119E-02  0.7012916E+03  0.7818609E-02  0.9715026E-01
       -2   -1    0    0    0  501  0.00000000000E+00  0.00000000000E+00  0.13245208431E+03  0.13245208434E+03  0.25500000920E-02 0. -1.
        2   -1    0    0  501    0  0.00000000000E+00  0.00000000000E+00 -0.92827900674E+03  0.92827900675E+03  0.25500000920E-02 0.  1.
    10030    2    1    2    0    0  0.00000000000E+00  0.00000000000E+00 -0.79582692243E+03  0.10607310911E+04  0.70129163486E+03 0.  0.
        4    1    3    3  502    0 -0.39833358736E+02 -0.86174086836E+01 -0.92468098882E+03  0.92557954827E+03  0.12699999809E+01 0.  1.
       -4    1    3    3    0  502  0.39833358736E+02  0.86174086836E+01  0.12885406639E+03  0.13515154281E+03  0.12699999809E+01 0. -1.
</event>
<event>
 5   0  0.6990118E-03  0.7139896E+03  0.7818609E-02  0.9693603E-01
        1   -1    0    0  501    0  0.00000000000E+00  0.00000000000E+00  0.89474206103E+03  0.89474206105E+03  0.50400001928E-02 0.  1.
       -1   -1    0    0    0  501  0.00000000000E+00  0.00000000000E+00 -0.14243803296E+03  0.14243803305E+03  0.50400001928E-02 0. -1.
    10030    2    1    2    0    0  0.00000000000E+00  0.00000000000E+00  0.75230402807E+03  0.10371800941E+04  0.71398963364E+03 0.  0.
        5    1    3    3  502    0  0.30345688222E+03 -0.13200367099E+03  0.18173411064E+03  0.37757174880E+03  0.46999998093E+01 0. -1.
       -5    1    3    3    0  502 -0.30345688222E+03  0.13200367099E+03  0.57056991743E+03  0.65960834530E+03  0.46999998093E+01 0.  1.
</event>
<event>
 5   0  0.1119786E-02  0.6954294E+03  0.7818609E-02  0.9725081E-01
       -2   -1    0    0    0  501  0.00000000000E+00  0.00000000000E+00  0.26479187271E+03  0.26479187272E+03  0.25500000920E-02 0. -1.
        2   -1    0    0  501    0  0.00000000000E+00  0.00000000000E+00 -0.45660579359E+03  0.45660579360E+03  0.25500000920E-02 0.  1.
    10030    2    1    2    0    0  0.00000000000E+00  0.00000000000E+00 -0.19181392088E+03  0.72139766632E+03  0.69542937293E+03 0.  0.
        3    1    3    3  502    0 -0.15832075244E+03 -0.22594331588E+03 -0.31544538281E+03  0.41907235937E+03  0.10100000352E+00 0.  1.
       -3    1    3    3    0  502  0.15832075244E+03  0.22594331588E+03  0.12363146193E+03  0.30232530695E+03  0.10100000352E+00 0. -1.
</event>
<event>
 5   0  0.1079446E-02  0.6999287E+03  0.7818609E-02  0.9717354E-01
       -2   -1    0    0    0  501  0.00000000000E+00  0.00000000000E+00  0.14607924355E+04  0.14607924355E+04  0.25500000920E-02 0. -1.
        2   -1    0    0  501    0  0.00000000000E+00  0.00000000000E+00 -0.83841515821E+02  0.83841515860E+02  0.25500000920E-02 0.  1.
    10030    2    1    2    0    0  0.00000000000E+00  0.00000000000E+00  0.13769509197E+04  0.15446339514E+04  0.69992871673E+03 0.  0.
        2    1    3    3  502    0 -0.20344936287E+03 -0.28186382200E+03  0.77774211386E+03  0.85189298218E+03  0.25500000920E-02 0. -1.
       -2    1    3    3    0  502  0.20344936287E+03  0.28186382200E+03  0.59920880581E+03  0.69274096918E+03  0.25500000920E-02 0.  1.
</event>
<event>
 5   0  0.6689415E-03  0.6966915E+03  0.7818609E-02  0.9722907E-01
        1   -1    0    0  501    0  0.00000000000E+00  0.00000000000E+00  0.24058660406E+03  0.24058660411E+03  0.50400001928E-02 0. -1.
       -1   -1    0    0    0  501  0.00000000000E+00  0.00000000000E+00 -0.50437039407E+03  0.50437039410E+03  0.50400001928E-02 0.  1.
    10030    2    1    2    0    0  0.00000000000E+00  0.00000000000E+00 -0.26378379002E+03  0.74495699821E+03  0.69669149650E+03 0.  0.
        1    1    3    3  502    0 -0.23895783323E+03  0.80012709067E+01 -0.40278016022E+03  0.46839804002E+03  0.50400001928E-02 0.  1.
       -1    1    3    3    0  502  0.23895783323E+03 -0.80012709067E+01  0.13899637021E+03  0.27655895819E+03  0.50400001928E-02 0. -1.
</event>
<event>
 5   0  0.1099980E-02  0.6997299E+03  0.7818609E-02  0.9717694E-01
        2   -1    0    0  501    0  0.00000000000E+00  0.00000000000E+00  0.40238094359E+03  0.40238094360E+03  0.25500000920E-02 0.  1.
       -2   -1    0    0    0  501  0.00000000000E+00  0.00000000000E+00 -0.30420299836E+03  0.30420299837E+03  0.25500000920E-02 0. -1.
    10030    2    1    2    0    0  0.00000000000E+00  0.00000000000E+00  0.98177945234E+02  0.70658394197E+03  0.69972991799E+03 0.  0.
        5    1    3    3  502    0 -0.20224343031E+03  0.26580257109E+03  0.15417556279E+03  0.36789347108E+03  0.46999998093E+01 0.  1.
       -5    1    3    3    0  502  0.20224343031E+03 -0.26580257109E+03 -0.55997617555E+02  0.33869047089E+03  0.46999998093E+01 0. -1.
</event>
<event>
 5   0  0.1079446E-02  0.6965960E+03  0.7818609E-02  0.9723071E-01
        2   -1    0    0  501    0  0.00000000000E+00  0.00000000000E+00  0.52581436155E+03  0.52581436156E+03  0.25500000920E-02 0. -1.
       -2   -1    0    0    0  501  0.00000000000E+00  0.00000000000E+00 -0.23071164996E+03  0.23071164997E+03  0.25500000920E-02 0.  1.
    10030    2    1    2    0    0  0.00000000000E+00  0.00000000000E+00  0.29510271159E+03  0.75652601153E+03  0.69659600611E+03 0.  0.
        2    1    3    3  502    0 -0.86903506957E+02 -0.26418945461E+03 -0.80161520844E+02  0.28943765629E+03  0.25500000920E-02 0.  1.
       -2    1    3    3    0  502  0.86903506957E+02  0.26418945461E+03  0.37526423244E+03  0.46708835524E+03  0.25500000920E-02 0. -1.
</event>
<event>
 5   0  0.6689415E-03  0.7022685E+03  0.7818609E-02  0.9713361E-01
       -1   -1    0    0    0  501  0.00000000000E+00  0.00000000000E+00  0.16392238309E+03  0.16392238317E+03  0.50400001928E-02 0.  1.
        1   -1    0    0  501    0  0.00000000000E+00  0.00000000000E+00 -0.75215629550E+03  0.75215629551E+03  0.50400001928E-02 0. -1.
    10030    2    1    2    0    0  0.00000000000E+00  0.00000000000E+00 -0.58823391240E+03  0.91607867868E+03  0.70226847419E+03 0.  0.
        1    1    3    3  502    0  0.17642206577E+03  0.30153629942E+03 -0.24806451881E+03  0.42846807428E+03  0.50400001928E-02 0. -1.
       -1    1    3    3    0  502 -0.17642206577E+03 -0.30153629942E+03 -0.34016939359E+03  0.48761060440E+03  0.50400001928E-02 0.  1.
</event>
<event>
 5   0  0.1099980E-02  0.7005403E+03  0.7818609E-02  0.9716309E-01
       -2   -1    0    0    0  501  0.00000000000E+00  0.00000000000E+00  0.18369604217E+03  0.18369604219E+03  0.25500000920E-02 0. -1.
        2   -1    0    0  501    0  0.00000000000E+00  0.00000000000E+00 -0.66789242444E+03  0.66789242444E+03  0.25500000920E-02 0.  1.
    10030    2    1    2    0    0  0.00000000000E+00  0.00000000000E+00 -0.48419638227E+03  0.85158846663E+03  0.70054034852E+03 0.  0.
        5    1    3    3  502    0  0.30234545290E+02  0.27828677297E+03  0.13786787987E+02  0.28030308821E+03  0.46999998093E+01 0. -1.
       -5    1    3    3    0  502 -0.30234545290E+02 -0.27828677297E+03 -0.49798317026E+03  0.57128537842E+03  0.46999998093E+01 0.  1.
</event>
<event>
 5   0  0.1099980E-02  0.6982691E+03  0.7818609E-02  0.9720197E-01
       -2   -1    0    0    0  501  0.00000000000E+00  0.00000000000E+00  0.15413984274E+03  0.15413984276E+03  0.25500000920E-02 0.  1.
        2   -1    0    0  501    0  0.00000000000E+00  0.00000000000E+00 -0.79080750782E+03  0.79080750782E+03  0.25500000920E-02 0. -1.
    10030    2    1    2    0    0  0.00000000000E+00  0.00000000000E+00 -0.63666766508E+03  0.94494735058E+03  0.69826913122E+03 0.  0.
        5    1    3    3  502    0  0.69400479853E+02 -0.25066487859E+02 -0.78009102886E+03  0.78358717366E+03  0.46999998093E+01 0. -1.
       -5    1    3    3    0  502 -0.69400479853E+02  0.25066487859E+02  0.14342336379E+03  0.16136017692E+03  0.46999998093E+01 0.  1.
</event>
<event>
 5   0  0.1119786E-02  0.7017841E+03  0.7818609E-02  0.9714186E-01
        2   -1    0    0  501    0  0.00000000000E+00  0.00000000000E+00  0.83090905996E+03  0.83090905997E+03  0.25500000920E-02 0. -1.
       -2   -1    0    0    0  501  0.00000000000E+00  0.00000000000E+00 -0.14818134851E+03  0.14818134853E+03  0.25500000920E-02 0.  1.
    10030    2    1    2    0    0  0.00000000000E+00  0.00000000000E+00  0.68272771146E+03  0.97909040849E+03  0.70178408361E+03 0.  0.
        3    1    3    3  502    0  0.28295546613E+03  0.15140050019E+03  0.53935307755E+03  0.62760470022E+03  0.10100000352E+00 0. -1.
       -3    1    3    3    0  502 -0.28295546613E+03 -0.15140050019E+03  0.14337463391E+03  0.35148570828E+03  0.10100000352E+00 0.  1.
</event>
<event>
 5   0  0.4440500E-03  0.7017306E+03  0.7818609E-02  0.9714277E-01
        4   -1    0    0  501    0  0.00000000000E+00  0.00000000000E+00  0.78925087636E+02  0.78935304892E+02  0.12699999809E+01 0.  1.
       -4   -1    0    0    0  501  0.00000000000E+00  0.00000000000E+00 -0.15596772390E+04  0.15596777561E+04  0.12699999809E+01 0. -1.
    10030    2    1    2    0    0  0.00000000000E+00  0.00000000000E+00 -0.14807521514E+04  0.16386130610E+04  0.70173059629E+03 0.  0.
        4    1    3    3  502    0 -0.36603246253E+02  0.34683601945E+03 -0.65085228813E+03  0.73840729674E+03  0.12699999809E+01 0. -1.
       -4    1    3    3    0  502  0.36603246253E+02 -0.34683601945E+03 -0.82989986324E+03  0.90020576422E+03  0.12699999809E+01 0.  1.
</event>
<event>
 5   0  0.6990118E-03  0.7007331E+03  0.7818609E-02  0.9715979E-01
       -1   -1    0    0    0  501  0.00000000000E+00  0.00000000000E+00  0.55432046129E+03  0.55432046131E+03  0.50400001928E-02 0.  1.
        1   -1    0    0  501    0  0.00000000000E+00  0.00000000000E+00 -0.22145440013E+03  0.22145440019E+03  0.50400001928E-02 0. -1.
    10030    2    1    2    0    0  0.00000000000E+00  0.00000000000E+00  0.33286606115E+03  0.77577486150E+03  0.70073305977E+03 0.  0.
        5    1    3    3  502    0  0.23210116792E+03 -0.60074145508E+01 -0.12401225147E+03  0.26326444821E+03  0.46999998093E+01 0. -1.
       -5    1    3    3    0  502 -0.23210116792E+03  0.60074145508E+01  0.45687831262E+03  0.51251041328E+03  0.46999998093E+01 0.  1.
</event>
<event>
 5   0  0.1079446E-02  0.7026841E+03  0.7818609E-02  0.9712653E-01
        2   -1    0    0  501    0  0.00000000000E+00  0.00000000000E+00  0.44386609259E+03  0.44386609260E+03  0.25500000920E-02 0.  1.
       -2   -1    0    0    0  501  0.00000000000E+00  0.00000000000E+00 -0.27810466933E+03  0.27810466934E+03  0.25500000920E-02 0. -1.
    10030    2    1    2    0    0  0.00000000000E+00  0.00000000000E+00  0.16576142326E+03  0.72197076193E+03  0.70268409093E+03 0.  0.
        2    1    3    3  502    0  0.11874932084E+03 -0.33065608641E+03  0.80284658045E+02  0.36038933808E+03  0.25500000920E-02 0.  1.
       -2    1    3    3    0  502 -0.11874932084E+03  0.33065608641E+03  0.85476765217E+02  0.36158142385E+03  0.25500000920E-02 0. -1.
</event>
<event>
 5   0  0.1109788E-02  0.7014812E+03  0.7818609E-02  0.9714703E-01
        2   -1    0    0  501    0  0.00000000000E+00  0.00000000000E+00  0.69081800804E+03  0.69081800805E+03  0.25500000920E-02 0.  1.
       -2   -1    0    0    0  501  0.00000000000E+00  0.00000000000E+00 -0.17807724182E+03  0.17807724184E+03  0.25500000920E-02 0. -1.
    10030    2    1    2    0    0  0.00000000000E+00  0.00000000000E+00  0.51274076623E+03  0.86889524988E+03  0.70148119142E+03 0.  0.
        1    1    3    3  502    0  0.24563263587E+03 -0.11510343854E+03  0.53177274481E+03  0.59696435866E+03  0.50400001928E-02 0.  1.
       -1    1    3    3    0  502 -0.24563263587E+03  0.11510343854E+03 -0.19031978587E+02  0.27193089122E+03  0.50400001928E-02 0. -1.
</event>
<event>
 5   0  0.6609285E-03  0.6971728E+03  0.7818609E-02  0.9722079E-01
       -1   -1    0    0    0  501  0.00000000000E+00  0.00000000000E+00  0.86359683830E+02  0.86359683977E+02  0.50400001928E-02 0.  1.
        1   -1    0    0  501    0  0.00000000000E+00  0.00000000000E+00 -0.14070508623E+04  0.14070508623E+04  0.50400001928E-02 0. -1.
    10030    2    1    2    0    0  0.00000000000E+00  0.00000000000E+00 -0.13206911784E+04  0.14934105463E+04  0.69717276974E+03 0.  0.
        2    1    3    3  502    0 -0.28475010390E+03 -0.53246583508E+02 -0.24500745681E+03  0.37940278627E+03  0.25500000920E-02 0.  1.
       -2    1    3    3    0  502  0.28475010390E+03  0.53246583508E+02 -0.10756837216E+04  0.11140077600E+04  0.25500000920E-02 0. -1.
</event>
<event>
 5   0  0.6689415E-03  0.6993895E+03  0.7818609E-02  0.9718277E-01
       -1   -1    0    0    0  501  0.00000000000E+00  0.00000000000E+00  0.19144179010E+03  0.19144179017E+03  0.50400001928E-02 0. -1.
        1   -1    0    0  501    0  0.00000000000E+00  0.00000000000E+00 -0.63876550030E+03  0.63876550032E+03  0.50400001928E-02 0.  1.
    10030    2    1    2    0    0  0.00000000000E+00  0.00000000000E+00 -0.44732371019E+03  0.83020729048E+03  0.69938947910E+03 0.  0.
        1    1    3    3  502    0 -0.64607803031E+02 -0.31214030441E+03 -0.39436824644E+03  0.50708189839E+03  0.50400001928E-02 0.  1.
       -1    1    3    3    0  502  0.64607803031E+02  0.31214030441E+03 -0.52955463754E+02  0.32312539209E+03  0.50400001928E-02 0. -1.
</event>
<event>
 5   0  0.1079446E-02  0.6902653E+03  0.7818609E-02  0.9734026E-01
       -2   -1    0    0    0  501  0.00000000000E+00  0.00000000000E+00  0.17339363798E+03  0.17339363800E+03  0.25500000920E-02 0. -1.
        2   -1    0    0  501    0  0.00000000000E+00  0.00000000000E+00 -0.68697183339E+03  0.68697183339E+03  0.25500000920E-02 0.  1.
    10030    2    1    2    0    0  0.00000000000E+00  0.00000000000E+00 -0.51357819541E+03  0.86036547139E+03  0.69026529796E+03 0.  0.
        2    1    3    3  502    0 -0.33656772444E+03  0.75609365213E+02 -0.24302546239E+03  0.42196680512E+03  0.25500000920E-02 0. -1.
       -2    1    3    3    0  502  0.33656772444E+03 -0.75609365213E+02 -0.27055273301E+03  0.43839866627E+03  0.25500000920E-02 0.  1.
</event>
<event>
 5   0  0.6689415E-03  0.7005793E+03  0.7818609E-02  0.9716242E-01
        1   -1    0    0  501    0  0.00000000000E+00  0.00000000000E+00  0.42108349596E+03  0.42108349599E+03  0.50400001928E-02 0. -1.
       -1   -1    0    0    0  501  0.00000000000E+00  0.00000000000E+00 -0.29139784692E+03  0.29139784696E+03  0.50400001928E-02 0.  1.
    10030    2    1    2    0    0  0.00000000000E+00  0.00000000000E+00  0.12968564904E+03  0.71248134295E+03  0.70057925781E+03 0.  0.
        1    1    3    3  502    0 -0.32145925589E+03  0.24286077768E+02 -0.74514189131E+02  0.33087494795E+03  0.50400001928E-02 0.  1.
       -1    1    3    3    0  502  0.32145925589E+03 -0.24286077768E+02  0.20419983817E+03  0.38160639500E+03  0.50400001928E-02 0. -1.
</event>
<event>
 5   0  0.6246998E-03  0.6991427E+03  0.7818609E-02  0.9718699E-01
       -1   -1    0    0    0  501  0.00000000000E+00  0.00000000000E+00  0.45365860243E+03  0.45365860245E+03  0.50400001928E-02 0.  1.
        1   -1    0    0  501    0  0.00000000000E+00  0.00000000000E+00 -0.26936586616E+03  0.26936586620E+03  0.50400001928E-02 0. -1.
    10030    2    1    2    0    0  0.00000000000E+00  0.00000000000E+00  0.18429273627E+03  0.72302446866E+03  0.69914273910E+03 0.  0.
        4    1    3    3  502    0  0.21108328694E+03  0.26048731287E+03  0.19446398968E+03  0.38759211856E+03  0.12699999809E+01 0.  1.
       -4    1    3    3    0  502 -0.21108328694E+03 -0.26048731287E+03 -0.10171253406E+02  0.33543235009E+03  0.12699999809E+01 0. -1.
</event>
<event>
 5   0  0.6609285E-03  0.7021404E+03  0.7818609E-02  0.9713579E-01
        1   -1    0    0  501    0  0.00000000000E+00  0.00000000000E+00  0.97777117503E+03  0.97777117505E+03  0.50400001928E-02 0. -1.
       -1   -1    0    0    0  501  0.00000000000E+00  0.00000000000E+00 -0.12605228007E+03  0.12605228017E+03  0.50400001928E-02 0.  1.
    10030    2    1    2    0    0  0.00000000000E+00  0.00000000000E+00  0.85171889497E+03  0.11038234552E+04  0.70214040209E+03 0.  0.
        2    1    3    3  502    0 -0.17569047613E+03 -0.12414967526E+03 -0.10291077985E+02  0.21537453787E+03  0.25500000920E-02 0.  1.
       -2    1    3    3    0  502  0.17569047613E+03  0.12414967526E+03  0.86200997295E+03  0.88844891735E+03  0.25500000920E-02 0. -1.
</event>
<event>
 5   0  0.1100119E-02  0.7017157E+03  0.7818609E-02  0.9714303E-01
       -2   -1    0    0    0  501  0.00000000000E+00  0.00000000000E+00  0.64565916023E+02  0.64565916073E+02  0.25500000920E-02 0.  1.
        2   -1    0    0  501    0  0.00000000000E+00  0.00000000000E+00 -0.19065980312E+04  0.19065980312E+04  0.25500000920E-02 0. -1.
    10030    2    1    2    0    0  0.00000000000E+00  0.00000000000E+00 -0.18420321152E+04  0.19711639473E+04  0.70171574992E+03 0.  0.
        4    1    3    3  502    0  0.20059860322E+03 -0.19473908974E+03 -0.32554418125E+03  0.42911972634E+03  0.12699999809E+01 0.  1.
       -4    1    3    3    0  502 -0.20059860322E+03  0.19473908974E+03 -0.15164879339E+04  0.15420442209E+04  0.12699999809E+01 0. -1.
</event>
<event>
 5   0  0.1099980E-02  0.6936392E+03  0.7818609E-02  0.9728172E-01
        2   -1    0    0  501    0  0.00000000000E+00  0.00000000000E+00  0.11589335312E+03  0.11589335315E+03  0.25500000920E-02 0. -1.
       -2   -1    0    0    0  501  0.00000000000E+00  0.00000000000E+00 -0.10378839345E+04  0.10378839345E+04  0.25500000920E-02 0.  1.
    10030    2    1    2    0    0  0.00000000000E+00  0.00000000000E+00 -0.92199058141E+03  0.11537772877E+04  0.69363924152E+03 0.  0.
        5    1    3    3  502    0 -0.56486682043E+02 -0.23526194632E+03 -0.87424375518E+03  0.90711805302E+03  0.46999998093E+01 0.  1.
       -5    1    3    3    0  502  0.56486682043E+02  0.23526194632E+03 -0.47746826231E+02  0.24665923467E+03  0.46999998093E+01 0. -1.
</event>
<event>
 5   0  0.1100119E-02  0.7010309E+03  0.7818609E-02  0.9715471E-01
        2   -1    0    0  501    0  0.00000000000E+00  0.00000000000E+00  0.89113886582E+03  0.89113886583E+03  0.25500000920E-02 0.  1.
       -2   -1    0    0    0  501  0.00000000000E+00  0.00000000000E+00 -0.13786973157E+03  0.13786973159E+03  0.25500000920E-02 0. -1.
    10030    2    1    2    0    0  0.00000000000E+00  0.00000000000E+00  0.75326913426E+03  0.10290085974E+04  0.70103088729E+03 0.  0.
        4    1    3    3  502    0  0.12846175017E+03 -0.25168420908E+03  0.72211765590E+02  0.29165650061E+03  0.12699999809E+01 0. -1.
       -4    1    3    3    0  502 -0.12846175017E+03  0.25168420908E+03  0.68105736867E+03  0.73735209681E+03  0.12699999809E+01 0.  1.
</event>
<event>
 5   0  0.1109788E-02  0.6964656E+03  0.7818609E-02  0.9723296E-01
        2   -1    0    0  501    0  0.00000000000E+00  0.00000000000E+00  0.43897454403E+03  0.43897454403E+03  0.25500000920E-02 0.  1.
       -2   -1    0    0    0  501  0.00000000000E+00  0.00000000000E+00 -0.27624857811E+03  0.27624857813E+03  0.25500000920E-02 0. -1.
    10030    2    1    2    0    0  0.00000000000E+00  0.00000000000E+00  0.16272596591E+03  0.71522312216E+03  0.69646563052E+03 0.  0.
        1    1    3    3  502    0  0.10987629663E+03 -0.10143579313E+03 -0.24159717202E+03  0.28413238858E+03  0.50400001928E-02 0. -1.
       -1    1    3    3    0  502 -0.10987629663E+03  0.10143579313E+03  0.40432313793E+03  0.43109073358E+03  0.50400001928E-02 0.  1.
</event>
<event>
 5   0  0.1099980E-02  0.7038198E+03  0.7818609E-02  0.9710722E-01
       -2   -1    0    0    0  501  0.00000000000E+00  0.00000000000E+00  0.25559861699E+03  0.25559861700E+03  0.25500000920E-02 0. -1.
        2   -1    0    0  501    0  0.00000000000E+00  0.00000000000E+00 -0.48451186971E+03  0.48451186972E+03  0.25500000920E-02 0.  1.
    10030    2    1    2    0    0  0.00000000000E+00  0.00000000000E+00 -0.22891325272E+03  0.74011048672E+03  0.70381976050E+03 0.  0.
        5    1    3    3  502    0 -0.29300722635E+02 -0.21405944308E+03  0.17760243574E+03  0.27972252805E+03  0.46999998093E+01 0. -1.
       -5    1    3    3    0  502  0.29300722635E+02  0.21405944308E+03 -0.40651568847E+03  0.46038795867E+03  0.46999998093E+01 0.  1.
</event>
<event>
 5   0  0.1119786E-02  0.6961777E+03  0.7818609E-02  0.9723791E-01
        2   -1    0    0  501    0  0.00000000000E+00  0.00000000000E+00  0.79500232937E+03  0.79500232937E+03  0.25500000920E-02 0. -1.
       -2   -1    0    0    0  501  0.00000000000E+00  0.00000000000E+00 -0.15240943084E+03  0.15240943087E+03  0.25500000920E-02 0.  1.
    10030    2    1    2    0    0  0.00000000000E+00  0.00000000000E+00  0.64259289853E+03  0.94741176024E+03  0.69617771453E+03 0.  0.
        3    1    3    3  502    0  0.11916401760E+03 -0.23981295613E+03  0.62393626520E+03  0.67897480826E+03  0.10100000352E+00 0. -1.
       -3    1    3    3    0  502 -0.11916401760E+03  0.23981295613E+03  0.18656633324E+02  0.26843695198E+03  0.10100000352E+00 0.  1.
</event>
<event>
 5   0  0.1100119E-02  0.7003546E+03  0.7818609E-02  0.9716626E-01
       -2   -1    0    0    0  501  0.00000000000E+00  0.00000000000E+00  0.50555640475E+03  0.50555640476E+03  0.25500000920E-02 0. -1.
        2   -1    0    0  501    0  0.00000000000E+00  0.00000000000E+00 -0.24255286357E+03  0.24255286359E+03  0.25500000920E-02 0.  1.
    10030    2    1    2    0    0  0.00000000000E+00  0.00000000000E+00  0.26300354118E+03  0.74810926834E+03  0.70035463496E+03 0.  0.
        4    1    3    3  502    0  0.18516049650E+02  0.12242712595E+03 -0.21838641058E+03  0.25104876517E+03  0.12699999809E+01 0.  1.
       -4    1    3    3    0  502 -0.18516049650E+02 -0.12242712595E+03  0.48138995176E+03  0.49706050318E+03  0.12699999809E+01 0. -1.
</event>
<event>
 5   0  0.6689415E-03  0.6994437E+03  0.7818609E-02  0.9718184E-01
        1   -1    0    0  501    0  0.00000000000E+00  0.00000000000E+00  0.34953446076E+03  0.34953446079E+03  0.50400001928E-02 0.  1.
       -1   -1    0    0    0  501  0.00000000000E+00  0.00000000000E+00 -0.34990935707E+03  0.34990935711E+03  0.50400001928E-02 0. -1.
    10030    2    1    2    0    0  0.00000000000E+00  0.00000000000E+00 -0.37489631531E+00  0.69944381790E+03  0.69944371743E+03 0.  0.
        1    1    3    3  502    0 -0.33396597053E+03  0.52471623311E+02  0.89360527901E+02  0.34967391195E+03  0.50400001928E-02 0.  1.
       -1    1    3    3    0  502  0.33396597053E+03 -0.52471623311E+02 -0.89735424217E+02  0.34976990595E+03  0.50400001928E-02 0. -1.
</event>
<event>
 5   0  0.6609285E-03  0.7001725E+03  0.7818609E-02  0.9716937E-01
       -1   -1    0    0    0  501  0.00000000000E+00  0.00000000000E+00  0.36182777014E+03  0.36182777018E+03  0.50400001928E-02 0. -1.
        1   -1    0    0  501    0  0.00000000000E+00  0.00000000000E+00 -0.33872576180E+03  0.33872576184E+03  0.50400001928E-02 0.  1.
    10030    2    1    2    0    0  0.00000000000E+00  0.00000000000E+00  0.23102008345E+02  0.70055353201E+03  0.70017251333E+03 0.  0.
        2    1    3    3  502    0 -0.71359873726E+02  0.23467002109E+03  0.26148312821E+03  0.35851872576E+03  0.25500000920E-02 0. -1.
       -2    1    3    3    0  502  0.71359873726E+02 -0.23467002109E+03 -0.23838111986E+03  0.34203480625E+03  0.25500000920E-02 0.  1.
</event>
<event>
 5   0  0.6785252E-03  0.6982874E+03  0.7818609E-02  0.9720165E-01
       -1   -1    0    0    0  501  0.00000000000E+00  0.00000000000E+00  0.18979877532E+03  0.18979877539E+03  0.50400001928E-02 0.  1.
        1   -1    0    0  501    0  0.00000000000E+00  0.00000000000E+00 -0.64226614055E+03  0.64226614057E+03  0.50400001928E-02 0. -1.
    10030    2    1    2    0    0  0.00000000000E+00  0.00000000000E+00 -0.45246736523E+03  0.83206491596E+03  0.69828741058E+03 0.  0.
        3    1    3    3  502    0  0.98896454704E+02 -0.27646265713E+03 -0.45134195164E+03  0.53844375477E+03  0.10100000352E+00 0. -1.
       -3    1    3    3    0  502 -0.98896454704E+02  0.27646265713E+03 -0.11254135903E+01  0.29362116119E+03  0.10100000352E+00 0.  1.
</event>
<event>
 5   0  0.1100119E-02  0.6972680E+03  0.7818609E-02  0.9721916E-01
       -2   -1    0    0    0  501  0.00000000000E+00  0.00000000000E+00  0.17762268887E+03  0.17762268889E+03  0.25500000920E-02 0.  1.
        2   -1    0    0  501    0  0.00000000000E+00  0.00000000000E+00 -0.68429129021E+03  0.68429129022E+03  0.25500000920E-02 0. -1.
    10030    2    1    2    0    0  0.00000000000E+00  0.00000000000E+00 -0.50666860135E+03  0.86191397911E+03  0.69726797990E+03 0.  0.
        4    1    3    3  502    0  0.13071724074E+03  0.11679055219E+03  0.11918417438E+03  0.21197525900E+03  0.12699999809E+01 0.  1.
       -4    1    3    3    0  502 -0.13071724074E+03 -0.11679055219E+03 -0.62585277573E+03  0.64993872010E+03  0.12699999809E+01 0. -1.
</event>
<event>
 5   0  0.6246998E-03  0.7001591E+03  0.7818609E-02  0.9716960E-01
        1   -1    0    0  501    0  0.00000000000E+00  0.00000000000E+00  0.34161397391E+03  0.34161397394E+03  0.50400001928E-02 0.  1.
       -1   -1    0    0    0  501  0.00000000000E+00  0.00000000000E+00 -0.35875489091E+03  0.35875489094E+03  0.50400001928E-02 0. -1.
    10030    2    1    2    0    0  0.00000000000E+00  0.00000000000E+00 -0.17140917000E+02  0.70036886489E+03  0.70015907897E+03 0.  0.
        4    1    3    3  502    0 -0.23027825355E+03 -0.24597047211E+03  0.86455499178E+02  0.34785875503E+03  0.12699999809E+01 0.  1.
       -4    1    3    3    0  502  0.23027825355E+03  0.24597047211E+03 -0.10359641618E+03  0.35251010986E+03  0.12699999809E+01 0. -1.
</event>
<event>
 5   0  0.6990118E-03  0.6987162E+03  0.7818609E-02  0.9719430E-01
       -1   -1    0    0    0  501  0.00000000000E+00  0.00000000000E+00  0.72956084017E+03  0.72956084018E+03  0.50400001928E-02 0.  1.
        1   -1    0    0  501    0  0.00000000000E+00  0.00000000000E+00 -0.16729389442E+03  0.16729389450E+03  0.50400001928E-02 0. -1.
    10030    2    1    2    0    0  0.00000000000E+00  0.00000000000E+00  0.56226694574E+03  0.89685473468E+03  0.69871617761E+03 0.  0.
        5    1    3    3  502    0  0.33197992791E+03 -0.56701876609E+02  0.16207740358E+03  0.37378730595E+03  0.46999998093E+01 0.  1.
       -5    1    3    3    0  502 -0.33197992791E+03  0.56701876609E+02  0.40018954216E+03  0.52306742873E+03  0.46999998093E+01 0. -1.
</event>
<event>
 5   0  0.6246998E-03  0.6984234E+03  0.7818609E-02  0.9719932E-01
       -1   -1    0    0    0  501  0.00000000000E+00  0.00000000000E+00  0.35232500873E+03  0.35232500876E+03  0.50400001928E-02 0. -1.
        1   -1    0    0  501    0  0.00000000000E+00  0.00000000000E+00 -0.34612587971E+03  0.34612587975E+03  0.50400001928E-02 0.  1.
    10030    2    1    2    0    0  0.00000000000E+00  0.00000000000E+00  0.61991290116E+01  0.69845088851E+03  0.69842337766E+03 0.  0.
        4    1    3    3  502    0  0.12431010573E+01  0.25485585558E+03 -0.23564429065E+03  0.34710646355E+03  0.12699999809E+01 0.  1.
       -4    1    3    3    0  502 -0.12431010573E+01 -0.25485585558E+03  0.24184341966E+03  0.35134442497E+03  0.12699999809E+01 0. -1.
</event>
<event>
 5   0  0.6609285E-03  0.6982413E+03  0.7818609E-02  0.9720245E-01
       -1   -1    0    0    0  501  0.00000000000E+00  0.00000000000E+00  0.42737626854E+03  0.42737626857E+03  0.50400001928E-02 0. -1.
        1   -1    0    0  501    0  0.00000000000E+00  0.00000000000E+00 -0.28519416124E+03  0.28519416128E+03  0.50400001928E-02 0.  1.
    10030    2    1    2    0    0  0.00000000000E+00  0.00000000000E+00  0.14218210731E+03  0.71257042986E+03  0.69824126623E+03 0.  0.
        2    1    3    3  502    0  0.26596756987E+03 -0.41110130361E+02  0.29804286104E+03  0.40156984207E+03  0.25500000920E-02 0. -1.
       -2    1    3    3    0  502 -0.26596756987E+03  0.41110130361E+02 -0.15586075373E+03  0.31100058778E+03  0.25500000920E-02 0.  1.
</event>
<event>
 5   0  0.1099980E-02  0.7019221E+03  0.7818609E-02  0.9713951E-01
        2   -1    0    0  501    0  0.00000000000E+00  0.00000000000E+00  0.16376385387E+03  0.16376385389E+03  0.25500000920E-02 0.  1.
       -2   -1    0    0    0  501  0.00000000000E+00  0.00000000000E+00 -0.75214195537E+03  0.75214195537E+03  0.25500000920E-02 0. -1.
    10030    2    1    2    0    0  0.00000000000E+00  0.00000000000E+00 -0.58837810150E+03  0.91590580927E+03  0.70192211899E+03 0.  0.
        5    1    3    3  502    0 -0.23458048551E+03  0.36930638197E+02  0.42957771509E+02  0.24136970885E+03  0.46999998093E+01 0.  1.
       -5    1    3    3    0  502  0.23458048551E+03 -0.36930638197E+02 -0.63133587301E+03  0.67453610042E+03  0.46999998093E+01 0. -1.
</event>
<event>
 5   0  0.1100119E-02  0.7000419E+03  0.7818609E-02  0.9717161E-01
        2   -1    0    0  501    0  0.00000000000E+00  0.00000000000E+00  0.15445686406E+03  0.15445686408E+03  0.25500000920E-02 0.  1.
       -2   -1    0    0    0  501  0.00000000000E+00  0.00000000000E+00 -0.79319656196E+03  0.79319656196E+03  0.25500000920E-02 0. -1.
    10030    2    1    2    0    0  0.00000000000E+00  0.00000000000E+00 -0.63873969790E+03  0.94765342605E+03  0.70004186605E+03 0.  0.
        4    1    3    3  502    0 -0.26242785158E+03 -0.10624162679E+03 -0.40764103439E+02  0.28604018175E+03  0.12699999809E+01 0.  1.
       -4    1    3    3    0  502  0.26242785158E+03  0.10624162679E+03 -0.59797559446E+03  0.66161324429E+03  0.12699999809E+01 0. -1.
</event>
<event>
 5   0  0.6785252E-03  0.6829334E+03  0.7818609E-02  0.9746872E-01
       -1   -1    0    0    0  501  0.00000000000E+00  0.00000000000E+00  0.28312386570E+03  0.28312386575E+03  0.50400001928E-02 0. -1.
        1   -1    0    0  501    0  0.00000000000E+00  0.00000000000E+00 -0.41183214289E+03  0.41183214292E+03  0.50400001928E-02 0.  1.
    10030    2    1    2    0    0  0.00000000000E+00  0.00000000000E+00 -0.12870827718E+03  0.69495600867E+03  0.68293340332E+03 0.  0.
        3    1    3    3  502    0 -0.33622963363E+03  0.44529819690E+02 -0.10462642443E+03  0.35493657216E+03  0.10100000352E+00 0. -1.
       -3    1    3    3    0  502  0.33622963363E+03 -0.44529819690E+02 -0.24081852759E+02  0.34001943651E+03  0.10100000352E+00 0.  1.
</event>
<event>
 5   0  0.4440500E-03  0.7008627E+03  0.7818609E-02  0.9715758E-01
        4   -1    0    0  501    0  0.00000000000E+00  0.00000000000E+00  0.10234157633E+04  0.10234165513E+04  0.12699999809E+01 0.  1.
       -4   -1    0    0    0  501  0.00000000000E+00  0.00000000000E+00 -0.11998822442E+03  0.11999494531E+03  0.12699999809E+01 0. -1.
    10030    2    1    2    0    0  0.00000000000E+00  0.00000000000E+00  0.90342753892E+03  0.11434114966E+04  0.70086270594E+03 0.  0.
        3    1    3    3  502    0  0.94020735232E+02  0.28659953642E+03  0.74274506016E+03  0.80165418201E+03  0.10100000352E+00 0.  1.
       -3    1    3    3    0  502 -0.94020735232E+02 -0.28659953642E+03  0.16068247876E+03  0.34175731464E+03  0.10100000352E+00 0. -1.
</event>
<event>
 5   0  0.1100119E-02  0.7064694E+03  0.7818609E-02  0.9706232E-01
       -2   -1    0    0    0  501  0.00000000000E+00  0.00000000000E+00  0.22199964430E+03  0.22199964431E+03  0.25500000920E-02 0.  1.
        2   -1    0    0  501    0  0.00000000000E+00  0.00000000000E+00 -0.56204933673E+03  0.56204933674E+03  0.25500000920E-02 0. -1.
    10030    2    1    2    0    0  0.00000000000E+00  0.00000000000E+00 -0.34004969243E+03  0.78404898105E+03  0.70646939874E+03 0.  0.
        4    1    3    3  502    0  0.15130405706E+03 -0.23989216578E+03  0.63648060267E+02  0.29067827122E+03  0.12699999809E+01 0.  1.
       -4    1    3    3    0  502 -0.15130405706E+03  0.23989216578E+03 -0.40369775270E+03  0.49337070983E+03  0.12699999809E+01 0. -1.
</event>
<event>
 5   0  0.6246998E-03  0.6975867E+03  0.7818609E-02  0.9721368E-01
        1   -1    0    0  501    0  0.00000000000E+00  0.00000000000E+00  0.25418152649E+03  0.25418152654E+03  0.50400001928E-02 0. -1.
       -1   -1    0    0    0  501  0.00000000000E+00  0.00000000000E+00 -0.47862171427E+03  0.47862171430E+03  0.50400001928E-02 0.  1.
    10030    2    1    2    0    0  0.00000000000E+00  0.00000000000E+00 -0.22444018778E+03  0.73280324083E+03  0.69758669130E+03 0.  0.
        4    1    3    3  502    0 -0.10374986125E+03  0.60723989373E+02  0.23172900854E+03  0.26105819829E+03  0.12699999809E+01 0. -1.
       -4    1    3    3    0  502  0.10374986125E+03 -0.60723989373E+02 -0.45616919632E+03  0.47174504255E+03  0.12699999809E+01 0.  1.
</event>
<event>
 5   0  0.1100119E-02  0.7016985E+03  0.7818609E-02  0.9714332E-01
       -2   -1    0    0    0  501  0.00000000000E+00  0.00000000000E+00  0.17000320668E+03  0.17000320670E+03  0.25500000920E-02 0.  1.
        2   -1    0    0  501    0  0.00000000000E+00  0.00000000000E+00 -0.72407568412E+03  0.72407568412E+03  0.25500000920E-02 0. -1.
    10030    2    1    2    0    0  0.00000000000E+00  0.00000000000E+00 -0.55407247744E+03  0.89407889082E+03  0.70169847709E+03 0.  0.
        4    1    3    3  502    0  0.23913556244E+03 -0.19979476959E+01 -0.60413614865E+03  0.64974757254E+03  0.12699999809E+01 0. -1.
       -4    1    3    3    0  502 -0.23913556244E+03  0.19979476959E+01  0.50063671205E+02  0.24433131828E+03  0.12699999809E+01 0.  1.
</event>
<event>
 5   0  0.6246998E-03  0.7154827E+03  0.7818609E-02  0.9691115E-01
        1   -1    0    0  501    0  0.00000000000E+00  0.00000000000E+00  0.17875862446E+04  0.17875862446E+04  0.50400001928E-02 0. -1.
       -1   -1    0    0    0  501  0.00000000000E+00  0.00000000000E+00 -0.71593127580E+02  0.71593127758E+02  0.50400001928E-02 0.  1.
    10030    2    1    2    0    0  0.00000000000E+00  0.00000000000E+00  0.17159931170E+04  0.18591793723E+04  0.71548274679E+03 0.  0.
        4    1    3    3  502    0 -0.29365979179E+03  0.11546999188E+03  0.42002936813E+03  0.52535290551E+03  0.12699999809E+01 0.  1.
       -4    1    3    3    0  502  0.29365979179E+03 -0.11546999188E+03  0.12959637489E+04  0.13338264668E+04  0.12699999809E+01 0. -1.
</event>
<event>
 5   0  0.6689415E-03  0.7073423E+03  0.7818609E-02  0.9704758E-01
       -1   -1    0    0    0  501  0.00000000000E+00  0.00000000000E+00  0.26222335818E+03  0.26222335823E+03  0.50400001928E-02 0. -1.
        1   -1    0    0  501    0  0.00000000000E+00  0.00000000000E+00 -0.47701051001E+03  0.47701051004E+03  0.50400001928E-02 0.  1.
    10030    2    1    2    0    0  0.00000000000E+00  0.00000000000E+00 -0.21478715183E+03  0.73923386827E+03  0.70734234385E+03 0.  0.
        1    1    3    3  502    0 -0.30418703894E+03  0.59134074894E+02 -0.28553928909E+03  0.42137783415E+03  0.50400001928E-02 0.  1.
       -1    1    3    3    0  502  0.30418703894E+03 -0.59134074894E+02  0.70752137261E+02  0.31785603412E+03  0.50400001928E-02 0. -1.
</event>
<event>
 5   0  0.1119786E-02  0.7246167E+03  0.7818609E-02  0.9676036E-01
        2   -1    0    0  501    0  0.00000000000E+00  0.00000000000E+00  0.16209370402E+04  0.16209370402E+04  0.25500000920E-02 0. -1.
       -2   -1    0    0    0  501  0.00000000000E+00  0.00000000000E+00 -0.80982389393E+02  0.80982389433E+02  0.25500000920E-02 0.  1.
    10030    2    1    2    0    0  0.00000000000E+00  0.00000000000E+00  0.15399546508E+04  0.17019194296E+04  0.72461673899E+03 0.  0.
        3    1    3    3  502    0 -0.95338157399E+02  0.19100083038E+03  0.14575404705E+04  0.14730902602E+04  0.10100000352E+00 0. -1.
       -3    1    3    3    0  502  0.95338157399E+02 -0.19100083038E+03  0.82414180356E+02  0.22882916944E+03  0.10100000352E+00 0.  1.
</event>
<event>
 5   0  0.6990118E-03  0.7007100E+03  0.7818609E-02  0.9716019E-01
        1   -1    0    0  501    0  0.00000000000E+00  0.00000000000E+00  0.12472867654E+04  0.12472867654E+04  0.50400001928E-02 0. -1.
       -1   -1    0    0    0  501  0.00000000000E+00  0.00000000000E+00 -0.98412524557E+02  0.98412524686E+02  0.50400001928E-02 0.  1.
    10030    2    1    2    0    0  0.00000000000E+00  0.00000000000E+00  0.11488742409E+04  0.13456992901E+04  0.70071003854E+03 0.  0.
        5    1    3    3  502    0 -0.22159568957E+03  0.27093831470E+03  0.60255293555E+03  0.69685317689E+03  0.46999998093E+01 0.  1.
       -5    1    3    3    0  502  0.22159568957E+03 -0.27093831470E+03  0.54632130532E+03  0.64884611323E+03  0.46999998093E+01 0. -1.
</event>
<event>
 5   0  0.1119786E-02  0.6982626E+03  0.7818609E-02  0.9720208E-01
        2   -1    0    0  501    0  0.00000000000E+00  0.00000000000E+00  0.23835337704E+04  0.23835337704E+04  0.25500000920E-02 0. -1.
       -2   -1    0    0    0  501  0.00000000000E+00  0.00000000000E+00 -0.51139480245E+02  0.51139480308E+02  0.25500000920E-02 0.  1.
    10030    2    1    2    0    0  0.00000000000E+00  0.00000000000E+00  0.23323942902E+04  0.24346732507E+04  0.69826263897E+03 0.  0.
        3    1    3    3  502    0  0.23377254735E+03 -0.14824264447E+03  0.42435139853E+03  0.50665531199E+03  0.10100000352E+00 0.  1.
       -3    1    3    3    0  502 -0.23377254735E+03  0.14824264447E+03  0.19080428917E+04  0.19280179387E+04  0.10100000352E+00 0. -1.
</event>
<event>
 5   0  0.1100119E-02  0.6969039E+03  0.7818609E-02  0.9722542E-01
        2   -1    0    0  501    0  0.00000000000E+00  0.00000000000E+00  0.26229637347E+03  0.26229637349E+03  0.25500000920E-02 0. -1.
       -2   -1    0    0    0  501  0.00000000000E+00  0.00000000000E+00 -0.46290671383E+03  0.46290671384E+03  0.25500000920E-02 0.  1.
    10030    2    1    2    0    0  0.00000000000E+00  0.00000000000E+00 -0.20061034036E+03  0.72520308733E+03  0.69690387372E+03 0.  0.
        4    1    3    3  502    0  0.32993537608E+02 -0.42459731317E+02 -0.45856086130E+03  0.46170453617E+03  0.12699999809E+01 0.  1.
       -4    1    3    3    0  502 -0.32993537608E+02  0.42459731317E+02  0.25795052094E+03  0.26349855115E+03  0.12699999809E+01 0. -1.
</event>
<event>
 5   0  0.1119786E-02  0.6996925E+03  0.7818609E-02  0.9717758E-01
       -2   -1    0    0    0  501  0.00000000000E+00  0.00000000000E+00  0.13891393244E+04  0.13891393244E+04  0.25500000920E-02 0. -1.
        2   -1    0    0  501    0  0.00000000000E+00  0.00000000000E+00 -0.88106634928E+02  0.88106634965E+02  0.25500000920E-02 0.  1.
    10030    2    1    2    0    0  0.00000000000E+00  0.00000000000E+00  0.13010326895E+04  0.14772459594E+04  0.69969247916E+03 0.  0.
        3    1    3    3  502    0  0.23912705191E+03  0.23567782540E+03  0.44293782661E+03  0.55580546307E+03  0.10100000352E+00 0.  1.
       -3    1    3    3    0  502 -0.23912705191E+03 -0.23567782540E+03  0.85809486285E+03  0.92144049629E+03  0.10100000352E+00 0. -1.
</event>
<event>
 5   0  0.1109788E-02  0.7000897E+03  0.7818609E-02  0.9717079E-01
       -2   -1    0    0    0  501  0.00000000000E+00  0.00000000000E+00  0.39228854093E+03  0.39228854094E+03  0.25500000920E-02 0. -1.
        2   -1    0    0  501    0  0.00000000000E+00  0.00000000000E+00 -0.31235015209E+03  0.31235015210E+03  0.25500000920E-02 0.  1.
    10030    2    1    2    0    0  0.00000000000E+00  0.00000000000E+00  0.79938388839E+02  0.70463869303E+03  0.70008966691E+03 0.  0.
        1    1    3    3  502    0 -0.28967358163E+03  0.17606104828E+03 -0.47908545405E+02  0.34234997497E+03  0.50400001928E-02 0.  1.
       -1    1    3    3    0  502  0.28967358163E+03 -0.17606104828E+03  0.12784693424E+03  0.36228871806E+03  0.50400001928E-02 0. -1.
</event>
<event>
 5   0  0.4440500E-03  0.6997468E+03  0.7818609E-02  0.9717665E-01
        4   -1    0    0  501    0  0.00000000000E+00  0.00000000000E+00  0.14490572298E+03  0.14491128821E+03  0.12699999809E+01 0. -1.
       -4   -1    0    0    0  501  0.00000000000E+00  0.00000000000E+00 -0.84474354863E+03  0.84474450330E+03  0.12699999809E+01 0.  1.
    10030    2    1    2    0    0  0.00000000000E+00  0.00000000000E+00 -0.69983782565E+03  0.98965579151E+03  0.69974681383E+03 0.  0.
        3    1    3    3  502    0  0.33951307475E+03 -0.71395365221E+02 -0.41387562564E+03  0.54005506182E+03  0.10100000352E+00 0. -1.
       -3    1    3    3    0  502 -0.33951307475E+03  0.71395365221E+02 -0.28596220001E+03  0.44960072969E+03  0.10100000352E+00 0.  1.
</event>
<event>
 5   0  0.6246998E-03  0.7055868E+03  0.7818609E-02  0.9707725E-01
       -1   -1    0    0    0  501  0.00000000000E+00  0.00000000000E+00  0.43413048202E+03  0.43413048205E+03  0.50400001928E-02 0. -1.
        1   -1    0    0  501    0  0.00000000000E+00  0.00000000000E+00 -0.28669534060E+03  0.28669534065E+03  0.50400001928E-02 0.  1.
    10030    2    1    2    0    0  0.00000000000E+00  0.00000000000E+00  0.14743514141E+03  0.72082582269E+03  0.70558680949E+03 0.  0.
        4    1    3    3  502    0  0.19244876048E+03  0.10723996173E+03  0.35521293682E+03  0.41798896898E+03  0.12699999809E+01 0. -1.
       -4    1    3    3    0  502 -0.19244876048E+03 -0.10723996173E+03 -0.20777779541E+03  0.30283685371E+03  0.12699999809E+01 0.  1.
</event>
<event>
 5   0  0.1099980E-02  0.6972178E+03  0.7818609E-02  0.9722002E-01
        2   -1    0    0  501    0  0.00000000000E+00  0.00000000000E+00  0.32073500378E+03  0.32073500379E+03  0.25500000920E-02 0. -1.
       -2   -1    0    0    0  501  0.00000000000E+00  0.00000000000E+00 -0.37890518058E+03  0.37890518059E+03  0.25500000920E-02 0.  1.
    10030    2    1    2    0    0  0.00000000000E+00  0.00000000000E+00 -0.58170176806E+02  0.69964018438E+03  0.69721776952E+03 0.  0.
        5    1    3    3  502    0  0.11647208706E+03  0.24249111689E+03 -0.25152703998E+03  0.36831458113E+03  0.46999998093E+01 0.  1.
       -5    1    3    3    0  502 -0.11647208706E+03 -0.24249111689E+03  0.19335686317E+03  0.33132560325E+03  0.46999998093E+01 0. -1.
</event>
<event>
 5   0  0.6689415E-03  0.6981231E+03  0.7818609E-02  0.9720447E-01
        1   -1    0    0  501    0  0.00000000000E+00  0.00000000000E+00  0.24884984083E+03  0.24884984088E+03  0.50400001928E-02 0. -1.
       -1   -1    0    0    0  501  0.00000000000E+00  0.00000000000E+00 -0.48962843902E+03  0.48962843905E+03  0.50400001928E-02 0.  1.
    10030    2    1    2    0    0  0.00000000000E+00  0.00000000000E+00 -0.24077859819E+03  0.73847827993E+03  0.69812308125E+03 0.  0.
        1    1    3    3  502    0  0.14231866576E+03  0.17173904505E+03  0.16363694710E+03  0.27663324583E+03  0.50400001928E-02 0. -1.
       -1    1    3    3    0  502 -0.14231866576E+03 -0.17173904505E+03 -0.40441554529E+03  0.46184503409E+03  0.50400001928E-02 0.  1.
</event>
<event>
 5   0  0.4440500E-03  0.6951295E+03  0.7818609E-02  0.9725598E-01
        3   -1    0    0  501    0  0.00000000000E+00  0.00000000000E+00  0.82664814787E+03  0.82664815404E+03  0.10100000352E+00 0.  1.
       -3   -1    0    0    0  501  0.00000000000E+00  0.00000000000E+00 -0.14613380376E+03  0.14613383866E+03  0.10100000352E+00 0. -1.
    10030    2    1    2    0    0  0.00000000000E+00  0.00000000000E+00  0.68051434411E+03  0.97278199270E+03  0.69512950793E+03 0.  0.
        3    1    3    3  502    0 -0.31946853431E+03  0.87056736435E+01  0.14906616619E+03  0.35264240424E+03  0.10100000352E+00 0. -1.
       -3    1    3    3    0  502  0.31946853431E+03 -0.87056736435E+01  0.53144817791E+03  0.62013958846E+03  0.10100000352E+00 0.  1.
</event>
<event>
 5   0  0.6246998E-03  0.7007534E+03  0.7818609E-02  0.9715945E-01
       -1   -1    0    0    0  501  0.00000000000E+00  0.00000000000E+00  0.15188929431E+04  0.15188929432E+04  0.50400001928E-02 0. -1.
        1   -1    0    0  501    0  0.00000000000E+00  0.00000000000E+00 -0.80824549163E+02  0.80824549320E+02  0.50400001928E-02 0.  1.
    10030    2    1    2    0    0  0.00000000000E+00  0.00000000000E+00  0.14380683940E+04  0.15997174925E+04  0.70075341594E+03 0.  0.
        4    1    3    3  502    0  0.24495609162E+03  0.22630496155E+03  0.96431938165E+03  0.10203582239E+04  0.12699999809E+01 0. -1.
       -4    1    3    3    0  502 -0.24495609162E+03 -0.22630496155E+03  0.47374901233E+03  0.57935926853E+03  0.12699999809E+01 0.  1.
</event>
<event>
 5   0  0.6990118E-03  0.6992337E+03  0.7818609E-02  0.9718544E-01
       -1   -1    0    0    0  501  0.00000000000E+00  0.00000000000E+00  0.28773953776E+03  0.28773953781E+03  0.50400001928E-02 0.  1.
        1   -1    0    0  501    0  0.00000000000E+00  0.00000000000E+00 -0.42480059878E+03  0.42480059881E+03  0.50400001928E-02 0. -1.
    10030    2    1    2    0    0  0.00000000000E+00  0.00000000000E+00 -0.13706106102E+03  0.71254013662E+03  0.69923366041E+03 0.  0.
        5    1    3    3  502    0 -0.51596205756E+02 -0.34408250089E+03 -0.10316109655E+03  0.36293145043E+03  0.46999998093E+01 0.  1.
       -5    1    3    3    0  502  0.51596205756E+02  0.34408250089E+03 -0.33899964463E+02  0.34960868619E+03  0.46999998093E+01 0. -1.
</event>
<event>
 5   0  0.1100119E-02  0.7003387E+03  0.7818609E-02  0.9716653E-01
        2   -1    0    0  501    0  0.00000000000E+00  0.00000000000E+00  0.10005556410E+04  0.10005556410E+04  0.25500000920E-02 0. -1.
       -2   -1    0    0    0  501  0.00000000000E+00  0.00000000000E+00 -0.12255048451E+03  0.12255048453E+03  0.25500000920E-02 0.  1.
    10030    2    1    2    0    0  0.00000000000E+00  0.00000000000E+00  0.87800515653E+03  0.11231061256E+04  0.70033871405E+03 0.  0.
        4    1    3    3  502    0 -0.31129555089E+03 -0.13495251735E+03  0.30012269316E+03  0.45298161750E+03  0.12699999809E+01 0.  1.
       -4    1    3    3    0  502  0.31129555089E+03  0.13495251735E+03  0.57788246337E+03  0.67012450807E+03  0.12699999809E+01 0. -1.
</event>
<event>
 5   0  0.6689415E-03  0.6984988E+03  0.7818609E-02  0.9719803E-01
        1   -1    0    0  501    0  0.00000000000E+00  0.00000000000E+00  0.47528701652E+03  0.47528701655E+03  0.50400001928E-02 0. -1.
       -1   -1    0    0    0  501  0.00000000000E+00  0.00000000000E+00 -0.25663469083E+03  0.25663469088E+03  0.50400001928E-02 0.  1.
    10030    2    1    2    0    0  0.00000000000E+00  0.00000000000E+00  0.21865232569E+03  0.73192170743E+03  0.69849878044E+03 0.  0.
        1    1    3    3  502    0  0.22051227635E+03  0.18721375258E+03  0.31439567725E+03  0.42722276984E+03  0.50400001928E-02 0. -1.
       -1    1    3    3    0  502 -0.22051227635E+03 -0.18721375258E+03 -0.95743351563E+02  0.30469893759E+03  0.50400001928E-02 0.  1.
</event>
<event>
 5   0  0.1079446E-02  0.7005847E+03  0.7818609E-02  0.9716233E-01
       -2   -1    0    0    0  501  0.00000000000E+00  0.00000000000E+00  0.11815039575E+03  0.11815039578E+03  0.25500000920E-02 0. -1.
        2   -1    0    0  501    0  0.00000000000E+00  0.00000000000E+00 -0.10385468739E+04  0.10385468739E+04  0.25500000920E-02 0.  1.
    10030    2    1    2    0    0  0.00000000000E+00  0.00000000000E+00 -0.92039647811E+03  0.11566972696E+04  0.70058468202E+03 0.  0.
        2    1    3    3  502    0  0.30792614710E+03 -0.90764351775E+02 -0.69162775128E+03  0.76249959080E+03  0.25500000920E-02 0. -1.
       -2    1    3    3    0  502 -0.30792614710E+03  0.90764351775E+02 -0.22876872682E+03  0.39419767884E+03  0.25500000920E-02 0.  1.
</event>
<event>
 5   0  0.1099980E-02  0.6914310E+03  0.7818609E-02  0.9731999E-01
       -2   -1    0    0    0  501  0.00000000000E+00  0.00000000000E+00  0.11499396488E+03  0.11499396490E+03  0.25500000920E-02 0. -1.
        2   -1    0    0  501    0  0.00000000000E+00  0.00000000000E+00 -0.10393521124E+04  0.10393521125E+04  0.25500000920E-02 0.  1.
    10030    2    1    2    0    0  0.00000000000E+00  0.00000000000E+00 -0.92435814757E+03  0.11543460774E+04  0.69143103873E+03 0.  0.
        5    1    3    3  502    0  0.30834398536E+03  0.56071365527E+02 -0.21865406296E+03  0.38216711081E+03  0.46999998093E+01 0. -1.
       -5    1    3    3    0  502 -0.30834398536E+03 -0.56071365527E+02 -0.70570408462E+03  0.77217896655E+03  0.46999998093E+01 0.  1.
</event>
<event>
 5   0  0.6785252E-03  0.7075116E+03  0.7818609E-02  0.9704472E-01
       -1   -1    0    0    0  501  0.00000000000E+00  0.00000000000E+00  0.31168431921E+03  0.31168431925E+03  0.50400001928E-02 0. -1.
        1   -1    0    0  501    0  0.00000000000E+00  0.00000000000E+00 -0.40150610267E+03  0.40150610270E+03  0.50400001928E-02 0.  1.
    10030    2    1    2    0    0  0.00000000000E+00  0.00000000000E+00 -0.89821783465E+02  0.71319042195E+03  0.70751157247E+03 0.  0.
        3    1    3    3  502    0 -0.25361256812E+03  0.11392824587E+03  0.17557786533E+03  0.32882605875E+03  0.10100000352E+00 0. -1.
       -3    1    3    3    0  502  0.25361256812E+03 -0.11392824587E+03 -0.26539964879E+03  0.38436436320E+03  0.10100000352E+00 0.  1.
</event>
<event>
 5   0  0.4440500E-03  0.6995701E+03  0.7818609E-02  0.9717968E-01
       -3   -1    0    0    0  501  0.00000000000E+00  0.00000000000E+00  0.38769109644E+03  0.38769110960E+03  0.10100000352E+00 0. -1.
        3   -1    0    0  501    0  0.00000000000E+00  0.00000000000E+00 -0.31558518282E+03  0.31558519898E+03  0.10100000352E+00 0.  1.
    10030    2    1    2    0    0  0.00000000000E+00  0.00000000000E+00  0.72105913625E+02  0.70327630858E+03  0.69957008471E+03 0.  0.
        2    1    3    3  502    0 -0.27926632858E+03  0.77857518690E+02  0.23278874708E+03  0.37180919336E+03  0.25500000920E-02 0. -1.
       -2    1    3    3    0  502  0.27926632858E+03 -0.77857518690E+02 -0.16068283345E+03  0.33146711522E+03  0.25500000920E-02 0.  1.
</event>
<event>
 5   0  0.6785252E-03  0.6994047E+03  0.7818609E-02  0.9718251E-01
       -1   -1    0    0    0  501  0.00000000000E+00  0.00000000000E+00  0.16502277704E+03  0.16502277712E+03  0.50400001928E-02 0. -1.
        1   -1    0    0  501    0  0.00000000000E+00  0.00000000000E+00 -0.74105963892E+03  0.74105963894E+03  0.50400001928E-02 0.  1.
    10030    2    1    2    0    0  0.00000000000E+00  0.00000000000E+00 -0.57603686189E+03  0.90608241606E+03  0.69940466001E+03 0.  0.
        3    1    3    3  502    0  0.22810261713E+01  0.34828452104E+03 -0.24737178597E+03  0.42720032932E+03  0.10100000352E+00 0. -1.
       -3    1    3    3    0  502 -0.22810261713E+01 -0.34828452104E+03 -0.32866507591E+03  0.47888208674E+03  0.10100000352E+00 0.  1.
</event>
<event>
 5   0  0.1079446E-02  0.6971098E+03  0.7818609E-02  0.9722188E-01
       -2   -1    0    0    0  501  0.00000000000E+00  0.00000000000E+00  0.18219345716E+03  0.18219345718E+03  0.25500000920E-02 0. -1.
        2   -1    0    0  501    0  0.00000000000E+00  0.00000000000E+00 -0.66682149498E+03  0.66682149499E+03  0.25500000920E-02 0.  1.
    10030    2    1    2    0    0  0.00000000000E+00  0.00000000000E+00 -0.48462803783E+03  0.84901495216E+03  0.69710978615E+03 0.  0.
        2    1    3    3  502    0  0.31104678834E+03  0.29240387988E+01 -0.43384654640E+03  0.53383656709E+03  0.25500000920E-02 0.  1.
       -2    1    3    3    0  502 -0.31104678834E+03 -0.29240387988E+01 -0.50781491427E+02  0.31517838507E+03  0.25500000920E-02 0. -1.
</event>
<event>
 5   0  0.6246998E-03  0.7004375E+03  0.7818609E-02  0.9716484E-01
       -1   -1    0    0    0  501  0.00000000000E+00  0.00000000000E+00  0.35996263753E+03  0.35996263756E+03  0.50400001928E-02 0.  1.
        1   -1    0    0  501    0  0.00000000000E+00  0.00000000000E+00 -0.34073860339E+03  0.34073860343E+03  0.50400001928E-02 0. -1.
    10030    2    1    2    0    0  0.00000000000E+00  0.00000000000E+00  0.19224034137E+02  0.70070124099E+03  0.70043748160E+03 0.  0.
        4    1    3    3  502    0  0.18373846093E+03 -0.11907790008E+03  0.28305024336E+03  0.35785251358E+03  0.12699999809E+01 0.  1.
       -4    1    3    3    0  502 -0.18373846093E+03  0.11907790008E+03 -0.26382620922E+03  0.34284872741E+03  0.12699999809E+01 0. -1.
</event>
<event>
 5   0  0.1119786E-02  0.6944567E+03  0.7818609E-02  0.9726759E-01
       -2   -1    0    0    0  501  0.00000000000E+00  0.00000000000E+00  0.36483896775E+03  0.36483896776E+03  0.25500000920E-02 0.  1.
        2   -1    0    0  501    0  0.00000000000E+00  0.00000000000E+00 -0.33046780329E+03  0.33046780330E+03  0.25500000920E-02 0. -1.
    10030    2    1    2    0    0  0.00000000000E+00  0.00000000000E+00  0.34371164457E+02  0.69530677106E+03  0.69445671495E+03 0.  0.
        3    1    3    3  502    0  0.18791483401E+03  0.27902474392E+03 -0.68947213061E+02  0.34339557503E+03  0.10100000352E+00 0. -1.
       -3    1    3    3    0  502 -0.18791483401E+03 -0.27902474392E+03  0.10331837752E+03  0.35191119603E+03  0.10100000352E+00 0.  1.
</event>
<event>
 5   0  0.1099980E-02  0.7001255E+03  0.7818609E-02  0.9717018E-01
        2   -1    0    0  501    0  0.00000000000E+00  0.00000000000E+00  0.92835424487E+03  0.92835424487E+03  0.25500000920E-02 0. -1.
       -2   -1    0    0    0  501  0.00000000000E+00  0.00000000000E+00 -0.13200125754E+03  0.13200125756E+03  0.25500000920E-02 0.  1.
    10030    2    1    2    0    0  0.00000000000E+00  0.00000000000E+00  0.79635298733E+03  0.10603555024E+04  0.70012549668E+03 0.  0.
        5    1    3    3  502    0  0.25614843593E+03  0.98129511854E+02  0.68857907198E+02  0.28285141631E+03  0.46999998093E+01 0.  1.
       -5    1    3    3    0  502 -0.25614843593E+03 -0.98129511854E+02  0.72749508013E+03  0.77750408613E+03  0.46999998093E+01 0. -1.
</event>
<event>
 5   0  0.1100119E-02  0.7071965E+03  0.7818609E-02  0.9705004E-01
       -2   -1    0    0    0  501  0.00000000000E+00  0.00000000000E+00  0.20438709286E+03  0.20438709288E+03  0.25500000920E-02 0. -1.
        2   -1    0    0  501    0  0.00000000000E+00  0.00000000000E+00 -0.61173974458E+03  0.61173974458E+03  0.25500000920E-02 0.  1.
    10030    2    1    2    0    0  0.00000000000E+00  0.00000000000E+00 -0.40735265171E+03  0.81612683746E+03  0.70719645925E+03 0.  0.
        4    1    3    3  502    0  0.10051407301E+03 -0.19287187405E+03 -0.52541614234E+03  0.56865312292E+03  0.12699999809E+01 0.  1.
       -4    1    3    3    0  502 -0.10051407301E+03  0.19287187405E+03  0.11806349062E+03  0.24747371455E+03  0.12699999809E+01 0. -1.
</event>
<event>
 5   0  0.6246998E-03  0.7015517E+03  0.7818609E-02  0.9714582E-01
        1   -1    0    0  501    0  0.00000000000E+00  0.00000000000E+00  0.11173019951E+04  0.11173019952E+04  0.50400001928E-02 0. -1.
       -1   -1    0    0    0  501  0.00000000000E+00  0.00000000000E+00 -0.11012573734E+03  0.11012573746E+03  0.50400001928E-02 0.  1.
    10030    2    1    2    0    0  0.00000000000E+00  0.00000000000E+00  0.10071762578E+04  0.12274277326E+04  0.70155172618E+03 0.  0.
        4    1    3    3  502    0  0.46686734834E+02  0.13583381281E+03  0.10634886173E+04  0.10731449706E+04  0.12699999809E+01 0. -1.
       -4    1    3    3    0  502 -0.46686734834E+02 -0.13583381281E+03 -0.56312359517E+02  0.15428276198E+03  0.12699999809E+01 0.  1.
</event>
<event>
 5   0  0.1109788E-02  0.6998080E+03  0.7818609E-02  0.9717561E-01
        2   -1    0    0  501    0  0.00000000000E+00  0.00000000000E+00  0.83564561694E+03  0.83564561694E+03  0.25500000920E-02 0. -1.
       -2   -1    0    0    0  501  0.00000000000E+00  0.00000000000E+00 -0.14651282899E+03  0.14651282901E+03  0.25500000920E-02 0.  1.
    10030    2    1    2    0    0  0.00000000000E+00  0.00000000000E+00  0.68913278795E+03  0.98215844595E+03  0.69980798332E+03 0.  0.
        1    1    3    3  502    0 -0.25896187448E+03  0.15545487220E+03  0.59248954226E+03  0.66503483175E+03  0.50400001928E-02 0. -1.
       -1    1    3    3    0  502  0.25896187448E+03 -0.15545487220E+03  0.96643245692E+02  0.31712361420E+03  0.50400001928E-02 0.  1.
</event>
<event>
 5   0  0.6246998E-03  0.7043210E+03  0.7818609E-02  0.9709871E-01
       -1   -1    0    0    0  501  0.00000000000E+00  0.00000000000E+00  0.26286774804E+03  0.26286774809E+03  0.50400001928E-02 0. -1.
        1   -1    0    0  501    0  0.00000000000E+00  0.00000000000E+00 -0.47178481337E+03  0.47178481340E+03  0.50400001928E-02 0.  1.
    10030    2    1    2    0    0  0.00000000000E+00  0.00000000000E+00 -0.20891706533E+03  0.73465256148E+03  0.70432098216E+03 0.  0.
        4    1    3    3  502    0 -0.32390943159E+03  0.15830230319E+02  0.38739827676E+02  0.32660419962E+03  0.12699999809E+01 0. -1.
       -4    1    3    3    0  502  0.32390943159E+03 -0.15830230319E+02 -0.24765689301E+03  0.40804836186E+03  0.12699999809E+01 0.  1.
</event>
<event>
 5   0  0.1100119E-02  0.6974096E+03  0.7818609E-02  0.9721672E-01
       -2   -1    0    0    0  501  0.00000000000E+00  0.00000000000E+00  0.24630538307E+03  0.24630538308E+03  0.25500000920E-02 0.  1.
        2   -1    0    0  501    0  0.00000000000E+00  0.00000000000E+00 -0.49367597844E+03  0.49367597845E+03  0.25500000920E-02 0. -1.
    10030    2    1    2    0    0  0.00000000000E+00  0.00000000000E+00 -0.24737059537E+03  0.73998136153E+03  0.69740963856E+03 0.  0.
        4    1    3    3  502    0  0.91159310395E+02  0.25288313568E+03 -0.35935511573E+03  0.44877345319E+03  0.12699999809E+01 0. -1.
       -4    1    3    3    0  502 -0.91159310395E+02 -0.25288313568E+03  0.11198452036E+03  0.29120790834E+03  0.12699999809E+01 0.  1.
</event>
<event>
 5   0  0.6689415E-03  0.6981856E+03  0.7818609E-02  0.9720340E-01
       -1   -1    0    0    0  501  0.00000000000E+00  0.00000000000E+00  0.13440338084E+03  0.13440338093E+03  0.50400001928E-02 0. -1.
        1   -1    0    0  501    0  0.00000000000E+00  0.00000000000E+00 -0.90671654364E+03  0.90671654366E+03  0.50400001928E-02 0.  1.
    10030    2    1    2    0    0  0.00000000000E+00  0.00000000000E+00 -0.77231316280E+03  0.10411199246E+04  0.69818555982E+03 0.  0.
        1    1    3    3  502    0 -0.19716185450E+03  0.20479823604E+03 -0.84029302631E+02  0.29643892809E+03  0.50400001928E-02 0. -1.
       -1    1    3    3    0  502  0.19716185450E+03 -0.20479823604E+03 -0.68828386017E+03  0.74468099651E+03  0.50400001928E-02 0.  1.
</event>
<event>
 5   0  0.1099980E-02  0.6998115E+03  0.7818609E-02  0.9717555E-01
        2   -1    0    0  501    0  0.00000000000E+00  0.00000000000E+00  0.45021836134E+03  0.45021836135E+03  0.25500000920E-02 0. -1.
       -2   -1    0    0    0  501  0.00000000000E+00  0.00000000000E+00 -0.27194369197E+03  0.27194369198E+03  0.25500000920E-02 0.  1.
    10030    2    1    2    0    0  0.00000000000E+00  0.00000000000E+00  0.17827466937E+03  0.72216205333E+03  0.69981152715E+03 0.  0.
        5    1    3    3  502    0 -0.73016488474E+02  0.32997156150E+03 -0.43047119749E+01  0.33801369725E+03  0.46999998093E+01 0.  1.
       -5    1    3    3    0  502  0.73016488474E+02 -0.32997156150E+03  0.18257938135E+03  0.38414835608E+03  0.46999998093E+01 0. -1.
</event>
<event>
 5   0  0.1099980E-02  0.7000301E+03  0.7818609E-02  0.9717181E-01
        2   -1    0    0  501    0  0.00000000000E+00  0.00000000000E+00  0.74073451403E+03  0.74073451404E+03  0.25500000920E-02 0.  1.
       -2   -1    0    0    0  501  0.00000000000E+00  0.00000000000E+00 -0.16539059715E+03  0.16539059717E+03  0.25500000920E-02 0. -1.
    10030    2    1    2    0    0  0.00000000000E+00  0.00000000000E+00  0.57534391688E+03  0.90612511121E+03  0.70003006684E+03 0.  0.
        5    1    3    3  502    0 -0.33559135746E+03  0.84980363810E+02  0.35424551049E+03  0.49533341613E+03  0.46999998093E+01 0.  1.
       -5    1    3    3    0  502  0.33559135746E+03 -0.84980363810E+02  0.22109840639E+03  0.41079169508E+03  0.46999998093E+01 0. -1.
</event>
<event>
 5   0  0.1079446E-02  0.6991452E+03  0.7818609E-02  0.9718695E-01
       -2   -1    0    0    0  501  0.00000000000E+00  0.00000000000E+00  0.13540110058E+03  0.13540110060E+03  0.25500000920E-02 0.  1.
        2   -1    0    0  501    0  0.00000000000E+00  0.00000000000E+00 -0.90251119693E+03  0.90251119693E+03  0.25500000920E-02 0. -1.
    10030    2    1    2    0    0  0.00000000000E+00  0.00000000000E+00 -0.76711009635E+03  0.10379122975E+04  0.69914521914E+03 0.  0.
        2    1    3    3  502    0 -0.20688814059E+03  0.33916726821E+02  0.31714211561E+02  0.21203499309E+03  0.25500000920E-02 0.  1.
       -2    1    3    3    0  502  0.20688814059E+03 -0.33916726821E+02 -0.79882430791E+03  0.82587730444E+03  0.25500000920E-02 0. -1.
</event>
<event>
 5   0  0.1079446E-02  0.6995751E+03  0.7818609E-02  0.9717959E-01
        2   -1    0    0  501    0  0.00000000000E+00  0.00000000000E+00  0.15437588868E+04  0.15437588868E+04  0.25500000920E-02 0. -1.
       -2   -1    0    0    0  501  0.00000000000E+00  0.00000000000E+00 -0.79255476799E+02  0.79255476840E+02  0.25500000920E-02 0.  1.
    10030    2    1    2    0    0  0.00000000000E+00  0.00000000000E+00  0.14645034100E+04  0.16230143637E+04  0.69957514728E+03 0.  0.
        2    1    3    3  502    0  0.24287632246E+02  0.18098273936E+03  0.40103089895E+02  0.18695694385E+03  0.25500000920E-02 0.  1.
       -2    1    3    3    0  502 -0.24287632246E+02 -0.18098273936E+03  0.14244003201E+04  0.14360574198E+04  0.25500000920E-02 0. -1.
</event>
<event>
 5   0  0.1109788E-02  0.7003095E+03  0.7818609E-02  0.9716703E-01
       -2   -1    0    0    0  501  0.00000000000E+00  0.00000000000E+00  0.49530512211E+03  0.49530512211E+03  0.25500000920E-02 0. -1.
        2   -1    0    0  501    0  0.00000000000E+00  0.00000000000E+00 -0.24754106366E+03  0.24754106368E+03  0.25500000920E-02 0.  1.
    10030    2    1    2    0    0  0.00000000000E+00  0.00000000000E+00  0.24776405845E+03  0.74284618579E+03  0.70030952234E+03 0.  0.
        1    1    3    3  502    0  0.20755364808E+03  0.15358978620E+03  0.37476441158E+03  0.45510076189E+03  0.50400001928E-02 0. -1.
       -1    1    3    3    0  502 -0.20755364808E+03 -0.15358978620E+03 -0.12700035314E+03  0.28774542390E+03  0.50400001928E-02 0.  1.
</event>
<event>
 5   0  0.6785252E-03  0.7184702E+03  0.7818609E-02  0.9686157E-01
       -1   -1    0    0    0  501  0.00000000000E+00  0.00000000000E+00  0.15123952381E+03  0.15123952390E+03  0.50400001928E-02 0.  1.
        1   -1    0    0  501    0  0.00000000000E+00  0.00000000000E+00 -0.85328118812E+03  0.85328118813E+03  0.50400001928E-02 0. -1.
    10030    2    1    2    0    0  0.00000000000E+00  0.00000000000E+00 -0.70204166431E+03  0.10045207120E+04  0.71847015420E+03 0.  0.
        3    1    3    3  502    0 -0.60765594145E+02  0.85028975394E+02 -0.83155643679E+03  0.83809814571E+03  0.10100000352E+00 0. -1.
       -3    1    3    3    0  502  0.60765594145E+02 -0.85028975394E+02  0.12951477248E+03  0.16642256632E+03  0.10100000352E+00 0.  1.
</event>
<event>
 5   0  0.6785252E-03  0.7029863E+03  0.7818609E-02  0.9712139E-01
        1   -1    0    0  501    0  0.00000000000E+00  0.00000000000E+00  0.30924164428E+03  0.30924164432E+03  0.50400001928E-02 0.  1.
       -1   -1    0    0    0  501  0.00000000000E+00  0.00000000000E+00 -0.39951740978E+03  0.39951740982E+03  0.50400001928E-02 0. -1.
    10030    2    1    2    0    0  0.00000000000E+00  0.00000000000E+00 -0.90275765501E+02  0.70875905414E+03  0.70298626088E+03 0.  0.
        3    1    3    3  502    0 -0.21740004614E+02  0.12236059441E+03  0.28635177881E+03  0.31215716281E+03  0.10100000352E+00 0.  1.
       -3    1    3    3    0  502  0.21740004614E+02 -0.12236059441E+03 -0.37662754431E+03  0.39660189133E+03  0.10100000352E+00 0. -1.
</event>
<event>
 5   0  0.6990118E-03  0.7231789E+03  0.7818609E-02  0.9678394E-01
        1   -1    0    0  501    0  0.00000000000E+00  0.00000000000E+00  0.45047503533E+03  0.45047503536E+03  0.50400001928E-02 0. -1.
       -1   -1    0    0    0  501  0.00000000000E+00  0.00000000000E+00 -0.29024237150E+03  0.29024237154E+03  0.50400001928E-02 0.  1.
    10030    2    1    2    0    0  0.00000000000E+00  0.00000000000E+00  0.16023266383E+03  0.74071740690E+03  0.72317893382E+03 0.  0.
        5    1    3    3  502    0 -0.17977048750E+03 -0.28923269429E+03 -0.44286528389E+02  0.34344776345E+03  0.46999998093E+01 0.  1.
       -5    1    3    3    0  502  0.17977048750E+03  0.28923269429E+03  0.20451919222E+03  0.39726964345E+03  0.46999998093E+01 0. -1.
</event>
<event>
 5   0  0.1119786E-02  0.6983302E+03  0.7818609E-02  0.9720092E-01
       -2   -1    0    0    0  501  0.00000000000E+00  0.00000000000E+00  0.27081675577E+03  0.27081675578E+03  0.25500000920E-02 0. -1.
        2   -1    0    0  501    0  0.00000000000E+00  0.00000000000E+00 -0.45017991623E+03  0.45017991624E+03  0.25500000920E-02 0.  1.
    10030    2    1    2    0    0  0.00000000000E+00  0.00000000000E+00 -0.17936316046E+03  0.72099667203E+03  0.69833019249E+03 0.  0.
        3    1    3    3  502    0  0.23443578802E+03  0.12811312399E+03 -0.32179677069E+03  0.41824189541E+03  0.10100000352E+00 0.  1.
       -3    1    3    3    0  502 -0.23443578802E+03 -0.12811312399E+03  0.14243361023E+03  0.30275477662E+03  0.10100000352E+00 0. -1.
</event>
<event>
 5   0  0.6246998E-03  0.6975667E+03  0.7818609E-02  0.9721403E-01
        1   -1    0    0  501    0  0.00000000000E+00  0.00000000000E+00  0.43927494333E+03  0.43927494336E+03  0.50400001928E-02 0.  1.
       -1   -1    0    0    0  501  0.00000000000E+00  0.00000000000E+00 -0.27693318621E+03  0.27693318625E+03  0.50400001928E-02 0. -1.
    10030    2    1    2    0    0  0.00000000000E+00  0.00000000000E+00  0.16234175712E+03  0.71620812961E+03  0.69756665547E+03 0.  0.
        4    1    3    3  502    0  0.43756808012E+02  0.12083655269E+03  0.41407650361E+03  0.43356325312E+03  0.12699999809E+01 0.  1.
       -4    1    3    3    0  502 -0.43756808012E+02 -0.12083655269E+03 -0.25173474649E+03  0.28264487649E+03  0.12699999809E+01 0. -1.
</event>
<event>
 5   0  0.1079446E-02  0.7084739E+03  0.7818609E-02  0.9702849E-01
       -2   -1    0    0    0  501  0.00000000000E+00  0.00000000000E+00  0.28596977382E+03  0.28596977383E+03  0.25500000920E-02 0.  1.
        2   -1    0    0  501    0  0.00000000000E+00  0.00000000000E+00 -0.43880100950E+03  0.43880100951E+03  0.25500000920E-02 0. -1.
    10030    2    1    2    0    0  0.00000000000E+00  0.00000000000E+00 -0.15283123568E+03  0.72477078334E+03  0.70847392456E+03 0.  0.
        2    1    3    3  502    0  0.17050415484E+03 -0.24679813320E+02 -0.39305615241E+03  0.42915486593E+03  0.25500000920E-02 0. -1.
       -2    1    3    3    0  502 -0.17050415484E+03  0.24679813320E+02  0.24022491672E+03  0.29561591741E+03  0.25500000920E-02 0.  1.
</event>
<event>
 5   0  0.6246998E-03  0.6674699E+03  0.7818609E-02  0.9774539E-01
       -1   -1    0    0    0  501  0.00000000000E+00  0.00000000000E+00  0.12007751564E+03  0.12007751574E+03  0.50400001928E-02 0. -1.
        1   -1    0    0  501    0  0.00000000000E+00  0.00000000000E+00 -0.92755928907E+03  0.92755928909E+03  0.50400001928E-02 0.  1.
    10030    2    1    2    0    0  0.00000000000E+00  0.00000000000E+00 -0.80748177343E+03  0.10476368048E+04  0.66746989475E+03 0.  0.
        4    1    3    3  502    0 -0.11629892632E+03 -0.30118350882E+03 -0.53637096847E+03  0.62604502631E+03  0.12699999809E+01 0.  1.
       -4    1    3    3    0  502  0.11629892632E+03  0.30118350882E+03 -0.27111080497E+03  0.42159177852E+03  0.12699999809E+01 0. -1.
</event>
<event>
 5   0  0.6246998E-03  0.7008876E+03  0.7818609E-02  0.9715716E-01
        1   -1    0    0  501    0  0.00000000000E+00  0.00000000000E+00  0.83666818180E+03  0.83666818181E+03  0.50400001928E-02 0. -1.
       -1   -1    0    0    0  501  0.00000000000E+00  0.00000000000E+00 -0.14678560512E+03  0.14678560520E+03  0.50400001928E-02 0.  1.
    10030    2    1    2    0    0  0.00000000000E+00  0.00000000000E+00  0.68988257668E+03  0.98345378702E+03  0.70088756701E+03 0.  0.
        4    1    3    3  502    0  0.12939157749E+03  0.85363022446E+02  0.78594329530E+03  0.80108520286E+03  0.12699999809E+01 0. -1.
       -4    1    3    3    0  502 -0.12939157749E+03 -0.85363022446E+02 -0.96060718616E+02  0.18236858415E+03  0.12699999809E+01 0.  1.
</event>
<event>
 5   0  0.6609285E-03  0.7039396E+03  0.7818609E-02  0.9710519E-01
       -1   -1    0    0    0  501  0.00000000000E+00  0.00000000000E+00  0.12804882203E+04  0.12804882203E+04  0.50400001928E-02 0. -1.
        1   -1    0    0  501    0  0.00000000000E+00  0.00000000000E+00 -0.96746498583E+02  0.96746498714E+02  0.50400001928E-02 0.  1.
    10030    2    1    2    0    0  0.00000000000E+00  0.00000000000E+00  0.11837417217E+04  0.13772347190E+04  0.70393963346E+03 0.  0.
        2    1    3    3  502    0 -0.13232842772E+03  0.31066455970E+03  0.78613799771E+03  0.85559115989E+03  0.25500000920E-02 0.  1.
       -2    1    3    3    0  502  0.13232842772E+03 -0.31066455970E+03  0.39760372401E+03  0.52164355914E+03  0.25500000920E-02 0. -1.
</event>
<event>
 5   0  0.6785252E-03  0.7051808E+03  0.7818609E-02  0.9708413E-01
        1   -1    0    0  501    0  0.00000000000E+00  0.00000000000E+00  0.12140546970E+04  0.12140546970E+04  0.50400001928E-02 0. -1.
       -1   -1    0    0    0  501  0.00000000000E+00  0.00000000000E+00 -0.10240064698E+03  0.10240064711E+03  0.50400001928E-02 0.  1.
    10030    2    1    2    0    0  0.00000000000E+00  0.00000000000E+00  0.11116540500E+04  0.13164553441E+04  0.70518078967E+03 0.  0.
        3    1    3    3  502    0 -0.27094696260E+03  0.22057421175E+03  0.64447189238E+03  0.73308203477E+03  0.10100000352E+00 0.  1.
       -3    1    3    3    0  502  0.27094696260E+03 -0.22057421175E+03  0.46718215759E+03  0.58337330930E+03  0.10100000352E+00 0. -1.
</event>
<event>
 5   0  0.1100119E-02  0.6976285E+03  0.7818609E-02  0.9721296E-01
       -2   -1    0    0    0  501  0.00000000000E+00  0.00000000000E+00  0.17635036981E+03  0.17635036983E+03  0.25500000920E-02 0. -1.
        2   -1    0    0  501    0  0.00000000000E+00  0.00000000000E+00 -0.68994126561E+03  0.68994126562E+03  0.25500000920E-02 0.  1.
    10030    2    1    2    0    0  0.00000000000E+00  0.00000000000E+00 -0.51359089580E+03  0.86629163545E+03  0.69762854686E+03 0.  0.
        4    1    3    3  502    0 -0.29981629521E+03 -0.22527820816E+02 -0.37201191982E+02  0.30295685364E+03  0.12699999809E+01 0. -1.
       -4    1    3    3    0  502  0.29981629521E+03  0.22527820816E+02 -0.47638970382E+03  0.56333478180E+03  0.12699999809E+01 0.  1.
</event>
<event>
 5   0  0.1100119E-02  0.7016292E+03  0.7818609E-02  0.9714450E-01
        2   -1    0    0  501    0  0.00000000000E+00  0.00000000000E+00  0.13690132324E+03  0.13690132326E+03  0.25500000920E-02 0. -1.
       -2   -1    0    0    0  501  0.00000000000E+00  0.00000000000E+00 -0.89897512482E+03  0.89897512483E+03  0.25500000920E-02 0.  1.
    10030    2    1    2    0    0  0.00000000000E+00  0.00000000000E+00 -0.76207380158E+03  0.10358764481E+04  0.70162920168E+03 0.  0.
        4    1    3    3  502    0  0.34988332211E+03 -0.12553065151E+02 -0.34824405771E+03  0.49381317840E+03  0.12699999809E+01 0.  1.
       -4    1    3    3    0  502 -0.34988332211E+03  0.12553065151E+02 -0.41382974387E+03  0.54206326969E+03  0.12699999809E+01 0. -1.
</event>
<event>
 5   0  0.6609285E-03  0.6955235E+03  0.7818609E-02  0.9724918E-01
        1   -1    0    0  501    0  0.00000000000E+00  0.00000000000E+00  0.17271218370E+04  0.17271218370E+04  0.50400001928E-02 0. -1.
       -1   -1    0    0    0  501  0.00000000000E+00  0.00000000000E+00 -0.70022991542E+02  0.70022991724E+02  0.50400001928E-02 0.  1.
    10030    2    1    2    0    0  0.00000000000E+00  0.00000000000E+00  0.16570988455E+04  0.17971448288E+04  0.69552350918E+03 0.  0.
        2    1    3    3  502    0 -0.14921381264E+03  0.76637575252E+02  0.16156778941E+04  0.16243623787E+04  0.25500000920E-02 0. -1.
       -2    1    3    3    0  502  0.14921381264E+03 -0.76637575252E+02  0.41420951353E+02  0.17278245003E+03  0.25500000920E-02 0.  1.
</event>
<event>
 5   0  0.1100119E-02  0.7009633E+03  0.7818609E-02  0.9715586E-01
       -2   -1    0    0    0  501  0.00000000000E+00  0.00000000000E+00  0.90236058034E+03  0.90236058034E+03  0.25500000920E-02 0. -1.
        2   -1    0    0  501    0  0.00000000000E+00  0.00000000000E+00 -0.13612892993E+03  0.13612892995E+03  0.25500000920E-02 0.  1.
    10030    2    1    2    0    0  0.00000000000E+00  0.00000000000E+00  0.76623165041E+03  0.10384895103E+04  0.70096328070E+03 0.  0.
        4    1    3    3  502    0 -0.31427944303E+03 -0.10737892843E+03  0.21725222798E+03  0.39686514844E+03  0.12699999809E+01 0. -1.
       -4    1    3    3    0  502  0.31427944303E+03  0.10737892843E+03  0.54897942243E+03  0.64162436186E+03  0.12699999809E+01 0.  1.
</event>
<event>
 5   0  0.1109788E-02  0.7052163E+03  0.7818609E-02  0.9708353E-01
       -2   -1    0    0    0  501  0.00000000000E+00  0.00000000000E+00  0.38790852990E+03  0.38790852990E+03  0.25500000920E-02 0. -1.
        2   -1    0    0  501    0  0.00000000000E+00  0.00000000000E+00 -0.32052018256E+03  0.32052018257E+03  0.25500000920E-02 0.  1.
    10030    2    1    2    0    0  0.00000000000E+00  0.00000000000E+00  0.67388347337E+02  0.70842871247E+03  0.70521631525E+03 0.  0.
        1    1    3    3  502    0  0.11132537396E+03  0.39836135221E+02  0.36740047857E+03  0.38595772856E+03  0.50400001928E-02 0. -1.
       -1    1    3    3    0  502 -0.11132537396E+03 -0.39836135221E+02 -0.30001213123E+03  0.32247098392E+03  0.50400001928E-02 0.  1.
</event>
<event>
 5   0  0.4440500E-03  0.6974312E+03  0.7818609E-02  0.9721635E-01
       -3   -1    0    0    0  501  0.00000000000E+00  0.00000000000E+00  0.45785780457E+03  0.45785781571E+03  0.10100000352E+00 0. -1.
        3   -1    0    0  501    0  0.00000000000E+00  0.00000000000E+00 -0.26559024118E+03  0.26559026038E+03  0.10100000352E+00 0.  1.
    10030    2    1    2    0    0  0.00000000000E+00  0.00000000000E+00  0.19226756340E+03  0.72344807609E+03  0.69743121730E+03 0.  0.
        1    1    3    3  502    0  0.22989664395E+03 -0.10090205095E+03 -0.15490421534E+03  0.29500679101E+03  0.50400001928E-02 0.  1.
       -1    1    3    3    0  502 -0.22989664395E+03  0.10090205095E+03  0.34717177874E+03  0.42844128508E+03  0.50400001928E-02 0. -1.
</event>
<event>
 5   0  0.1100119E-02  0.6935161E+03  0.7818609E-02  0.9728385E-01
       -2   -1    0    0    0  501  0.00000000000E+00  0.00000000000E+00  0.12386554195E+03  0.12386554198E+03  0.25500000920E-02 0.  1.
        2   -1    0    0  501    0  0.00000000000E+00  0.00000000000E+00 -0.97073924857E+03  0.97073924857E+03  0.25500000920E-02 0. -1.
    10030    2    1    2    0    0  0.00000000000E+00  0.00000000000E+00 -0.84687370662E+03  0.10946047906E+04  0.69351609393E+03 0.  0.
        4    1    3    3  502    0  0.15744168499E+03  0.47214189715E+02 -0.90534147896E+03  0.92014230981E+03  0.12699999809E+01 0. -1.
       -4    1    3    3    0  502 -0.15744168499E+03 -0.47214189715E+02  0.58467772339E+02  0.17446248074E+03  0.12699999809E+01 0.  1.
</event>
<event>
 5   0  0.6785252E-03  0.7021231E+03  0.7818609E-02  0.9713608E-01
       -1   -1    0    0    0  501  0.00000000000E+00  0.00000000000E+00  0.29631333168E+03  0.29631333172E+03  0.50400001928E-02 0.  1.
        1   -1    0    0  501    0  0.00000000000E+00  0.00000000000E+00 -0.41592531055E+03  0.41592531058E+03  0.50400001928E-02 0. -1.
    10030    2    1    2    0    0  0.00000000000E+00  0.00000000000E+00 -0.11961197887E+03  0.71223864230E+03  0.70212310751E+03 0.  0.
        3    1    3    3  502    0 -0.27270224112E+02 -0.29804733824E+03  0.12632685367E+03  0.32486053179E+03  0.10100000352E+00 0.  1.
       -3    1    3    3    0  502  0.27270224112E+02  0.29804733824E+03 -0.24593883254E+03  0.38737811051E+03  0.10100000352E+00 0. -1.
</event>
<event>
 5   0  0.1099980E-02  0.7085355E+03  0.7818609E-02  0.9702746E-01
        2   -1    0    0  501    0  0.00000000000E+00  0.00000000000E+00  0.65854812954E+03  0.65854812954E+03  0.25500000920E-02 0. -1.
       -2   -1    0    0    0  501  0.00000000000E+00  0.00000000000E+00 -0.19057928329E+03  0.19057928331E+03  0.25500000920E-02 0.  1.
    10030    2    1    2    0    0  0.00000000000E+00  0.00000000000E+00  0.46796884625E+03  0.84912741285E+03  0.70853547702E+03 0.  0.
        5    1    3    3  502    0 -0.17388529486E+02  0.34974097023E+03  0.29810227320E+03  0.45990016580E+03  0.46999998093E+01 0. -1.
       -5    1    3    3    0  502  0.17388529486E+02 -0.34974097023E+03  0.16986657305E+03  0.38922724705E+03  0.46999998093E+01 0.  1.
</event>
<event>
 5   0  0.6785252E-03  0.6862781E+03  0.7818609E-02  0.9740990E-01
        1   -1    0    0  501    0  0.00000000000E+00  0.00000000000E+00  0.16374472244E+04  0.16374472244E+04  0.50400001928E-02 0. -1.
       -1   -1    0    0    0  501  0.00000000000E+00  0.00000000000E+00 -0.71907305626E+02  0.71907305802E+02  0.50400001928E-02 0.  1.
    10030    2    1    2    0    0  0.00000000000E+00  0.00000000000E+00  0.15655399188E+04  0.17093545302E+04  0.68627813069E+03 0.  0.
        3    1    3    3  502    0  0.14902095934E+03 -0.20214708838E+03  0.20037006826E+03  0.32127693057E+03  0.10100000352E+00 0.  1.
       -3    1    3    3    0  502 -0.14902095934E+03  0.20214708838E+03  0.13651698505E+04  0.13880775996E+04  0.10100000352E+00 0. -1.
</event>
<event>
 5   0  0.6785252E-03  0.6996873E+03  0.7818609E-02  0.9717767E-01
       -1   -1    0    0    0  501  0.00000000000E+00  0.00000000000E+00  0.21672188284E+03  0.21672188290E+03  0.50400001928E-02 0. -1.
        1   -1    0    0  501    0  0.00000000000E+00  0.00000000000E+00 -0.56473568934E+03  0.56473568936E+03  0.50400001928E-02 0.  1.
    10030    2    1    2    0    0  0.00000000000E+00  0.00000000000E+00 -0.34801380649E+03  0.78145757226E+03  0.69968730711E+03 0.  0.
        3    1    3    3  502    0 -0.10236591535E+03 -0.58186588383E+02  0.19392591803E+03  0.22687382303E+03  0.10100000352E+00 0. -1.
       -3    1    3    3    0  502  0.10236591535E+03  0.58186588383E+02 -0.54193972452E+03  0.55458374923E+03  0.10100000352E+00 0.  1.
</event>
<event>
 5   0  0.1119786E-02  0.7013850E+03  0.7818609E-02  0.9714867E-01
        2   -1    0    0  501    0  0.00000000000E+00  0.00000000000E+00  0.19134467078E+04  0.19134467078E+04  0.25500000920E-02 0. -1.
       -2   -1    0    0    0  501  0.00000000000E+00  0.00000000000E+00 -0.64274179681E+02  0.64274179732E+02  0.25500000920E-02 0.  1.
    10030    2    1    2    0    0  0.00000000000E+00  0.00000000000E+00  0.18491725281E+04  0.19777208875E+04  0.70138496579E+03 0.  0.
        3    1    3    3  502    0  0.38227573746E+01 -0.18192713814E+03  0.17699107201E+04  0.17792403054E+04  0.10100000352E+00 0. -1.
       -3    1    3    3    0  502 -0.38227573746E+01  0.18192713814E+03  0.79261808000E+02  0.19848058211E+03  0.10100000352E+00 0.  1.
</event>
<event>
 5   0  0.4440500E-03  0.7031238E+03  0.7818609E-02  0.9711905E-01
       -3   -1    0    0    0  501  0.00000000000E+00  0.00000000000E+00  0.56139188929E+03  0.56139189837E+03  0.10100000352E+00 0.  1.
        3   -1    0    0  501    0  0.00000000000E+00  0.00000000000E+00 -0.22015952259E+03  0.22015954576E+03  0.10100000352E+00 0. -1.
    10030    2    1    2    0    0  0.00000000000E+00  0.00000000000E+00  0.34123236670E+03  0.78155144413E+03  0.70312383813E+03 0.  0.
        3    1    3    3  502    0 -0.49879526927E+02 -0.13687169199E+03 -0.18503189656E+03  0.23549658218E+03  0.10100000352E+00 0. -1.
       -3    1    3    3    0  502  0.49879526927E+02  0.13687169199E+03  0.52626426326E+03  0.54605486195E+03  0.10100000352E+00 0.  1.
</event>
<event>
 5   0  0.6689415E-03  0.6990673E+03  0.7818609E-02  0.9718829E-01
       -1   -1    0    0    0  501  0.00000000000E+00  0.00000000000E+00  0.31079022302E+03  0.31079022306E+03  0.50400001928E-02 0.  1.
        1   -1    0    0  501    0  0.00000000000E+00  0.00000000000E+00 -0.39310687695E+03  0.39310687699E+03  0.50400001928E-02 0. -1.
    10030    2    1    2    0    0  0.00000000000E+00  0.00000000000E+00 -0.82316653936E+02  0.70389710005E+03  0.69906730430E+03 0.  0.
        1    1    3    3  502    0  0.34316737536E+03  0.32608323965E+02 -0.99408017699E+02  0.35876051108E+03  0.50400001928E-02 0. -1.
       -1    1    3    3    0  502 -0.34316737536E+03 -0.32608323965E+02  0.17091363764E+02  0.34513658897E+03  0.50400001928E-02 0.  1.
</event>
<event>
 5   0  0.6246998E-03  0.7007953E+03  0.7818609E-02  0.9715873E-01
        1   -1    0    0  501    0  0.00000000000E+00  0.00000000000E+00  0.11358976658E+04  0.11358976658E+04  0.50400001928E-02 0.  1.
       -1   -1    0    0    0  501  0.00000000000E+00  0.00000000000E+00 -0.10808940104E+03  0.10808940116E+03  0.50400001928E-02 0. -1.
    10030    2    1    2    0    0  0.00000000000E+00  0.00000000000E+00  0.10278082648E+04  0.12439870670E+04  0.70079525803E+03 0.  0.
        4    1    3    3  502    0 -0.22459674678E+03  0.10632067832E+03  0.75380306669E+02  0.25967593041E+03  0.12699999809E+01 0. -1.
       -4    1    3    3    0  502  0.22459674678E+03 -0.10632067832E+03  0.95242795808E+03  0.98431113655E+03  0.12699999809E+01 0.  1.
</event>
<event>
 5   0  0.6990118E-03  0.6653145E+03  0.7818609E-02  0.9778460E-01
        1   -1    0    0  501    0  0.00000000000E+00  0.00000000000E+00  0.85414344995E+03  0.85414344997E+03  0.50400001928E-02 0. -1.
       -1   -1    0    0    0  501  0.00000000000E+00  0.00000000000E+00 -0.12955768324E+03  0.12955768334E+03  0.50400001928E-02 0.  1.
    10030    2    1    2    0    0  0.00000000000E+00  0.00000000000E+00  0.72458576671E+03  0.98370113330E+03  0.66531450182E+03 0.  0.
        5    1    3    3  502    0 -0.25501845778E+03  0.13405321543E+03  0.11650601672E+03  0.31080608151E+03  0.46999998093E+01 0.  1.
       -5    1    3    3    0  502  0.25501845778E+03 -0.13405321543E+03  0.60807974999E+03  0.67289505179E+03  0.46999998093E+01 0. -1.
</event>
<event>
 5   0  0.4440500E-03  0.6983765E+03  0.7818609E-02  0.9720013E-01
       -3   -1    0    0    0  501  0.00000000000E+00  0.00000000000E+00  0.13718232388E+03  0.13718236106E+03  0.10100000352E+00 0. -1.
        3   -1    0    0  501    0  0.00000000000E+00  0.00000000000E+00 -0.88883473680E+03  0.88883474254E+03  0.10100000352E+00 0.  1.
    10030    2    1    2    0    0  0.00000000000E+00  0.00000000000E+00 -0.75165241292E+03  0.10260171036E+04  0.69837650807E+03 0.  0.
        3    1    3    3  502    0  0.31958712719E+03  0.76848349383E+02 -0.54897880447E+03  0.63985884273E+03  0.10100000352E+00 0.  1.
       -3    1    3    3    0  502 -0.31958712719E+03 -0.76848349383E+02 -0.20267360845E+03  0.38615826086E+03  0.10100000352E+00 0. -1.
</event>
<event>
 5   0  0.6246998E-03  0.7013202E+03  0.7818609E-02  0.9714977E-01
        1   -1    0    0  501    0  0.00000000000E+00  0.00000000000E+00  0.79377472593E+03  0.79377472594E+03  0.50400001928E-02 0.  1.
       -1   -1    0    0    0  501  0.00000000000E+00  0.00000000000E+00 -0.15490857100E+03  0.15490857108E+03  0.50400001928E-02 0. -1.
    10030    2    1    2    0    0  0.00000000000E+00  0.00000000000E+00  0.63886615493E+03  0.94868329702E+03  0.70132020799E+03 0.  0.
        4    1    3    3  502    0 -0.88771401245E+02 -0.12534820615E+03  0.74584463263E+03  0.76149744805E+03  0.12699999809E+01 0.  1.
       -4    1    3    3    0  502  0.88771401245E+02  0.12534820615E+03 -0.10697847770E+03  0.18718584897E+03  0.12699999809E+01 0. -1.
</event>
<event>
 5   0  0.6689415E-03  0.6998608E+03  0.7818609E-02  0.9717470E-01
       -1   -1    0    0    0  501  0.00000000000E+00  0.00000000000E+00  0.15378930347E+03  0.15378930355E+03  0.50400001928E-02 0.  1.
        1   -1    0    0  501    0  0.00000000000E+00  0.00000000000E+00 -0.79622749385E+03  0.79622749386E+03  0.50400001928E-02 0. -1.
    10030    2    1    2    0    0  0.00000000000E+00  0.00000000000E+00 -0.64243819038E+03  0.95001679741E+03  0.69986076252E+03 0.  0.
        1    1    3    3  502    0 -0.16556774326E+03 -0.74857619561E+01 -0.73957082409E+03  0.75791405720E+03  0.50400001928E-02 0. -1.
       -1    1    3    3    0  502  0.16556774326E+03  0.74857619561E+01  0.97132633711E+02  0.19210274021E+03  0.50400001928E-02 0.  1.
</event>
<event>
 5   0  0.1100119E-02  0.7003159E+03  0.7818609E-02  0.9716692E-01
       -2   -1    0    0    0  501  0.00000000000E+00  0.00000000000E+00  0.11357779873E+03  0.11357779876E+03  0.25500000920E-02 0.  1.
        2   -1    0    0  501    0  0.00000000000E+00  0.00000000000E+00 -0.10795294670E+04  0.10795294670E+04  0.25500000920E-02 0. -1.
    10030    2    1    2    0    0  0.00000000000E+00  0.00000000000E+00 -0.96595166828E+03  0.11931072658E+04  0.70031587316E+03 0.  0.
        4    1    3    3  502    0  0.26015055746E+03 -0.20462379174E+03 -0.28828159509E+03  0.43892721453E+03  0.12699999809E+01 0.  1.
       -4    1    3    3    0  502 -0.26015055746E+03  0.20462379174E+03 -0.67767007319E+03  0.75418005124E+03  0.12699999809E+01 0. -1.
</event>
<event>
 5   0  0.6246998E-03  0.6993378E+03  0.7818609E-02  0.9718365E-01
        1   -1    0    0  501    0  0.00000000000E+00  0.00000000000E+00  0.80117398459E+03  0.80117398460E+03  0.50400001928E-02 0.  1.
       -1   -1    0    0    0  501  0.00000000000E+00  0.00000000000E+00 -0.15261148958E+03  0.15261148966E+03  0.50400001928E-02 0. -1.
    10030    2    1    2    0    0  0.00000000000E+00  0.00000000000E+00  0.64856249501E+03  0.95378547426E+03  0.69933784466E+03 0.  0.
        4    1    3    3  502    0 -0.17615820638E+03 -0.32054185952E+02 -0.85342509019E+02  0.19835357637E+03  0.12699999809E+01 0. -1.
       -4    1    3    3    0  502  0.17615820638E+03  0.32054185952E+02  0.73390500403E+03  0.75543189789E+03  0.12699999809E+01 0.  1.
</event>
<event>
 5   0  0.6246998E-03  0.6995452E+03  0.7818609E-02  0.9718010E-01
        1   -1    0    0  501    0  0.00000000000E+00  0.00000000000E+00  0.60898309193E+03  0.60898309196E+03  0.50400001928E-02 0.  1.
       -1   -1    0    0    0  501  0.00000000000E+00  0.00000000000E+00 -0.20089373311E+03  0.20089373317E+03  0.50400001928E-02 0. -1.
    10030    2    1    2    0    0  0.00000000000E+00  0.00000000000E+00  0.40808935882E+03  0.80987682513E+03  0.69954524307E+03 0.  0.
        4    1    3    3  502    0  0.13756685081E+03  0.16614040413E+03  0.52281079141E+03  0.56556167554E+03  0.12699999809E+01 0.  1.
       -4    1    3    3    0  502 -0.13756685081E+03 -0.16614040413E+03 -0.11472143258E+03  0.24431514959E+03  0.12699999809E+01 0. -1.
</event>
<event>
 5   0  0.6785252E-03  0.7010340E+03  0.7818609E-02  0.9715466E-01
        1   -1    0    0  501    0  0.00000000000E+00  0.00000000000E+00  0.41487263832E+03  0.41487263835E+03  0.50400001928E-02 0. -1.
       -1   -1    0    0    0  501  0.00000000000E+00  0.00000000000E+00 -0.29614429976E+03  0.29614429981E+03  0.50400001928E-02 0.  1.
    10030    2    1    2    0    0  0.00000000000E+00  0.00000000000E+00  0.11872833856E+03  0.71101693816E+03  0.70103399916E+03 0.  0.
        3    1    3    3  502    0  0.21095686512E+03 -0.16779408478E+03 -0.16789017891E+03  0.31756066539E+03  0.10100000352E+00 0.  1.
       -3    1    3    3    0  502 -0.21095686512E+03  0.16779408478E+03  0.28661851746E+03  0.39345627277E+03  0.10100000352E+00 0. -1.
</event>
<event>
 5   0  0.6785252E-03  0.7048917E+03  0.7818609E-02  0.9708903E-01
        1   -1    0    0  501    0  0.00000000000E+00  0.00000000000E+00  0.14599919212E+04  0.14599919212E+04  0.50400001928E-02 0.  1.
       -1   -1    0    0    0  501  0.00000000000E+00  0.00000000000E+00 -0.85081354052E+02  0.85081354202E+02  0.50400001928E-02 0. -1.
    10030    2    1    2    0    0  0.00000000000E+00  0.00000000000E+00  0.13749105672E+04  0.15450732754E+04  0.70489173547E+03 0.  0.
        3    1    3    3  502    0  0.33073257506E+03 -0.89782447412E+02  0.50706124457E+03  0.61200983654E+03  0.10100000352E+00 0.  1.
       -3    1    3    3    0  502 -0.33073257506E+03  0.89782447412E+02  0.86784932259E+03  0.93306343889E+03  0.10100000352E+00 0. -1.
</event>
<event>
 5   0  0.4440500E-03  0.6993955E+03  0.7818609E-02  0.9718267E-01
        3   -1    0    0  501    0  0.00000000000E+00  0.00000000000E+00  0.15185456635E+04  0.15185456669E+04  0.10100000352E+00 0. -1.
       -3   -1    0    0    0  501  0.00000000000E+00  0.00000000000E+00 -0.80529990167E+02  0.80530053504E+02  0.10100000352E+00 0.  1.
    10030    2    1    2    0    0  0.00000000000E+00  0.00000000000E+00  0.14380156733E+04  0.15990757204E+04  0.69939551235E+03 0.  0.
        1    1    3    3  502    0  0.10840411274E+03 -0.18714825587E+02 -0.39938416159E+02  0.11703321523E+03  0.50400001928E-02 0.  1.
       -1    1    3    3    0  502 -0.10840411274E+03  0.18714825587E+02  0.14779540895E+04  0.14820425051E+04  0.50400001928E-02 0. -1.
</event>
<event>
 5   0  0.1100119E-02  0.7017842E+03  0.7818609E-02  0.9714186E-01
        2   -1    0    0  501    0  0.00000000000E+00  0.00000000000E+00  0.93343178932E+03  0.93343178932E+03  0.25500000920E-02 0.  1.
       -2   -1    0    0    0  501  0.00000000000E+00  0.00000000000E+00 -0.13190599928E+03  0.13190599931E+03  0.25500000920E-02 0. -1.
    10030    2    1    2    0    0  0.00000000000E+00  0.00000000000E+00  0.80152579004E+03  0.10653377886E+04  0.70178416325E+03 0.  0.
        4    1    3    3  502    0  0.14490683522E+03 -0.12887309941E+03 -0.43163476726E+02  0.19867301092E+03  0.12699999809E+01 0. -1.
       -4    1    3    3    0  502 -0.14490683522E+03  0.12887309941E+03  0.84468926676E+03  0.86666477771E+03  0.12699999809E+01 0.  1.
</event>
<event>
 5   0  0.6609285E-03  0.6886719E+03  0.7818609E-02  0.9736803E-01
       -1   -1    0    0    0  501  0.00000000000E+00  0.00000000000E+00  0.11069330223E+04  0.11069330223E+04  0.50400001928E-02 0. -1.
        1   -1    0    0  501    0  0.00000000000E+00  0.00000000000E+00 -0.10711329198E+03  0.10711329210E+03  0.50400001928E-02 0.  1.
    10030    2    1    2    0    0  0.00000000000E+00  0.00000000000E+00  0.99981973029E+03  0.12140463144E+04  0.68867188151E+03 0.  0.
        2    1    3    3  502    0 -0.61826054423E+02  0.11151609384E+03  0.10637807831E+04  0.10713952840E+04  0.25500000920E-02 0. -1.
       -2    1    3    3    0  502  0.61826054423E+02 -0.11151609384E+03 -0.63961052762E+02  0.14265103037E+03  0.25500000920E-02 0.  1.
</event>
<event>
 5   0  0.6246998E-03  0.7041711E+03  0.7818609E-02  0.9710126E-01
       -1   -1    0    0    0  501  0.00000000000E+00  0.00000000000E+00  0.56533559666E+02  0.56533559891E+02  0.50400001928E-02 0.  1.
        1   -1    0    0  501    0  0.00000000000E+00  0.00000000000E+00 -0.21927549143E+04  0.21927549143E+04  0.50400001928E-02 0. -1.
    10030    2    1    2    0    0  0.00000000000E+00  0.00000000000E+00 -0.21362213547E+04  0.22492884742E+04  0.70417111853E+03 0.  0.
        4    1    3    3  502    0 -0.13210795775E+03  0.85740401157E+02 -0.20739586846E+04  0.20799303275E+04  0.12699999809E+01 0. -1.
       -4    1    3    3    0  502  0.13210795775E+03 -0.85740401157E+02 -0.62262670106E+02  0.16935814678E+03  0.12699999809E+01 0.  1.
</event>
<event>
 5   0  0.1100119E-02  0.6950946E+03  0.7818609E-02  0.9725658E-01
        2   -1    0    0  501    0  0.00000000000E+00  0.00000000000E+00  0.12837902410E+04  0.12837902411E+04  0.25500000920E-02 0. -1.
       -2   -1    0    0    0  501  0.00000000000E+00  0.00000000000E+00 -0.94087908758E+02  0.94087908793E+02  0.25500000920E-02 0.  1.
    10030    2    1    2    0    0  0.00000000000E+00  0.00000000000E+00  0.11897023323E+04  0.13778781498E+04  0.69509463842E+03 0.  0.
        4    1    3    3  502    0 -0.14434992414E+02  0.89947698466E+02 -0.69994849005E+02  0.11489059688E+03  0.12699999809E+01 0.  1.
       -4    1    3    3    0  502  0.14434992414E+02 -0.89947698466E+02  0.12596971813E+04  0.12629875530E+04  0.12699999809E+01 0. -1.
</event>
<event>
 5   0  0.1099980E-02  0.7010435E+03  0.7818609E-02  0.9715449E-01
        2   -1    0    0  501    0  0.00000000000E+00  0.00000000000E+00  0.38310542955E+03  0.38310542956E+03  0.25500000920E-02 0.  1.
       -2   -1    0    0    0  501  0.00000000000E+00  0.00000000000E+00 -0.32070932194E+03  0.32070932195E+03  0.25500000920E-02 0. -1.
    10030    2    1    2    0    0  0.00000000000E+00  0.00000000000E+00  0.62396107615E+02  0.70381475151E+03  0.70104345814E+03 0.  0.
        5    1    3    3  502    0  0.20160958097E+01  0.30283028987E+03  0.20834142706E+03  0.36761187322E+03  0.46999998093E+01 0.  1.
       -5    1    3    3    0  502 -0.20160958097E+01 -0.30283028987E+03 -0.14594531944E+03  0.33620287829E+03  0.46999998093E+01 0. -1.
</event>
<event>
 5   0  0.6246998E-03  0.7010079E+03  0.7818609E-02  0.9715510E-01
       -1   -1    0    0    0  501  0.00000000000E+00  0.00000000000E+00  0.19100006034E+03  0.19100006041E+03  0.50400001928E-02 0.  1.
        1   -1    0    0  501    0  0.00000000000E+00  0.00000000000E+00 -0.64320929633E+03  0.64320929635E+03  0.50400001928E-02 0. -1.
    10030    2    1    2    0    0  0.00000000000E+00  0.00000000000E+00 -0.45220923599E+03  0.83420935676E+03  0.70100788711E+03 0.  0.
        4    1    3    3  502    0  0.11039534712E+03  0.28560693535E+03 -0.23127999515E+02  0.30707486294E+03  0.12699999809E+01 0.  1.
       -4    1    3    3    0  502 -0.11039534712E+03 -0.28560693535E+03 -0.42908123647E+03  0.52713449383E+03  0.12699999809E+01 0. -1.
</event>
<event>
 5   0  0.1100119E-02  0.6990017E+03  0.7818609E-02  0.9718941E-01
       -2   -1    0    0    0  501  0.00000000000E+00  0.00000000000E+00  0.12365564183E+03  0.12365564186E+03  0.25500000920E-02 0. -1.
        2   -1    0    0  501    0  0.00000000000E+00  0.00000000000E+00 -0.98783083260E+03  0.98783083261E+03  0.25500000920E-02 0.  1.
    10030    2    1    2    0    0  0.00000000000E+00  0.00000000000E+00 -0.86417519077E+03  0.11114864745E+04  0.69900173288E+03 0.  0.
        4    1    3    3  502    0 -0.84841490166E+01  0.29838931672E+03 -0.14305086791E+03  0.33101862308E+03  0.12699999809E+01 0. -1.
       -4    1    3    3    0  502  0.84841490166E+01 -0.29838931672E+03 -0.72112432287E+03  0.78046785138E+03  0.12699999809E+01 0.  1.
</event>
<event>
 5   0  0.1119786E-02  0.6998422E+03  0.7818609E-02  0.9717502E-01
       -2   -1    0    0    0  501  0.00000000000E+00  0.00000000000E+00  0.56702028615E+03  0.56702028616E+03  0.25500000920E-02 0.  1.
        2   -1    0    0  501    0  0.00000000000E+00  0.00000000000E+00 -0.21594424106E+03  0.21594424108E+03  0.25500000920E-02 0. -1.
    10030    2    1    2    0    0  0.00000000000E+00  0.00000000000E+00  0.35107604509E+03  0.78296452724E+03  0.69984216898E+03 0.  0.
        3    1    3    3  502    0  0.29379681940E+03 -0.15267718817E+03  0.48875029574E+02  0.33468742671E+03  0.10100000352E+00 0. -1.
       -3    1    3    3    0  502 -0.29379681940E+03  0.15267718817E+03  0.30220101551E+03  0.44827710053E+03  0.10100000352E+00 0.  1.
</event>
<event>
 5   0  0.6990118E-03  0.6958057E+03  0.7818609E-02  0.9724432E-01
       -1   -1    0    0    0  501  0.00000000000E+00  0.00000000000E+00  0.58925218626E+03  0.58925218628E+03  0.50400001928E-02 0. -1.
        1   -1    0    0  501    0  0.00000000000E+00  0.00000000000E+00 -0.20540678801E+03  0.20540678807E+03  0.50400001928E-02 0.  1.
    10030    2    1    2    0    0  0.00000000000E+00  0.00000000000E+00  0.38384539825E+03  0.79465897436E+03  0.69580571697E+03 0.  0.
        5    1    3    3  502    0 -0.41083342447E+02 -0.34280107464E+03  0.24056324155E+03  0.42082440636E+03  0.46999998093E+01 0. -1.
       -5    1    3    3    0  502  0.41083342447E+02  0.34280107464E+03  0.14328215670E+03  0.37383456800E+03  0.46999998093E+01 0.  1.
</event>
<event>
 5   0  0.1079446E-02  0.7011550E+03  0.7818609E-02  0.9715259E-01
       -2   -1    0    0    0  501  0.00000000000E+00  0.00000000000E+00  0.14955365533E+03  0.14955365535E+03  0.25500000920E-02 0.  1.
        2   -1    0    0  501    0  0.00000000000E+00  0.00000000000E+00 -0.82180921145E+03  0.82180921146E+03  0.25500000920E-02 0. -1.
    10030    2    1    2    0    0  0.00000000000E+00  0.00000000000E+00 -0.67225555613E+03  0.97136286681E+03  0.70115496594E+03 0.  0.
        2    1    3    3  502    0  0.70576314669E+02  0.33283951856E+03 -0.21905404292E+03  0.40465767636E+03  0.25500000920E-02 0.  1.
       -2    1    3    3    0  502 -0.70576314669E+02 -0.33283951856E+03 -0.45320151320E+03  0.56670519045E+03  0.25500000920E-02 0. -1.
</event>
<event>
 5   0  0.6990118E-03  0.7010411E+03  0.7818609E-02  0.9715453E-01
       -1   -1    0    0    0  501  0.00000000000E+00  0.00000000000E+00  0.19711689630E+03  0.19711689637E+03  0.50400001928E-02 0. -1.
        1   -1    0    0  501    0  0.00000000000E+00  0.00000000000E+00 -0.62330863625E+03  0.62330863627E+03  0.50400001928E-02 0.  1.
    10030    2    1    2    0    0  0.00000000000E+00  0.00000000000E+00 -0.42619173995E+03  0.82042553264E+03  0.70104112248E+03 0.  0.
        5    1    3    3  502    0  0.34273442125E+03  0.17837717817E+02 -0.12986893827E+03  0.36697833562E+03  0.46999998093E+01 0. -1.
       -5    1    3    3    0  502 -0.34273442125E+03 -0.17837717817E+02 -0.29632280168E+03  0.45344719702E+03  0.46999998093E+01 0.  1.
</event>
<event>
 5   0  0.1079446E-02  0.7011806E+03  0.7818609E-02  0.9715215E-01
        2   -1    0    0  501    0  0.00000000000E+00  0.00000000000E+00  0.65162480963E+03  0.65162480963E+03  0.25500000920E-02 0.  1.
       -2   -1    0    0    0  501  0.00000000000E+00  0.00000000000E+00 -0.18862629609E+03  0.18862629611E+03  0.25500000920E-02 0. -1.
    10030    2    1    2    0    0  0.00000000000E+00  0.00000000000E+00  0.46299851353E+03  0.84025110574E+03  0.70118064518E+03 0.  0.
        2    1    3    3  502    0  0.33897556473E+03  0.35723800125E+02  0.32982831890E+03  0.47430722463E+03  0.25500000920E-02 0. -1.
       -2    1    3    3    0  502 -0.33897556473E+03 -0.35723800125E+02  0.13317019463E+03  0.36594388111E+03  0.25500000920E-02 0.  1.
</event>
<event>
 5   0  0.6785252E-03  0.7004317E+03  0.7818609E-02  0.9716494E-01
       -1   -1    0    0    0  501  0.00000000000E+00  0.00000000000E+00  0.19001463038E+03  0.19001463045E+03  0.50400001928E-02 0.  1.
        1   -1    0    0  501    0  0.00000000000E+00  0.00000000000E+00 -0.64548266841E+03  0.64548266843E+03  0.50400001928E-02 0. -1.
    10030    2    1    2    0    0  0.00000000000E+00  0.00000000000E+00 -0.45546803803E+03  0.83549729888E+03  0.70043172599E+03 0.  0.
        3    1    3    3  502    0  0.73803884147E+02  0.29008119353E+03 -0.10858193104E+02  0.29951965330E+03  0.10100000352E+00 0.  1.
       -3    1    3    3    0  502 -0.73803884147E+02 -0.29008119353E+03 -0.44460984493E+03  0.53597764558E+03  0.10100000352E+00 0. -1.
</event>
<event>
 5   0  0.1119786E-02  0.6988321E+03  0.7818609E-02  0.9719232E-01
       -2   -1    0    0    0  501  0.00000000000E+00  0.00000000000E+00  0.15434570255E+03  0.15434570258E+03  0.25500000920E-02 0. -1.
        2   -1    0    0  501    0  0.00000000000E+00  0.00000000000E+00 -0.79102677223E+03  0.79102677223E+03  0.25500000920E-02 0.  1.
    10030    2    1    2    0    0  0.00000000000E+00  0.00000000000E+00 -0.63668106967E+03  0.94537247481E+03  0.69883211978E+03 0.  0.
        3    1    3    3  502    0 -0.26092244632E+03 -0.12369842047E+03 -0.58449899880E+03  0.65193627911E+03  0.10100000352E+00 0.  1.
       -3    1    3    3    0  502  0.26092244632E+03  0.12369842047E+03 -0.52182070872E+02  0.29343619569E+03  0.10100000352E+00 0. -1.
</event>
<event>
 5   0  0.6609285E-03  0.6960597E+03  0.7818609E-02  0.9723995E-01
        1   -1    0    0  501    0  0.00000000000E+00  0.00000000000E+00  0.83175000865E+03  0.83175000867E+03  0.50400001928E-02 0. -1.
       -1   -1    0    0    0  501  0.00000000000E+00  0.00000000000E+00 -0.14562640195E+03  0.14562640204E+03  0.50400001928E-02 0.  1.
    10030    2    1    2    0    0  0.00000000000E+00  0.00000000000E+00  0.68612360670E+03  0.97737641071E+03  0.69605965587E+03 0.  0.
        2    1    3    3  502    0 -0.22109356755E+02  0.82584715058E+02  0.81677608901E+03  0.82123823486E+03  0.25500000920E-02 0. -1.
       -2    1    3    3    0  502  0.22109356755E+02 -0.82584715058E+02 -0.13065248230E+03  0.15613817584E+03  0.25500000920E-02 0.  1.
</event>
<event>
 5   0  0.6689415E-03  0.7001382E+03  0.7818609E-02  0.9716996E-01
        1   -1    0    0  501    0  0.00000000000E+00  0.00000000000E+00  0.11109358972E+04  0.11109358972E+04  0.50400001928E-02 0. -1.
       -1   -1    0    0    0  501  0.00000000000E+00  0.00000000000E+00 -0.11031093261E+03  0.11031093273E+03  0.50400001928E-02 0.  1.
    10030    2    1    2    0    0  0.00000000000E+00  0.00000000000E+00  0.10006249646E+04  0.12212468300E+04  0.70013820056E+03 0.  0.
        1    1    3    3  502    0 -0.78354513696E+02  0.31340673102E+03  0.26509028032E+03  0.41789480209E+03  0.50400001928E-02 0.  1.
       -1    1    3    3    0  502  0.78354513696E+02 -0.31340673102E+03  0.73553468430E+03  0.80335202788E+03  0.50400001928E-02 0. -1.
</event>
<event>
 5   0  0.1079446E-02  0.6999187E+03  0.7818609E-02  0.9717371E-01
       -2   -1    0    0    0  501  0.00000000000E+00  0.00000000000E+00  0.19203923472E+03  0.19203923473E+03  0.25500000920E-02 0. -1.
        2   -1    0    0  501    0  0.00000000000E+00  0.00000000000E+00 -0.63774225633E+03  0.63774225634E+03  0.25500000920E-02 0.  1.
    10030    2    1    2    0    0  0.00000000000E+00  0.00000000000E+00 -0.44570302162E+03  0.82978149107E+03  0.69991866631E+03 0.  0.
        2    1    3    3  502    0 -0.14085680243E+02 -0.31641494124E+03 -0.39931271385E+03  0.50967388090E+03  0.25500000920E-02 0.  1.
       -2    1    3    3    0  502  0.14085680243E+02  0.31641494124E+03 -0.46390307769E+02  0.32010761017E+03  0.25500000920E-02 0. -1.
</event>
<event>
 5   0  0.6785252E-03  0.6976851E+03  0.7818609E-02  0.9721199E-01
       -1   -1    0    0    0  501  0.00000000000E+00  0.00000000000E+00  0.15208597533E+03  0.15208597541E+03  0.50400001928E-02 0.  1.
        1   -1    0    0  501    0  0.00000000000E+00  0.00000000000E+00 -0.80014696221E+03  0.80014696223E+03  0.50400001928E-02 0. -1.
    10030    2    1    2    0    0  0.00000000000E+00  0.00000000000E+00 -0.64806098689E+03  0.95223293764E+03  0.69768511867E+03 0.  0.
        3    1    3    3  502    0 -0.72992447123E+02 -0.33191045449E+03 -0.43148710291E+03  0.54924819282E+03  0.10100000352E+00 0. -1.
       -3    1    3    3    0  502  0.72992447123E+02  0.33191045449E+03 -0.21657388398E+03  0.40298474482E+03  0.10100000352E+00 0.  1.
</event>
<event>
 5   0  0.1100119E-02  0.7034524E+03  0.7818609E-02  0.9711346E-01
        2   -1    0    0  501    0  0.00000000000E+00  0.00000000000E+00  0.67809192957E+03  0.67809192957E+03  0.25500000920E-02 0.  1.
       -2   -1    0    0    0  501  0.00000000000E+00  0.00000000000E+00 -0.18244033332E+03  0.18244033334E+03  0.25500000920E-02 0. -1.
    10030    2    1    2    0    0  0.00000000000E+00  0.00000000000E+00  0.49565159624E+03  0.86053226291E+03  0.70345239402E+03 0.  0.
        4    1    3    3  502    0  0.15097740929E+03  0.62252999664E+02  0.62889867820E+03  0.64975747354E+03  0.12699999809E+01 0.  1.
       -4    1    3    3    0  502 -0.15097740929E+03 -0.62252999664E+02 -0.13324708196E+03  0.21077478937E+03  0.12699999809E+01 0. -1.
</event>
<event>
 5   0  0.1119786E-02  0.7020923E+03  0.7818609E-02  0.9713661E-01
       -2   -1    0    0    0  501  0.00000000000E+00  0.00000000000E+00  0.23915905510E+03  0.23915905511E+03  0.25500000920E-02 0.  1.
        2   -1    0    0  501    0  0.00000000000E+00  0.00000000000E+00 -0.51527795289E+03  0.51527795290E+03  0.25500000920E-02 0. -1.
    10030    2    1    2    0    0  0.00000000000E+00  0.00000000000E+00 -0.27611889779E+03  0.75443700801E+03  0.70209226839E+03 0.  0.
        3    1    3    3  502    0  0.32051675673E+03 -0.14313672418E+03 -0.14211793825E+03  0.37870388396E+03  0.10100000352E+00 0.  1.
       -3    1    3    3    0  502 -0.32051675673E+03  0.14313672418E+03 -0.13400095955E+03  0.37573312405E+03  0.10100000352E+00 0. -1.
</event>
<event>
 5   0  0.1099980E-02  0.7001355E+03  0.7818609E-02  0.9717001E-01
       -2   -1    0    0    0  501  0.00000000000E+00  0.00000000000E+00  0.30102505653E+03  0.30102505655E+03  0.25500000920E-02 0. -1.
        2   -1    0    0  501    0  0.00000000000E+00  0.00000000000E+00 -0.40710038506E+03  0.40710038506E+03  0.25500000920E-02 0.  1.
    10030    2    1    2    0    0  0.00000000000E+00  0.00000000000E+00 -0.10607532852E+03  0.70812544161E+03  0.70013546242E+03 0.  0.
        5    1    3    3  502    0  0.30131445115E+03  0.15885719734E+03 -0.13457603759E+03  0.36627695465E+03  0.46999998093E+01 0. -1.
       -5    1    3    3    0  502 -0.30131445115E+03 -0.15885719734E+03  0.28500709065E+02  0.34184848696E+03  0.46999998093E+01 0.  1.
</event>
<event>
 5   0  0.6246998E-03  0.6990809E+03  0.7818609E-02  0.9718805E-01
       -1   -1    0    0    0  501  0.00000000000E+00  0.00000000000E+00  0.40168282712E+03  0.40168282715E+03  0.50400001928E-02 0. -1.
        1   -1    0    0  501    0  0.00000000000E+00  0.00000000000E+00 -0.30416664585E+03  0.30416664589E+03  0.50400001928E-02 0.  1.
    10030    2    1    2    0    0  0.00000000000E+00  0.00000000000E+00  0.97516181264E+02  0.70584947304E+03  0.69908087728E+03 0.  0.
        4    1    3    3  502    0  0.28083294322E+02  0.54432978695E+02 -0.29870357011E+03  0.30492139362E+03  0.12699999809E+01 0.  1.
       -4    1    3    3    0  502 -0.28083294322E+02 -0.54432978695E+02  0.39621975137E+03  0.40092807942E+03  0.12699999809E+01 0. -1.
</event>
<event>
 5   0  0.6689415E-03  0.6835060E+03  0.7818609E-02  0.9745862E-01
        1   -1    0    0  501    0  0.00000000000E+00  0.00000000000E+00  0.59030317359E+03  0.59030317361E+03  0.50400001928E-02 0.  1.
       -1   -1    0    0    0  501  0.00000000000E+00  0.00000000000E+00 -0.19785614541E+03  0.19785614547E+03  0.50400001928E-02 0. -1.
    10030    2    1    2    0    0  0.00000000000E+00  0.00000000000E+00  0.39244702818E+03  0.78815931908E+03  0.68350599290E+03 0.  0.
        1    1    3    3  502    0  0.29303053211E+03 -0.21980632545E+02 -0.49775039492E+01  0.29389592805E+03  0.50400001928E-02 0. -1.
       -1    1    3    3    0  502 -0.29303053211E+03  0.21980632545E+02  0.39742453213E+03  0.49426339103E+03  0.50400001928E-02 0.  1.
</event>
<event>
 5   0  0.6990118E-03  0.6970032E+03  0.7818609E-02  0.9722371E-01
       -1   -1    0    0    0  501  0.00000000000E+00  0.00000000000E+00  0.12644614899E+03  0.12644614909E+03  0.50400001928E-02 0. -1.
        1   -1    0    0  501    0  0.00000000000E+00  0.00000000000E+00 -0.96051448727E+03  0.96051448729E+03  0.50400001928E-02 0.  1.
    10030    2    1    2    0    0  0.00000000000E+00  0.00000000000E+00 -0.83406833828E+03  0.10869606364E+04  0.69700317942E+03 0.  0.
        5    1    3    3  502    0 -0.12038597291E+03 -0.20282577864E+03 -0.81706423002E+03  0.85043937169E+03  0.46999998093E+01 0.  1.
       -5    1    3    3    0  502  0.12038597291E+03  0.20282577864E+03 -0.17004108259E+02  0.23652126468E+03  0.46999998093E+01 0. -1.
</event>
<event>
 5   0  0.1100119E-02  0.7130826E+03  0.7818609E-02  0.9695117E-01
       -2   -1    0    0    0  501  0.00000000000E+00  0.00000000000E+00  0.82827684662E+02  0.82827684702E+02  0.25500000920E-02 0. -1.
        2   -1    0    0  501    0  0.00000000000E+00  0.00000000000E+00 -0.15347731016E+04  0.15347731016E+04  0.25500000920E-02 0.  1.
    10030    2    1    2    0    0  0.00000000000E+00  0.00000000000E+00 -0.14519454169E+04  0.16176007863E+04  0.71308261097E+03 0.  0.
        4    1    3    3  502    0  0.72876856489E+02 -0.28190933734E+03 -0.11927259388E+04  0.12277543275E+04  0.12699999809E+01 0.  1.
       -4    1    3    3    0  502 -0.72876856489E+02  0.28190933734E+03 -0.25921947810E+03  0.38984645878E+03  0.12699999809E+01 0. -1.
</event>
<event>
 5   0  0.1100119E-02  0.6988000E+03  0.7818609E-02  0.9719287E-01
        2   -1    0    0  501    0  0.00000000000E+00  0.00000000000E+00  0.93074828084E+03  0.93074828084E+03  0.25500000920E-02 0. -1.
       -2   -1    0    0    0  501  0.00000000000E+00  0.00000000000E+00 -0.13116365970E+03  0.13116365973E+03  0.25500000920E-02 0.  1.
    10030    2    1    2    0    0  0.00000000000E+00  0.00000000000E+00  0.79958462113E+03  0.10619119406E+04  0.69879997365E+03 0.  0.
        4    1    3    3  502    0  0.33978647764E+03 -0.66230878358E+02  0.47167153628E+03  0.58507865340E+03  0.12699999809E+01 0. -1.
       -4    1    3    3    0  502 -0.33978647764E+03  0.66230878358E+02  0.32791308485E+03  0.47683328717E+03  0.12699999809E+01 0.  1.
</event>
<event>
 5   0  0.1099980E-02  0.7003542E+03  0.7818609E-02  0.9716627E-01
        2   -1    0    0  501    0  0.00000000000E+00  0.00000000000E+00  0.22307259022E+03  0.22307259023E+03  0.25500000920E-02 0. -1.
       -2   -1    0    0    0  501  0.00000000000E+00  0.00000000000E+00 -0.54970446430E+03  0.54970446431E+03  0.25500000920E-02 0.  1.
    10030    2    1    2    0    0  0.00000000000E+00  0.00000000000E+00 -0.32663187409E+03  0.77277705454E+03  0.70035419243E+03 0.  0.
        5    1    3    3  502    0  0.32215178956E+03 -0.89717548940E+02 -0.27783093612E+03  0.43479090741E+03  0.46999998093E+01 0.  1.
       -5    1    3    3    0  502 -0.32215178956E+03  0.89717548940E+02 -0.48800937968E+02  0.33798614713E+03  0.46999998093E+01 0. -1.
</event>
<event>
 5   0  0.1100119E-02  0.6985338E+03  0.7818609E-02  0.9719743E-01
        2   -1    0    0  501    0  0.00000000000E+00  0.00000000000E+00  0.10283693209E+04  0.10283693209E+04  0.25500000920E-02 0.  1.
       -2   -1    0    0    0  501  0.00000000000E+00  0.00000000000E+00 -0.11862214145E+03  0.11862214147E+03  0.25500000920E-02 0. -1.
    10030    2    1    2    0    0  0.00000000000E+00  0.00000000000E+00  0.90974717947E+03  0.11469914624E+04  0.69853381038E+03 0.  0.
        4    1    3    3  502    0 -0.27694328027E+03  0.17231734077E+02  0.10658699491E+03  0.29724890837E+03  0.12699999809E+01 0. -1.
       -4    1    3    3    0  502  0.27694328027E+03 -0.17231734077E+02  0.80316018456E+03  0.84974255402E+03  0.12699999809E+01 0.  1.
</event>
<event>
 5   0  0.1079446E-02  0.7079855E+03  0.7818609E-02  0.9703673E-01
       -2   -1    0    0    0  501  0.00000000000E+00  0.00000000000E+00  0.10434978115E+03  0.10434978119E+03  0.25500000920E-02 0. -1.
        2   -1    0    0  501    0  0.00000000000E+00  0.00000000000E+00 -0.12008733949E+04  0.12008733949E+04  0.25500000920E-02 0.  1.
    10030    2    1    2    0    0  0.00000000000E+00  0.00000000000E+00 -0.10965236137E+04  0.13052231761E+04  0.70798552519E+03 0.  0.
        2    1    3    3  502    0  0.18959506487E+03 -0.23843967217E+03 -0.88067350377E+03  0.93187208679E+03  0.25500000920E-02 0.  1.
       -2    1    3    3    0  502 -0.18959506487E+03  0.23843967217E+03 -0.21585010994E+03  0.37335108927E+03  0.25500000920E-02 0. -1.
</event>
<event>
 5   0  0.1099980E-02  0.7003303E+03  0.7818609E-02  0.9716668E-01
       -2   -1    0    0    0  501  0.00000000000E+00  0.00000000000E+00  0.12518545619E+03  0.12518545622E+03  0.25500000920E-02 0. -1.
        2   -1    0    0  501    0  0.00000000000E+00  0.00000000000E+00 -0.97947175741E+03  0.97947175741E+03  0.25500000920E-02 0.  1.
    10030    2    1    2    0    0  0.00000000000E+00  0.00000000000E+00 -0.85428630121E+03  0.11046572136E+04  0.70033026151E+03 0.  0.
        5    1    3    3  502    0 -0.22988150834E+03  0.18671011109E+03 -0.13252556611E+03  0.32448619251E+03  0.46999998093E+01 0. -1.
       -5    1    3    3    0  502  0.22988150834E+03 -0.18671011109E+03 -0.72176073510E+03  0.78017102112E+03  0.46999998093E+01 0.  1.
</event>
<event>
 5   0  0.1099980E-02  0.6983993E+03  0.7818609E-02  0.9719973E-01
       -2   -1    0    0    0  501  0.00000000000E+00  0.00000000000E+00  0.63595412440E+03  0.63595412440E+03  0.25500000920E-02 0. -1.
        2   -1    0    0  501    0  0.00000000000E+00  0.00000000000E+00 -0.19174402172E+03  0.19174402173E+03  0.25500000920E-02 0.  1.
    10030    2    1    2    0    0  0.00000000000E+00  0.00000000000E+00  0.44421010268E+03  0.82769814614E+03  0.69839931686E+03 0.  0.
        5    1    3    3  502    0  0.11233724381E+02 -0.32005068977E+03  0.38700372458E+03  0.50234710452E+03  0.46999998093E+01 0. -1.
       -5    1    3    3    0  502 -0.11233724381E+02  0.32005068977E+03  0.57206378104E+02  0.32535104161E+03  0.46999998093E+01 0.  1.
</event>
<event>
 5   0  0.4440500E-03  0.7115146E+03  0.7818609E-02  0.9697741E-01
        4   -1    0    0  501    0  0.00000000000E+00  0.00000000000E+00  0.20277977701E+03  0.20278375394E+03  0.12699999809E+01 0.  1.
       -4   -1    0    0    0  501  0.00000000000E+00  0.00000000000E+00 -0.62413061655E+03  0.62413190867E+03  0.12699999809E+01 0. -1.
    10030    2    1    2    0    0  0.00000000000E+00  0.00000000000E+00 -0.42135083955E+03  0.82691566261E+03  0.71151456983E+03 0.  0.
        3    1    3    3  502    0 -0.19933359405E+03 -0.27557984439E+03 -0.89422083730E+02  0.35167378579E+03  0.10100000352E+00 0.  1.
       -3    1    3    3    0  502  0.19933359405E+03  0.27557984439E+03 -0.33192875582E+03  0.47524187683E+03  0.10100000352E+00 0. -1.
</event>
<event>
 5   0  0.4440500E-03  0.6883067E+03  0.7818609E-02  0.9737441E-01
        4   -1    0    0  501    0  0.00000000000E+00  0.00000000000E+00  0.19646980031E+03  0.19647390497E+03  0.12699999809E+01 0.  1.
       -4   -1    0    0    0  501  0.00000000000E+00  0.00000000000E+00 -0.60283737131E+03  0.60283870907E+03  0.12699999809E+01 0. -1.
    10030    2    1    2    0    0  0.00000000000E+00  0.00000000000E+00 -0.40636757100E+03  0.79931261404E+03  0.68830665565E+03 0.  0.
        5    1    3    3  502    0 -0.26798643400E+03 -0.51689851273E+01  0.47436187600E+02  0.27224204141E+03  0.46999998093E+01 0.  1.
       -5    1    3    3    0  502  0.26798643400E+03  0.51689851273E+01 -0.45380375860E+03  0.52707057263E+03  0.46999998093E+01 0. -1.
</event>
<event>
 5   0  0.4440500E-03  0.6948859E+03  0.7818609E-02  0.9726018E-01
        4   -1    0    0  501    0  0.00000000000E+00  0.00000000000E+00  0.32350744362E+03  0.32350993645E+03  0.12699999809E+01 0.  1.
       -4   -1    0    0    0  501  0.00000000000E+00  0.00000000000E+00 -0.37314435847E+03  0.37314651969E+03  0.12699999809E+01 0. -1.
    10030    2    1    2    0    0  0.00000000000E+00  0.00000000000E+00 -0.49636914846E+02  0.69665645614E+03  0.69488588600E+03 0.  0.
        2    1    3    3  502    0  0.11789993473E+02 -0.83579682857E+02 -0.36271139026E+03  0.37240316858E+03  0.25500000920E-02 0. -1.
       -2    1    3    3    0  502 -0.11789993473E+02  0.83579682857E+02  0.31307447542E+03  0.32425328756E+03  0.25500000920E-02 0.  1.
</event>
<event>
 5   0  0.6785252E-03  0.6999947E+03  0.7818609E-02  0.9717241E-01
        1   -1    0    0  501    0  0.00000000000E+00  0.00000000000E+00  0.61633408343E+03  0.61633408345E+03  0.50400001928E-02 0. -1.
       -1   -1    0    0    0  501  0.00000000000E+00  0.00000000000E+00 -0.19875285025E+03  0.19875285031E+03  0.50400001928E-02 0.  1.
    10030    2    1    2    0    0  0.00000000000E+00  0.00000000000E+00  0.41758123319E+03  0.81508693377E+03  0.69999473090E+03 0.  0.
        3    1    3    3  502    0 -0.60610694729E+02  0.31677907652E+03  0.50517435612E+02  0.32645774786E+03  0.10100000352E+00 0.  1.
       -3    1    3    3    0  502  0.60610694729E+02 -0.31677907652E+03  0.36706379757E+03  0.48862918591E+03  0.10100000352E+00 0. -1.
</event>
<event>
 5   0  0.1119786E-02  0.7004823E+03  0.7818609E-02  0.9716408E-01
       -2   -1    0    0    0  501  0.00000000000E+00  0.00000000000E+00  0.13258411222E+03  0.13258411225E+03  0.25500000920E-02 0. -1.
        2   -1    0    0  501    0  0.00000000000E+00  0.00000000000E+00 -0.92521538408E+03  0.92521538408E+03  0.25500000920E-02 0.  1.
    10030    2    1    2    0    0  0.00000000000E+00  0.00000000000E+00 -0.79263127186E+03  0.10577994963E+04  0.70048229193E+03 0.  0.
        3    1    3    3  502    0  0.19392217932E+03 -0.94209665207E+02 -0.81313537494E+03  0.84123149063E+03  0.10100000352E+00 0.  1.
       -3    1    3    3    0  502 -0.19392217932E+03  0.94209665207E+02  0.20504103076E+02  0.21656800570E+03  0.10100000352E+00 0. -1.
</event>
<event>
 5   0  0.6689415E-03  0.7181714E+03  0.7818609E-02  0.9686652E-01
        1   -1    0    0  501    0  0.00000000000E+00  0.00000000000E+00  0.77136511355E+03  0.77136511357E+03  0.50400001928E-02 0.  1.
       -1   -1    0    0    0  501  0.00000000000E+00  0.00000000000E+00 -0.16716148113E+03  0.16716148121E+03  0.50400001928E-02 0. -1.
    10030    2    1    2    0    0  0.00000000000E+00  0.00000000000E+00  0.60420363242E+03  0.93852659477E+03  0.71817138600E+03 0.  0.
        1    1    3    3  502    0  0.50349490349E+02 -0.35754832234E+02  0.76437379568E+03  0.76686425053E+03  0.50400001928E-02 0.  1.
       -1    1    3    3    0  502 -0.50349490349E+02  0.35754832234E+02 -0.16017016326E+03  0.17166234424E+03  0.50400001928E-02 0. -1.
</event>
<event>
 5   0  0.6609285E-03  0.6985366E+03  0.7818609E-02  0.9719738E-01
        1   -1    0    0  501    0  0.00000000000E+00  0.00000000000E+00  0.21780971510E+03  0.21780971516E+03  0.50400001928E-02 0. -1.
       -1   -1    0    0    0  501  0.00000000000E+00  0.00000000000E+00 -0.56006841007E+03  0.56006841010E+03  0.50400001928E-02 0.  1.
    10030    2    1    2    0    0  0.00000000000E+00  0.00000000000E+00 -0.34225869497E+03  0.77787812526E+03  0.69853658706E+03 0.  0.
        2    1    3    3  502    0 -0.23959455347E+02 -0.71130917075E+02  0.20872257186E+03  0.22180796847E+03  0.25500000920E-02 0. -1.
       -2    1    3    3    0  502  0.23959455347E+02  0.71130917075E+02 -0.55098126683E+03  0.55607015679E+03  0.25500000920E-02 0.  1.
</event>
<event>
 5   0  0.6990118E-03  0.6931080E+03  0.7818609E-02  0.9729092E-01
        1   -1    0    0  501    0  0.00000000000E+00  0.00000000000E+00  0.15962737545E+03  0.15962737553E+03  0.50400001928E-02 0.  1.
       -1   -1    0    0    0  501  0.00000000000E+00  0.00000000000E+00 -0.75237510834E+03  0.75237510836E+03  0.50400001928E-02 0. -1.
    10030    2    1    2    0    0  0.00000000000E+00  0.00000000000E+00 -0.59274773289E+03  0.91200248389E+03  0.69310796835E+03 0.  0.
        5    1    3    3  502    0  0.68313566170E+02 -0.16361786562E+03 -0.68812482115E+03  0.71061621763E+03  0.46999998093E+01 0. -1.
       -5    1    3    3    0  502 -0.68313566170E+02  0.16361786562E+03  0.95377088267E+02  0.20138626626E+03  0.46999998093E+01 0.  1.
</event>
<event>
 5   0  0.1079446E-02  0.7008215E+03  0.7818609E-02  0.9715828E-01
        2   -1    0    0  501    0  0.00000000000E+00  0.00000000000E+00  0.20905169881E+04  0.20905169881E+04  0.25500000920E-02 0. -1.
       -2   -1    0    0    0  501  0.00000000000E+00  0.00000000000E+00 -0.58735569061E+02  0.58735569116E+02  0.25500000920E-02 0.  1.
    10030    2    1    2    0    0  0.00000000000E+00  0.00000000000E+00  0.20317814191E+04  0.21492525573E+04  0.70082153218E+03 0.  0.
        2    1    3    3  502    0  0.32243638658E+03  0.73151641363E+02  0.13718374948E+04  0.14111181730E+04  0.25500000920E-02 0. -1.
       -2    1    3    3    0  502 -0.32243638658E+03 -0.73151641363E+02  0.65994392424E+03  0.73813438422E+03  0.25500000920E-02 0.  1.
</event>
<event>
 5   0  0.1100119E-02  0.7098787E+03  0.7818609E-02  0.9700486E-01
        2   -1    0    0  501    0  0.00000000000E+00  0.00000000000E+00  0.28801243269E+03  0.28801243270E+03  0.25500000920E-02 0.  1.
       -2   -1    0    0    0  501  0.00000000000E+00  0.00000000000E+00 -0.43741844304E+03  0.43741844305E+03  0.25500000920E-02 0. -1.
    10030    2    1    2    0    0  0.00000000000E+00  0.00000000000E+00 -0.14940601034E+03  0.72543087575E+03  0.70987872173E+03 0.  0.
        4    1    3    3  502    0 -0.12970870597E+03 -0.17084244052E+03  0.21427999820E+03  0.30319798551E+03  0.12699999809E+01 0.  1.
       -4    1    3    3    0  502  0.12970870597E+03  0.17084244052E+03 -0.36368600854E+03  0.42223289024E+03  0.12699999809E+01 0. -1.
</event>
<event>
 5   0  0.6785252E-03  0.7028113E+03  0.7818609E-02  0.9712437E-01
       -1   -1    0    0    0  501  0.00000000000E+00  0.00000000000E+00  0.58794425872E+03  0.58794425874E+03  0.50400001928E-02 0.  1.
        1   -1    0    0  501    0  0.00000000000E+00  0.00000000000E+00 -0.21002998006E+03  0.21002998012E+03  0.50400001928E-02 0. -1.
    10030    2    1    2    0    0  0.00000000000E+00  0.00000000000E+00  0.37791427866E+03  0.79797423886E+03  0.70281127188E+03 0.  0.
        3    1    3    3  502    0 -0.27226944478E+03  0.55565809386E+02 -0.55267295517E+02  0.28332436162E+03  0.10100000352E+00 0. -1.
       -3    1    3    3    0  502  0.27226944478E+03 -0.55565809386E+02  0.43318157418E+03  0.51464987724E+03  0.10100000352E+00 0.  1.
</event>
<event>
 5   0  0.1079446E-02  0.7136209E+03  0.7818609E-02  0.9694218E-01
        2   -1    0    0  501    0  0.00000000000E+00  0.00000000000E+00  0.23471891272E+03  0.23471891273E+03  0.25500000920E-02 0.  1.
       -2   -1    0    0    0  501  0.00000000000E+00  0.00000000000E+00 -0.54240916175E+03  0.54240916175E+03  0.25500000920E-02 0. -1.
    10030    2    1    2    0    0  0.00000000000E+00  0.00000000000E+00 -0.30769024903E+03  0.77712807449E+03  0.71362087610E+03 0.  0.
        2    1    3    3  502    0  0.61171517974E+02 -0.35080669173E+03 -0.17835107346E+03  0.39826673849E+03  0.25500000920E-02 0.  1.
       -2    1    3    3    0  502 -0.61171517974E+02  0.35080669173E+03 -0.12933917556E+03  0.37886133600E+03  0.25500000920E-02 0. -1.
</event>
<event>
 5   0  0.6990118E-03  0.7006582E+03  0.7818609E-02  0.9716107E-01
        1   -1    0    0  501    0  0.00000000000E+00  0.00000000000E+00  0.12181144812E+04  0.12181144812E+04  0.50400001928E-02 0.  1.
       -1   -1    0    0    0  501  0.00000000000E+00  0.00000000000E+00 -0.10075447769E+03  0.10075447781E+03  0.50400001928E-02 0. -1.
    10030    2    1    2    0    0  0.00000000000E+00  0.00000000000E+00  0.11173600035E+04  0.13188689590E+04  0.70065822884E+03 0.  0.
        5    1    3    3  502    0  0.66656497188E+02  0.25918049713E+02 -0.86806548272E+02  0.11257131402E+03  0.46999998093E+01 0. -1.
       -5    1    3    3    0  502 -0.66656497188E+02 -0.25918049713E+02  0.12041665518E+04  0.12062976450E+04  0.46999998093E+01 0.  1.
</event>
<event>
 5   0  0.6990118E-03  0.7068326E+03  0.7818609E-02  0.9705618E-01
        1   -1    0    0  501    0  0.00000000000E+00  0.00000000000E+00  0.85834398826E+03  0.85834398828E+03  0.50400001928E-02 0.  1.
       -1   -1    0    0    0  501  0.00000000000E+00  0.00000000000E+00 -0.14551636198E+03  0.14551636207E+03  0.50400001928E-02 0. -1.
    10030    2    1    2    0    0  0.00000000000E+00  0.00000000000E+00  0.71282762628E+03  0.10038603503E+04  0.70683263804E+03 0.  0.
        5    1    3    3  502    0 -0.13765080284E+03 -0.30187233129E+03  0.18359906246E+03  0.37921676342E+03  0.46999998093E+01 0. -1.
       -5    1    3    3    0  502  0.13765080284E+03  0.30187233129E+03  0.52922856383E+03  0.62464358693E+03  0.46999998093E+01 0.  1.
</event>
<event>
 5   0  0.6246998E-03  0.6973946E+03  0.7818609E-02  0.9721698E-01
        1   -1    0    0  501    0  0.00000000000E+00  0.00000000000E+00  0.11200671119E+04  0.11200671119E+04  0.50400001928E-02 0. -1.
       -1   -1    0    0    0  501  0.00000000000E+00  0.00000000000E+00 -0.10855581830E+03  0.10855581842E+03  0.50400001928E-02 0.  1.
    10030    2    1    2    0    0  0.00000000000E+00  0.00000000000E+00  0.10115112936E+04  0.12286229303E+04  0.69739458548E+03 0.  0.
        4    1    3    3  502    0  0.20908188186E+03 -0.19218916154E+03  0.86220205492E+03  0.90776974148E+03  0.12699999809E+01 0. -1.
       -4    1    3    3    0  502 -0.20908188186E+03  0.19218916154E+03  0.14930923865E+03  0.32085318883E+03  0.12699999809E+01 0.  1.
</event>
<event>
 5   0  0.6609285E-03  0.6993200E+03  0.7818609E-02  0.9718396E-01
       -1   -1    0    0    0  501  0.00000000000E+00  0.00000000000E+00  0.23686577131E+03  0.23686577137E+03  0.50400001928E-02 0. -1.
        1   -1    0    0  501    0  0.00000000000E+00  0.00000000000E+00 -0.51616621390E+03  0.51616621392E+03  0.50400001928E-02 0.  1.
    10030    2    1    2    0    0  0.00000000000E+00  0.00000000000E+00 -0.27930044258E+03  0.75303198529E+03  0.69931997944E+03 0.  0.
        2    1    3    3  502    0  0.11756775588E+02  0.35178634923E+02 -0.51404184200E+03  0.51537828190E+03  0.25500000920E-02 0.  1.
       -2    1    3    3    0  502 -0.11756775588E+02 -0.35178634923E+02  0.23474139941E+03  0.23765370338E+03  0.25500000920E-02 0. -1.
</event>
<event>
 5   0  0.6990118E-03  0.7006727E+03  0.7818609E-02  0.9716083E-01
        1   -1    0    0  501    0  0.00000000000E+00  0.00000000000E+00  0.39008231116E+03  0.39008231120E+03  0.50400001928E-02 0. -1.
       -1   -1    0    0    0  501  0.00000000000E+00  0.00000000000E+00 -0.31464012326E+03  0.31464012330E+03  0.50400001928E-02 0.  1.
    10030    2    1    2    0    0  0.00000000000E+00  0.00000000000E+00  0.75442187904E+02  0.70472243450E+03  0.70067266678E+03 0.  0.
        5    1    3    3  502    0 -0.33589923599E+03  0.40763328278E+01 -0.62193619212E+02  0.34166511309E+03  0.46999998093E+01 0. -1.
       -5    1    3    3    0  502  0.33589923599E+03 -0.40763328278E+01  0.13763580712E+03  0.36305732141E+03  0.46999998093E+01 0.  1.
</event>
<event>
 5   0  0.6689415E-03  0.6985011E+03  0.7818609E-02  0.9719799E-01
       -1   -1    0    0    0  501  0.00000000000E+00  0.00000000000E+00  0.72421312651E+03  0.72421312653E+03  0.50400001928E-02 0.  1.
        1   -1    0    0  501    0  0.00000000000E+00  0.00000000000E+00 -0.16842546135E+03  0.16842546143E+03  0.50400001928E-02 0. -1.
    10030    2    1    2    0    0  0.00000000000E+00  0.00000000000E+00  0.55578766516E+03  0.89263858795E+03  0.69850105222E+03 0.  0.
        1    1    3    3  502    0  0.20398848856E+03  0.20041819576E+03  0.21677771965E+02  0.28679031100E+03  0.50400001928E-02 0. -1.
       -1    1    3    3    0  502 -0.20398848856E+03 -0.20041819576E+03  0.53410989319E+03  0.60584827695E+03  0.50400001928E-02 0.  1.
</event>
<event>
 5   0  0.1119786E-02  0.7001905E+03  0.7818609E-02  0.9716906E-01
       -2   -1    0    0    0  501  0.00000000000E+00  0.00000000000E+00  0.21209913302E+03  0.21209913304E+03  0.25500000920E-02 0. -1.
        2   -1    0    0  501    0  0.00000000000E+00  0.00000000000E+00 -0.57787455865E+03  0.57787455865E+03  0.25500000920E-02 0.  1.
    10030    2    1    2    0    0  0.00000000000E+00  0.00000000000E+00 -0.36577542562E+03  0.78997369169E+03  0.70019052519E+03 0.  0.
        3    1    3    3  502    0  0.32302513733E+03  0.38595504621E+02 -0.36949801900E+02  0.32741434053E+03  0.10100000352E+00 0.  1.
       -3    1    3    3    0  502 -0.32302513733E+03 -0.38595504621E+02 -0.32882562372E+03  0.46255935116E+03  0.10100000352E+00 0. -1.
</event>
<event>
 5   0  0.1119786E-02  0.6984041E+03  0.7818609E-02  0.9719965E-01
        2   -1    0    0  501    0  0.00000000000E+00  0.00000000000E+00  0.49733999639E+03  0.49733999640E+03  0.25500000920E-02 0. -1.
       -2   -1    0    0    0  501  0.00000000000E+00  0.00000000000E+00 -0.24518855309E+03  0.24518855311E+03  0.25500000920E-02 0.  1.
    10030    2    1    2    0    0  0.00000000000E+00  0.00000000000E+00  0.25215144330E+03  0.74252854951E+03  0.69840410686E+03 0.  0.
        3    1    3    3  502    0 -0.25159216645E+03  0.65593861995E+02  0.37391477946E+03  0.45542666309E+03  0.10100000352E+00 0. -1.
       -3    1    3    3    0  502  0.25159216645E+03 -0.65593861995E+02 -0.12176333617E+03  0.28710188642E+03  0.10100000352E+00 0.  1.
</event>
<event>
 5   0  0.6990118E-03  0.6973278E+03  0.7818609E-02  0.9721813E-01
        1   -1    0    0  501    0  0.00000000000E+00  0.00000000000E+00  0.97867750118E+03  0.97867750119E+03  0.50400001928E-02 0.  1.
       -1   -1    0    0    0  501  0.00000000000E+00  0.00000000000E+00 -0.12421509854E+03  0.12421509864E+03  0.50400001928E-02 0. -1.
    10030    2    1    2    0    0  0.00000000000E+00  0.00000000000E+00  0.85446240264E+03  0.11028925998E+04  0.69732782050E+03 0.  0.
        5    1    3    3  502    0  0.30945650748E+03  0.16039408241E+03  0.43894364173E+03  0.56052047448E+03  0.46999998093E+01 0. -1.
       -5    1    3    3    0  502 -0.30945650748E+03 -0.16039408241E+03  0.41551876090E+03  0.54237212535E+03  0.46999998093E+01 0.  1.
</event>
<event>
 5   0  0.6689415E-03  0.7005366E+03  0.7818609E-02  0.9716315E-01
        1   -1    0    0  501    0  0.00000000000E+00  0.00000000000E+00  0.76939434483E+03  0.76939434485E+03  0.50400001928E-02 0. -1.
       -1   -1    0    0    0  501  0.00000000000E+00  0.00000000000E+00 -0.15946032658E+03  0.15946032666E+03  0.50400001928E-02 0.  1.
    10030    2    1    2    0    0  0.00000000000E+00  0.00000000000E+00  0.60993401825E+03  0.92885467151E+03  0.70053657590E+03 0.  0.
        1    1    3    3  502    0  0.49471426812E+02  0.34600643573E+03  0.27473146841E+03  0.44457311592E+03  0.50400001928E-02 0. -1.
       -1    1    3    3    0  502 -0.49471426812E+02 -0.34600643573E+03  0.33520254984E+03  0.48428155559E+03  0.50400001928E-02 0.  1.
</event>
<event>
 5   0  0.6785252E-03  0.6971118E+03  0.7818609E-02  0.9722184E-01
       -1   -1    0    0    0  501  0.00000000000E+00  0.00000000000E+00  0.13010958932E+04  0.13010958932E+04  0.50400001928E-02 0. -1.
        1   -1    0    0  501    0  0.00000000000E+00  0.00000000000E+00 -0.93376075139E+02  0.93376075275E+02  0.50400001928E-02 0.  1.
    10030    2    1    2    0    0  0.00000000000E+00  0.00000000000E+00  0.12077198181E+04  0.13944719685E+04  0.69711183605E+03 0.  0.
        3    1    3    3  502    0  0.26805173421E+03 -0.93023147430E+02  0.10088328924E+04  0.10479736892E+04  0.10100000352E+00 0. -1.
       -3    1    3    3    0  502 -0.26805173421E+03  0.93023147430E+02  0.19888692563E+03  0.34649827930E+03  0.10100000352E+00 0.  1.
</event>
<event>
 5   0  0.1079446E-02  0.7011420E+03  0.7818609E-02  0.9715281E-01
       -2   -1    0    0    0  501  0.00000000000E+00  0.00000000000E+00  0.25021544232E+03  0.25021544233E+03  0.25500000920E-02 0.  1.
        2   -1    0    0  501    0  0.00000000000E+00  0.00000000000E+00 -0.49117685895E+03  0.49117685896E+03  0.25500000920E-02 0. -1.
    10030    2    1    2    0    0  0.00000000000E+00  0.00000000000E+00 -0.24096141664E+03  0.74139230129E+03  0.70114202563E+03 0.  0.
        2    1    3    3  502    0  0.14842442948E+03 -0.31754733825E+03 -0.12663838700E+03  0.37269747029E+03  0.25500000920E-02 0. -1.
       -2    1    3    3    0  502 -0.14842442948E+03  0.31754733825E+03 -0.11432302964E+03  0.36869483100E+03  0.25500000920E-02 0.  1.
</event>
<event>
 5   0  0.1079446E-02  0.7047889E+03  0.7818609E-02  0.9709077E-01
       -2   -1    0    0    0  501  0.00000000000E+00  0.00000000000E+00  0.12707803371E+03  0.12707803373E+03  0.25500000920E-02 0. -1.
        2   -1    0    0  501    0  0.00000000000E+00  0.00000000000E+00 -0.97720941750E+03  0.97720941751E+03  0.25500000920E-02 0.  1.
    10030    2    1    2    0    0  0.00000000000E+00  0.00000000000E+00 -0.85013138380E+03  0.11042874512E+04  0.70478890829E+03 0.  0.
        2    1    3    3  502    0  0.18896166632E+03 -0.26653559948E+03 -0.63194784110E+03  0.71141114063E+03  0.25500000920E-02 0. -1.
       -2    1    3    3    0  502 -0.18896166632E+03  0.26653559948E+03 -0.21818354269E+03  0.39287631061E+03  0.25500000920E-02 0.  1.
</event>
<event>
 5   0  0.6246998E-03  0.7000998E+03  0.7818609E-02  0.9717061E-01
       -1   -1    0    0    0  501  0.00000000000E+00  0.00000000000E+00  0.10480026089E+03  0.10480026101E+03  0.50400001928E-02 0.  1.
        1   -1    0    0  501    0  0.00000000000E+00  0.00000000000E+00 -0.11692236940E+04  0.11692236940E+04  0.50400001928E-02 0. -1.
    10030    2    1    2    0    0  0.00000000000E+00  0.00000000000E+00 -0.10644234331E+04  0.12740239550E+04  0.70009984503E+03 0.  0.
        4    1    3    3  502    0 -0.28622399458E+01 -0.11921733127E+03  0.66691497235E+02  0.13663942768E+03  0.12699999809E+01 0.  1.
       -4    1    3    3    0  502  0.28622399458E+01  0.11921733127E+03 -0.11311149304E+04  0.11373845274E+04  0.12699999809E+01 0. -1.
</event>
<event>
 5   0  0.1109788E-02  0.6931669E+03  0.7818609E-02  0.9728990E-01
       -2   -1    0    0    0  501  0.00000000000E+00  0.00000000000E+00  0.93392739480E+02  0.93392739515E+02  0.25500000920E-02 0. -1.
        2   -1    0    0  501    0  0.00000000000E+00  0.00000000000E+00 -0.12861824316E+04  0.12861824316E+04  0.25500000920E-02 0.  1.
    10030    2    1    2    0    0  0.00000000000E+00  0.00000000000E+00 -0.11927896921E+04  0.13795751711E+04  0.69316693742E+03 0.  0.
        1    1    3    3  502    0 -0.15733450795E+02 -0.34610556614E+03 -0.61458101934E+03  0.70551146961E+03  0.50400001928E-02 0.  1.
       -1    1    3    3    0  502  0.15733450795E+02  0.34610556614E+03 -0.57820867277E+03  0.67406370150E+03  0.50400001928E-02 0. -1.
</event>
<event>
 5   0  0.6990118E-03  0.6994014E+03  0.7818609E-02  0.9718256E-01
        1   -1    0    0  501    0  0.00000000000E+00  0.00000000000E+00  0.93885251879E+03  0.93885251880E+03  0.50400001928E-02 0.  1.
       -1   -1    0    0    0  501  0.00000000000E+00  0.00000000000E+00 -0.13025536241E+03  0.13025536251E+03  0.50400001928E-02 0. -1.
    10030    2    1    2    0    0  0.00000000000E+00  0.00000000000E+00  0.80859715638E+03  0.10691078813E+04  0.69940138731E+03 0.  0.
        5    1    3    3  502    0 -0.11545316200E+03 -0.14553851693E+03  0.85713087322E+03  0.87704407891E+03  0.46999998093E+01 0.  1.
       -5    1    3    3    0  502  0.11545316200E+03  0.14553851693E+03 -0.48533716837E+02  0.19206380241E+03  0.46999998093E+01 0. -1.
</event>
<event>
 5   0  0.1099980E-02  0.7010484E+03  0.7818609E-02  0.9715441E-01
       -2   -1    0    0    0  501  0.00000000000E+00  0.00000000000E+00  0.92514885089E+02  0.92514885125E+02  0.25500000920E-02 0.  1.
        2   -1    0    0  501    0  0.00000000000E+00  0.00000000000E+00 -0.13280804298E+04  0.13280804298E+04  0.25500000920E-02 0. -1.
    10030    2    1    2    0    0  0.00000000000E+00  0.00000000000E+00 -0.12355655447E+04  0.14205953149E+04  0.70104838172E+03 0.  0.
        5    1    3    3  502    0  0.23485270252E+03  0.33878020514E+02 -0.11405026637E+04  0.11649343021E+04  0.46999998093E+01 0. -1.
       -5    1    3    3    0  502 -0.23485270252E+03 -0.33878020514E+02 -0.95062880974E+02  0.25566101285E+03  0.46999998093E+01 0.  1.
</event>
<event>
 5   0  0.1099980E-02  0.6996956E+03  0.7818609E-02  0.9717753E-01
       -2   -1    0    0    0  501  0.00000000000E+00  0.00000000000E+00  0.13404945014E+03  0.13404945016E+03  0.25500000920E-02 0.  1.
        2   -1    0    0  501    0  0.00000000000E+00  0.00000000000E+00 -0.91304720408E+03  0.91304720409E+03  0.25500000920E-02 0. -1.
    10030    2    1    2    0    0  0.00000000000E+00  0.00000000000E+00 -0.77899775394E+03  0.10470966542E+04  0.69969557858E+03 0.  0.
        5    1    3    3  502    0  0.45810349784E+02 -0.29645075098E+03 -0.12017091873E+03  0.32317916951E+03  0.46999998093E+01 0.  1.
       -5    1    3    3    0  502 -0.45810349784E+02  0.29645075098E+03 -0.65882683522E+03  0.72391748473E+03  0.46999998093E+01 0. -1.
</event>
<event>
 5   0  0.4440500E-03  0.6977877E+03  0.7818609E-02  0.9721023E-01
       -3   -1    0    0    0  501  0.00000000000E+00  0.00000000000E+00  0.74805220816E+03  0.74805221497E+03  0.10100000352E+00 0.  1.
        3   -1    0    0  501    0  0.00000000000E+00  0.00000000000E+00 -0.16272515397E+03  0.16272518532E+03  0.10100000352E+00 0. -1.
    10030    2    1    2    0    0  0.00000000000E+00  0.00000000000E+00  0.58532705418E+03  0.91077740029E+03  0.69778772740E+03 0.  0.
        1    1    3    3  502    0  0.38333505498E+02  0.54093227911E+02  0.73975463510E+03  0.74271963426E+03  0.50400001928E-02 0.  1.
       -1    1    3    3    0  502 -0.38333505498E+02 -0.54093227911E+02 -0.15442758091E+03  0.16805776602E+03  0.50400001928E-02 0. -1.
</event>
<event>
 5   0  0.1079446E-02  0.7011713E+03  0.7818609E-02  0.9715231E-01
        2   -1    0    0  501    0  0.00000000000E+00  0.00000000000E+00  0.35196940131E+03  0.35196940132E+03  0.25500000920E-02 0.  1.
       -2   -1    0    0    0  501  0.00000000000E+00  0.00000000000E+00 -0.34920729332E+03  0.34920729333E+03  0.25500000920E-02 0. -1.
    10030    2    1    2    0    0  0.00000000000E+00  0.00000000000E+00  0.27621079904E+01  0.70117669465E+03  0.70117125431E+03 0.  0.
        2    1    3    3  502    0 -0.53386156353E+02  0.89196296149E+02  0.33620333618E+03  0.35190729490E+03  0.25500000920E-02 0.  1.
       -2    1    3    3    0  502  0.53386156353E+02 -0.89196296149E+02 -0.33344122819E+03  0.34926939975E+03  0.25500000920E-02 0. -1.
</event>
<event>
 5   0  0.6990118E-03  0.6983468E+03  0.7818609E-02  0.9720064E-01
       -1   -1    0    0    0  501  0.00000000000E+00  0.00000000000E+00  0.34783988989E+03  0.34783988992E+03  0.50400001928E-02 0. -1.
        1   -1    0    0  501    0  0.00000000000E+00  0.00000000000E+00 -0.35051198332E+03  0.35051198335E+03  0.50400001928E-02 0.  1.
    10030    2    1    2    0    0  0.00000000000E+00  0.00000000000E+00 -0.26720934281E+01  0.69835187328E+03  0.69834676116E+03 0.  0.
        5    1    3    3  502    0  0.15793060362E+03 -0.13276972699E+03  0.28032198209E+03  0.34809823270E+03  0.46999998093E+01 0. -1.
       -5    1    3    3    0  502 -0.15793060362E+03  0.13276972699E+03 -0.28299407552E+03  0.35025364058E+03  0.46999998093E+01 0.  1.
</event>
<event>
 5   0  0.1119786E-02  0.6752066E+03  0.7818609E-02  0.9760598E-01
        2   -1    0    0  501    0  0.00000000000E+00  0.00000000000E+00  0.84121030760E+03  0.84121030760E+03  0.25500000920E-02 0.  1.
       -2   -1    0    0    0  501  0.00000000000E+00  0.00000000000E+00 -0.13549047539E+03  0.13549047541E+03  0.25500000920E-02 0. -1.
    10030    2    1    2    0    0  0.00000000000E+00  0.00000000000E+00  0.70571983221E+03  0.97670078302E+03  0.67520658910E+03 0.  0.
        3    1    3    3  502    0  0.69589722892E+02 -0.20498554897E+03 -0.21881742142E+02  0.21757901016E+03  0.10100000352E+00 0. -1.
       -3    1    3    3    0  502 -0.69589722892E+02  0.20498554897E+03  0.72760157436E+03  0.75912177286E+03  0.10100000352E+00 0.  1.
</event>
<event>
 5   0  0.6785252E-03  0.6969677E+03  0.7818609E-02  0.9722432E-01
       -1   -1    0    0    0  501  0.00000000000E+00  0.00000000000E+00  0.49241081353E+03  0.49241081355E+03  0.50400001928E-02 0. -1.
        1   -1    0    0  501    0  0.00000000000E+00  0.00000000000E+00 -0.24662536247E+03  0.24662536252E+03  0.50400001928E-02 0.  1.
    10030    2    1    2    0    0  0.00000000000E+00  0.00000000000E+00  0.24578545106E+03  0.73903617608E+03  0.69696770484E+03 0.  0.
        3    1    3    3  502    0 -0.12446756474E+03 -0.39141933710E+02  0.46553272871E+03  0.48347181650E+03  0.10100000352E+00 0. -1.
       -3    1    3    3    0  502  0.12446756474E+03  0.39141933710E+02 -0.21974727765E+03  0.25556435957E+03  0.10100000352E+00 0.  1.
</event>
<event>
 5   0  0.1100119E-02  0.6991052E+03  0.7818609E-02  0.9718764E-01
        2   -1    0    0  501    0  0.00000000000E+00  0.00000000000E+00  0.95833029368E+03  0.95833029369E+03  0.25500000920E-02 0.  1.
       -2   -1    0    0    0  501  0.00000000000E+00  0.00000000000E+00 -0.12749988794E+03  0.12749988796E+03  0.25500000920E-02 0. -1.
    10030    2    1    2    0    0  0.00000000000E+00  0.00000000000E+00  0.83083040575E+03  0.10858301816E+04  0.69910515680E+03 0.  0.
        4    1    3    3  502    0 -0.18137963533E+03  0.29403148821E+03  0.49807404855E+03  0.60616207314E+03  0.12699999809E+01 0. -1.
       -4    1    3    3    0  502  0.18137963533E+03 -0.29403148821E+03  0.33275635720E+03  0.47966810851E+03  0.12699999809E+01 0.  1.
</event>
<event>
 5   0  0.6609285E-03  0.6950089E+03  0.7818609E-02  0.9725806E-01
        1   -1    0    0  501    0  0.00000000000E+00  0.00000000000E+00  0.17085628685E+04  0.17085628685E+04  0.50400001928E-02 0.  1.
       -1   -1    0    0    0  501  0.00000000000E+00  0.00000000000E+00 -0.70678904788E+02  0.70678904967E+02  0.50400001928E-02 0. -1.
    10030    2    1    2    0    0  0.00000000000E+00  0.00000000000E+00  0.16378839637E+04  0.17792417734E+04  0.69500892791E+03 0.  0.
        2    1    3    3  502    0  0.11549009943E+03 -0.20025876751E+03  0.14831583751E+04  0.15010663885E+04  0.25500000920E-02 0.  1.
       -2    1    3    3    0  502 -0.11549009943E+03  0.20025876751E+03  0.15472558860E+03  0.27817538497E+03  0.25500000920E-02 0. -1.
</event>
<event>
 5   0  0.6689415E-03  0.6802124E+03  0.7818609E-02  0.9751683E-01
       -1   -1    0    0    0  501  0.00000000000E+00  0.00000000000E+00  0.10585169310E+03  0.10585169322E+03  0.50400001928E-02 0.  1.
        1   -1    0    0  501    0  0.00000000000E+00  0.00000000000E+00 -0.10927765091E+04  0.10927765091E+04  0.50400001928E-02 0. -1.
    10030    2    1    2    0    0  0.00000000000E+00  0.00000000000E+00 -0.98692481598E+03  0.11986282023E+04  0.68021244843E+03 0.  0.
        1    1    3    3  502    0  0.32781465017E+03  0.80817429899E+02 -0.42127189427E+03  0.53987397675E+03  0.50400001928E-02 0.  1.
       -1    1    3    3    0  502 -0.32781465017E+03 -0.80817429899E+02 -0.56565292171E+03  0.65875422557E+03  0.50400001928E-02 0. -1.
</event>
<event>
 5   0  0.1099980E-02  0.7036039E+03  0.7818609E-02  0.9711089E-01
        2   -1    0    0  501    0  0.00000000000E+00  0.00000000000E+00  0.60178331509E+03  0.60178331509E+03  0.25500000920E-02 0. -1.
       -2   -1    0    0    0  501  0.00000000000E+00  0.00000000000E+00 -0.20566310781E+03  0.20566310783E+03  0.25500000920E-02 0.  1.
    10030    2    1    2    0    0  0.00000000000E+00  0.00000000000E+00  0.39612020727E+03  0.80744642292E+03  0.70360394205E+03 0.  0.
        5    1    3    3  502    0  0.11351423616E+03 -0.19936967923E+03 -0.10795797429E+03  0.25359567232E+03  0.46999998093E+01 0.  1.
       -5    1    3    3    0  502 -0.11351423616E+03  0.19936967923E+03  0.50407818157E+03  0.55385075060E+03  0.46999998093E+01 0. -1.
</event>
<event>
 5   0  0.6785252E-03  0.6970933E+03  0.7818609E-02  0.9722216E-01
        1   -1    0    0  501    0  0.00000000000E+00  0.00000000000E+00  0.14465595943E+03  0.14465595952E+03  0.50400001928E-02 0.  1.
       -1   -1    0    0    0  501  0.00000000000E+00  0.00000000000E+00 -0.83981861150E+03  0.83981861151E+03  0.50400001928E-02 0. -1.
    10030    2    1    2    0    0  0.00000000000E+00  0.00000000000E+00 -0.69516265207E+03  0.98447457103E+03  0.69709329948E+03 0.  0.
        3    1    3    3  502    0  0.69215305877E+02  0.31562829792E+03 -0.16305188614E+03  0.36193633251E+03  0.10100000352E+00 0. -1.
       -3    1    3    3    0  502 -0.69215305877E+02 -0.31562829792E+03 -0.53211076593E+03  0.62253823853E+03  0.10100000352E+00 0.  1.
</event>
<event>
 5   0  0.1119786E-02  0.7076911E+03  0.7818609E-02  0.9704169E-01
       -2   -1    0    0    0  501  0.00000000000E+00  0.00000000000E+00  0.21818984812E+03  0.21818984814E+03  0.25500000920E-02 0. -1.
        2   -1    0    0  501    0  0.00000000000E+00  0.00000000000E+00 -0.57384285233E+03  0.57384285234E+03  0.25500000920E-02 0.  1.
    10030    2    1    2    0    0  0.00000000000E+00  0.00000000000E+00 -0.35565300421E+03  0.79203270048E+03  0.70769113264E+03 0.  0.
        3    1    3    3  502    0  0.78038494598E+02  0.30286673815E+03 -0.36304431186E+03  0.47918623758E+03  0.10100000352E+00 0.  1.
       -3    1    3    3    0  502 -0.78038494598E+02 -0.30286673815E+03  0.73913076546E+01  0.31284646289E+03  0.10100000352E+00 0. -1.
</event>
<event>
 5   0  0.1109788E-02  0.6895548E+03  0.7818609E-02  0.9735264E-01
        2   -1    0    0  501    0  0.00000000000E+00  0.00000000000E+00  0.13052915242E+03  0.13052915244E+03  0.25500000920E-02 0.  1.
       -2   -1    0    0    0  501  0.00000000000E+00  0.00000000000E+00 -0.91068883792E+03  0.91068883792E+03  0.25500000920E-02 0. -1.
    10030    2    1    2    0    0  0.00000000000E+00  0.00000000000E+00 -0.78015968550E+03  0.10412179904E+04  0.68955476112E+03 0.  0.
        1    1    3    3  502    0  0.24869620297E+03 -0.23870835096E+03 -0.38053415942E+03  0.51345664344E+03  0.50400001928E-02 0.  1.
       -1    1    3    3    0  502 -0.24869620297E+03  0.23870835096E+03 -0.39962552608E+03  0.52776134692E+03  0.50400001928E-02 0. -1.
</event>
<event>
 5   0  0.6609285E-03  0.7012745E+03  0.7818609E-02  0.9715055E-01
       -1   -1    0    0    0  501  0.00000000000E+00  0.00000000000E+00  0.33292376914E+03  0.33292376918E+03  0.50400001928E-02 0.  1.
        1   -1    0    0  501    0  0.00000000000E+00  0.00000000000E+00 -0.36929320438E+03  0.36929320442E+03  0.50400001928E-02 0. -1.
    10030    2    1    2    0    0  0.00000000000E+00  0.00000000000E+00 -0.36369435244E+02  0.70221697360E+03  0.70127451272E+03 0.  0.
        2    1    3    3  502    0  0.46869456700E+02 -0.42525021671E+02 -0.36352697343E+03  0.36899455803E+03  0.25500000920E-02 0. -1.
       -2    1    3    3    0  502 -0.46869456700E+02  0.42525021671E+02  0.32715753818E+03  0.33322241557E+03  0.25500000920E-02 0.  1.
</event>
<event>
 5   0  0.4440500E-03  0.7017126E+03  0.7818609E-02  0.9714308E-01
       -4   -1    0    0    0  501  0.00000000000E+00  0.00000000000E+00  0.90143518758E+02  0.90152464603E+02  0.12699999809E+01 0. -1.
        4   -1    0    0  501    0  0.00000000000E+00  0.00000000000E+00 -0.13655247960E+04  0.13655253866E+04  0.12699999809E+01 0.  1.
    10030    2    1    2    0    0  0.00000000000E+00  0.00000000000E+00 -0.12753812773E+04  0.14556778512E+04  0.70171262216E+03 0.  0.
        3    1    3    3  502    0  0.26162325026E+03  0.14759824814E+03 -0.26159892316E+03  0.39832897802E+03  0.10100000352E+00 0. -1.
       -3    1    3    3    0  502 -0.26162325026E+03 -0.14759824814E+03 -0.10137823541E+04  0.10573488732E+04  0.10100000352E+00 0.  1.
</event>
<event>
 5   0  0.1119786E-02  0.6812093E+03  0.7818609E-02  0.9749918E-01
        2   -1    0    0  501    0  0.00000000000E+00  0.00000000000E+00  0.29468719449E+03  0.29468719450E+03  0.25500000920E-02 0. -1.
       -2   -1    0    0    0  501  0.00000000000E+00  0.00000000000E+00 -0.39367680334E+03  0.39367680335E+03  0.25500000920E-02 0.  1.
    10030    2    1    2    0    0  0.00000000000E+00  0.00000000000E+00 -0.98989608849E+02  0.68836399785E+03  0.68120925631E+03 0.  0.
        3    1    3    3  502    0  0.43019462921E+02  0.70092124791E+02 -0.38349306180E+03  0.39221233892E+03  0.10100000352E+00 0.  1.
       -3    1    3    3    0  502 -0.43019462921E+02 -0.70092124791E+02  0.28450345295E+03  0.29615165893E+03  0.10100000352E+00 0. -1.
</event>
<event>
 5   0  0.1119786E-02  0.7005423E+03  0.7818609E-02  0.9716305E-01
       -2   -1    0    0    0  501  0.00000000000E+00  0.00000000000E+00  0.54434610915E+03  0.54434610916E+03  0.25500000920E-02 0. -1.
        2   -1    0    0  501    0  0.00000000000E+00  0.00000000000E+00 -0.22538948556E+03  0.22538948558E+03  0.25500000920E-02 0.  1.
    10030    2    1    2    0    0  0.00000000000E+00  0.00000000000E+00  0.31895662359E+03  0.76973559473E+03  0.70054233139E+03 0.  0.
        3    1    3    3  502    0  0.45422725171E+02 -0.21598347054E+03  0.45833149104E+03  0.50870408823E+03  0.10100000352E+00 0. -1.
       -3    1    3    3    0  502 -0.45422725171E+02  0.21598347054E+03 -0.13937486745E+03  0.26103150650E+03  0.10100000352E+00 0.  1.
</event>
<event>
 5   0  0.6609285E-03  0.6997000E+03  0.7818609E-02  0.9717745E-01
        1   -1    0    0  501    0  0.00000000000E+00  0.00000000000E+00  0.65217074656E+03  0.65217074658E+03  0.50400001928E-02 0.  1.
       -1   -1    0    0    0  501  0.00000000000E+00  0.00000000000E+00 -0.18767330213E+03  0.18767330220E+03  0.50400001928E-02 0. -1.
    10030    2    1    2    0    0  0.00000000000E+00  0.00000000000E+00  0.46449744442E+03  0.83984404878E+03  0.69970004315E+03 0.  0.
        2    1    3    3  502    0 -0.24740045612E+03 -0.24425503395E+03  0.27916047547E+03  0.44586778126E+03  0.25500000920E-02 0.  1.
       -2    1    3    3    0  502  0.24740045612E+03  0.24425503395E+03  0.18533696896E+03  0.39397626752E+03  0.25500000920E-02 0. -1.
</event>
<event>
 5   0  0.6246998E-03  0.7017683E+03  0.7818609E-02  0.9714213E-01
       -1   -1    0    0    0  501  0.00000000000E+00  0.00000000000E+00  0.74911682697E+02  0.74911682866E+02  0.50400001928E-02 0. -1.
        1   -1    0    0  501    0  0.00000000000E+00  0.00000000000E+00 -0.16435309761E+04  0.16435309761E+04  0.50400001928E-02 0.  1.
    10030    2    1    2    0    0  0.00000000000E+00  0.00000000000E+00 -0.15686192934E+04  0.17184426589E+04  0.70176825557E+03 0.  0.
        4    1    3    3  502    0  0.26491578540E+03 -0.22989974469E+03 -0.80672488211E+03  0.87968228030E+03  0.12699999809E+01 0. -1.
       -4    1    3    3    0  502 -0.26491578540E+03  0.22989974469E+03 -0.76189441126E+03  0.83876037863E+03  0.12699999809E+01 0.  1.
</event>
<event>
 5   0  0.6689415E-03  0.6984748E+03  0.7818609E-02  0.9719844E-01
        1   -1    0    0  501    0  0.00000000000E+00  0.00000000000E+00  0.60233958358E+03  0.60233958360E+03  0.50400001928E-02 0.  1.
       -1   -1    0    0    0  501  0.00000000000E+00  0.00000000000E+00 -0.20248839750E+03  0.20248839756E+03  0.50400001928E-02 0. -1.
    10030    2    1    2    0    0  0.00000000000E+00  0.00000000000E+00  0.39985118608E+03  0.80482798116E+03  0.69847484440E+03 0.  0.
        1    1    3    3  502    0 -0.15615537513E+03  0.30106358678E+03  0.10391356402E+03  0.35471370607E+03  0.50400001928E-02 0. -1.
       -1    1    3    3    0  502  0.15615537513E+03 -0.30106358678E+03  0.29593762206E+03  0.45011427509E+03  0.50400001928E-02 0.  1.
</event>
<event>
 5   0  0.6689415E-03  0.7044775E+03  0.7818609E-02  0.9709606E-01
       -1   -1    0    0    0  501  0.00000000000E+00  0.00000000000E+00  0.23190053883E+03  0.23190053889E+03  0.50400001928E-02 0. -1.
        1   -1    0    0  501    0  0.00000000000E+00  0.00000000000E+00 -0.53502303049E+03  0.53502303052E+03  0.50400001928E-02 0.  1.
    10030    2    1    2    0    0  0.00000000000E+00  0.00000000000E+00 -0.30312249166E+03  0.76692356941E+03  0.70447747754E+03 0.  0.
        1    1    3    3  502    0  0.31964832238E+03  0.76714594404E+02 -0.28931615521E+03  0.43790868533E+03  0.50400001928E-02 0.  1.
       -1    1    3    3    0  502 -0.31964832238E+03 -0.76714594404E+02 -0.13806336453E+02  0.32901488408E+03  0.50400001928E-02 0. -1.
</event>
<event>
 5   0  0.6609285E-03  0.7001321E+03  0.7818609E-02  0.9717006E-01
       -1   -1    0    0    0  501  0.00000000000E+00  0.00000000000E+00  0.13746199236E+03  0.13746199245E+03  0.50400001928E-02 0. -1.
        1   -1    0    0  501    0  0.00000000000E+00  0.00000000000E+00 -0.89149168305E+03  0.89149168306E+03  0.50400001928E-02 0.  1.
    10030    2    1    2    0    0  0.00000000000E+00  0.00000000000E+00 -0.75402969069E+03  0.10289536755E+04  0.70013205319E+03 0.  0.
        2    1    3    3  502    0  0.20609179974E+03  0.14066816356E+03 -0.73785926485E+03  0.77890799001E+03  0.25500000920E-02 0.  1.
       -2    1    3    3    0  502 -0.20609179974E+03 -0.14066816356E+03 -0.16170425834E+02  0.25004568550E+03  0.25500000920E-02 0. -1.
</event>
<event>
 5   0  0.6785252E-03  0.6981957E+03  0.7818609E-02  0.9720323E-01
        1   -1    0    0  501    0  0.00000000000E+00  0.00000000000E+00  0.57731134503E+03  0.57731134505E+03  0.50400001928E-02 0.  1.
       -1   -1    0    0    0  501  0.00000000000E+00  0.00000000000E+00 -0.21109806572E+03  0.21109806578E+03  0.50400001928E-02 0. -1.
    10030    2    1    2    0    0  0.00000000000E+00  0.00000000000E+00  0.36621327930E+03  0.78840941083E+03  0.69819569831E+03 0.  0.
        3    1    3    3  502    0 -0.16470790476E+03  0.14301486530E+03 -0.12466746128E+03  0.25124476450E+03  0.10100000352E+00 0. -1.
       -3    1    3    3    0  502  0.16470790476E+03 -0.14301486530E+03  0.49088074058E+03  0.53716464633E+03  0.10100000352E+00 0.  1.
</event>
<event>
 5   0  0.4440500E-03  0.7014984E+03  0.7818609E-02  0.9714673E-01
        3   -1    0    0  501    0  0.00000000000E+00  0.00000000000E+00  0.72122637337E+03  0.72122638045E+03  0.10100000352E+00 0. -1.
       -3   -1    0    0    0  501  0.00000000000E+00  0.00000000000E+00 -0.17057751254E+03  0.17057754244E+03  0.10100000352E+00 0.  1.
    10030    2    1    2    0    0  0.00000000000E+00  0.00000000000E+00  0.55064886083E+03  0.89180392289E+03  0.70149844543E+03 0.  0.
        4    1    3    3  502    0  0.58040438875E+02  0.24868931975E+03 -0.30335065341E+02  0.25717095363E+03  0.12699999809E+01 0. -1.
       -4    1    3    3    0  502 -0.58040438875E+02 -0.24868931975E+03  0.58098392617E+03  0.63463296926E+03  0.12699999809E+01 0.  1.
</event>
<event>
 5   0  0.6609285E-03  0.7000360E+03  0.7818609E-02  0.9717171E-01
       -1   -1    0    0    0  501  0.00000000000E+00  0.00000000000E+00  0.14611621337E+04  0.14611621337E+04  0.50400001928E-02 0. -1.
        1   -1    0    0  501    0  0.00000000000E+00  0.00000000000E+00 -0.83845994234E+02  0.83845994386E+02  0.50400001928E-02 0.  1.
    10030    2    1    2    0    0  0.00000000000E+00  0.00000000000E+00  0.13773161395E+04  0.15450081281E+04  0.70003597611E+03 0.  0.
        2    1    3    3  502    0 -0.18014459662E+03  0.18021885379E+03  0.12182636816E+04  0.12446273775E+04  0.25500000920E-02 0. -1.
       -2    1    3    3    0  502  0.18014459662E+03 -0.18021885379E+03  0.15905245784E+03  0.30038075055E+03  0.25500000920E-02 0.  1.
</event>
<event>
 5   0  0.1109788E-02  0.7001142E+03  0.7818609E-02  0.9717037E-01
        2   -1    0    0  501    0  0.00000000000E+00  0.00000000000E+00  0.12020928572E+03  0.12020928575E+03  0.25500000920E-02 0. -1.
       -2   -1    0    0    0  501  0.00000000000E+00  0.00000000000E+00 -0.10193885665E+04  0.10193885665E+04  0.25500000920E-02 0.  1.
    10030    2    1    2    0    0  0.00000000000E+00  0.00000000000E+00 -0.89917928075E+03  0.11395978522E+04  0.70011419488E+03 0.  0.
        1    1    3    3  502    0  0.28070585503E+03 -0.10765668765E+03 -0.74146794125E+03  0.80010027333E+03  0.50400001928E-02 0.  1.
       -1    1    3    3    0  502 -0.28070585503E+03  0.10765668765E+03 -0.15771133949E+03  0.33949757890E+03  0.50400001928E-02 0. -1.
</event>
<event>
 5   0  0.1109788E-02  0.7001104E+03  0.7818609E-02  0.9717043E-01
        2   -1    0    0  501    0  0.00000000000E+00  0.00000000000E+00  0.12518906374E+04  0.12518906374E+04  0.25500000920E-02 0.  1.
       -2   -1    0    0    0  501  0.00000000000E+00  0.00000000000E+00 -0.97882865568E+02  0.97882865601E+02  0.25500000920E-02 0. -1.
    10030    2    1    2    0    0  0.00000000000E+00  0.00000000000E+00  0.11540077718E+04  0.13497735030E+04  0.70011039984E+03 0.  0.
        1    1    3    3  502    0  0.24686501566E+03  0.24599274630E+02  0.10531364629E+04  0.10819629706E+04  0.50400001928E-02 0.  1.
       -1    1    3    3    0  502 -0.24686501566E+03 -0.24599274630E+02  0.10087130894E+03  0.26781053240E+03  0.50400001928E-02 0. -1.
</event>
<event>
 5   0  0.1079446E-02  0.7033329E+03  0.7818609E-02  0.9711549E-01
       -2   -1    0    0    0  501  0.00000000000E+00  0.00000000000E+00  0.19531915251E+03  0.19531915252E+03  0.25500000920E-02 0.  1.
        2   -1    0    0  501    0  0.00000000000E+00  0.00000000000E+00 -0.63316521091E+03  0.63316521092E+03  0.25500000920E-02 0. -1.
    10030    2    1    2    0    0  0.00000000000E+00  0.00000000000E+00 -0.43784605840E+03  0.82848436344E+03  0.70333290099E+03 0.  0.
        2    1    3    3  502    0  0.15681169686E+03 -0.27365444773E+03 -0.40213966335E+03  0.51107041969E+03  0.25500000920E-02 0. -1.
       -2    1    3    3    0  502 -0.15681169686E+03  0.27365444773E+03 -0.35706395050E+02  0.31741394375E+03  0.25500000920E-02 0.  1.
</event>
<event>
 5   0  0.6609285E-03  0.6981182E+03  0.7818609E-02  0.9720456E-01
       -1   -1    0    0    0  501  0.00000000000E+00  0.00000000000E+00  0.43296571984E+03  0.43296571987E+03  0.50400001928E-02 0.  1.
        1   -1    0    0  501    0  0.00000000000E+00  0.00000000000E+00 -0.28141313006E+03  0.28141313010E+03  0.50400001928E-02 0. -1.
    10030    2    1    2    0    0  0.00000000000E+00  0.00000000000E+00  0.15155258978E+03  0.71437884997E+03  0.69811815176E+03 0.  0.
        2    1    3    3  502    0  0.15964592114E+03  0.30456312150E+03  0.14406711626E+02  0.34417011558E+03  0.25500000920E-02 0.  1.
       -2    1    3    3    0  502 -0.15964592114E+03 -0.30456312150E+03  0.13714587816E+03  0.37020873439E+03  0.25500000920E-02 0. -1.
</event>
<event>
 5   0  0.6246998E-03  0.6999003E+03  0.7818609E-02  0.9717403E-01
       -1   -1    0    0    0  501  0.00000000000E+00  0.00000000000E+00  0.25559769172E+03  0.25559769177E+03  0.50400001928E-02 0.  1.
        1   -1    0    0  501    0  0.00000000000E+00  0.00000000000E+00 -0.47913224275E+03  0.47913224278E+03  0.50400001928E-02 0. -1.
    10030    2    1    2    0    0  0.00000000000E+00  0.00000000000E+00 -0.22353455103E+03  0.73472993455E+03  0.69990026519E+03 0.  0.
        4    1    3    3  502    0  0.25923052367E+03 -0.15784304944E+03  0.71110459271E+02  0.31172616665E+03  0.12699999809E+01 0.  1.
       -4    1    3    3    0  502 -0.25923052367E+03  0.15784304944E+03 -0.29464501030E+03  0.42300376790E+03  0.12699999809E+01 0. -1.
</event>
<event>
 5   0  0.6246998E-03  0.6998535E+03  0.7818609E-02  0.9717483E-01
       -1   -1    0    0    0  501  0.00000000000E+00  0.00000000000E+00  0.89020081788E+03  0.89020081790E+03  0.50400001928E-02 0. -1.
        1   -1    0    0  501    0  0.00000000000E+00  0.00000000000E+00 -0.13755180861E+03  0.13755180870E+03  0.50400001928E-02 0.  1.
    10030    2    1    2    0    0  0.00000000000E+00  0.00000000000E+00  0.75264900927E+03  0.10277526266E+04  0.69985350634E+03 0.  0.
        4    1    3    3  502    0 -0.62321337357E+01  0.29238554742E+03  0.94157484634E+02  0.30723833199E+03  0.12699999809E+01 0.  1.
       -4    1    3    3    0  502  0.62321337357E+01 -0.29238554742E+03  0.65849152464E+03  0.72051429462E+03  0.12699999809E+01 0. -1.
</event>
<event>
 5   0  0.6609285E-03  0.7009539E+03  0.7818609E-02  0.9715602E-01
        1   -1    0    0  501    0  0.00000000000E+00  0.00000000000E+00  0.11843713356E+04  0.11843713356E+04  0.50400001928E-02 0.  1.
       -1   -1    0    0    0  501  0.00000000000E+00  0.00000000000E+00 -0.10371247108E+03  0.10371247120E+03  0.50400001928E-02 0. -1.
    10030    2    1    2    0    0  0.00000000000E+00  0.00000000000E+00  0.10806588645E+04  0.12880838068E+04  0.70095385861E+03 0.  0.
        2    1    3    3  502    0  0.24444345642E+03  0.16365892594E+03  0.19022997731E+03  0.35032027019E+03  0.25500000920E-02 0. -1.
       -2    1    3    3    0  502 -0.24444345642E+03 -0.16365892594E+03  0.89042888723E+03  0.93776353664E+03  0.25500000920E-02 0.  1.
</event>
<event>
 5   0  0.4440500E-03  0.6877739E+03  0.7818609E-02  0.9738372E-01
       -4   -1    0    0    0  501  0.00000000000E+00  0.00000000000E+00  0.11183478862E+03  0.11184199947E+03  0.12699999809E+01 0.  1.
        4   -1    0    0  501    0  0.00000000000E+00  0.00000000000E+00 -0.10573951330E+04  0.10573958956E+04  0.12699999809E+01 0. -1.
    10030    2    1    2    0    0  0.00000000000E+00  0.00000000000E+00 -0.94556034434E+03  0.11692378951E+04  0.68777386585E+03 0.  0.
        1    1    3    3  502    0  0.80599943853E+02  0.20713721762E+03 -0.91887609002E+03  0.94537582300E+03  0.50400001928E-02 0. -1.
       -1    1    3    3    0  502 -0.80599943853E+02 -0.20713721762E+03 -0.26684254322E+02  0.22386207210E+03  0.50400001928E-02 0.  1.
</event>
<event>
 5   0  0.1119786E-02  0.7034052E+03  0.7818609E-02  0.9711426E-01
       -2   -1    0    0    0  501  0.00000000000E+00  0.00000000000E+00  0.13271520807E+03  0.13271520809E+03  0.25500000920E-02 0.  1.
        2   -1    0    0  501    0  0.00000000000E+00  0.00000000000E+00 -0.93203127473E+03  0.93203127474E+03  0.25500000920E-02 0. -1.
    10030    2    1    2    0    0  0.00000000000E+00  0.00000000000E+00 -0.79931606667E+03  0.10647464828E+04  0.70340521626E+03 0.  0.
        3    1    3    3  502    0  0.21653514861E+03  0.89393769565E+02 -0.25713388561E+01  0.23427620153E+03  0.10100000352E+00 0.  1.
       -3    1    3    3    0  502 -0.21653514861E+03 -0.89393769565E+02 -0.79674472781E+03  0.83047028130E+03  0.10100000352E+00 0. -1.
</event>
<event>
 5   0  0.1109788E-02  0.6997547E+03  0.7818609E-02  0.9717652E-01
       -2   -1    0    0    0  501  0.00000000000E+00  0.00000000000E+00  0.21254265555E+03  0.21254265557E+03  0.25500000920E-02 0. -1.
        2   -1    0    0  501    0  0.00000000000E+00  0.00000000000E+00 -0.57595107337E+03  0.57595107337E+03  0.25500000920E-02 0.  1.
    10030    2    1    2    0    0  0.00000000000E+00  0.00000000000E+00 -0.36340841781E+03  0.78849372894E+03  0.69975473020E+03 0.  0.
        1    1    3    3  502    0  0.10932015134E+03  0.20540985560E+03 -0.47612438161E+03  0.52994200725E+03  0.50400001928E-02 0.  1.
       -1    1    3    3    0  502 -0.10932015134E+03 -0.20540985560E+03  0.11271596379E+03  0.25855172168E+03  0.50400001928E-02 0. -1.
</event>
<event>
 5   0  0.1119786E-02  0.7016696E+03  0.7818609E-02  0.9714381E-01
       -2   -1    0    0    0  501  0.00000000000E+00  0.00000000000E+00  0.23230555403E+03  0.23230555404E+03  0.25500000920E-02 0.  1.
        2   -1    0    0  501    0  0.00000000000E+00  0.00000000000E+00 -0.52984128022E+03  0.52984128023E+03  0.25500000920E-02 0. -1.
    10030    2    1    2    0    0  0.00000000000E+00  0.00000000000E+00 -0.29753572620E+03  0.76214683427E+03  0.70166964351E+03 0.  0.
        3    1    3    3  502    0 -0.22580028662E+03  0.26843703703E+03 -0.15571011240E+03  0.38378361298E+03  0.10100000352E+00 0.  1.
       -3    1    3    3    0  502  0.22580028662E+03 -0.26843703703E+03 -0.14182561380E+03  0.37836322128E+03  0.10100000352E+00 0. -1.
</event>
<event>
 5   0  0.6246998E-03  0.7031923E+03  0.7818609E-02  0.9711789E-01
        1   -1    0    0  501    0  0.00000000000E+00  0.00000000000E+00  0.71424596631E+03  0.71424596632E+03  0.50400001928E-02 0. -1.
       -1   -1    0    0    0  501  0.00000000000E+00  0.00000000000E+00 -0.17307740040E+03  0.17307740047E+03  0.50400001928E-02 0.  1.
    10030    2    1    2    0    0  0.00000000000E+00  0.00000000000E+00  0.54116856591E+03  0.88732336680E+03  0.70319225005E+03 0.  0.
        4    1    3    3  502    0 -0.31581556443E+03 -0.62689639916E+02  0.44880812486E+03  0.55235840496E+03  0.12699999809E+01 0. -1.
       -4    1    3    3    0  502  0.31581556443E+03  0.62689639916E+02  0.92360441052E+02  0.33496496184E+03  0.12699999809E+01 0.  1.
</event>
<event>
 5   0  0.1079446E-02  0.7011375E+03  0.7818609E-02  0.9715289E-01
        2   -1    0    0  501    0  0.00000000000E+00  0.00000000000E+00  0.41078641392E+03  0.41078641393E+03  0.25500000920E-02 0. -1.
       -2   -1    0    0    0  501  0.00000000000E+00  0.00000000000E+00 -0.29917848985E+03  0.29917848986E+03  0.25500000920E-02 0.  1.
    10030    2    1    2    0    0  0.00000000000E+00  0.00000000000E+00  0.11160792407E+03  0.70996490379E+03  0.70113752994E+03 0.  0.
        2    1    3    3  502    0 -0.20836891996E+03 -0.97049310432E+01  0.34110769172E+03  0.39983277735E+03  0.25500000920E-02 0. -1.
       -2    1    3    3    0  502  0.20836891996E+03  0.97049310432E+01 -0.22949976764E+03  0.31013212643E+03  0.25500000920E-02 0.  1.
</event>
<event>
 5   0  0.1079446E-02  0.6999092E+03  0.7818609E-02  0.9717387E-01
        2   -1    0    0  501    0  0.00000000000E+00  0.00000000000E+00  0.15152571955E+04  0.15152571955E+04  0.25500000920E-02 0. -1.
       -2   -1    0    0    0  501  0.00000000000E+00  0.00000000000E+00 -0.80823389112E+02  0.80823389152E+02  0.25500000920E-02 0.  1.
    10030    2    1    2    0    0  0.00000000000E+00  0.00000000000E+00  0.14344338064E+04  0.15960805846E+04  0.69990919968E+03 0.  0.
        2    1    3    3  502    0  0.27124993196E+03  0.19751215404E+03  0.94389302232E+03  0.10017592596E+04  0.25500000920E-02 0. -1.
       -2    1    3    3    0  502 -0.27124993196E+03 -0.19751215404E+03  0.49054078405E+03  0.59432132505E+03  0.25500000920E-02 0.  1.
</event>
<event>
 5   0  0.6246998E-03  0.6999949E+03  0.7818609E-02  0.9717241E-01
        1   -1    0    0  501    0  0.00000000000E+00  0.00000000000E+00  0.36473467375E+03  0.36473467378E+03  0.50400001928E-02 0. -1.
       -1   -1    0    0    0  501  0.00000000000E+00  0.00000000000E+00 -0.33585567894E+03  0.33585567898E+03  0.50400001928E-02 0.  1.
    10030    2    1    2    0    0  0.00000000000E+00  0.00000000000E+00  0.28878994801E+02  0.70059035276E+03  0.69999489001E+03 0.  0.
        4    1    3    3  502    0  0.30288264502E+03  0.19975893608E+02 -0.15994897570E+03  0.34310671912E+03  0.12699999809E+01 0.  1.
       -4    1    3    3    0  502 -0.30288264502E+03 -0.19975893608E+02  0.18882797050E+03  0.35748363364E+03  0.12699999809E+01 0. -1.
</event>
<event>
 5   0  0.6609285E-03  0.6992434E+03  0.7818609E-02  0.9718527E-01
       -1   -1    0    0    0  501  0.00000000000E+00  0.00000000000E+00  0.28130196806E+03  0.28130196811E+03  0.50400001928E-02 0. -1.
        1   -1    0    0  501    0  0.00000000000E+00  0.00000000000E+00 -0.43453427126E+03  0.43453427129E+03  0.50400001928E-02 0.  1.
    10030    2    1    2    0    0  0.00000000000E+00  0.00000000000E+00 -0.15323230320E+03  0.71583623940E+03  0.69924343607E+03 0.  0.
        2    1    3    3  502    0 -0.27640518069E+02 -0.34789138300E+02  0.27839974697E+03  0.28192321917E+03  0.25500000920E-02 0. -1.
       -2    1    3    3    0  502  0.27640518069E+02  0.34789138300E+02 -0.43163205017E+03  0.43391302023E+03  0.25500000920E-02 0.  1.
</event>
<event>
 5   0  0.6990118E-03  0.6943902E+03  0.7818609E-02  0.9726874E-01
        1   -1    0    0  501    0  0.00000000000E+00  0.00000000000E+00  0.14527351702E+04  0.14527351702E+04  0.50400001928E-02 0.  1.
       -1   -1    0    0    0  501  0.00000000000E+00  0.00000000000E+00 -0.82977581610E+02  0.82977581763E+02  0.50400001928E-02 0. -1.
    10030    2    1    2    0    0  0.00000000000E+00  0.00000000000E+00  0.13697575886E+04  0.15357127520E+04  0.69439023976E+03 0.  0.
        5    1    3    3  502    0 -0.15908254307E+03 -0.30187982239E+03  0.54354951003E+03  0.64179969035E+03  0.46999998093E+01 0. -1.
       -5    1    3    3    0  502  0.15908254307E+03  0.30187982239E+03  0.82620807856E+03  0.89391306163E+03  0.46999998093E+01 0.  1.
</event>
<event>
 5   0  0.1100119E-02  0.7017492E+03  0.7818609E-02  0.9714245E-01
        2   -1    0    0  501    0  0.00000000000E+00  0.00000000000E+00  0.86168870470E+03  0.86168870470E+03  0.25500000920E-02 0.  1.
       -2   -1    0    0    0  501  0.00000000000E+00  0.00000000000E+00 -0.14287408687E+03  0.14287408689E+03  0.25500000920E-02 0. -1.
    10030    2    1    2    0    0  0.00000000000E+00  0.00000000000E+00  0.71881461783E+03  0.10045627916E+04  0.70174920551E+03 0.  0.
        4    1    3    3  502    0 -0.19380420725E+03 -0.14626557721E+03  0.72200037772E+03  0.76173476234E+03  0.12699999809E+01 0.  1.
       -4    1    3    3    0  502  0.19380420725E+03  0.14626557721E+03 -0.31857598874E+01  0.24282802925E+03  0.12699999809E+01 0. -1.
</event>
<event>
 5   0  0.6990118E-03  0.6958837E+03  0.7818609E-02  0.9724298E-01
        1   -1    0    0  501    0  0.00000000000E+00  0.00000000000E+00  0.37100006475E+03  0.37100006478E+03  0.50400001928E-02 0. -1.
       -1   -1    0    0    0  501  0.00000000000E+00  0.00000000000E+00 -0.32631669476E+03  0.32631669480E+03  0.50400001928E-02 0.  1.
    10030    2    1    2    0    0  0.00000000000E+00  0.00000000000E+00  0.44683369990E+02  0.69731675958E+03  0.69588365381E+03 0.  0.
        5    1    3    3  502    0  0.12674694377E+03  0.26908740097E+03  0.20318108829E+03  0.36024639034E+03  0.46999998093E+01 0. -1.
       -5    1    3    3    0  502 -0.12674694377E+03 -0.26908740097E+03 -0.15849771830E+03  0.33707036924E+03  0.46999998093E+01 0.  1.
</event>
<event>
 5   0  0.1109788E-02  0.7003424E+03  0.7818609E-02  0.9716647E-01
        2   -1    0    0  501    0  0.00000000000E+00  0.00000000000E+00  0.21991369848E+04  0.21991369848E+04  0.25500000920E-02 0.  1.
       -2   -1    0    0    0  501  0.00000000000E+00  0.00000000000E+00 -0.55758169236E+02  0.55758169294E+02  0.25500000920E-02 0. -1.
    10030    2    1    2    0    0  0.00000000000E+00  0.00000000000E+00  0.21433788155E+04  0.22548951540E+04  0.70034235124E+03 0.  0.
        1    1    3    3  502    0  0.17360521992E+02  0.26094885793E+03  0.32194649003E+03  0.41478336110E+03  0.50400001928E-02 0. -1.
       -1    1    3    3    0  502 -0.17360521992E+02 -0.26094885793E+03  0.18214323255E+04  0.18401117929E+04  0.50400001928E-02 0.  1.
</event>
<event>
 5   0  0.6990118E-03  0.6852412E+03  0.7818609E-02  0.9742810E-01
       -1   -1    0    0    0  501  0.00000000000E+00  0.00000000000E+00  0.14038958268E+03  0.14038958277E+03  0.50400001928E-02 0.  1.
        1   -1    0    0  501    0  0.00000000000E+00  0.00000000000E+00 -0.83616513975E+03  0.83616513976E+03  0.50400001928E-02 0. -1.
    10030    2    1    2    0    0  0.00000000000E+00  0.00000000000E+00 -0.69577555707E+03  0.97655472253E+03  0.68524119862E+03 0.  0.
        5    1    3    3  502    0  0.70104964464E+02 -0.99916169025E+02  0.10830564958E+03  0.16324873844E+03  0.46999998093E+01 0.  1.
       -5    1    3    3    0  502 -0.70104964464E+02  0.99916169025E+02 -0.80408120665E+03  0.81330598409E+03  0.46999998093E+01 0. -1.
</event>
<event>
 5   0  0.6689415E-03  0.7030249E+03  0.7818609E-02  0.9712073E-01
       -1   -1    0    0    0  501  0.00000000000E+00  0.00000000000E+00  0.30818323797E+03  0.30818323801E+03  0.50400001928E-02 0.  1.
        1   -1    0    0  501    0  0.00000000000E+00  0.00000000000E+00 -0.40093357160E+03  0.40093357163E+03  0.50400001928E-02 0. -1.
    10030    2    1    2    0    0  0.00000000000E+00  0.00000000000E+00 -0.92750333627E+02  0.70911680964E+03  0.70302491088E+03 0.  0.
        1    1    3    3  502    0  0.17761823562E+03  0.28620118196E+03 -0.14775306211E+03  0.36781832686E+03  0.50400001928E-02 0. -1.
       -1    1    3    3    0  502 -0.17761823562E+03 -0.28620118196E+03  0.55002728486E+02  0.34129848278E+03  0.50400001928E-02 0.  1.
</event>
<event>
 5   0  0.6689415E-03  0.6979402E+03  0.7818609E-02  0.9720761E-01
       -1   -1    0    0    0  501  0.00000000000E+00  0.00000000000E+00  0.19456998211E+03  0.19456998218E+03  0.50400001928E-02 0. -1.
        1   -1    0    0  501    0  0.00000000000E+00  0.00000000000E+00 -0.62589370495E+03  0.62589370497E+03  0.50400001928E-02 0.  1.
    10030    2    1    2    0    0  0.00000000000E+00  0.00000000000E+00 -0.43132372283E+03  0.82046368714E+03  0.69794018944E+03 0.  0.
        1    1    3    3  502    0  0.53748408420E+02  0.34030814411E+03 -0.28091921769E+03  0.44453811001E+03  0.50400001928E-02 0.  1.
       -1    1    3    3    0  502 -0.53748408420E+02 -0.34030814411E+03 -0.15040450514E+03  0.37592557714E+03  0.50400001928E-02 0. -1.
</event>
<event>
 5   0  0.6990118E-03  0.6977381E+03  0.7818609E-02  0.9721108E-01
       -1   -1    0    0    0  501  0.00000000000E+00  0.00000000000E+00  0.46573957743E+03  0.46573957746E+03  0.50400001928E-02 0.  1.
        1   -1    0    0  501    0  0.00000000000E+00  0.00000000000E+00 -0.26132547079E+03  0.26132547084E+03  0.50400001928E-02 0. -1.
    10030    2    1    2    0    0  0.00000000000E+00  0.00000000000E+00  0.20441410664E+03  0.72706504830E+03  0.69773810091E+03 0.  0.
        5    1    3    3  502    0 -0.24451462796E+03 -0.12964661449E+03 -0.11906674091E+03  0.30132146742E+03  0.46999998093E+01 0. -1.
       -5    1    3    3    0  502  0.24451462796E+03  0.12964661449E+03  0.32348084755E+03  0.42574358088E+03  0.46999998093E+01 0.  1.
</event>
<event>
 5   0  0.1100119E-02  0.6984476E+03  0.7818609E-02  0.9719891E-01
       -2   -1    0    0    0  501  0.00000000000E+00  0.00000000000E+00  0.97116590242E+02  0.97116590275E+02  0.25500000920E-02 0. -1.
        2   -1    0    0  501    0  0.00000000000E+00  0.00000000000E+00 -0.12557820989E+04  0.12557820989E+04  0.25500000920E-02 0.  1.
    10030    2    1    2    0    0  0.00000000000E+00  0.00000000000E+00 -0.11586655087E+04  0.13528986892E+04  0.69844763743E+03 0.  0.
        4    1    3    3  502    0 -0.12152353210E+03 -0.74490143384E+02 -0.11968675421E+04  0.12053257968E+04  0.12699999809E+01 0.  1.
       -4    1    3    3    0  502  0.12152353210E+03  0.74490143384E+02  0.38202033378E+02  0.14757289239E+03  0.12699999809E+01 0. -1.
</event>
<event>
 5   0  0.1119786E-02  0.6976673E+03  0.7818609E-02  0.9721230E-01
        2   -1    0    0  501    0  0.00000000000E+00  0.00000000000E+00  0.11579786503E+04  0.11579786503E+04  0.25500000920E-02 0. -1.
       -2   -1    0    0    0  501  0.00000000000E+00  0.00000000000E+00 -0.10508391418E+03  0.10508391421E+03  0.25500000920E-02 0.  1.
    10030    2    1    2    0    0  0.00000000000E+00  0.00000000000E+00  0.10528947361E+04  0.12630625645E+04  0.69766733944E+03 0.  0.
        3    1    3    3  502    0 -0.66762812298E+02 -0.24831602167E+02 -0.91777257795E+02  0.11617640389E+03  0.10100000352E+00 0.  1.
       -3    1    3    3    0  502  0.66762812298E+02  0.24831602167E+02  0.11446719939E+04  0.11468861606E+04  0.10100000352E+00 0. -1.
</event>
<event>
 5   0  0.1079446E-02  0.6994355E+03  0.7818609E-02  0.9718198E-01
       -2   -1    0    0    0  501  0.00000000000E+00  0.00000000000E+00  0.93880971833E+02  0.93880971868E+02  0.25500000920E-02 0. -1.
        2   -1    0    0  501    0  0.00000000000E+00  0.00000000000E+00 -0.13027400136E+04  0.13027400136E+04  0.25500000920E-02 0.  1.
    10030    2    1    2    0    0  0.00000000000E+00  0.00000000000E+00 -0.12088590418E+04  0.13966209855E+04  0.69943548251E+03 0.  0.
        2    1    3    3  502    0 -0.13233046898E+03  0.14066322179E+03 -0.22255062287E+02  0.19440365940E+03  0.25500000920E-02 0. -1.
       -2    1    3    3    0  502  0.13233046898E+03 -0.14066322179E+03 -0.11866039795E+04  0.12022173261E+04  0.25500000920E-02 0.  1.
</event>
<event>
 5   0  0.1109788E-02  0.7007644E+03  0.7818609E-02  0.9715926E-01
        2   -1    0    0  501    0  0.00000000000E+00  0.00000000000E+00  0.26753527977E+03  0.26753527978E+03  0.25500000920E-02 0.  1.
       -2   -1    0    0    0  501  0.00000000000E+00  0.00000000000E+00 -0.45888408198E+03  0.45888408198E+03  0.25500000920E-02 0. -1.
    10030    2    1    2    0    0  0.00000000000E+00  0.00000000000E+00 -0.19134880221E+03  0.72641936176E+03  0.70076438625E+03 0.  0.
        1    1    3    3  502    0 -0.20671618200E+03 -0.10136374117E+02 -0.38874983085E+03  0.44040976033E+03  0.50400001928E-02 0. -1.
       -1    1    3    3    0  502  0.20671618200E+03  0.10136374117E+02  0.19740102864E+03  0.28600960143E+03  0.50400001928E-02 0.  1.
</event>
<event>
 5   0  0.1099980E-02  0.6981260E+03  0.7818609E-02  0.9720442E-01
        2   -1    0    0  501    0  0.00000000000E+00  0.00000000000E+00  0.58983618966E+03  0.58983618966E+03  0.25500000920E-02 0. -1.
       -2   -1    0    0    0  501  0.00000000000E+00  0.00000000000E+00 -0.20657429398E+03  0.20657429400E+03  0.25500000920E-02 0.  1.
    10030    2    1    2    0    0  0.00000000000E+00  0.00000000000E+00  0.38326189567E+03  0.79641048366E+03  0.69812604722E+03 0.  0.
        5    1    3    3  502    0 -0.18157259966E+03  0.60630089145E+02  0.52457217759E+03  0.55842875656E+03  0.46999998093E+01 0. -1.
       -5    1    3    3    0  502  0.18157259966E+03 -0.60630089145E+02 -0.14131028192E+03  0.23798172710E+03  0.46999998093E+01 0.  1.
</event>
<event>
 5   0  0.1119786E-02  0.6991103E+03  0.7818609E-02  0.9718755E-01
        2   -1    0    0  501    0  0.00000000000E+00  0.00000000000E+00  0.63693264416E+03  0.63693264417E+03  0.25500000920E-02 0. -1.
       -2   -1    0    0    0  501  0.00000000000E+00  0.00000000000E+00 -0.19183942113E+03  0.19183942115E+03  0.25500000920E-02 0.  1.
    10030    2    1    2    0    0  0.00000000000E+00  0.00000000000E+00  0.44509322303E+03  0.82877206532E+03  0.69911026245E+03 0.  0.
        3    1    3    3  502    0  0.14994277064E+02  0.27383945262E+03  0.47948382312E+03  0.55237452964E+03  0.10100000352E+00 0. -1.
       -3    1    3    3    0  502 -0.14994277064E+02 -0.27383945262E+03 -0.34390600089E+02  0.27639753568E+03  0.10100000352E+00 0.  1.
</event>
<event>
 5   0  0.6689415E-03  0.7078128E+03  0.7818609E-02  0.9703964E-01
       -1   -1    0    0    0  501  0.00000000000E+00  0.00000000000E+00  0.47922607896E+03  0.47922607899E+03  0.50400001928E-02 0. -1.
        1   -1    0    0  501    0  0.00000000000E+00  0.00000000000E+00 -0.26135835622E+03  0.26135835627E+03  0.50400001928E-02 0.  1.
    10030    2    1    2    0    0  0.00000000000E+00  0.00000000000E+00  0.21786772275E+03  0.74058443526E+03  0.70781280091E+03 0.  0.
        1    1    3    3  502    0  0.29143688352E+03 -0.11639557396E+01  0.31901078124E+03  0.43209338162E+03  0.50400001928E-02 0. -1.
       -1    1    3    3    0  502 -0.29143688352E+03  0.11639557396E+01 -0.10114305849E+03  0.30849105364E+03  0.50400001928E-02 0.  1.
</event>
<event>
 5   0  0.6785252E-03  0.6988961E+03  0.7818609E-02  0.9719122E-01
       -1   -1    0    0    0  501  0.00000000000E+00  0.00000000000E+00  0.29730085496E+03  0.29730085500E+03  0.50400001928E-02 0.  1.
        1   -1    0    0  501    0  0.00000000000E+00  0.00000000000E+00 -0.41074198529E+03  0.41074198532E+03  0.50400001928E-02 0. -1.
    10030    2    1    2    0    0  0.00000000000E+00  0.00000000000E+00 -0.11344113033E+03  0.70804284033E+03  0.69889611080E+03 0.  0.
        3    1    3    3  502    0  0.16024154309E+02  0.27492429429E+03 -0.27464927983E+03  0.38893749913E+03  0.10100000352E+00 0. -1.
       -3    1    3    3    0  502 -0.16024154309E+02 -0.27492429429E+03  0.16120814950E+03  0.31910534120E+03  0.10100000352E+00 0.  1.
</event>
<event>
 5   0  0.6990118E-03  0.7035568E+03  0.7818609E-02  0.9711169E-01
        1   -1    0    0  501    0  0.00000000000E+00  0.00000000000E+00  0.11314946440E+04  0.11314946440E+04  0.50400001928E-02 0.  1.
       -1   -1    0    0    0  501  0.00000000000E+00  0.00000000000E+00 -0.10936687538E+03  0.10936687549E+03  0.50400001928E-02 0. -1.
    10030    2    1    2    0    0  0.00000000000E+00  0.00000000000E+00  0.10221277686E+04  0.12408615195E+04  0.70355677468E+03 0.  0.
        5    1    3    3  502    0  0.96371204535E+02  0.23711830370E+02  0.11062335808E+04  0.11106864928E+04  0.46999998093E+01 0.  1.
       -5    1    3    3    0  502 -0.96371204535E+02 -0.23711830370E+02 -0.84105812127E+02  0.13017502677E+03  0.46999998093E+01 0. -1.
</event>
<event>
 5   0  0.6785252E-03  0.6980606E+03  0.7818609E-02  0.9720555E-01
        1   -1    0    0  501    0  0.00000000000E+00  0.00000000000E+00  0.14831546250E+04  0.14831546250E+04  0.50400001928E-02 0. -1.
       -1   -1    0    0    0  501  0.00000000000E+00  0.00000000000E+00 -0.82137186379E+02  0.82137186534E+02  0.50400001928E-02 0.  1.
    10030    2    1    2    0    0  0.00000000000E+00  0.00000000000E+00  0.14010174386E+04  0.15652918116E+04  0.69806059334E+03 0.  0.
        3    1    3    3  502    0 -0.13665988203E+02  0.34872714303E+03  0.68935133667E+03  0.77265946904E+03  0.10100000352E+00 0. -1.
       -3    1    3    3    0  502  0.13665988203E+02 -0.34872714303E+03  0.71166610197E+03  0.79263234253E+03  0.10100000352E+00 0.  1.
</event>
<event>
 5   0  0.1079446E-02  0.7186209E+03  0.7818609E-02  0.9685907E-01
       -2   -1    0    0    0  501  0.00000000000E+00  0.00000000000E+00  0.22435531259E+03  0.22435531261E+03  0.25500000920E-02 0.  1.
        2   -1    0    0  501    0  0.00000000000E+00  0.00000000000E+00 -0.57544436011E+03  0.57544436011E+03  0.25500000920E-02 0. -1.
    10030    2    1    2    0    0  0.00000000000E+00  0.00000000000E+00 -0.35108904751E+03  0.79979967272E+03  0.71862089950E+03 0.  0.
        2    1    3    3  502    0  0.20357697732E+03 -0.29380751927E+03 -0.13484050977E+03  0.38203194520E+03  0.25500000920E-02 0.  1.
       -2    1    3    3    0  502 -0.20357697732E+03  0.29380751927E+03 -0.21624853774E+03  0.41776772752E+03  0.25500000920E-02 0. -1.
</event>
<event>
 5   0  0.1119786E-02  0.6991052E+03  0.7818609E-02  0.9718764E-01
       -2   -1    0    0    0  501  0.00000000000E+00  0.00000000000E+00  0.10087329767E+03  0.10087329770E+03  0.25500000920E-02 0.  1.
        2   -1    0    0  501    0  0.00000000000E+00  0.00000000000E+00 -0.12112918940E+04  0.12112918940E+04  0.25500000920E-02 0. -1.
    10030    2    1    2    0    0  0.00000000000E+00  0.00000000000E+00 -0.11104185963E+04  0.13121651917E+04  0.69910516465E+03 0.  0.
        3    1    3    3  502    0  0.33257401559E+03 -0.25004736357E+02 -0.35874770514E+03  0.48982715199E+03  0.10100000352E+00 0. -1.
       -3    1    3    3    0  502 -0.33257401559E+03  0.25004736357E+02 -0.75167089115E+03  0.82233803968E+03  0.10100000352E+00 0.  1.
</event>
<event>
 5   0  0.6785252E-03  0.6985901E+03  0.7818609E-02  0.9719646E-01
        1   -1    0    0  501    0  0.00000000000E+00  0.00000000000E+00  0.15643536555E+04  0.15643536555E+04  0.50400001928E-02 0.  1.
       -1   -1    0    0    0  501  0.00000000000E+00  0.00000000000E+00 -0.77991978935E+02  0.77991979098E+02  0.50400001928E-02 0. -1.
    10030    2    1    2    0    0  0.00000000000E+00  0.00000000000E+00  0.14863616766E+04  0.16423456346E+04  0.69859011584E+03 0.  0.
        3    1    3    3  502    0  0.19527428070E+03 -0.86831679842E+00  0.62323075648E+02  0.20498042500E+03  0.10100000352E+00 0. -1.
       -3    1    3    3    0  502 -0.19527428070E+03  0.86831679842E+00  0.14240386009E+04  0.14373652096E+04  0.10100000352E+00 0.  1.
</event>
<event>
 5   0  0.6609285E-03  0.7001961E+03  0.7818609E-02  0.9716897E-01
        1   -1    0    0  501    0  0.00000000000E+00  0.00000000000E+00  0.14863774867E+03  0.14863774876E+03  0.50400001928E-02 0.  1.
       -1   -1    0    0    0  501  0.00000000000E+00  0.00000000000E+00 -0.82461314578E+03  0.82461314580E+03  0.50400001928E-02 0. -1.
    10030    2    1    2    0    0  0.00000000000E+00  0.00000000000E+00 -0.67597539711E+03  0.97325089456E+03  0.70019609129E+03 0.  0.
        2    1    3    3  502    0 -0.21618019857E+03 -0.83951512298E+02 -0.70253846871E+03  0.73982567858E+03  0.25500000920E-02 0. -1.
       -2    1    3    3    0  502  0.21618019857E+03  0.83951512298E+02  0.26563071600E+02  0.23342521597E+03  0.25500000920E-02 0.  1.
</event>
<event>
 5   0  0.1079446E-02  0.7023801E+03  0.7818609E-02  0.9713171E-01
        2   -1    0    0  501    0  0.00000000000E+00  0.00000000000E+00  0.11301718365E+04  0.11301718365E+04  0.25500000920E-02 0. -1.
       -2   -1    0    0    0  501  0.00000000000E+00  0.00000000000E+00 -0.10912892508E+03  0.10912892511E+03  0.25500000920E-02 0.  1.
    10030    2    1    2    0    0  0.00000000000E+00  0.00000000000E+00  0.10210429114E+04  0.12393007616E+04  0.70238006149E+03 0.  0.
        2    1    3    3  502    0 -0.30459981987E+02 -0.25934272194E+03  0.96169545211E+02  0.27827152093E+03  0.25500000920E-02 0.  1.
       -2    1    3    3    0  502  0.30459981987E+02  0.25934272194E+03  0.92487336621E+03  0.96102924069E+03  0.25500000920E-02 0. -1.
</event>
<event>
 5   0  0.6609285E-03  0.6994532E+03  0.7818609E-02  0.9718168E-01
        1   -1    0    0  501    0  0.00000000000E+00  0.00000000000E+00  0.77326010735E+03  0.77326010737E+03  0.50400001928E-02 0.  1.
       -1   -1    0    0    0  501  0.00000000000E+00  0.00000000000E+00 -0.15817277299E+03  0.15817277307E+03  0.50400001928E-02 0. -1.
    10030    2    1    2    0    0  0.00000000000E+00  0.00000000000E+00  0.61508733437E+03  0.93143288044E+03  0.69945320205E+03 0.  0.
        2    1    3    3  502    0 -0.92636986273E+02 -0.16713535166E+03  0.69759204061E+03  0.72329142959E+03  0.25500000920E-02 0.  1.
       -2    1    3    3    0  502  0.92636986273E+02  0.16713535166E+03 -0.82504706242E+02  0.20814145084E+03  0.25500000920E-02 0. -1.
</event>
<event>
 5   0  0.6990118E-03  0.7009778E+03  0.7818609E-02  0.9715562E-01
        1   -1    0    0  501    0  0.00000000000E+00  0.00000000000E+00  0.17490999153E+04  0.17490999153E+04  0.50400001928E-02 0.  1.
       -1   -1    0    0    0  501  0.00000000000E+00  0.00000000000E+00 -0.70231812213E+02  0.70231812394E+02  0.50400001928E-02 0. -1.
    10030    2    1    2    0    0  0.00000000000E+00  0.00000000000E+00  0.16788681031E+04  0.18193317277E+04  0.70097776560E+03 0.  0.
        5    1    3    3  502    0 -0.53972647560E+02  0.97262966313E+02  0.17019856333E+04  0.17056231463E+04  0.46999998093E+01 0.  1.
       -5    1    3    3    0  502  0.53972647560E+02 -0.97262966313E+02 -0.23117530132E+02  0.11370858146E+03  0.46999998093E+01 0. -1.
</event>
<event>
 5   0  0.1109788E-02  0.6977876E+03  0.7818609E-02  0.9721023E-01
        2   -1    0    0  501    0  0.00000000000E+00  0.00000000000E+00  0.10919563757E+04  0.10919563757E+04  0.25500000920E-02 0.  1.
       -2   -1    0    0    0  501  0.00000000000E+00  0.00000000000E+00 -0.11147597256E+03  0.11147597259E+03  0.25500000920E-02 0. -1.
    10030    2    1    2    0    0  0.00000000000E+00  0.00000000000E+00  0.98048040317E+03  0.12034323483E+04  0.69778764391E+03 0.  0.
        1    1    3    3  502    0  0.62082280600E+02  0.34258571516E+03  0.52910078674E+03  0.63337731594E+03  0.50400001928E-02 0.  1.
       -1    1    3    3    0  502 -0.62082280600E+02 -0.34258571516E+03  0.45137961643E+03  0.57005503239E+03  0.50400001928E-02 0. -1.
</event>
<event>
 5   0  0.6609285E-03  0.7014478E+03  0.7818609E-02  0.9714759E-01
       -1   -1    0    0    0  501  0.00000000000E+00  0.00000000000E+00  0.55638618056E+03  0.55638618059E+03  0.50400001928E-02 0.  1.
        1   -1    0    0  501    0  0.00000000000E+00  0.00000000000E+00 -0.22108253200E+03  0.22108253206E+03  0.50400001928E-02 0. -1.
    10030    2    1    2    0    0  0.00000000000E+00  0.00000000000E+00  0.33530364856E+03  0.77746871265E+03  0.70144783299E+03 0.  0.
        2    1    3    3  502    0 -0.46624495110E+02  0.17832622943E+03 -0.16307047658E+03  0.24610174316E+03  0.25500000920E-02 0. -1.
       -2    1    3    3    0  502  0.46624495110E+02 -0.17832622943E+03  0.49837412514E+03  0.53136696949E+03  0.25500000920E-02 0.  1.
</event>
<event>
 5   0  0.6689415E-03  0.6957343E+03  0.7818609E-02  0.9724555E-01
        1   -1    0    0  501    0  0.00000000000E+00  0.00000000000E+00  0.16904473698E+03  0.16904473706E+03  0.50400001928E-02 0. -1.
       -1   -1    0    0    0  501  0.00000000000E+00  0.00000000000E+00 -0.71585516343E+03  0.71585516344E+03  0.50400001928E-02 0.  1.
    10030    2    1    2    0    0  0.00000000000E+00  0.00000000000E+00 -0.54681042644E+03  0.88489990050E+03  0.69573428221E+03 0.  0.
        1    1    3    3  502    0  0.29770514527E+03  0.12002279704E+03 -0.10286842523E+03  0.33706933747E+03  0.50400001928E-02 0. -1.
       -1    1    3    3    0  502 -0.29770514527E+03 -0.12002279704E+03 -0.44394200122E+03  0.54783056304E+03  0.50400001928E-02 0.  1.
</event>
<event>
 5   0  0.6609285E-03  0.7003949E+03  0.7818609E-02  0.9716557E-01
        1   -1    0    0  501    0  0.00000000000E+00  0.00000000000E+00  0.76521097798E+03  0.76521097800E+03  0.50400001928E-02 0.  1.
       -1   -1    0    0    0  501  0.00000000000E+00  0.00000000000E+00 -0.16026726410E+03  0.16026726418E+03  0.50400001928E-02 0. -1.
    10030    2    1    2    0    0  0.00000000000E+00  0.00000000000E+00  0.60494371388E+03  0.92547824218E+03  0.70039494558E+03 0.  0.
        2    1    3    3  502    0 -0.20886334598E+03  0.11134530318E+03  0.64351901007E+03  0.68566638401E+03  0.25500000920E-02 0.  1.
       -2    1    3    3    0  502  0.20886334598E+03 -0.11134530318E+03 -0.38575296191E+02  0.23981185817E+03  0.25500000920E-02 0. -1.
</event>
<event>
 5   0  0.1109788E-02  0.6692449E+03  0.7818609E-02  0.9771323E-01
       -2   -1    0    0    0  501  0.00000000000E+00  0.00000000000E+00  0.14236424744E+03  0.14236424746E+03  0.25500000920E-02 0.  1.
        2   -1    0    0  501    0  0.00000000000E+00  0.00000000000E+00 -0.78651907230E+03  0.78651907230E+03  0.25500000920E-02 0. -1.
    10030    2    1    2    0    0  0.00000000000E+00  0.00000000000E+00 -0.64415482485E+03  0.92888331976E+03  0.66924493524E+03 0.  0.
        1    1    3    3  502    0 -0.26270928088E+03  0.12719557392E+03 -0.94955210991E+02  0.30693871115E+03  0.50400001928E-02 0.  1.
       -1    1    3    3    0  502  0.26270928088E+03 -0.12719557392E+03 -0.54919961386E+03  0.62194460861E+03  0.50400001928E-02 0. -1.
</event>
<event>
 5   0  0.1099980E-02  0.7029619E+03  0.7818609E-02  0.9712180E-01
        2   -1    0    0  501    0  0.00000000000E+00  0.00000000000E+00  0.56352890777E+03  0.56352890777E+03  0.25500000920E-02 0. -1.
       -2   -1    0    0    0  501  0.00000000000E+00  0.00000000000E+00 -0.21922361996E+03  0.21922361998E+03  0.25500000920E-02 0.  1.
    10030    2    1    2    0    0  0.00000000000E+00  0.00000000000E+00  0.34430528781E+03  0.78275252775E+03  0.70296186845E+03 0.  0.
        5    1    3    3  502    0 -0.17008749663E+02  0.22803640047E+03  0.46932924377E+03  0.52209379096E+03  0.46999998093E+01 0. -1.
       -5    1    3    3    0  502  0.17008749663E+02 -0.22803640047E+03 -0.12502395596E+03  0.26065873679E+03  0.46999998093E+01 0.  1.
</event>
<event>
 5   0  0.6785252E-03  0.6998634E+03  0.7818609E-02  0.9717466E-01
       -1   -1    0    0    0  501  0.00000000000E+00  0.00000000000E+00  0.14473536931E+03  0.14473536940E+03  0.50400001928E-02 0.  1.
        1   -1    0    0  501    0  0.00000000000E+00  0.00000000000E+00 -0.84604187430E+03  0.84604187432E+03  0.50400001928E-02 0. -1.
    10030    2    1    2    0    0  0.00000000000E+00  0.00000000000E+00 -0.70130650500E+03  0.99077724371E+03  0.69986336717E+03 0.  0.
        3    1    3    3  502    0  0.20088121764E+03 -0.14530312290E+03 -0.70025816139E+03  0.74285110481E+03  0.10100000352E+00 0. -1.
       -3    1    3    3    0  502 -0.20088121764E+03  0.14530312290E+03 -0.10483436051E+01  0.24792613890E+03  0.10100000352E+00 0.  1.
</event>
<event>
 5   0  0.1100119E-02  0.7003749E+03  0.7818609E-02  0.9716591E-01
       -2   -1    0    0    0  501  0.00000000000E+00  0.00000000000E+00  0.91267624423E+02  0.91267624459E+02  0.25500000920E-02 0. -1.
        2   -1    0    0  501    0  0.00000000000E+00  0.00000000000E+00 -0.13436447840E+04  0.13436447840E+04  0.25500000920E-02 0.  1.
    10030    2    1    2    0    0  0.00000000000E+00  0.00000000000E+00 -0.12523771595E+04  0.14349124084E+04  0.70037494966E+03 0.  0.
        4    1    3    3  502    0 -0.13461473372E+03 -0.58324667478E+02  0.25267117248E+02  0.14887220521E+03  0.12699999809E+01 0. -1.
       -4    1    3    3    0  502  0.13461473372E+03  0.58324667478E+02 -0.12776442768E+04  0.12860402032E+04  0.12699999809E+01 0.  1.
</event>
<event>
 5   0  0.6246998E-03  0.7006882E+03  0.7818609E-02  0.9716056E-01
        1   -1    0    0  501    0  0.00000000000E+00  0.00000000000E+00  0.86340835456E+03  0.86340835458E+03  0.50400001928E-02 0.  1.
       -1   -1    0    0    0  501  0.00000000000E+00  0.00000000000E+00 -0.14215869262E+03  0.14215869270E+03  0.50400001928E-02 0. -1.
    10030    2    1    2    0    0  0.00000000000E+00  0.00000000000E+00  0.72124966195E+03  0.10055670473E+04  0.70068824146E+03 0.  0.
        4    1    3    3  502    0  0.20885231932E+03  0.16277224041E+03  0.31406899891E+02  0.26664976991E+03  0.12699999809E+01 0. -1.
       -4    1    3    3    0  502 -0.20885231932E+03 -0.16277224041E+03  0.68984276206E+03  0.73891727737E+03  0.12699999809E+01 0.  1.
</event>
<event>
 5   0  0.6990118E-03  0.7015212E+03  0.7818609E-02  0.9714634E-01
       -1   -1    0    0    0  501  0.00000000000E+00  0.00000000000E+00  0.14732848763E+03  0.14732848771E+03  0.50400001928E-02 0. -1.
        1   -1    0    0  501    0  0.00000000000E+00  0.00000000000E+00 -0.83509316925E+03  0.83509316926E+03  0.50400001928E-02 0.  1.
    10030    2    1    2    0    0  0.00000000000E+00  0.00000000000E+00 -0.68776468162E+03  0.98242165697E+03  0.70152124331E+03 0.  0.
        5    1    3    3  502    0 -0.92292934485E+02  0.23307771771E+02 -0.81661288808E+03  0.82215566468E+03  0.46999998093E+01 0.  1.
       -5    1    3    3    0  502  0.92292934485E+02 -0.23307771771E+02  0.12884820646E+03  0.16026599230E+03  0.46999998093E+01 0. -1.
</event>
<event>
 5   0  0.6609285E-03  0.6994747E+03  0.7818609E-02  0.9718131E-01
        1   -1    0    0  501    0  0.00000000000E+00  0.00000000000E+00  0.38564603672E+03  0.38564603675E+03  0.50400001928E-02 0. -1.
       -1   -1    0    0    0  501  0.00000000000E+00  0.00000000000E+00 -0.31717222353E+03  0.31717222357E+03  0.50400001928E-02 0.  1.
    10030    2    1    2    0    0  0.00000000000E+00  0.00000000000E+00  0.68473813194E+02  0.70281826032E+03  0.69947469143E+03 0.  0.
        2    1    3    3  502    0  0.26607857251E+03 -0.85646752056E+02  0.24543929197E+03  0.37198604669E+03  0.25500000920E-02 0. -1.
       -2    1    3    3    0  502 -0.26607857251E+03  0.85646752056E+02 -0.17696547877E+03  0.33083221362E+03  0.25500000920E-02 0.  1.
</event>
<event>
 5   0  0.6609285E-03  0.6931465E+03  0.7818609E-02  0.9729025E-01
        1   -1    0    0  501    0  0.00000000000E+00  0.00000000000E+00  0.32334280552E+03  0.32334280556E+03  0.50400001928E-02 0. -1.
       -1   -1    0    0    0  501  0.00000000000E+00  0.00000000000E+00 -0.37147266058E+03  0.37147266062E+03  0.50400001928E-02 0.  1.
    10030    2    1    2    0    0  0.00000000000E+00  0.00000000000E+00 -0.48129855063E+02  0.69481546618E+03  0.69314648458E+03 0.  0.
        2    1    3    3  502    0 -0.21400045518E+03  0.23305326050E+03 -0.16583741770E+03  0.35722831098E+03  0.25500000920E-02 0.  1.
       -2    1    3    3    0  502  0.21400045518E+03 -0.23305326050E+03  0.11770756264E+03  0.33758715520E+03  0.25500000920E-02 0. -1.
</event>
<event>
 5   0  0.6990118E-03  0.6991559E+03  0.7818609E-02  0.9718677E-01
       -1   -1    0    0    0  501  0.00000000000E+00  0.00000000000E+00  0.62546071193E+03  0.62546071195E+03  0.50400001928E-02 0.  1.
        1   -1    0    0  501    0  0.00000000000E+00  0.00000000000E+00 -0.19538353797E+03  0.19538353803E+03  0.50400001928E-02 0. -1.
    10030    2    1    2    0    0  0.00000000000E+00  0.00000000000E+00  0.43007717397E+03  0.82084424999E+03  0.69915585328E+03 0.  0.
        5    1    3    3  502    0 -0.28253866381E+03 -0.15621774567E+03  0.37233749842E+03  0.49283809038E+03  0.46999998093E+01 0.  1.
       -5    1    3    3    0  502  0.28253866381E+03  0.15621774567E+03  0.57739675551E+02  0.32800615960E+03  0.46999998093E+01 0. -1.
</event>
<event>
 5   0  0.6990118E-03  0.6982546E+03  0.7818609E-02  0.9720222E-01
       -1   -1    0    0    0  501  0.00000000000E+00  0.00000000000E+00  0.49893440724E+03  0.49893440726E+03  0.50400001928E-02 0. -1.
        1   -1    0    0  501    0  0.00000000000E+00  0.00000000000E+00 -0.24430041976E+03  0.24430041981E+03  0.50400001928E-02 0.  1.
    10030    2    1    2    0    0  0.00000000000E+00  0.00000000000E+00  0.25463398748E+03  0.74323482707E+03  0.69825463879E+03 0.  0.
        5    1    3    3  502    0  0.11367673001E+03 -0.68603382099E+02 -0.21634165855E+03  0.25387915670E+03  0.46999998093E+01 0.  1.
       -5    1    3    3    0  502 -0.11367673001E+03  0.68603382099E+02  0.47097564603E+03  0.48935567038E+03  0.46999998093E+01 0. -1.
</event>
<event>
 5   0  0.6609285E-03  0.7011007E+03  0.7818609E-02  0.9715352E-01
        1   -1    0    0  501    0  0.00000000000E+00  0.00000000000E+00  0.40147734255E+03  0.40147734258E+03  0.50400001928E-02 0.  1.
       -1   -1    0    0    0  501  0.00000000000E+00  0.00000000000E+00 -0.30608343723E+03  0.30608343727E+03  0.50400001928E-02 0. -1.
    10030    2    1    2    0    0  0.00000000000E+00  0.00000000000E+00  0.95393905320E+02  0.70756077986E+03  0.70110074884E+03 0.  0.
        2    1    3    3  502    0 -0.27656844815E+03 -0.20183905842E+03 -0.28205430483E+02  0.34354717046E+03  0.25500000920E-02 0. -1.
       -2    1    3    3    0  502  0.27656844815E+03  0.20183905842E+03  0.12359933580E+03  0.36401360940E+03  0.25500000920E-02 0.  1.
</event>
<event>
 5   0  0.4440500E-03  0.7040808E+03  0.7818609E-02  0.9710279E-01
       -4   -1    0    0    0  501  0.00000000000E+00  0.00000000000E+00  0.12988010339E+04  0.12988016548E+04  0.12699999809E+01 0. -1.
        4   -1    0    0  501    0  0.00000000000E+00  0.00000000000E+00 -0.95415772534E+02  0.95424224116E+02  0.12699999809E+01 0.  1.
    10030    2    1    2    0    0  0.00000000000E+00  0.00000000000E+00  0.12033852613E+04  0.13942258789E+04  0.70408075830E+03 0.  0.
        3    1    3    3  502    0 -0.11795942130E+03  0.29952290959E+03  0.88385667996E+03  0.94065458026E+03  0.10100000352E+00 0. -1.
       -3    1    3    3    0  502  0.11795942130E+03 -0.29952290959E+03  0.31952858139E+03  0.45357129866E+03  0.10100000352E+00 0.  1.
</event>
<event>
 5   0  0.4440500E-03  0.7003620E+03  0.7818609E-02  0.9716613E-01
       -3   -1    0    0    0  501  0.00000000000E+00  0.00000000000E+00  0.89867559692E+02  0.89867616447E+02  0.10100000352E+00 0. -1.
        3   -1    0    0  501    0  0.00000000000E+00  0.00000000000E+00 -0.13645268237E+04  0.13645268274E+04  0.10100000352E+00 0.  1.
    10030    2    1    2    0    0  0.00000000000E+00  0.00000000000E+00 -0.12746592640E+04  0.14543944439E+04  0.70036202001E+03 0.  0.
        3    1    3    3  502    0  0.77869987398E+02 -0.25867778827E+03 -0.11000450629E+04  0.11327299253E+04  0.10100000352E+00 0.  1.
       -3    1    3    3    0  502 -0.77869987398E+02  0.25867778827E+03 -0.17461420112E+03  0.32166451859E+03  0.10100000352E+00 0. -1.
</event>
<event>
 5   0  0.4440500E-03  0.7023015E+03  0.7818609E-02  0.9713304E-01
        4   -1    0    0  501    0  0.00000000000E+00  0.00000000000E+00  0.20128583643E+03  0.20128984288E+03  0.12699999809E+01 0.  1.
       -4   -1    0    0    0  501  0.00000000000E+00  0.00000000000E+00 -0.61258496012E+03  0.61258627659E+03  0.12699999809E+01 0. -1.
    10030    2    1    2    0    0  0.00000000000E+00  0.00000000000E+00 -0.41129912369E+03  0.81387611947E+03  0.70230147992E+03 0.  0.
        2    1    3    3  502    0 -0.10172379973E+03 -0.66361230383E+02 -0.58747093376E+03  0.59989469271E+03  0.25500000920E-02 0. -1.
       -2    1    3    3    0  502  0.10172379973E+03  0.66361230383E+02  0.17617181007E+03  0.21398142676E+03  0.25500000920E-02 0.  1.
</event>
<event>
 5   0  0.1109788E-02  0.6983856E+03  0.7818609E-02  0.9719997E-01
       -2   -1    0    0    0  501  0.00000000000E+00  0.00000000000E+00  0.35704185431E+03  0.35704185432E+03  0.25500000920E-02 0.  1.
        2   -1    0    0  501    0  0.00000000000E+00  0.00000000000E+00 -0.34151625180E+03  0.34151625181E+03  0.25500000920E-02 0. -1.
    10030    2    1    2    0    0  0.00000000000E+00  0.00000000000E+00  0.15525602504E+02  0.69855810613E+03  0.69838555491E+03 0.  0.
        1    1    3    3  502    0  0.11793090917E+03 -0.27399679951E+03 -0.17381345313E+03  0.34524348219E+03  0.50400001928E-02 0. -1.
       -1    1    3    3    0  502 -0.11793090917E+03  0.27399679951E+03  0.18933905563E+03  0.35331462394E+03  0.50400001928E-02 0.  1.
</event>
<event>
 5   0  0.6990118E-03  0.6987981E+03  0.7818609E-02  0.9719290E-01
       -1   -1    0    0    0  501  0.00000000000E+00  0.00000000000E+00  0.66422303992E+02  0.66422304183E+02  0.50400001928E-02 0.  1.
        1   -1    0    0  501    0  0.00000000000E+00  0.00000000000E+00 -0.18379322916E+04  0.18379322916E+04  0.50400001928E-02 0. -1.
    10030    2    1    2    0    0  0.00000000000E+00  0.00000000000E+00 -0.17715099876E+04  0.19043545958E+04  0.69879810411E+03 0.  0.
        5    1    3    3  502    0 -0.24389267590E+03  0.22497225661E+03 -0.58770570683E+03  0.67491943329E+03  0.46999998093E+01 0.  1.
       -5    1    3    3    0  502  0.24389267590E+03 -0.22497225661E+03 -0.11838042808E+04  0.12294351625E+04  0.46999998093E+01 0. -1.
</event>
<event>
 5   0  0.6609285E-03  0.6958062E+03  0.7818609E-02  0.9724431E-01
       -1   -1    0    0    0  501  0.00000000000E+00  0.00000000000E+00  0.41285103975E+03  0.41285103978E+03  0.50400001928E-02 0. -1.
        1   -1    0    0  501    0  0.00000000000E+00  0.00000000000E+00 -0.29317247629E+03  0.29317247633E+03  0.50400001928E-02 0.  1.
    10030    2    1    2    0    0  0.00000000000E+00  0.00000000000E+00  0.11967856347E+03  0.70602351611E+03  0.69580618476E+03 0.  0.
        2    1    3    3  502    0 -0.33309048101E+03  0.39935850629E+02  0.15334682334E+03  0.36886228994E+03  0.25500000920E-02 0. -1.
       -2    1    3    3    0  502  0.33309048101E+03 -0.39935850629E+02 -0.33668259877E+02  0.33716122617E+03  0.25500000920E-02 0.  1.
</event>
<event>
 5   0  0.6689415E-03  0.7012198E+03  0.7818609E-02  0.9715148E-01
       -1   -1    0    0    0  501  0.00000000000E+00  0.00000000000E+00  0.38853296973E+03  0.38853296976E+03  0.50400001928E-02 0.  1.
        1   -1    0    0  501    0  0.00000000000E+00  0.00000000000E+00 -0.31638835030E+03  0.31638835034E+03  0.50400001928E-02 0. -1.
    10030    2    1    2    0    0  0.00000000000E+00  0.00000000000E+00  0.72144619426E+02  0.70492132011E+03  0.70121980964E+03 0.  0.
        1    1    3    3  502    0 -0.10892886857E+03 -0.24855026107E+03 -0.18710085690E+03  0.32962017742E+03  0.50400001928E-02 0.  1.
       -1    1    3    3    0  502  0.10892886857E+03  0.24855026107E+03  0.25924547632E+03  0.37530114269E+03  0.50400001928E-02 0. -1.
</event>
<event>
 5   0  0.1099980E-02  0.6962714E+03  0.7818609E-02  0.9723630E-01
       -2   -1    0    0    0  501  0.00000000000E+00  0.00000000000E+00  0.29005224092E+03  0.29005224093E+03  0.25500000920E-02 0. -1.
        2   -1    0    0  501    0  0.00000000000E+00  0.00000000000E+00 -0.41785044848E+03  0.41785044849E+03  0.25500000920E-02 0.  1.
    10030    2    1    2    0    0  0.00000000000E+00  0.00000000000E+00 -0.12779820756E+03  0.70790268942E+03  0.69627138088E+03 0.  0.
        5    1    3    3  502    0 -0.29564159229E+03 -0.70092164287E+02 -0.23661784610E+03  0.38513238980E+03  0.46999998093E+01 0. -1.
       -5    1    3    3    0  502  0.29564159229E+03  0.70092164287E+02  0.10881963854E+03  0.32277029962E+03  0.46999998093E+01 0.  1.
</event>
<event>
 5   0  0.1099980E-02  0.7012430E+03  0.7818609E-02  0.9715109E-01
       -2   -1    0    0    0  501  0.00000000000E+00  0.00000000000E+00  0.78826986021E+03  0.78826986021E+03  0.25500000920E-02 0. -1.
        2   -1    0    0  501    0  0.00000000000E+00  0.00000000000E+00 -0.15595601137E+03  0.15595601139E+03  0.25500000920E-02 0.  1.
    10030    2    1    2    0    0  0.00000000000E+00  0.00000000000E+00  0.63231384883E+03  0.94422587160E+03  0.70124296302E+03 0.  0.
        5    1    3    3  502    0  0.17197968616E+03 -0.20162286810E+03  0.70925298151E+01  0.26514371079E+03  0.46999998093E+01 0.  1.
       -5    1    3    3    0  502 -0.17197968616E+03  0.20162286810E+03  0.62522131902E+03  0.67908216082E+03  0.46999998093E+01 0. -1.
</event>
<event>
 5   0  0.1100119E-02  0.6992366E+03  0.7818609E-02  0.9718539E-01
        2   -1    0    0  501    0  0.00000000000E+00  0.00000000000E+00  0.79111477328E+03  0.79111477329E+03  0.25500000920E-02 0.  1.
       -2   -1    0    0    0  501  0.00000000000E+00  0.00000000000E+00 -0.15450721801E+03  0.15450721803E+03  0.25500000920E-02 0. -1.
    10030    2    1    2    0    0  0.00000000000E+00  0.00000000000E+00  0.63660755527E+03  0.94562199132E+03  0.69923656300E+03 0.  0.
        4    1    3    3  502    0  0.32254799266E+03  0.22282764401E+02  0.49821184169E+03  0.59392792598E+03  0.12699999809E+01 0. -1.
       -4    1    3    3    0  502 -0.32254799266E+03 -0.22282764401E+02  0.13839571358E+03  0.35169406534E+03  0.12699999809E+01 0.  1.
</event>
<event>
 5   0  0.6990118E-03  0.6607781E+03  0.7818609E-02  0.9786762E-01
       -1   -1    0    0    0  501  0.00000000000E+00  0.00000000000E+00  0.14717204536E+03  0.14717204545E+03  0.50400001928E-02 0. -1.
        1   -1    0    0  501    0  0.00000000000E+00  0.00000000000E+00 -0.74169600247E+03  0.74169600249E+03  0.50400001928E-02 0.  1.
    10030    2    1    2    0    0  0.00000000000E+00  0.00000000000E+00 -0.59452395711E+03  0.88886804794E+03  0.66077808005E+03 0.  0.
        5    1    3    3  502    0 -0.47806507037E+02 -0.26575536373E+03 -0.55328356629E+03  0.61567537728E+03  0.46999998093E+01 0.  1.
       -5    1    3    3    0  502  0.47806507037E+02  0.26575536373E+03 -0.41240390819E+02  0.27319267066E+03  0.46999998093E+01 0. -1.
</event>
<event>
 5   0  0.1079446E-02  0.7019654E+03  0.7818609E-02  0.9713877E-01
       -2   -1    0    0    0  501  0.00000000000E+00  0.00000000000E+00  0.11596069450E+03  0.11596069453E+03  0.25500000920E-02 0.  1.
        2   -1    0    0  501    0  0.00000000000E+00  0.00000000000E+00 -0.10623327394E+04  0.10623327394E+04  0.25500000920E-02 0. -1.
    10030    2    1    2    0    0  0.00000000000E+00  0.00000000000E+00 -0.94637204489E+03  0.11782934339E+04  0.70196536173E+03 0.  0.
        2    1    3    3  502    0  0.31881016246E+03  0.12144041247E+03 -0.61161560623E+03  0.70032945337E+03  0.25500000920E-02 0. -1.
       -2    1    3    3    0  502 -0.31881016246E+03 -0.12144041247E+03 -0.33475643867E+03  0.47796398055E+03  0.25500000920E-02 0.  1.
</event>
<event>
 5   0  0.6609285E-03  0.6990646E+03  0.7818609E-02  0.9718833E-01
        1   -1    0    0  501    0  0.00000000000E+00  0.00000000000E+00  0.74695940591E+03  0.74695940592E+03  0.50400001928E-02 0.  1.
       -1   -1    0    0    0  501  0.00000000000E+00  0.00000000000E+00 -0.16356019115E+03  0.16356019122E+03  0.50400001928E-02 0. -1.
    10030    2    1    2    0    0  0.00000000000E+00  0.00000000000E+00  0.58339921476E+03  0.91051959715E+03  0.69906458429E+03 0.  0.
        2    1    3    3  502    0 -0.30419669952E+03  0.14496028613E+03  0.41265325929E+03  0.53275869675E+03  0.25500000920E-02 0.  1.
       -2    1    3    3    0  502  0.30419669952E+03 -0.14496028613E+03  0.17074595547E+03  0.37776090040E+03  0.25500000920E-02 0. -1.
</event>
<event>
 5   0  0.1079446E-02  0.6995518E+03  0.7818609E-02  0.9717999E-01
        2   -1    0    0  501    0  0.00000000000E+00  0.00000000000E+00  0.60333911837E+03  0.60333911838E+03  0.25500000920E-02 0.  1.
       -2   -1    0    0    0  501  0.00000000000E+00  0.00000000000E+00 -0.20277680597E+03  0.20277680599E+03  0.25500000920E-02 0. -1.
    10030    2    1    2    0    0  0.00000000000E+00  0.00000000000E+00  0.40056231240E+03  0.80611592437E+03  0.69955179751E+03 0.  0.
        2    1    3    3  502    0  0.17964827616E+03  0.29665037775E+03  0.14787564066E+03  0.37701744635E+03  0.25500000920E-02 0. -1.
       -2    1    3    3    0  502 -0.17964827616E+03 -0.29665037775E+03  0.25268667174E+03  0.42909847801E+03  0.25500000920E-02 0.  1.
</event>
<event>
 5   0  0.6785252E-03  0.7013879E+03  0.7818609E-02  0.9714862E-01
       -1   -1    0    0    0  501  0.00000000000E+00  0.00000000000E+00  0.11591047462E+03  0.11591047473E+03  0.50400001928E-02 0.  1.
        1   -1    0    0  501    0  0.00000000000E+00  0.00000000000E+00 -0.10610452456E+04  0.10610452456E+04  0.50400001928E-02 0. -1.
    10030    2    1    2    0    0  0.00000000000E+00  0.00000000000E+00 -0.94513477099E+03  0.11769557204E+04  0.70138793283E+03 0.  0.
        3    1    3    3  502    0  0.26222937751E+03 -0.20002192996E+03 -0.27251293801E+03  0.42782745409E+03  0.10100000352E+00 0.  1.
       -3    1    3    3    0  502 -0.26222937751E+03  0.20002192996E+03 -0.67262183299E+03  0.74912826626E+03  0.10100000352E+00 0. -1.
</event>
<event>
 5   0  0.1100119E-02  0.6996926E+03  0.7818609E-02  0.9717758E-01
        2   -1    0    0  501    0  0.00000000000E+00  0.00000000000E+00  0.66744562097E+03  0.66744562098E+03  0.25500000920E-02 0.  1.
       -2   -1    0    0    0  501  0.00000000000E+00  0.00000000000E+00 -0.18337436936E+03  0.18337436938E+03  0.25500000920E-02 0. -1.
    10030    2    1    2    0    0  0.00000000000E+00  0.00000000000E+00  0.48407125161E+03  0.85081999036E+03  0.69969256060E+03 0.  0.
        4    1    3    3  502    0  0.58597361820E+02 -0.15936082974E+03  0.61398044266E+03  0.63702678259E+03  0.12699999809E+01 0.  1.
       -4    1    3    3    0  502 -0.58597361820E+02  0.15936082974E+03 -0.12990919105E+03  0.21379320776E+03  0.12699999809E+01 0. -1.
</event>
<event>
 5   0  0.6689415E-03  0.7009473E+03  0.7818609E-02  0.9715613E-01
        1   -1    0    0  501    0  0.00000000000E+00  0.00000000000E+00  0.57738092567E+03  0.57738092569E+03  0.50400001928E-02 0. -1.
       -1   -1    0    0    0  501  0.00000000000E+00  0.00000000000E+00 -0.21273961014E+03  0.21273961020E+03  0.50400001928E-02 0.  1.
    10030    2    1    2    0    0  0.00000000000E+00  0.00000000000E+00  0.36464131553E+03  0.79012053589E+03  0.70094733914E+03 0.  0.
        1    1    3    3  502    0  0.50376160750E+02 -0.27672768574E+03  0.41800313244E+03  0.50382793530E+03  0.50400001928E-02 0. -1.
       -1    1    3    3    0  502 -0.50376160750E+02  0.27672768574E+03 -0.53361816908E+02  0.28629260060E+03  0.50400001928E-02 0.  1.
</event>
<event>
 5   0  0.6990118E-03  0.7002849E+03  0.7818609E-02  0.9716745E-01
       -1   -1    0    0    0  501  0.00000000000E+00  0.00000000000E+00  0.17527919290E+03  0.17527919298E+03  0.50400001928E-02 0.  1.
        1   -1    0    0  501    0  0.00000000000E+00  0.00000000000E+00 -0.69945392639E+03  0.69945392641E+03  0.50400001928E-02 0. -1.
    10030    2    1    2    0    0  0.00000000000E+00  0.00000000000E+00 -0.52417473349E+03  0.87473311939E+03  0.70028485556E+03 0.  0.
        5    1    3    3  502    0 -0.23199658200E+03 -0.26220540084E+03 -0.25973603711E+03  0.43595754984E+03  0.46999998093E+01 0.  1.
       -5    1    3    3    0  502  0.23199658200E+03  0.26220540084E+03 -0.26443869638E+03  0.43877556955E+03  0.46999998093E+01 0. -1.
</event>
<event>
 5   0  0.6246998E-03  0.7010696E+03  0.7818609E-02  0.9715405E-01
       -1   -1    0    0    0  501  0.00000000000E+00  0.00000000000E+00  0.18048335371E+03  0.18048335378E+03  0.50400001928E-02 0.  1.
        1   -1    0    0  501    0  0.00000000000E+00  0.00000000000E+00 -0.68080882776E+03  0.68080882778E+03  0.50400001928E-02 0. -1.
    10030    2    1    2    0    0  0.00000000000E+00  0.00000000000E+00 -0.50032547405E+03  0.86129218156E+03  0.70106964136E+03 0.  0.
        4    1    3    3  502    0 -0.14536030978E+03 -0.10806760138E+02  0.14148275438E+03  0.20313884023E+03  0.12699999809E+01 0.  1.
       -4    1    3    3    0  502  0.14536030978E+03  0.10806760138E+02 -0.64180822843E+03  0.65815334133E+03  0.12699999809E+01 0. -1.
</event>
<event>
 5   0  0.1079446E-02  0.7000781E+03  0.7818609E-02  0.9717099E-01
       -2   -1    0    0    0  501  0.00000000000E+00  0.00000000000E+00  0.14260928384E+03  0.14260928386E+03  0.25500000920E-02 0. -1.
        2   -1    0    0  501    0  0.00000000000E+00  0.00000000000E+00 -0.85918199751E+03  0.85918199752E+03  0.25500000920E-02 0.  1.
    10030    2    1    2    0    0  0.00000000000E+00  0.00000000000E+00 -0.71657271368E+03  0.10017912814E+04  0.70007807955E+03 0.  0.
        2    1    3    3  502    0  0.92129354534E+02  0.18413779004E+03 -0.76336177448E+03  0.79064261360E+03  0.25500000920E-02 0.  1.
       -2    1    3    3    0  502 -0.92129354534E+02 -0.18413779004E+03  0.46789060806E+02  0.21114866778E+03  0.25500000920E-02 0. -1.
</event>
<event>
 5   0  0.1109788E-02  0.7014917E+03  0.7818609E-02  0.9714685E-01
       -2   -1    0    0    0  501  0.00000000000E+00  0.00000000000E+00  0.11645724359E+03  0.11645724362E+03  0.25500000920E-02 0.  1.
        2   -1    0    0  501    0  0.00000000000E+00  0.00000000000E+00 -0.10563760948E+04  0.10563760948E+04  0.25500000920E-02 0. -1.
    10030    2    1    2    0    0  0.00000000000E+00  0.00000000000E+00 -0.93991885116E+03  0.11728333384E+04  0.70149169122E+03 0.  0.
        1    1    3    3  502    0  0.19646506978E+03  0.18248830963E+03 -0.91936368726E+02  0.28346569936E+03  0.50400001928E-02 0.  1.
       -1    1    3    3    0  502 -0.19646506978E+03 -0.18248830963E+03 -0.84798248243E+03  0.88936763902E+03  0.50400001928E-02 0. -1.
</event>
<event>
 5   0  0.6785252E-03  0.6999407E+03  0.7818609E-02  0.9717334E-01
       -1   -1    0    0    0  501  0.00000000000E+00  0.00000000000E+00  0.92617168905E+02  0.92617169042E+02  0.50400001928E-02 0. -1.
        1   -1    0    0  501    0  0.00000000000E+00  0.00000000000E+00 -0.13224249951E+04  0.13224249951E+04  0.50400001928E-02 0.  1.
    10030    2    1    2    0    0  0.00000000000E+00  0.00000000000E+00 -0.12298078262E+04  0.14150421641E+04  0.69994073817E+03 0.  0.
        3    1    3    3  502    0 -0.32270368381E+03 -0.10043092372E+03 -0.79858828178E+03  0.86716047649E+03  0.10100000352E+00 0.  1.
       -3    1    3    3    0  502  0.32270368381E+03  0.10043092372E+03 -0.43121954440E+03  0.54788168764E+03  0.10100000352E+00 0. -1.
</event>
<event>
 5   0  0.1099980E-02  0.7014608E+03  0.7818609E-02  0.9714737E-01
       -2   -1    0    0    0  501  0.00000000000E+00  0.00000000000E+00  0.52700967015E+02  0.52700967076E+02  0.25500000920E-02 0. -1.
        2   -1    0    0  501    0  0.00000000000E+00  0.00000000000E+00 -0.23341472026E+04  0.23341472026E+04  0.25500000920E-02 0.  1.
    10030    2    1    2    0    0  0.00000000000E+00  0.00000000000E+00 -0.22814462355E+04  0.23868481696E+04  0.70146080377E+03 0.  0.
        5    1    3    3  502    0 -0.15291740342E+03 -0.28754667437E+03 -0.15833714301E+04  0.16165252852E+04  0.46999998093E+01 0.  1.
       -5    1    3    3    0  502  0.15291740342E+03  0.28754667437E+03 -0.69807480545E+03  0.77032288439E+03  0.46999998093E+01 0. -1.
</event>
<event>
 5   0  0.1099980E-02  0.6890442E+03  0.7818609E-02  0.9736154E-01
        2   -1    0    0  501    0  0.00000000000E+00  0.00000000000E+00  0.18126772469E+03  0.18126772471E+03  0.25500000920E-02 0. -1.
       -2   -1    0    0    0  501  0.00000000000E+00  0.00000000000E+00 -0.65480752709E+03  0.65480752710E+03  0.25500000920E-02 0.  1.
    10030    2    1    2    0    0  0.00000000000E+00  0.00000000000E+00 -0.47353980240E+03  0.83607525181E+03  0.68904418018E+03 0.  0.
        5    1    3    3  502    0  0.19812268841E+03  0.21141953322E+03 -0.10668017993E+02  0.28997709444E+03  0.46999998093E+01 0. -1.
       -5    1    3    3    0  502 -0.19812268841E+03 -0.21141953322E+03 -0.46287178441E+03  0.54609815738E+03  0.46999998093E+01 0.  1.
</event>
<event>
 5   0  0.1099980E-02  0.6980011E+03  0.7818609E-02  0.9720657E-01
       -2   -1    0    0    0  501  0.00000000000E+00  0.00000000000E+00  0.94369692425E+03  0.94369692425E+03  0.25500000920E-02 0.  1.
        2   -1    0    0  501    0  0.00000000000E+00  0.00000000000E+00 -0.12906834154E+03  0.12906834157E+03  0.25500000920E-02 0. -1.
    10030    2    1    2    0    0  0.00000000000E+00  0.00000000000E+00  0.81462858271E+03  0.10727652658E+04  0.69800113738E+03 0.  0.
        5    1    3    3  502    0  0.90420331846E+02  0.19253881440E+03 -0.17863807972E+02  0.21351402084E+03  0.46999998093E+01 0. -1.
       -5    1    3    3    0  502 -0.90420331846E+02 -0.19253881440E+03  0.83249239068E+03  0.85925124498E+03  0.46999998093E+01 0.  1.
</event>
<event>
 5   0  0.6246998E-03  0.7005466E+03  0.7818609E-02  0.9716298E-01
        1   -1    0    0  501    0  0.00000000000E+00  0.00000000000E+00  0.94822060508E+03  0.94822060509E+03  0.50400001928E-02 0.  1.
       -1   -1    0    0    0  501  0.00000000000E+00  0.00000000000E+00 -0.12939117695E+03  0.12939117705E+03  0.50400001928E-02 0. -1.
    10030    2    1    2    0    0  0.00000000000E+00  0.00000000000E+00  0.81882942812E+03  0.10776117821E+04  0.70054658707E+03 0.  0.
        4    1    3    3  502    0 -0.20434434269E+03 -0.25487625010E+03  0.60381406829E+03  0.68652134360E+03  0.12699999809E+01 0.  1.
       -4    1    3    3    0  502  0.20434434269E+03  0.25487625010E+03  0.21501535983E+03  0.39109043854E+03  0.12699999809E+01 0. -1.
</event>
<event>
 5   0  0.1100119E-02  0.6997526E+03  0.7818609E-02  0.9717655E-01
        2   -1    0    0  501    0  0.00000000000E+00  0.00000000000E+00  0.92674606008E+03  0.92674606008E+03  0.25500000920E-02 0.  1.
       -2   -1    0    0    0  501  0.00000000000E+00  0.00000000000E+00 -0.13208949753E+03  0.13208949756E+03  0.25500000920E-02 0. -1.
    10030    2    1    2    0    0  0.00000000000E+00  0.00000000000E+00  0.79465656255E+03  0.10588355576E+04  0.69975258893E+03 0.  0.
        4    1    3    3  502    0  0.30671589778E+03 -0.63127564019E+02  0.63345873935E+03  0.70663379388E+03  0.12699999809E+01 0.  1.
       -4    1    3    3    0  502 -0.30671589778E+03  0.63127564019E+02  0.16119782319E+03  0.35220176376E+03  0.12699999809E+01 0. -1.
</event>
<event>
 5   0  0.6246998E-03  0.7008305E+03  0.7818609E-02  0.9715813E-01
       -1   -1    0    0    0  501  0.00000000000E+00  0.00000000000E+00  0.10682428262E+03  0.10682428274E+03  0.50400001928E-02 0. -1.
        1   -1    0    0  501    0  0.00000000000E+00  0.00000000000E+00 -0.11494656996E+04  0.11494656996E+04  0.50400001928E-02 0.  1.
    10030    2    1    2    0    0  0.00000000000E+00  0.00000000000E+00 -0.10426414170E+04  0.12562899824E+04  0.70083050403E+03 0.  0.
        4    1    3    3  502    0 -0.28330233030E+03  0.65638024358E+02 -0.17087069699E+03  0.33729359405E+03  0.12699999809E+01 0. -1.
       -4    1    3    3    0  502  0.28330233030E+03 -0.65638024358E+02 -0.87177072002E+03  0.91899638834E+03  0.12699999809E+01 0.  1.
</event>
<event>
 5   0  0.4440500E-03  0.7000138E+03  0.7818609E-02  0.9717209E-01
       -3   -1    0    0    0  501  0.00000000000E+00  0.00000000000E+00  0.91637425312E+03  0.91637425868E+03  0.10100000352E+00 0.  1.
        3   -1    0    0  501    0  0.00000000000E+00  0.00000000000E+00 -0.13368425608E+03  0.13368429423E+03  0.10100000352E+00 0. -1.
    10030    2    1    2    0    0  0.00000000000E+00  0.00000000000E+00  0.78268999704E+03  0.10500585529E+04  0.70001380922E+03 0.  0.
        4    1    3    3  502    0  0.23710717227E+03 -0.25525597328E+03  0.44172085481E+03  0.56257830523E+03  0.12699999809E+01 0. -1.
       -4    1    3    3    0  502 -0.23710717227E+03  0.25525597328E+03  0.34096914223E+03  0.48748024769E+03  0.12699999809E+01 0.  1.
</event>
<event>
 5   0  0.6689415E-03  0.7006995E+03  0.7818609E-02  0.9716037E-01
       -1   -1    0    0    0  501  0.00000000000E+00  0.00000000000E+00  0.27633075372E+03  0.27633075377E+03  0.50400001928E-02 0.  1.
        1   -1    0    0  501    0  0.00000000000E+00  0.00000000000E+00 -0.44419577080E+03  0.44419577083E+03  0.50400001928E-02 0. -1.
    10030    2    1    2    0    0  0.00000000000E+00  0.00000000000E+00 -0.16786501708E+03  0.72052652460E+03  0.70069951383E+03 0.  0.
        1    1    3    3  502    0  0.25389705063E+03  0.24137846467E+03 -0.79609183952E+02  0.35925603365E+03  0.50400001928E-02 0. -1.
       -1    1    3    3    0  502 -0.25389705063E+03 -0.24137846467E+03 -0.88255833125E+02  0.36127049094E+03  0.50400001928E-02 0.  1.
</event>
<event>
 5   0  0.6609285E-03  0.7010525E+03  0.7818609E-02  0.9715434E-01
       -1   -1    0    0    0  501  0.00000000000E+00  0.00000000000E+00  0.38513158236E+03  0.38513158239E+03  0.50400001928E-02 0. -1.
        1   -1    0    0  501    0  0.00000000000E+00  0.00000000000E+00 -0.31903029919E+03  0.31903029923E+03  0.50400001928E-02 0.  1.
    10030    2    1    2    0    0  0.00000000000E+00  0.00000000000E+00  0.66101283168E+02  0.70416188162E+03  0.70105247727E+03 0.  0.
        2    1    3    3  502    0 -0.22308063328E+03 -0.26998483296E+03  0.47670783324E+02  0.35345336689E+03  0.25500000920E-02 0.  1.
       -2    1    3    3    0  502  0.22308063328E+03  0.26998483296E+03  0.18430499844E+02  0.35070851473E+03  0.25500000920E-02 0. -1.
</event>
<event>
 5   0  0.1100119E-02  0.7018248E+03  0.7818609E-02  0.9714117E-01
        2   -1    0    0  501    0  0.00000000000E+00  0.00000000000E+00  0.44401278984E+03  0.44401278985E+03  0.25500000920E-02 0. -1.
       -2   -1    0    0    0  501  0.00000000000E+00  0.00000000000E+00 -0.27733327649E+03  0.27733327650E+03  0.25500000920E-02 0.  1.
    10030    2    1    2    0    0  0.00000000000E+00  0.00000000000E+00  0.16667951336E+03  0.72134606635E+03  0.70182482663E+03 0.  0.
        4    1    3    3  502    0  0.15951845331E+03 -0.14107422129E+03 -0.20332636369E+03  0.29443385663E+03  0.12699999809E+01 0.  1.
       -4    1    3    3    0  502 -0.15951845331E+03  0.14107422129E+03  0.37000587704E+03  0.42691220972E+03  0.12699999809E+01 0. -1.
</event>
<event>
 5   0  0.6246998E-03  0.6977364E+03  0.7818609E-02  0.9721111E-01
       -1   -1    0    0    0  501  0.00000000000E+00  0.00000000000E+00  0.60509412642E+02  0.60509412852E+02  0.50400001928E-02 0.  1.
        1   -1    0    0  501    0  0.00000000000E+00  0.00000000000E+00 -0.20114062640E+04  0.20114062640E+04  0.50400001928E-02 0. -1.
    10030    2    1    2    0    0  0.00000000000E+00  0.00000000000E+00 -0.19508968513E+04  0.20719156768E+04  0.69773637383E+03 0.  0.
        4    1    3    3  502    0  0.13452303597E+03 -0.15769536043E+03 -0.18087208997E+04  0.18205595788E+04  0.12699999809E+01 0. -1.
       -4    1    3    3    0  502 -0.13452303597E+03  0.15769536043E+03 -0.14217595159E+03  0.25135609803E+03  0.12699999809E+01 0.  1.
</event>
<event>
 5   0  0.6689415E-03  0.6951063E+03  0.7818609E-02  0.9725638E-01
       -1   -1    0    0    0  501  0.00000000000E+00  0.00000000000E+00  0.50447880927E+03  0.50447880930E+03  0.50400001928E-02 0. -1.
        1   -1    0    0  501    0  0.00000000000E+00  0.00000000000E+00 -0.23944156711E+03  0.23944156716E+03  0.50400001928E-02 0.  1.
    10030    2    1    2    0    0  0.00000000000E+00  0.00000000000E+00  0.26503724216E+03  0.74392037646E+03  0.69510631330E+03 0.  0.
        1    1    3    3  502    0  0.13683672449E+03  0.29600690855E+03  0.26116316620E+03  0.41779250650E+03  0.50400001928E-02 0. -1.
       -1    1    3    3    0  502 -0.13683672449E+03 -0.29600690855E+03  0.38740759624E+01  0.32612786997E+03  0.50400001928E-02 0.  1.
</event>
<event>
 5   0  0.1109788E-02  0.6957035E+03  0.7818609E-02  0.9724608E-01
       -2   -1    0    0    0  501  0.00000000000E+00  0.00000000000E+00  0.96344470467E+02  0.96344470500E+02  0.25500000920E-02 0.  1.
        2   -1    0    0  501    0  0.00000000000E+00  0.00000000000E+00 -0.12559187811E+04  0.12559187811E+04  0.25500000920E-02 0. -1.
    10030    2    1    2    0    0  0.00000000000E+00  0.00000000000E+00 -0.11595743106E+04  0.13522632516E+04  0.69570347114E+03 0.  0.
        1    1    3    3  502    0 -0.12703398947E+03 -0.32339422020E+03 -0.61227567280E+03  0.70399073550E+03  0.50400001928E-02 0. -1.
       -1    1    3    3    0  502  0.12703398947E+03  0.32339422020E+03 -0.54729863784E+03  0.64827251612E+03  0.50400001928E-02 0.  1.
</event>
<event>
 5   0  0.4440500E-03  0.7025253E+03  0.7818609E-02  0.9712923E-01
       -3   -1    0    0    0  501  0.00000000000E+00  0.00000000000E+00  0.18483641938E+03  0.18483644697E+03  0.10100000352E+00 0. -1.
        3   -1    0    0  501    0  0.00000000000E+00  0.00000000000E+00 -0.66753846128E+03  0.66753846892E+03  0.10100000352E+00 0.  1.
    10030    2    1    2    0    0  0.00000000000E+00  0.00000000000E+00 -0.48270204190E+03  0.85237491589E+03  0.70252525647E+03 0.  0.
        5    1    3    3  502    0 -0.13338991914E+03  0.75635621294E+02  0.14204019445E+03  0.20907205594E+03  0.46999998093E+01 0. -1.
       -5    1    3    3    0  502  0.13338991914E+03 -0.75635621294E+02 -0.62474223635E+03  0.64330285995E+03  0.46999998093E+01 0.  1.
</event>
<event>
 5   0  0.1099980E-02  0.6995100E+03  0.7818609E-02  0.9718071E-01
       -2   -1    0    0    0  501  0.00000000000E+00  0.00000000000E+00  0.23795489856E+03  0.23795489857E+03  0.25500000920E-02 0. -1.
        2   -1    0    0  501    0  0.00000000000E+00  0.00000000000E+00 -0.51408297766E+03  0.51408297767E+03  0.25500000920E-02 0.  1.
    10030    2    1    2    0    0  0.00000000000E+00  0.00000000000E+00 -0.27612807911E+03  0.75203787624E+03  0.69951000796E+03 0.  0.
        5    1    3    3  502    0  0.17339466757E+03  0.25612511978E+03  0.37412263619E+02  0.31158875973E+03  0.46999998093E+01 0. -1.
       -5    1    3    3    0  502 -0.17339466757E+03 -0.25612511978E+03 -0.31354034273E+03  0.44044911651E+03  0.46999998093E+01 0.  1.
</event>
<event>
 5   0  0.6246998E-03  0.6991305E+03  0.7818609E-02  0.9718720E-01
        1   -1    0    0  501    0  0.00000000000E+00  0.00000000000E+00  0.14584009307E+03  0.14584009316E+03  0.50400001928E-02 0.  1.
       -1   -1    0    0    0  501  0.00000000000E+00  0.00000000000E+00 -0.83787561618E+03  0.83787561620E+03  0.50400001928E-02 0. -1.
    10030    2    1    2    0    0  0.00000000000E+00  0.00000000000E+00 -0.69203552311E+03  0.98371570935E+03  0.69913048251E+03 0.  0.
        4    1    3    3  502    0 -0.12998292541E+03 -0.68351616782E+02  0.10032456374E+03  0.17785987575E+03  0.12699999809E+01 0.  1.
       -4    1    3    3    0  502  0.12998292541E+03  0.68351616782E+02 -0.79236008685E+03  0.80585583360E+03  0.12699999809E+01 0. -1.
</event>
<event>
 5   0  0.1100119E-02  0.7005826E+03  0.7818609E-02  0.9716236E-01
       -2   -1    0    0    0  501  0.00000000000E+00  0.00000000000E+00  0.90534498489E+02  0.90534498525E+02  0.25500000920E-02 0.  1.
        2   -1    0    0  501    0  0.00000000000E+00  0.00000000000E+00 -0.13553284044E+04  0.13553284044E+04  0.25500000920E-02 0. -1.
    10030    2    1    2    0    0  0.00000000000E+00  0.00000000000E+00 -0.12647939059E+04  0.14458629029E+04  0.70058255019E+03 0.  0.
        4    1    3    3  502    0 -0.22070177216E+03  0.13352450049E+02 -0.71685359779E+02  0.23243916164E+03  0.12699999809E+01 0.  1.
       -4    1    3    3    0  502  0.22070177216E+03 -0.13352450049E+02 -0.11931085461E+04  0.12134237413E+04  0.12699999809E+01 0. -1.
</event>
<event>
 5   0  0.1079446E-02  0.6953984E+03  0.7818609E-02  0.9725134E-01
       -2   -1    0    0    0  501  0.00000000000E+00  0.00000000000E+00  0.15330045179E+03  0.15330045181E+03  0.25500000920E-02 0. -1.
        2   -1    0    0  501    0  0.00000000000E+00  0.00000000000E+00 -0.78861298577E+03  0.78861298577E+03  0.25500000920E-02 0.  1.
    10030    2    1    2    0    0  0.00000000000E+00  0.00000000000E+00 -0.63531253398E+03  0.94191343758E+03  0.69539838083E+03 0.  0.
        2    1    3    3  502    0 -0.15135645876E+03 -0.22281997799E+03 -0.19860792927E+02  0.27009622600E+03  0.25500000920E-02 0. -1.
       -2    1    3    3    0  502  0.15135645876E+03  0.22281997799E+03 -0.61545174106E+03  0.67181721158E+03  0.25500000920E-02 0.  1.
</event>
<event>
 5   0  0.6689415E-03  0.6927687E+03  0.7818609E-02  0.9729679E-01
       -1   -1    0    0    0  501  0.00000000000E+00  0.00000000000E+00  0.13820570268E+03  0.13820570277E+03  0.50400001928E-02 0. -1.
        1   -1    0    0  501    0  0.00000000000E+00  0.00000000000E+00 -0.86814154314E+03  0.86814154316E+03  0.50400001928E-02 0.  1.
    10030    2    1    2    0    0  0.00000000000E+00  0.00000000000E+00 -0.72993584047E+03  0.10063472459E+04  0.69276868304E+03 0.  0.
        1    1    3    3  502    0 -0.12487788298E+03  0.25201434694E+03 -0.65866248587E+03  0.71619968378E+03  0.50400001928E-02 0.  1.
       -1    1    3    3    0  502  0.12487788298E+03 -0.25201434694E+03 -0.71273354593E+02  0.29014756215E+03  0.50400001928E-02 0. -1.
</event>
<event>
 5   0  0.1079446E-02  0.7003641E+03  0.7818609E-02  0.9716610E-01
        2   -1    0    0  501    0  0.00000000000E+00  0.00000000000E+00  0.47649179564E+03  0.47649179564E+03  0.25500000920E-02 0. -1.
       -2   -1    0    0    0  501  0.00000000000E+00  0.00000000000E+00 -0.25735480483E+03  0.25735480484E+03  0.25500000920E-02 0.  1.
    10030    2    1    2    0    0  0.00000000000E+00  0.00000000000E+00  0.21913699081E+03  0.73384660049E+03  0.70036405698E+03 0.  0.
        2    1    3    3  502    0  0.27820477118E+03  0.16353183961E+03  0.25203521800E+03  0.40946588184E+03  0.25500000920E-02 0. -1.
       -2    1    3    3    0  502 -0.27820477118E+03 -0.16353183961E+03 -0.32898227192E+02  0.32438071865E+03  0.25500000920E-02 0.  1.
</event>
<event>
 5   0  0.6609285E-03  0.6651363E+03  0.7818609E-02  0.9778784E-01
       -1   -1    0    0    0  501  0.00000000000E+00  0.00000000000E+00  0.20553518303E+03  0.20553518309E+03  0.50400001928E-02 0.  1.
        1   -1    0    0  501    0  0.00000000000E+00  0.00000000000E+00 -0.53811505721E+03  0.53811505723E+03  0.50400001928E-02 0. -1.
    10030    2    1    2    0    0  0.00000000000E+00  0.00000000000E+00 -0.33257987418E+03  0.74365024032E+03  0.66513630725E+03 0.  0.
        2    1    3    3  502    0  0.39797317201E+02 -0.13983593282E+03 -0.50070159102E+03  0.52138277476E+03  0.25500000920E-02 0. -1.
       -2    1    3    3    0  502 -0.39797317201E+02  0.13983593282E+03  0.16812171684E+03  0.22226746556E+03  0.25500000920E-02 0.  1.
</event>
<event>
 5   0  0.6246998E-03  0.7009490E+03  0.7818609E-02  0.9715611E-01
       -1   -1    0    0    0  501  0.00000000000E+00  0.00000000000E+00  0.12485092267E+03  0.12485092278E+03  0.50400001928E-02 0.  1.
        1   -1    0    0  501    0  0.00000000000E+00  0.00000000000E+00 -0.98383240288E+03  0.98383240289E+03  0.50400001928E-02 0. -1.
    10030    2    1    2    0    0  0.00000000000E+00  0.00000000000E+00 -0.85898148020E+03  0.11086833257E+04  0.70094902331E+03 0.  0.
        4    1    3    3  502    0  0.56525685869E+02 -0.23049508894E+03 -0.21587813787E+02  0.23830817400E+03  0.12699999809E+01 0.  1.
       -4    1    3    3    0  502 -0.56525685869E+02  0.23049508894E+03 -0.83739366642E+03  0.87037515167E+03  0.12699999809E+01 0. -1.
</event>
<event>
 5   0  0.1109788E-02  0.7010854E+03  0.7818609E-02  0.9715378E-01
        2   -1    0    0  501    0  0.00000000000E+00  0.00000000000E+00  0.89889549892E+03  0.89889549893E+03  0.25500000920E-02 0.  1.
       -2   -1    0    0    0  501  0.00000000000E+00  0.00000000000E+00 -0.13670130249E+03  0.13670130251E+03  0.25500000920E-02 0. -1.
    10030    2    1    2    0    0  0.00000000000E+00  0.00000000000E+00  0.76219419644E+03  0.10355968014E+04  0.70108540283E+03 0.  0.
        1    1    3    3  502    0  0.29863897713E+03  0.93605168217E+02  0.14785485359E+03  0.34613324593E+03  0.50400001928E-02 0. -1.
       -1    1    3    3    0  502 -0.29863897713E+03 -0.93605168217E+02  0.61433934285E+03  0.68946355551E+03  0.50400001928E-02 0.  1.
</event>
<event>
 5   0  0.1079446E-02  0.6989455E+03  0.7818609E-02  0.9719037E-01
        2   -1    0    0  501    0  0.00000000000E+00  0.00000000000E+00  0.28160891620E+03  0.28160891621E+03  0.25500000920E-02 0. -1.
       -2   -1    0    0    0  501  0.00000000000E+00  0.00000000000E+00 -0.43369078144E+03  0.43369078145E+03  0.25500000920E-02 0.  1.
    10030    2    1    2    0    0  0.00000000000E+00  0.00000000000E+00 -0.15208186524E+03  0.71529969766E+03  0.69894546550E+03 0.  0.
        2    1    3    3  502    0 -0.98895808034E+02  0.18204540973E+03  0.21198760602E+03  0.29641129730E+03  0.25500000920E-02 0. -1.
       -2    1    3    3    0  502  0.98895808034E+02 -0.18204540973E+03 -0.36406947126E+03  0.41888840037E+03  0.25500000920E-02 0.  1.
</event>
<event>
 5   0  0.6689415E-03  0.7014501E+03  0.7818609E-02  0.9714755E-01
       -1   -1    0    0    0  501  0.00000000000E+00  0.00000000000E+00  0.17051067771E+03  0.17051067778E+03  0.50400001928E-02 0. -1.
        1   -1    0    0  501    0  0.00000000000E+00  0.00000000000E+00 -0.72140979731E+03  0.72140979733E+03  0.50400001928E-02 0.  1.
    10030    2    1    2    0    0  0.00000000000E+00  0.00000000000E+00 -0.55089911960E+03  0.89192047511E+03  0.70145013646E+03 0.  0.
        1    1    3    3  502    0 -0.23232220715E+03 -0.82008732627E+02 -0.59284803529E+03  0.64200298530E+03  0.50400001928E-02 0.  1.
       -1    1    3    3    0  502  0.23232220715E+03  0.82008732627E+02  0.41948915681E+02  0.24991748981E+03  0.50400001928E-02 0. -1.
</event>
<event>
 5   0  0.6609285E-03  0.6997945E+03  0.7818609E-02  0.9717584E-01
       -1   -1    0    0    0  501  0.00000000000E+00  0.00000000000E+00  0.75908278198E+03  0.75908278199E+03  0.50400001928E-02 0.  1.
        1   -1    0    0  501    0  0.00000000000E+00  0.00000000000E+00 -0.16128423934E+03  0.16128423942E+03  0.50400001928E-02 0. -1.
    10030    2    1    2    0    0  0.00000000000E+00  0.00000000000E+00  0.59779854264E+03  0.92036702142E+03  0.69979451022E+03 0.  0.
        2    1    3    3  502    0 -0.94220026051E+02 -0.22019238555E+03 -0.36581424961E+02  0.24228144919E+03  0.25500000920E-02 0. -1.
       -2    1    3    3    0  502  0.94220026051E+02  0.22019238555E+03  0.63437996760E+03  0.67808557222E+03  0.25500000920E-02 0.  1.
</event>
<event>
 5   0  0.1109788E-02  0.6978502E+03  0.7818609E-02  0.9720916E-01
        2   -1    0    0  501    0  0.00000000000E+00  0.00000000000E+00  0.54575103373E+03  0.54575103374E+03  0.25500000920E-02 0. -1.
       -2   -1    0    0    0  501  0.00000000000E+00  0.00000000000E+00 -0.22308472856E+03  0.22308472857E+03  0.25500000920E-02 0.  1.
    10030    2    1    2    0    0  0.00000000000E+00  0.00000000000E+00  0.32266630518E+03  0.76883576231E+03  0.69785018801E+03 0.  0.
        1    1    3    3  502    0 -0.28302556146E+03  0.19331972055E+03  0.23334841189E+03  0.41464136811E+03  0.50400001928E-02 0. -1.
       -1    1    3    3    0  502  0.28302556146E+03 -0.19331972055E+03  0.89317893285E+02  0.35419439420E+03  0.50400001928E-02 0.  1.
</event>
<event>
 5   0  0.6609285E-03  0.6984001E+03  0.7818609E-02  0.9719972E-01
        1   -1    0    0  501    0  0.00000000000E+00  0.00000000000E+00  0.21405516770E+03  0.21405516776E+03  0.50400001928E-02 0.  1.
       -1   -1    0    0    0  501  0.00000000000E+00  0.00000000000E+00 -0.56966945078E+03  0.56966945080E+03  0.50400001928E-02 0. -1.
    10030    2    1    2    0    0  0.00000000000E+00  0.00000000000E+00 -0.35561428309E+03  0.78372461856E+03  0.69840014276E+03 0.  0.
        2    1    3    3  502    0 -0.51989992120E+02  0.15020245087E+03  0.17110866939E+03  0.23354209958E+03  0.25500000920E-02 0.  1.
       -2    1    3    3    0  502  0.51989992120E+02 -0.15020245087E+03 -0.52672295247E+03  0.55018251898E+03  0.25500000920E-02 0. -1.
</event>
<event>
 5   0  0.6689415E-03  0.6960280E+03  0.7818609E-02  0.9724049E-01
       -1   -1    0    0    0  501  0.00000000000E+00  0.00000000000E+00  0.55496784736E+03  0.55496784738E+03  0.50400001928E-02 0. -1.
        1   -1    0    0  501    0  0.00000000000E+00  0.00000000000E+00 -0.21823558821E+03  0.21823558827E+03  0.50400001928E-02 0.  1.
    10030    2    1    2    0    0  0.00000000000E+00  0.00000000000E+00  0.33673225915E+03  0.77320343565E+03  0.69602797254E+03 0.  0.
        1    1    3    3  502    0 -0.13849761796E+03  0.10934332038E+03 -0.16485371955E+03  0.24148354140E+03  0.50400001928E-02 0.  1.
       -1    1    3    3    0  502  0.13849761796E+03 -0.10934332038E+03  0.50158597870E+03  0.53171989425E+03  0.50400001928E-02 0. -1.
</event>
<event>
 5   0  0.4440500E-03  0.6983408E+03  0.7818609E-02  0.9720074E-01
       -3   -1    0    0    0  501  0.00000000000E+00  0.00000000000E+00  0.94163788663E+02  0.94163842829E+02  0.10100000352E+00 0. -1.
        3   -1    0    0  501    0  0.00000000000E+00  0.00000000000E+00 -0.12947645430E+04  0.12947645469E+04  0.10100000352E+00 0.  1.
    10030    2    1    2    0    0  0.00000000000E+00  0.00000000000E+00 -0.12006007543E+04  0.13889283897E+04  0.69834081978E+03 0.  0.
        3    1    3    3  502    0  0.14677518202E+03  0.29453997745E+03 -0.36815919424E+03  0.49379950879E+03  0.10100000352E+00 0.  1.
       -3    1    3    3    0  502 -0.14677518202E+03 -0.29453997745E+03 -0.83244156006E+03  0.89512888094E+03  0.10100000352E+00 0. -1.
</event>
<event>
 5   0  0.1100119E-02  0.7015074E+03  0.7818609E-02  0.9714658E-01
        2   -1    0    0  501    0  0.00000000000E+00  0.00000000000E+00  0.57705591894E+03  0.57705591894E+03  0.25500000920E-02 0.  1.
       -2   -1    0    0    0  501  0.00000000000E+00  0.00000000000E+00 -0.21319973924E+03  0.21319973926E+03  0.25500000920E-02 0. -1.
    10030    2    1    2    0    0  0.00000000000E+00  0.00000000000E+00  0.36385617970E+03  0.79025565820E+03  0.70150743817E+03 0.  0.
        4    1    3    3  502    0 -0.25927517401E+03  0.64520939770E+02 -0.74065100508E+02  0.27726128388E+03  0.12699999809E+01 0. -1.
       -4    1    3    3    0  502  0.25927517401E+03 -0.64520939770E+02  0.43792128020E+03  0.51299437432E+03  0.12699999809E+01 0.  1.
</event>
<event>
 5   0  0.1100119E-02  0.7060941E+03  0.7818609E-02  0.9706867E-01
       -2   -1    0    0    0  501  0.00000000000E+00  0.00000000000E+00  0.74686031925E+03  0.74686031925E+03  0.25500000920E-02 0. -1.
        2   -1    0    0  501    0  0.00000000000E+00  0.00000000000E+00 -0.16688826260E+03  0.16688826262E+03  0.25500000920E-02 0.  1.
    10030    2    1    2    0    0  0.00000000000E+00  0.00000000000E+00  0.57997205664E+03  0.91374858187E+03  0.70609410448E+03 0.  0.
        4    1    3    3  502    0 -0.35276984003E+03  0.12745157729E+02  0.29726165310E+03  0.46149225604E+03  0.12699999809E+01 0.  1.
       -4    1    3    3    0  502  0.35276984003E+03 -0.12745157729E+02  0.28271040355E+03  0.45225632583E+03  0.12699999809E+01 0. -1.
</event>
<event>
 5   0  0.1100119E-02  0.6995959E+03  0.7818609E-02  0.9717924E-01
       -2   -1    0    0    0  501  0.00000000000E+00  0.00000000000E+00  0.13750229467E+03  0.13750229470E+03  0.25500000920E-02 0. -1.
        2   -1    0    0  501    0  0.00000000000E+00  0.00000000000E+00 -0.88986583115E+03  0.88986583115E+03  0.25500000920E-02 0.  1.
    10030    2    1    2    0    0  0.00000000000E+00  0.00000000000E+00 -0.75236353648E+03  0.10273681258E+04  0.69959586548E+03 0.  0.
        4    1    3    3  502    0 -0.26145451103E+02 -0.30742831956E+03 -0.13416050326E+03  0.33644674142E+03  0.12699999809E+01 0. -1.
       -4    1    3    3    0  502  0.26145451103E+02  0.30742831956E+03 -0.61820303322E+03  0.69092138443E+03  0.12699999809E+01 0.  1.
</event>
<event>
 5   0  0.1119786E-02  0.6929121E+03  0.7818609E-02  0.9729431E-01
        2   -1    0    0  501    0  0.00000000000E+00  0.00000000000E+00  0.13169701417E+04  0.13169701417E+04  0.25500000920E-02 0.  1.
       -2   -1    0    0    0  501  0.00000000000E+00  0.00000000000E+00 -0.91142379150E+02  0.91142379186E+02  0.25500000920E-02 0. -1.
    10030    2    1    2    0    0  0.00000000000E+00  0.00000000000E+00  0.12258277626E+04  0.14081125209E+04  0.69291209259E+03 0.  0.
        3    1    3    3  502    0  0.22030653887E+03  0.44580751422E+01  0.11562169828E+04  0.11770270035E+04  0.10100000352E+00 0.  1.
       -3    1    3    3    0  502 -0.22030653887E+03 -0.44580751422E+01  0.69610779828E+02  0.23108551744E+03  0.10100000352E+00 0. -1.
</event>
<event>
 5   0  0.6689415E-03  0.7020283E+03  0.7818609E-02  0.9713770E-01
        1   -1    0    0  501    0  0.00000000000E+00  0.00000000000E+00  0.94204875562E+03  0.94204875563E+03  0.50400001928E-02 0.  1.
       -1   -1    0    0    0  501  0.00000000000E+00  0.00000000000E+00 -0.13079038994E+03  0.13079039003E+03  0.50400001928E-02 0. -1.
    10030    2    1    2    0    0  0.00000000000E+00  0.00000000000E+00  0.81125836568E+03  0.10728391457E+04  0.70202827335E+03 0.  0.
        1    1    3    3  502    0  0.34006581901E+03 -0.69630831230E+02  0.48529675478E+03  0.59666251277E+03  0.50400001928E-02 0. -1.
       -1    1    3    3    0  502 -0.34006581901E+03  0.69630831230E+02  0.32596161090E+03  0.47617663290E+03  0.50400001928E-02 0.  1.
</event>
<event>
 5   0  0.1079446E-02  0.7001548E+03  0.7818609E-02  0.9716967E-01
        2   -1    0    0  501    0  0.00000000000E+00  0.00000000000E+00  0.35893833224E+03  0.35893833225E+03  0.25500000920E-02 0. -1.
       -2   -1    0    0    0  501  0.00000000000E+00  0.00000000000E+00 -0.34143522454E+03  0.34143522455E+03  0.25500000920E-02 0.  1.
    10030    2    1    2    0    0  0.00000000000E+00  0.00000000000E+00  0.17503107701E+02  0.70037355679E+03  0.70015481165E+03 0.  0.
        2    1    3    3  502    0  0.21792571484E+02 -0.63621496769E+01  0.35820121338E+03  0.35891991083E+03  0.25500000920E-02 0. -1.
       -2    1    3    3    0  502 -0.21792571484E+02  0.63621496769E+01 -0.34069810568E+03  0.34145364596E+03  0.25500000920E-02 0.  1.
</event>
<event>
 5   0  0.1109788E-02  0.7025893E+03  0.7818609E-02  0.9712814E-01
       -2   -1    0    0    0  501  0.00000000000E+00  0.00000000000E+00  0.87839252497E+02  0.87839252534E+02  0.25500000920E-02 0.  1.
        2   -1    0    0  501    0  0.00000000000E+00  0.00000000000E+00 -0.14049291318E+04  0.14049291318E+04  0.25500000920E-02 0. -1.
    10030    2    1    2    0    0  0.00000000000E+00  0.00000000000E+00 -0.13170898793E+04  0.14927683843E+04  0.70258928194E+03 0.  0.
        1    1    3    3  502    0 -0.30185715905E+03 -0.96296748750E+02 -0.98088654589E+03  0.10307905821E+04  0.50400001928E-02 0. -1.
       -1    1    3    3    0  502  0.30185715905E+03  0.96296748750E+02 -0.33620333337E+03  0.46197780215E+03  0.50400001928E-02 0.  1.
</event>
<event>
 5   0  0.6609285E-03  0.7031435E+03  0.7818609E-02  0.9711871E-01
       -1   -1    0    0    0  501  0.00000000000E+00  0.00000000000E+00  0.83879999373E+02  0.83879999525E+02  0.50400001928E-02 0. -1.
        1   -1    0    0  501    0  0.00000000000E+00  0.00000000000E+00 -0.14735657915E+04  0.14735657915E+04  0.50400001928E-02 0.  1.
    10030    2    1    2    0    0  0.00000000000E+00  0.00000000000E+00 -0.13896857921E+04  0.15574457910E+04  0.70314350680E+03 0.  0.
        2    1    3    3  502    0 -0.25256296169E+03  0.16142357352E+03 -0.28788320692E+03  0.41559879756E+03  0.25500000920E-02 0. -1.
       -2    1    3    3    0  502  0.25256296169E+03 -0.16142357352E+03 -0.11018025852E+04  0.11418469934E+04  0.25500000920E-02 0.  1.
</event>
<event>
 5   0  0.6609285E-03  0.6986146E+03  0.7818609E-02  0.9719604E-01
        1   -1    0    0  501    0  0.00000000000E+00  0.00000000000E+00  0.70622616720E+03  0.70622616721E+03  0.50400001928E-02 0. -1.
       -1   -1    0    0    0  501  0.00000000000E+00  0.00000000000E+00 -0.17277124849E+03  0.17277124856E+03  0.50400001928E-02 0.  1.
    10030    2    1    2    0    0  0.00000000000E+00  0.00000000000E+00  0.53345491871E+03  0.87899741578E+03  0.69861456229E+03 0.  0.
        2    1    3    3  502    0 -0.47383971389E+02 -0.32638275463E+03  0.12192700153E+03  0.35162072887E+03  0.25500000920E-02 0. -1.
       -2    1    3    3    0  502  0.47383971389E+02  0.32638275463E+03  0.41152791718E+03  0.52737668690E+03  0.25500000920E-02 0.  1.
</event>
<event>
 5   0  0.1100119E-02  0.6982762E+03  0.7818609E-02  0.9720185E-01
       -2   -1    0    0    0  501  0.00000000000E+00  0.00000000000E+00  0.24762469196E+03  0.24762469197E+03  0.25500000920E-02 0. -1.
        2   -1    0    0  501    0  0.00000000000E+00  0.00000000000E+00 -0.49226684210E+03  0.49226684211E+03  0.25500000920E-02 0.  1.
    10030    2    1    2    0    0  0.00000000000E+00  0.00000000000E+00 -0.24464215015E+03  0.73989153408E+03  0.69827623515E+03 0.  0.
        4    1    3    3  502    0 -0.33535961584E+03 -0.37789828556E+02 -0.27537935064E+02  0.33860610426E+03  0.12699999809E+01 0. -1.
       -4    1    3    3    0  502  0.33535961584E+03  0.37789828556E+02 -0.21710421508E+03  0.40128542982E+03  0.12699999809E+01 0.  1.
</event>
<event>
 5   0  0.1100119E-02  0.7027548E+03  0.7818609E-02  0.9712533E-01
        2   -1    0    0  501    0  0.00000000000E+00  0.00000000000E+00  0.19515694232E+04  0.19515694232E+04  0.25500000920E-02 0.  1.
       -2   -1    0    0    0  501  0.00000000000E+00  0.00000000000E+00 -0.63265024706E+02  0.63265024757E+02  0.25500000920E-02 0. -1.
    10030    2    1    2    0    0  0.00000000000E+00  0.00000000000E+00  0.18883043985E+04  0.20148344480E+04  0.70275483016E+03 0.  0.
        4    1    3    3  502    0 -0.21568538196E+03 -0.87137204619E+02  0.16991803421E+04  0.17150301818E+04  0.12699999809E+01 0.  1.
       -4    1    3    3    0  502  0.21568538196E+03  0.87137204619E+02  0.18912405634E+03  0.29980426616E+03  0.12699999809E+01 0. -1.
</event>
<event>
 5   0  0.1100119E-02  0.7013819E+03  0.7818609E-02  0.9714872E-01
        2   -1    0    0  501    0  0.00000000000E+00  0.00000000000E+00  0.13293763750E+04  0.13293763750E+04  0.25500000920E-02 0. -1.
       -2   -1    0    0    0  501  0.00000000000E+00  0.00000000000E+00 -0.92512655858E+02  0.92512655893E+02  0.25500000920E-02 0.  1.
    10030    2    1    2    0    0  0.00000000000E+00  0.00000000000E+00  0.12368637191E+04  0.14218890309E+04  0.70138189059E+03 0.  0.
        4    1    3    3  502    0  0.14100228802E+02  0.26761746963E+03  0.10769916242E+04  0.11098335452E+04  0.12699999809E+01 0. -1.
       -4    1    3    3    0  502 -0.14100228802E+02 -0.26761746963E+03  0.15987209487E+03  0.31205548565E+03  0.12699999809E+01 0.  1.
</event>
<event>
 5   0  0.6785252E-03  0.7027299E+03  0.7818609E-02  0.9712575E-01
       -1   -1    0    0    0  501  0.00000000000E+00  0.00000000000E+00  0.11143099053E+03  0.11143099064E+03  0.50400001928E-02 0.  1.
        1   -1    0    0  501    0  0.00000000000E+00  0.00000000000E+00 -0.11079263234E+04  0.11079263234E+04  0.50400001928E-02 0. -1.
    10030    2    1    2    0    0  0.00000000000E+00  0.00000000000E+00 -0.99649533284E+03  0.12193573140E+04  0.70272989895E+03 0.  0.
        3    1    3    3  502    0  0.11743818153E+03 -0.69563613390E+02  0.63547615669E+02  0.15056271932E+03  0.10100000352E+00 0.  1.
       -3    1    3    3    0  502 -0.11743818153E+03  0.69563613390E+02 -0.10600429485E+04  0.10687945947E+04  0.10100000352E+00 0. -1.
</event>
<event>
 5   0  0.4440500E-03  0.7001925E+03  0.7818609E-02  0.9716903E-01
        3   -1    0    0  501    0  0.00000000000E+00  0.00000000000E+00  0.81826655520E+02  0.81826717853E+02  0.10100000352E+00 0.  1.
       -3   -1    0    0    0  501  0.00000000000E+00  0.00000000000E+00 -0.14978898446E+04  0.14978898480E+04  0.10100000352E+00 0. -1.
    10030    2    1    2    0    0  0.00000000000E+00  0.00000000000E+00 -0.14160631891E+04  0.15797165659E+04  0.70019245425E+03 0.  0.
        2    1    3    3  502    0  0.10971761948E+03 -0.32276311490E+03 -0.88786248489E+03  0.95105929176E+03  0.25500000920E-02 0. -1.
       -2    1    3    3    0  502 -0.10971761948E+03  0.32276311490E+03 -0.52820070419E+03  0.62865727410E+03  0.25500000920E-02 0.  1.
</event>
<event>
 5   0  0.6785252E-03  0.6992801E+03  0.7818609E-02  0.9718464E-01
       -1   -1    0    0    0  501  0.00000000000E+00  0.00000000000E+00  0.32336274517E+03  0.32336274521E+03  0.50400001928E-02 0. -1.
        1   -1    0    0  501    0  0.00000000000E+00  0.00000000000E+00 -0.37805268163E+03  0.37805268167E+03  0.50400001928E-02 0.  1.
    10030    2    1    2    0    0  0.00000000000E+00  0.00000000000E+00 -0.54689936465E+02  0.70141542687E+03  0.69928006686E+03 0.  0.
        3    1    3    3  502    0 -0.15748236523E+03 -0.21954803413E+03 -0.24993726050E+03  0.36806341714E+03  0.10100000352E+00 0.  1.
       -3    1    3    3    0  502  0.15748236523E+03  0.21954803413E+03  0.19524732403E+03  0.33335200973E+03  0.10100000352E+00 0. -1.
</event>
<event>
 5   0  0.1079446E-02  0.7018189E+03  0.7818609E-02  0.9714127E-01
        2   -1    0    0  501    0  0.00000000000E+00  0.00000000000E+00  0.52271791784E+03  0.52271791784E+03  0.25500000920E-02 0. -1.
       -2   -1    0    0    0  501  0.00000000000E+00  0.00000000000E+00 -0.23557150959E+03  0.23557150961E+03  0.25500000920E-02 0.  1.
    10030    2    1    2    0    0  0.00000000000E+00  0.00000000000E+00  0.28714640824E+03  0.75828942745E+03  0.70181891968E+03 0.  0.
        2    1    3    3  502    0 -0.13704731723E+03  0.30479700319E+03  0.25920935102E+03  0.42293340844E+03  0.25500000920E-02 0. -1.
       -2    1    3    3    0  502  0.13704731723E+03 -0.30479700319E+03  0.27937057222E+02  0.33535601901E+03  0.25500000920E-02 0.  1.
</event>
<event>
 5   0  0.6609285E-03  0.6978485E+03  0.7818609E-02  0.9720919E-01
        1   -1    0    0  501    0  0.00000000000E+00  0.00000000000E+00  0.91568719625E+03  0.91568719626E+03  0.50400001928E-02 0.  1.
       -1   -1    0    0    0  501  0.00000000000E+00  0.00000000000E+00 -0.13295822416E+03  0.13295822426E+03  0.50400001928E-02 0. -1.
    10030    2    1    2    0    0  0.00000000000E+00  0.00000000000E+00  0.78272897209E+03  0.10486454205E+04  0.69784853245E+03 0.  0.
        2    1    3    3  502    0 -0.10239014370E+03 -0.29004111564E+02 -0.10797692903E+03  0.15160474011E+03  0.25500000920E-02 0. -1.
       -2    1    3    3    0  502  0.10239014370E+03  0.29004111564E+02  0.89070590112E+03  0.89704068041E+03  0.25500000920E-02 0.  1.
</event>
<event>
 5   0  0.6609285E-03  0.7001530E+03  0.7818609E-02  0.9716971E-01
        1   -1    0    0  501    0  0.00000000000E+00  0.00000000000E+00  0.13135556311E+04  0.13135556311E+04  0.50400001928E-02 0.  1.
       -1   -1    0    0    0  501  0.00000000000E+00  0.00000000000E+00 -0.93299106601E+02  0.93299106737E+02  0.50400001928E-02 0. -1.
    10030    2    1    2    0    0  0.00000000000E+00  0.00000000000E+00  0.12202565245E+04  0.14068547378E+04  0.70015303170E+03 0.  0.
        2    1    3    3  502    0 -0.22420507405E+02  0.34403832282E+03  0.73216268977E+03  0.80927575710E+03  0.25500000920E-02 0. -1.
       -2    1    3    3    0  502  0.22420507405E+02 -0.34403832282E+03  0.48809383469E+03  0.59757898072E+03  0.25500000920E-02 0.  1.
</event>
<event>
 5   0  0.6689415E-03  0.6999775E+03  0.7818609E-02  0.9717271E-01
        1   -1    0    0  501    0  0.00000000000E+00  0.00000000000E+00  0.10268108786E+04  0.10268108786E+04  0.50400001928E-02 0. -1.
       -1   -1    0    0    0  501  0.00000000000E+00  0.00000000000E+00 -0.11929376333E+03  0.11929376344E+03  0.50400001928E-02 0.  1.
    10030    2    1    2    0    0  0.00000000000E+00  0.00000000000E+00  0.90751711529E+03  0.11461046421E+04  0.69997752538E+03 0.  0.
        1    1    3    3  502    0  0.12746825432E+03  0.17288372252E+03  0.90619697588E+03  0.93130547968E+03  0.50400001928E-02 0. -1.
       -1    1    3    3    0  502 -0.12746825432E+03 -0.17288372252E+03  0.13201394102E+01  0.21479916239E+03  0.50400001928E-02 0.  1.
</event>
<event>
 5   0  0.1079446E-02  0.7002151E+03  0.7818609E-02  0.9716864E-01
        2   -1    0    0  501    0  0.00000000000E+00  0.00000000000E+00  0.17095952326E+03  0.17095952328E+03  0.25500000920E-02 0. -1.
       -2   -1    0    0    0  501  0.00000000000E+00  0.00000000000E+00 -0.71698440698E+03  0.71698440699E+03  0.25500000920E-02 0.  1.
    10030    2    1    2    0    0  0.00000000000E+00  0.00000000000E+00 -0.54602488372E+03  0.88794393026E+03  0.70021514526E+03 0.  0.
        2    1    3    3  502    0  0.23876660118E+03 -0.16365516538E+03 -0.52274414314E+03  0.59753990845E+03  0.25500000920E-02 0.  1.
       -2    1    3    3    0  502 -0.23876660118E+03  0.16365516538E+03 -0.23280740583E+02  0.29040402181E+03  0.25500000920E-02 0. -1.
</event>
<event>
 5   0  0.1100119E-02  0.7010546E+03  0.7818609E-02  0.9715430E-01
       -2   -1    0    0    0  501  0.00000000000E+00  0.00000000000E+00  0.13478959712E+03  0.13478959714E+03  0.25500000920E-02 0.  1.
        2   -1    0    0  501    0  0.00000000000E+00  0.00000000000E+00 -0.91156427349E+03  0.91156427349E+03  0.25500000920E-02 0. -1.
    10030    2    1    2    0    0  0.00000000000E+00  0.00000000000E+00 -0.77677467637E+03  0.10463538706E+04  0.70105458043E+03 0.  0.
        4    1    3    3  502    0 -0.12337705478E+02 -0.14247560428E+03 -0.86603888903E+03  0.87776790042E+03  0.12699999809E+01 0. -1.
       -4    1    3    3    0  502  0.12337705478E+02  0.14247560428E+03  0.89264212661E+02  0.16858597021E+03  0.12699999809E+01 0.  1.
</event>
<event>
 5   0  0.6689415E-03  0.6998500E+03  0.7818609E-02  0.9717489E-01
        1   -1    0    0  501    0  0.00000000000E+00  0.00000000000E+00  0.17694957379E+04  0.17694957379E+04  0.50400001928E-02 0. -1.
       -1   -1    0    0    0  501  0.00000000000E+00  0.00000000000E+00 -0.69199090764E+02  0.69199090948E+02  0.50400001928E-02 0.  1.
    10030    2    1    2    0    0  0.00000000000E+00  0.00000000000E+00  0.17002966471E+04  0.18386948289E+04  0.69984997349E+03 0.  0.
        1    1    3    3  502    0 -0.21419791153E+03 -0.23550069108E+03  0.12318371766E+04  0.12723066260E+04  0.50400001928E-02 0. -1.
       -1    1    3    3    0  502  0.21419791153E+03  0.23550069108E+03  0.46845947050E+03  0.56638820285E+03  0.50400001928E-02 0.  1.
</event>
<event>
 5   0  0.1109788E-02  0.6991736E+03  0.7818609E-02  0.9718646E-01
        2   -1    0    0  501    0  0.00000000000E+00  0.00000000000E+00  0.12284287867E+04  0.12284287867E+04  0.25500000920E-02 0. -1.
       -2   -1    0    0    0  501  0.00000000000E+00  0.00000000000E+00 -0.99485573539E+02  0.99485573571E+02  0.25500000920E-02 0.  1.
    10030    2    1    2    0    0  0.00000000000E+00  0.00000000000E+00  0.11289432132E+04  0.13279143603E+04  0.69917363343E+03 0.  0.
        1    1    3    3  502    0  0.30823551899E+03 -0.16219356727E+03  0.62129270643E+03  0.71226435789E+03  0.50400001928E-02 0.  1.
       -1    1    3    3    0  502 -0.30823551899E+03  0.16219356727E+03  0.50765050675E+03  0.61565000241E+03  0.50400001928E-02 0. -1.
</event>
<event>
 5   0  0.6609285E-03  0.7008015E+03  0.7818609E-02  0.9715862E-01
        1   -1    0    0  501    0  0.00000000000E+00  0.00000000000E+00  0.10027081603E+04  0.10027081603E+04  0.50400001928E-02 0.  1.
       -1   -1    0    0    0  501  0.00000000000E+00  0.00000000000E+00 -0.12244909042E+03  0.12244909052E+03  0.50400001928E-02 0. -1.
    10030    2    1    2    0    0  0.00000000000E+00  0.00000000000E+00  0.88025906992E+03  0.11251572509E+04  0.70080154752E+03 0.  0.
        2    1    3    3  502    0  0.61839650355E+02  0.25257985717E+03  0.63052395396E+02  0.26757490759E+03  0.25500000920E-02 0. -1.
       -2    1    3    3    0  502 -0.61839650355E+02 -0.25257985717E+03  0.81720667452E+03  0.85758234327E+03  0.25500000920E-02 0.  1.
</event>
<event>
 5   0  0.6246998E-03  0.6915456E+03  0.7818609E-02  0.9731801E-01
        1   -1    0    0  501    0  0.00000000000E+00  0.00000000000E+00  0.39062821554E+03  0.39062821557E+03  0.50400001928E-02 0. -1.
       -1   -1    0    0    0  501  0.00000000000E+00  0.00000000000E+00 -0.30606805259E+03  0.30606805263E+03  0.50400001928E-02 0.  1.
    10030    2    1    2    0    0  0.00000000000E+00  0.00000000000E+00  0.84560162952E+02  0.69669626820E+03  0.69154556536E+03 0.  0.
        4    1    3    3  502    0  0.94644786626E+02 -0.22420042990E+03  0.28973881886E+03  0.37838296005E+03  0.12699999809E+01 0. -1.
       -4    1    3    3    0  502 -0.94644786626E+02  0.22420042990E+03 -0.20517865591E+03  0.31831330815E+03  0.12699999809E+01 0.  1.
</event>
<event>
 5   0  0.6689415E-03  0.6972869E+03  0.7818609E-02  0.9721883E-01
        1   -1    0    0  501    0  0.00000000000E+00  0.00000000000E+00  0.48084149373E+03  0.48084149375E+03  0.50400001928E-02 0. -1.
       -1   -1    0    0    0  501  0.00000000000E+00  0.00000000000E+00 -0.25279066063E+03  0.25279066068E+03  0.50400001928E-02 0.  1.
    10030    2    1    2    0    0  0.00000000000E+00  0.00000000000E+00  0.22805083310E+03  0.73363215443E+03  0.69728685313E+03 0.  0.
        1    1    3    3  502    0  0.18892565131E+03 -0.49869789544E+02 -0.18976766523E+03  0.27238146858E+03  0.50400001928E-02 0.  1.
       -1    1    3    3    0  502 -0.18892565131E+03  0.49869789544E+02  0.41781849833E+03  0.46125068586E+03  0.50400001928E-02 0. -1.
</event>
<event>
 5   0  0.6689415E-03  0.6999702E+03  0.7818609E-02  0.9717283E-01
        1   -1    0    0  501    0  0.00000000000E+00  0.00000000000E+00  0.14757980682E+04  0.14757980682E+04  0.50400001928E-02 0. -1.
       -1   -1    0    0    0  501  0.00000000000E+00  0.00000000000E+00 -0.82998859430E+02  0.82998859584E+02  0.50400001928E-02 0.  1.
    10030    2    1    2    0    0  0.00000000000E+00  0.00000000000E+00  0.13927992088E+04  0.15587969278E+04  0.69997016090E+03 0.  0.
        1    1    3    3  502    0  0.24395299012E+03  0.74133539754E+01  0.13778835574E+03  0.28027424107E+03  0.50400001928E-02 0.  1.
       -1    1    3    3    0  502 -0.24395299012E+03 -0.74133539754E+01  0.12550108530E+04  0.12785226867E+04  0.50400001928E-02 0. -1.
</event>
<event>
 5   0  0.6689415E-03  0.7132222E+03  0.7818609E-02  0.9694884E-01
       -1   -1    0    0    0  501  0.00000000000E+00  0.00000000000E+00  0.14020679840E+03  0.14020679849E+03  0.50400001928E-02 0. -1.
        1   -1    0    0  501    0  0.00000000000E+00  0.00000000000E+00 -0.90702779503E+03  0.90702779505E+03  0.50400001928E-02 0.  1.
    10030    2    1    2    0    0  0.00000000000E+00  0.00000000000E+00 -0.76682099663E+03  0.10472345935E+04  0.71322216247E+03 0.  0.
        1    1    3    3  502    0 -0.18581094192E+03  0.25398273558E+03 -0.62971357146E+03  0.70396883327E+03  0.50400001928E-02 0.  1.
       -1    1    3    3    0  502  0.18581094192E+03 -0.25398273558E+03 -0.13710742517E+03  0.34326576027E+03  0.50400001928E-02 0. -1.
</event>
<event>
 5   0  0.4440500E-03  0.7010588E+03  0.7818609E-02  0.9715423E-01
       -3   -1    0    0    0  501  0.00000000000E+00  0.00000000000E+00  0.61339165787E+03  0.61339166618E+03  0.10100000352E+00 0. -1.
        3   -1    0    0  501    0  0.00000000000E+00  0.00000000000E+00 -0.20031386165E+03  0.20031388711E+03  0.10100000352E+00 0.  1.
    10030    2    1    2    0    0  0.00000000000E+00  0.00000000000E+00  0.41307779622E+03  0.81370555329E+03  0.70105881474E+03 0.  0.
        3    1    3    3  502    0 -0.22010309729E+03 -0.25030261257E+03  0.33248258114E+03  0.47078811397E+03  0.10100000352E+00 0. -1.
       -3    1    3    3    0  502  0.22010309729E+03  0.25030261257E+03  0.80595215083E+02  0.34291743932E+03  0.10100000352E+00 0.  1.
</event>
<event>
 5   0  0.6609285E-03  0.7009493E+03  0.7818609E-02  0.9715610E-01
       -1   -1    0    0    0  501  0.00000000000E+00  0.00000000000E+00  0.26844813090E+03  0.26844813095E+03  0.50400001928E-02 0. -1.
        1   -1    0    0  501    0  0.00000000000E+00  0.00000000000E+00 -0.45756504221E+03  0.45756504224E+03  0.50400001928E-02 0.  1.
    10030    2    1    2    0    0  0.00000000000E+00  0.00000000000E+00 -0.18911691130E+03  0.72601317319E+03  0.70094930024E+03 0.  0.
        2    1    3    3  502    0 -0.26757296857E+03  0.20633390059E+03  0.18477061927E+01  0.33789404562E+03  0.25500000920E-02 0. -1.
       -2    1    3    3    0  502  0.26757296857E+03 -0.20633390059E+03 -0.19096461750E+03  0.38811912757E+03  0.25500000920E-02 0.  1.
</event>
<event>
 5   0  0.6246998E-03  0.6981072E+03  0.7818609E-02  0.9720475E-01
        1   -1    0    0  501    0  0.00000000000E+00  0.00000000000E+00  0.11827592706E+04  0.11827592706E+04  0.50400001928E-02 0.  1.
       -1   -1    0    0    0  501  0.00000000000E+00  0.00000000000E+00 -0.10301202403E+03  0.10301202415E+03  0.50400001928E-02 0. -1.
    10030    2    1    2    0    0  0.00000000000E+00  0.00000000000E+00  0.10797472466E+04  0.12857712948E+04  0.69810723099E+03 0.  0.
        4    1    3    3  502    0 -0.55064184042E+02  0.63233604625E+02  0.11639307898E+04  0.11669477493E+04  0.12699999809E+01 0.  1.
       -4    1    3    3    0  502  0.55064184042E+02 -0.63233604625E+02 -0.84183543233E+02  0.11882354552E+03  0.12699999809E+01 0. -1.
</event>
<event>
 5   0  0.1079446E-02  0.6978790E+03  0.7818609E-02  0.9720866E-01
        2   -1    0    0  501    0  0.00000000000E+00  0.00000000000E+00  0.52417485425E+03  0.52417485426E+03  0.25500000920E-02 0.  1.
       -2   -1    0    0    0  501  0.00000000000E+00  0.00000000000E+00 -0.23228655086E+03  0.23228655087E+03  0.25500000920E-02 0. -1.
    10030    2    1    2    0    0  0.00000000000E+00  0.00000000000E+00  0.29188830339E+03  0.75646140513E+03  0.69787898363E+03 0.  0.
        2    1    3    3  502    0  0.14168318037E+03 -0.25892551764E+03  0.34769228418E+03  0.45607726513E+03  0.25500000920E-02 0.  1.
       -2    1    3    3    0  502 -0.14168318037E+03  0.25892551764E+03 -0.55803980787E+02  0.30038414000E+03  0.25500000920E-02 0. -1.
</event>
<event>
 5   0  0.4440500E-03  0.7071654E+03  0.7818609E-02  0.9705056E-01
       -4   -1    0    0    0  501  0.00000000000E+00  0.00000000000E+00  0.18266600426E+04  0.18266604841E+04  0.12699999809E+01 0.  1.
        4   -1    0    0  501    0  0.00000000000E+00  0.00000000000E+00 -0.68435913826E+02  0.68447696828E+02  0.12699999809E+01 0. -1.
    10030    2    1    2    0    0  0.00000000000E+00  0.00000000000E+00  0.17582241288E+04  0.18951081810E+04  0.70716541939E+03 0.  0.
        3    1    3    3  502    0 -0.11468718689E+03  0.33359791466E+03  0.94365193200E+03  0.10074322302E+04  0.10100000352E+00 0.  1.
       -3    1    3    3    0  502  0.11468718689E+03 -0.33359791466E+03  0.81457219682E+03  0.88767595074E+03  0.10100000352E+00 0. -1.
</event>
<event>
 5   0  0.6785252E-03  0.7461601E+03  0.7818609E-02  0.9641394E-01
       -1   -1    0    0    0  501  0.00000000000E+00  0.00000000000E+00  0.23139700856E+03  0.23139700861E+03  0.50400001928E-02 0. -1.
        1   -1    0    0  501    0  0.00000000000E+00  0.00000000000E+00 -0.60151481228E+03  0.60151481230E+03  0.50400001928E-02 0.  1.
    10030    2    1    2    0    0  0.00000000000E+00  0.00000000000E+00 -0.37011780372E+03  0.83291182091E+03  0.74616011203E+03 0.  0.
        3    1    3    3  502    0  0.12888699653E+02  0.25429701642E+03  0.11932656753E+03  0.28119731695E+03  0.10100000352E+00 0. -1.
       -3    1    3    3    0  502 -0.12888699653E+02 -0.25429701642E+03 -0.48944437125E+03  0.55171450396E+03  0.10100000352E+00 0.  1.
</event>
<event>
 5   0  0.1109788E-02  0.6991921E+03  0.7818609E-02  0.9718615E-01
       -2   -1    0    0    0  501  0.00000000000E+00  0.00000000000E+00  0.16212575842E+03  0.16212575844E+03  0.25500000920E-02 0.  1.
        2   -1    0    0  501    0  0.00000000000E+00  0.00000000000E+00 -0.75384325067E+03  0.75384325067E+03  0.25500000920E-02 0. -1.
    10030    2    1    2    0    0  0.00000000000E+00  0.00000000000E+00 -0.59171749225E+03  0.91596900911E+03  0.69919213026E+03 0.  0.
        1    1    3    3  502    0 -0.15187812128E+03 -0.47666242263E+02  0.11189472786E+03  0.19457508711E+03  0.50400001928E-02 0.  1.
       -1    1    3    3    0  502  0.15187812128E+03  0.47666242263E+02 -0.70361222012E+03  0.72139392200E+03  0.50400001928E-02 0. -1.
</event>
<event>
 5   0  0.1109788E-02  0.6998410E+03  0.7818609E-02  0.9717504E-01
        2   -1    0    0  501    0  0.00000000000E+00  0.00000000000E+00  0.10868107660E+04  0.10868107660E+04  0.25500000920E-02 0.  1.
       -2   -1    0    0    0  501  0.00000000000E+00  0.00000000000E+00 -0.11266392998E+03  0.11266393001E+03  0.25500000920E-02 0. -1.
    10030    2    1    2    0    0  0.00000000000E+00  0.00000000000E+00  0.97414683606E+03  0.11994746961E+04  0.69984104501E+03 0.  0.
        1    1    3    3  502    0  0.45730213654E+02  0.54169576111E+01 -0.10744786627E+03  0.11690012773E+03  0.50400001928E-02 0. -1.
       -1    1    3    3    0  502 -0.45730213654E+02 -0.54169576111E+01  0.10815947023E+04  0.10825745683E+04  0.50400001928E-02 0.  1.
</event>
<event>
 5   0  0.1079446E-02  0.6982328E+03  0.7818609E-02  0.9720259E-01
        2   -1    0    0  501    0  0.00000000000E+00  0.00000000000E+00  0.11103685592E+04  0.11103685592E+04  0.25500000920E-02 0.  1.
       -2   -1    0    0    0  501  0.00000000000E+00  0.00000000000E+00 -0.10976738276E+03  0.10976738279E+03  0.25500000920E-02 0. -1.
    10030    2    1    2    0    0  0.00000000000E+00  0.00000000000E+00  0.10006011765E+04  0.12201359420E+04  0.69823277111E+03 0.  0.
        2    1    3    3  502    0 -0.29645006891E+03 -0.73223568462E+02  0.79601922817E+03  0.85257899690E+03  0.25500000920E-02 0.  1.
       -2    1    3    3    0  502  0.29645006891E+03  0.73223568462E+02  0.20458194831E+03  0.36755694513E+03  0.25500000920E-02 0. -1.
</event>
<event>
 5   0  0.1099980E-02  0.7000521E+03  0.7818609E-02  0.9717143E-01
       -2   -1    0    0    0  501  0.00000000000E+00  0.00000000000E+00  0.18836936693E+03  0.18836936695E+03  0.25500000920E-02 0. -1.
        2   -1    0    0  501    0  0.00000000000E+00  0.00000000000E+00 -0.65041483940E+03  0.65041483940E+03  0.25500000920E-02 0.  1.
    10030    2    1    2    0    0  0.00000000000E+00  0.00000000000E+00 -0.46204547247E+03  0.83878420635E+03  0.70005208820E+03 0.  0.
        5    1    3    3  502    0 -0.33583409407E+03 -0.95576103207E+02 -0.20224631570E+03  0.40354057101E+03  0.46999998093E+01 0. -1.
       -5    1    3    3    0  502  0.33583409407E+03  0.95576103207E+02 -0.25979915677E+03  0.43524363534E+03  0.46999998093E+01 0.  1.
</event>
<event>
 5   0  0.6609285E-03  0.6984946E+03  0.7818609E-02  0.9719810E-01
        1   -1    0    0  501    0  0.00000000000E+00  0.00000000000E+00  0.81854753738E+03  0.81854753739E+03  0.50400001928E-02 0.  1.
       -1   -1    0    0    0  501  0.00000000000E+00  0.00000000000E+00 -0.14901233228E+03  0.14901233236E+03  0.50400001928E-02 0. -1.
    10030    2    1    2    0    0  0.00000000000E+00  0.00000000000E+00  0.66953520510E+03  0.96755986975E+03  0.69849460319E+03 0.  0.
        2    1    3    3  502    0 -0.25089097309E+03 -0.96521544975E+00  0.67130875858E+03  0.71666077147E+03  0.25500000920E-02 0.  1.
       -2    1    3    3    0  502  0.25089097309E+03  0.96521544975E+00 -0.17735534789E+01  0.25089909828E+03  0.25500000920E-02 0. -1.
</event>
<event>
 5   0  0.1109788E-02  0.7046500E+03  0.7818609E-02  0.9709313E-01
        2   -1    0    0  501    0  0.00000000000E+00  0.00000000000E+00  0.37161506599E+03  0.37161506600E+03  0.25500000920E-02 0.  1.
       -2   -1    0    0    0  501  0.00000000000E+00  0.00000000000E+00 -0.33403629652E+03  0.33403629653E+03  0.25500000920E-02 0. -1.
    10030    2    1    2    0    0  0.00000000000E+00  0.00000000000E+00  0.37578769473E+02  0.70565136252E+03  0.70465004188E+03 0.  0.
        1    1    3    3  502    0 -0.14451841569E+03 -0.29050911865E+03  0.15628634991E+03  0.36014794695E+03  0.50400001928E-02 0.  1.
       -1    1    3    3    0  502  0.14451841569E+03  0.29050911865E+03 -0.11870758044E+03  0.34550341558E+03  0.50400001928E-02 0. -1.
</event>
<event>
 5   0  0.6246998E-03  0.7009796E+03  0.7818609E-02  0.9715558E-01
        1   -1    0    0  501    0  0.00000000000E+00  0.00000000000E+00  0.45458959297E+03  0.45458959300E+03  0.50400001928E-02 0.  1.
       -1   -1    0    0    0  501  0.00000000000E+00  0.00000000000E+00 -0.27022854709E+03  0.27022854714E+03  0.50400001928E-02 0. -1.
    10030    2    1    2    0    0  0.00000000000E+00  0.00000000000E+00  0.18436104588E+03  0.72481814014E+03  0.70097955821E+03 0.  0.
        4    1    3    3  502    0  0.34095464906E+02  0.18705159670E+02  0.45234938878E+03  0.45401978609E+03  0.12699999809E+01 0.  1.
       -4    1    3    3    0  502 -0.34095464906E+02 -0.18705159670E+02 -0.26798834290E+03  0.27079835405E+03  0.12699999809E+01 0. -1.
</event>
<event>
 5   0  0.4440500E-03  0.7004972E+03  0.7818609E-02  0.9716382E-01
       -4   -1    0    0    0  501  0.00000000000E+00  0.00000000000E+00  0.31667031551E+03  0.31667286215E+03  0.12699999809E+01 0.  1.
        4   -1    0    0  501    0  0.00000000000E+00  0.00000000000E+00 -0.38738223075E+03  0.38738431254E+03  0.12699999809E+01 0. -1.
    10030    2    1    2    0    0  0.00000000000E+00  0.00000000000E+00 -0.70711915244E+02  0.70405717469E+03  0.70049720219E+03 0.  0.
        4    1    3    3  502    0 -0.39351763362E+02  0.27691938012E+03  0.17652231545E+03  0.33074861318E+03  0.12699999809E+01 0.  1.
       -4    1    3    3    0  502  0.39351763362E+02 -0.27691938012E+03 -0.24723423070E+03  0.37330856151E+03  0.12699999809E+01 0. -1.
</event>
<event>
 5   0  0.6689415E-03  0.7000305E+03  0.7818609E-02  0.9717180E-01
       -1   -1    0    0    0  501  0.00000000000E+00  0.00000000000E+00  0.12423312768E+03  0.12423312778E+03  0.50400001928E-02 0.  1.
        1   -1    0    0  501    0  0.00000000000E+00  0.00000000000E+00 -0.98613532942E+03  0.98613532943E+03  0.50400001928E-02 0. -1.
    10030    2    1    2    0    0  0.00000000000E+00  0.00000000000E+00 -0.86190220174E+03  0.11103684572E+04  0.70003050320E+03 0.  0.
        1    1    3    3  502    0 -0.12348016178E+03 -0.35497595667E+02 -0.94737904631E+03  0.95605150859E+03  0.50400001928E-02 0. -1.
       -1    1    3    3    0  502  0.12348016178E+03  0.35497595667E+02  0.85476844573E+02  0.15431694863E+03  0.50400001928E-02 0.  1.
</event>
<event>
 5   0  0.6990118E-03  0.6995816E+03  0.7818609E-02  0.9717948E-01
        1   -1    0    0  501    0  0.00000000000E+00  0.00000000000E+00  0.40225355651E+03  0.40225355654E+03  0.50400001928E-02 0. -1.
       -1   -1    0    0    0  501  0.00000000000E+00  0.00000000000E+00 -0.30417031702E+03  0.30417031706E+03  0.50400001928E-02 0.  1.
    10030    2    1    2    0    0  0.00000000000E+00  0.00000000000E+00  0.98083239484E+02  0.70642387360E+03  0.69958156589E+03 0.  0.
        5    1    3    3  502    0 -0.12055054319E+03  0.26810376671E+03  0.24041951811E+03  0.37978375146E+03  0.46999998093E+01 0. -1.
       -5    1    3    3    0  502  0.12055054319E+03 -0.26810376671E+03 -0.14233627862E+03  0.32664012215E+03  0.46999998093E+01 0.  1.
</event>
<event>
 5   0  0.4440500E-03  0.6989950E+03  0.7818609E-02  0.9718952E-01
        4   -1    0    0  501    0  0.00000000000E+00  0.00000000000E+00  0.33677238526E+03  0.33677477989E+03  0.12699999809E+01 0.  1.
       -4   -1    0    0    0  501  0.00000000000E+00  0.00000000000E+00 -0.36269864940E+03  0.36270087287E+03  0.12699999809E+01 0. -1.
    10030    2    1    2    0    0  0.00000000000E+00  0.00000000000E+00 -0.25926264146E+02  0.69947565276E+03  0.69899500544E+03 0.  0.
        1    1    3    3  502    0  0.14308672422E+03 -0.29588862620E+03  0.10596561217E+03  0.34532969863E+03  0.50400001928E-02 0.  1.
       -1    1    3    3    0  502 -0.14308672422E+03  0.29588862620E+03 -0.13189187631E+03  0.35414595413E+03  0.50400001928E-02 0. -1.
</event>
<event>
 5   0  0.1109788E-02  0.7015052E+03  0.7818609E-02  0.9714662E-01
       -2   -1    0    0    0  501  0.00000000000E+00  0.00000000000E+00  0.52302380832E+02  0.52302380894E+02  0.25500000920E-02 0. -1.
        2   -1    0    0  501    0  0.00000000000E+00  0.00000000000E+00 -0.23522328115E+04  0.23522328115E+04  0.25500000920E-02 0.  1.
    10030    2    1    2    0    0  0.00000000000E+00  0.00000000000E+00 -0.22999304306E+04  0.24045351924E+04  0.70150517144E+03 0.  0.
        1    1    3    3  502    0  0.24310347806E+03 -0.19459537952E+03 -0.17033069311E+04  0.17315372258E+04  0.50400001928E-02 0. -1.
       -1    1    3    3    0  502 -0.24310347806E+03  0.19459537952E+03 -0.59662349954E+03  0.67299796656E+03  0.50400001928E-02 0.  1.
</event>
<event>
 5   0  0.1119786E-02  0.6985978E+03  0.7818609E-02  0.9719633E-01
       -2   -1    0    0    0  501  0.00000000000E+00  0.00000000000E+00  0.96325593576E+02  0.96325593610E+02  0.25500000920E-02 0. -1.
        2   -1    0    0  501    0  0.00000000000E+00  0.00000000000E+00 -0.12666388276E+04  0.12666388276E+04  0.25500000920E-02 0.  1.
    10030    2    1    2    0    0  0.00000000000E+00  0.00000000000E+00 -0.11703132340E+04  0.13629644212E+04  0.69859784407E+03 0.  0.
        3    1    3    3  502    0 -0.63665994812E+00  0.33100211703E+03 -0.80282142891E+03  0.86838071359E+03  0.10100000352E+00 0.  1.
       -3    1    3    3    0  502  0.63665994812E+00 -0.33100211703E+03 -0.36749180507E+03  0.49458370758E+03  0.10100000352E+00 0. -1.
</event>
<event>
 5   0  0.6689415E-03  0.7002124E+03  0.7818609E-02  0.9716869E-01
        1   -1    0    0  501    0  0.00000000000E+00  0.00000000000E+00  0.86463527751E+03  0.86463527752E+03  0.50400001928E-02 0. -1.
       -1   -1    0    0    0  501  0.00000000000E+00  0.00000000000E+00 -0.14176421323E+03  0.14176421332E+03  0.50400001928E-02 0.  1.
    10030    2    1    2    0    0  0.00000000000E+00  0.00000000000E+00  0.72287106428E+03  0.10063994908E+04  0.70021236750E+03 0.  0.
        1    1    3    3  502    0 -0.11938538294E+03 -0.17649975666E+03  0.76070208365E+03  0.78998271744E+03  0.50400001928E-02 0. -1.
       -1    1    3    3    0  502  0.11938538294E+03  0.17649975666E+03 -0.37831019371E+02  0.21641677341E+03  0.50400001928E-02 0.  1.
</event>
<event>
 5   0  0.6609285E-03  0.7011721E+03  0.7818609E-02  0.9715230E-01
        1   -1    0    0  501    0  0.00000000000E+00  0.00000000000E+00  0.52461319507E+03  0.52461319509E+03  0.50400001928E-02 0.  1.
       -1   -1    0    0    0  501  0.00000000000E+00  0.00000000000E+00 -0.23428797634E+03  0.23428797639E+03  0.50400001928E-02 0. -1.
    10030    2    1    2    0    0  0.00000000000E+00  0.00000000000E+00  0.29032521873E+03  0.75890117149E+03  0.70117205838E+03 0.  0.
        2    1    3    3  502    0 -0.77979966962E+02  0.12717245042E+02 -0.22452630225E+03  0.23802240226E+03  0.25500000920E-02 0. -1.
       -2    1    3    3    0  502  0.77979966962E+02 -0.12717245042E+02  0.51485152098E+03  0.52087876923E+03  0.25500000920E-02 0.  1.
</event>
<event>
 5   0  0.6990118E-03  0.6991414E+03  0.7818609E-02  0.9718702E-01
        1   -1    0    0  501    0  0.00000000000E+00  0.00000000000E+00  0.47394050446E+03  0.47394050449E+03  0.50400001928E-02 0. -1.
       -1   -1    0    0    0  501  0.00000000000E+00  0.00000000000E+00 -0.25783758293E+03  0.25783758298E+03  0.50400001928E-02 0.  1.
    10030    2    1    2    0    0  0.00000000000E+00  0.00000000000E+00  0.21610292153E+03  0.73177808746E+03  0.69914139957E+03 0.  0.
        5    1    3    3  502    0 -0.25360460024E+02 -0.10009601074E+03 -0.24147612206E+03  0.26266932029E+03  0.46999998093E+01 0.  1.
       -5    1    3    3    0  502  0.25360460024E+02  0.10009601074E+03  0.45757904360E+03  0.46910876717E+03  0.46999998093E+01 0. -1.
</event>
<event>
 5   0  0.6246998E-03  0.6992146E+03  0.7818609E-02  0.9718576E-01
       -1   -1    0    0    0  501  0.00000000000E+00  0.00000000000E+00  0.55981359981E+03  0.55981359983E+03  0.50400001928E-02 0. -1.
        1   -1    0    0  501    0  0.00000000000E+00  0.00000000000E+00 -0.21833204278E+03  0.21833204284E+03  0.50400001928E-02 0.  1.
    10030    2    1    2    0    0  0.00000000000E+00  0.00000000000E+00  0.34148155703E+03  0.77814564267E+03  0.69921455035E+03 0.  0.
        4    1    3    3  502    0  0.45584521363E+01  0.32999765851E+03  0.42375349396E+02  0.33274091610E+03  0.12699999809E+01 0.  1.
       -4    1    3    3    0  502 -0.45584521363E+01 -0.32999765851E+03  0.29910620763E+03  0.44540472657E+03  0.12699999809E+01 0. -1.
</event>
<event>
 5   0  0.6609285E-03  0.6974485E+03  0.7818609E-02  0.9721606E-01
       -1   -1    0    0    0  501  0.00000000000E+00  0.00000000000E+00  0.18525936047E+03  0.18525936053E+03  0.50400001928E-02 0. -1.
        1   -1    0    0  501    0  0.00000000000E+00  0.00000000000E+00 -0.65642351492E+03  0.65642351494E+03  0.50400001928E-02 0.  1.
    10030    2    1    2    0    0  0.00000000000E+00  0.00000000000E+00 -0.47116415446E+03  0.84168287548E+03  0.69744849446E+03 0.  0.
        2    1    3    3  502    0  0.10743923455E+03 -0.33104578531E+03 -0.20930536022E+03  0.40613204123E+03  0.25500000920E-02 0. -1.
       -2    1    3    3    0  502 -0.10743923455E+03  0.33104578531E+03 -0.26185879424E+03  0.43555083425E+03  0.25500000920E-02 0.  1.
</event>
<event>
 5   0  0.6785252E-03  0.7007210E+03  0.7818609E-02  0.9716000E-01
        1   -1    0    0  501    0  0.00000000000E+00  0.00000000000E+00  0.65878895289E+03  0.65878895291E+03  0.50400001928E-02 0. -1.
       -1   -1    0    0    0  501  0.00000000000E+00  0.00000000000E+00 -0.18633052693E+03  0.18633052700E+03  0.50400001928E-02 0.  1.
    10030    2    1    2    0    0  0.00000000000E+00  0.00000000000E+00  0.47245842596E+03  0.84511947991E+03  0.70072103654E+03 0.  0.
        3    1    3    3  502    0  0.40643826580E+02 -0.45563338484E+02  0.65232298923E+03  0.65517419892E+03  0.10100000352E+00 0. -1.
       -3    1    3    3    0  502 -0.40643826580E+02  0.45563338484E+02 -0.17986456326E+03  0.18994528099E+03  0.10100000352E+00 0.  1.
</event>
<event>
 5   0  0.1109788E-02  0.6966610E+03  0.7818609E-02  0.9722959E-01
        2   -1    0    0  501    0  0.00000000000E+00  0.00000000000E+00  0.48913754412E+03  0.48913754412E+03  0.25500000920E-02 0.  1.
       -2   -1    0    0    0  501  0.00000000000E+00  0.00000000000E+00 -0.24805729212E+03  0.24805729214E+03  0.25500000920E-02 0. -1.
    10030    2    1    2    0    0  0.00000000000E+00  0.00000000000E+00  0.24108025199E+03  0.73719483626E+03  0.69666099267E+03 0.  0.
        1    1    3    3  502    0 -0.34399952815E+03  0.14199038628E+02  0.17650236894E+03  0.38689840312E+03  0.50400001928E-02 0. -1.
       -1    1    3    3    0  502  0.34399952815E+03 -0.14199038628E+02  0.64577883056E+02  0.35029643314E+03  0.50400001928E-02 0.  1.
</event>
<event>
 5   0  0.6990118E-03  0.6973108E+03  0.7818609E-02  0.9721842E-01
       -1   -1    0    0    0  501  0.00000000000E+00  0.00000000000E+00  0.12947367903E+03  0.12947367913E+03  0.50400001928E-02 0. -1.
        1   -1    0    0  501    0  0.00000000000E+00  0.00000000000E+00 -0.93888268000E+03  0.93888268002E+03  0.50400001928E-02 0.  1.
    10030    2    1    2    0    0  0.00000000000E+00  0.00000000000E+00 -0.80940900097E+03  0.10683563591E+04  0.69731081970E+03 0.  0.
        5    1    3    3  502    0 -0.19124636667E+03  0.31201855138E+02 -0.84872492503E+03  0.87057728944E+03  0.46999998093E+01 0.  1.
       -5    1    3    3    0  502  0.19124636667E+03 -0.31201855138E+02  0.39315924059E+02  0.19777906970E+03  0.46999998093E+01 0. -1.
</event>
<event>
 5   0  0.1079446E-02  0.6966019E+03  0.7818609E-02  0.9723061E-01
       -2   -1    0    0    0  501  0.00000000000E+00  0.00000000000E+00  0.33546147253E+03  0.33546147254E+03  0.25500000920E-02 0.  1.
        2   -1    0    0  501    0  0.00000000000E+00  0.00000000000E+00 -0.36163185477E+03  0.36163185478E+03  0.25500000920E-02 0. -1.
    10030    2    1    2    0    0  0.00000000000E+00  0.00000000000E+00 -0.26170382239E+02  0.69709332732E+03  0.69660190790E+03 0.  0.
        2    1    3    3  502    0  0.11760217982E+03 -0.32290933611E+03  0.43636736567E+02  0.34641720054E+03  0.25500000920E-02 0. -1.
       -2    1    3    3    0  502 -0.11760217982E+03  0.32290933611E+03 -0.69807118807E+02  0.35067612678E+03  0.25500000920E-02 0.  1.
</event>
<event>
 5   0  0.6609285E-03  0.7011295E+03  0.7818609E-02  0.9715303E-01
       -1   -1    0    0    0  501  0.00000000000E+00  0.00000000000E+00  0.68251808361E+03  0.68251808362E+03  0.50400001928E-02 0.  1.
        1   -1    0    0  501    0  0.00000000000E+00  0.00000000000E+00 -0.18006211363E+03  0.18006211370E+03  0.50400001928E-02 0. -1.
    10030    2    1    2    0    0  0.00000000000E+00  0.00000000000E+00  0.50245596997E+03  0.86258019733E+03  0.70112951376E+03 0.  0.
        2    1    3    3  502    0  0.19601326007E+03 -0.27996221333E+03  0.34728073690E+03  0.48724116128E+03  0.25500000920E-02 0.  1.
       -2    1    3    3    0  502 -0.19601326007E+03  0.27996221333E+03  0.15517523307E+03  0.37533903605E+03  0.25500000920E-02 0. -1.
</event>
<event>
 5   0  0.1119786E-02  0.6915542E+03  0.7818609E-02  0.9731786E-01
       -2   -1    0    0    0  501  0.00000000000E+00  0.00000000000E+00  0.28099137233E+03  0.28099137234E+03  0.25500000920E-02 0. -1.
        2   -1    0    0  501    0  0.00000000000E+00  0.00000000000E+00 -0.42549992349E+03  0.42549992349E+03  0.25500000920E-02 0.  1.
    10030    2    1    2    0    0  0.00000000000E+00  0.00000000000E+00 -0.14450855115E+03  0.70649129584E+03  0.69155421316E+03 0.  0.
        3    1    3    3  502    0  0.68844128886E+02 -0.29943657668E+03  0.89790887600E+02  0.32010028309E+03  0.10100000352E+00 0.  1.
       -3    1    3    3    0  502 -0.68844128886E+02  0.29943657668E+03 -0.23429943875E+03  0.38639101275E+03  0.10100000352E+00 0. -1.
</event>
<event>
 5   0  0.6246998E-03  0.7001904E+03  0.7818609E-02  0.9716907E-01
       -1   -1    0    0    0  501  0.00000000000E+00  0.00000000000E+00  0.33209318436E+03  0.33209318440E+03  0.50400001928E-02 0. -1.
        1   -1    0    0  501    0  0.00000000000E+00  0.00000000000E+00 -0.36907307940E+03  0.36907307943E+03  0.50400001928E-02 0.  1.
    10030    2    1    2    0    0  0.00000000000E+00  0.00000000000E+00 -0.36979895038E+02  0.70116626383E+03  0.70019041474E+03 0.  0.
        4    1    3    3  502    0 -0.20825002398E+03  0.10355129916E+03 -0.28053019967E+03  0.36440327917E+03  0.12699999809E+01 0.  1.
       -4    1    3    3    0  502  0.20825002398E+03 -0.10355129916E+03  0.24355030463E+03  0.33676298465E+03  0.12699999809E+01 0. -1.
</event>
<event>
 5   0  0.1119786E-02  0.6962238E+03  0.7818609E-02  0.9723712E-01
        2   -1    0    0  501    0  0.00000000000E+00  0.00000000000E+00  0.23027462721E+03  0.23027462722E+03  0.25500000920E-02 0.  1.
       -2   -1    0    0    0  501  0.00000000000E+00  0.00000000000E+00 -0.52624939437E+03  0.52624939437E+03  0.25500000920E-02 0. -1.
    10030    2    1    2    0    0  0.00000000000E+00  0.00000000000E+00 -0.29597476716E+03  0.75652402159E+03  0.69622376608E+03 0.  0.
        3    1    3    3  502    0 -0.79464717464E+02  0.32711561018E+03 -0.51636162555E+02  0.34056653862E+03  0.10100000352E+00 0.  1.
       -3    1    3    3    0  502  0.79464717464E+02 -0.32711561018E+03 -0.24433860461E+03  0.41595748298E+03  0.10100000352E+00 0. -1.
</event>
<event>
 5   0  0.6785252E-03  0.6993151E+03  0.7818609E-02  0.9718404E-01
        1   -1    0    0  501    0  0.00000000000E+00  0.00000000000E+00  0.43367665421E+03  0.43367665424E+03  0.50400001928E-02 0.  1.
       -1   -1    0    0    0  501  0.00000000000E+00  0.00000000000E+00 -0.28191604278E+03  0.28191604283E+03  0.50400001928E-02 0. -1.
    10030    2    1    2    0    0  0.00000000000E+00  0.00000000000E+00  0.15176061143E+03  0.71559269706E+03  0.69931511131E+03 0.  0.
        3    1    3    3  502    0  0.14031917415E+03  0.28525150634E+03 -0.73119793941E+02  0.32619688375E+03  0.10100000352E+00 0. -1.
       -3    1    3    3    0  502 -0.14031917415E+03 -0.28525150634E+03  0.22488040537E+03  0.38939581331E+03  0.10100000352E+00 0.  1.
</event>
<event>
 5   0  0.6990118E-03  0.7007719E+03  0.7818609E-02  0.9715913E-01
       -1   -1    0    0    0  501  0.00000000000E+00  0.00000000000E+00  0.37341105888E+03  0.37341105892E+03  0.50400001928E-02 0. -1.
        1   -1    0    0  501    0  0.00000000000E+00  0.00000000000E+00 -0.32878061345E+03  0.32878061349E+03  0.50400001928E-02 0.  1.
    10030    2    1    2    0    0  0.00000000000E+00  0.00000000000E+00  0.44630445428E+02  0.70219167241E+03  0.70077190879E+03 0.  0.
        5    1    3    3  502    0  0.16785962864E+03 -0.19621481950E+03  0.25958837121E+03  0.36617662785E+03  0.46999998093E+01 0. -1.
       -5    1    3    3    0  502 -0.16785962864E+03  0.19621481950E+03 -0.21495792578E+03  0.33601504456E+03  0.46999998093E+01 0.  1.
</event>
<event>
 5   0  0.6689415E-03  0.7002920E+03  0.7818609E-02  0.9716733E-01
       -1   -1    0    0    0  501  0.00000000000E+00  0.00000000000E+00  0.45819749984E+03  0.45819749987E+03  0.50400001928E-02 0.  1.
        1   -1    0    0  501    0  0.00000000000E+00  0.00000000000E+00 -0.26757507104E+03  0.26757507109E+03  0.50400001928E-02 0. -1.
    10030    2    1    2    0    0  0.00000000000E+00  0.00000000000E+00  0.19062242879E+03  0.72577257096E+03  0.70029202080E+03 0.  0.
        1    1    3    3  502    0  0.18520900729E-01  0.67402768920E+02 -0.26078806741E+03  0.26935766135E+03  0.50400001928E-02 0. -1.
       -1    1    3    3    0  502 -0.18520900729E-01 -0.67402768920E+02  0.45141049620E+03  0.45641490960E+03  0.50400001928E-02 0.  1.
</event>
<event>
 5   0  0.1099980E-02  0.6988448E+03  0.7818609E-02  0.9719210E-01
       -2   -1    0    0    0  501  0.00000000000E+00  0.00000000000E+00  0.97105867506E+02  0.97105867540E+02  0.25500000920E-02 0. -1.
        2   -1    0    0  501    0  0.00000000000E+00  0.00000000000E+00 -0.12573495104E+04  0.12573495104E+04  0.25500000920E-02 0.  1.
    10030    2    1    2    0    0  0.00000000000E+00  0.00000000000E+00 -0.11602436429E+04  0.13544553779E+04  0.69884480392E+03 0.  0.
        5    1    3    3  502    0 -0.25143246535E+03 -0.70658945133E+02 -0.13031188525E+03  0.29191479681E+03  0.46999998093E+01 0. -1.
       -5    1    3    3    0  502  0.25143246535E+03  0.70658945133E+02 -0.10299317576E+04  0.10625405811E+04  0.46999998093E+01 0.  1.
</event>
<event>
 5   0  0.1109788E-02  0.6963074E+03  0.7818609E-02  0.9723568E-01
       -2   -1    0    0    0  501  0.00000000000E+00  0.00000000000E+00  0.38715570437E+03  0.38715570438E+03  0.25500000920E-02 0. -1.
        2   -1    0    0  501    0  0.00000000000E+00  0.00000000000E+00 -0.31308078349E+03  0.31308078350E+03  0.25500000920E-02 0.  1.
    10030    2    1    2    0    0  0.00000000000E+00  0.00000000000E+00  0.74074920878E+02  0.70023648788E+03  0.69630743574E+03 0.  0.
        1    1    3    3  502    0  0.31657950520E+03 -0.10536902633E+03 -0.62950920361E+02  0.33954091539E+03  0.50400001928E-02 0.  1.
       -1    1    3    3    0  502 -0.31657950520E+03  0.10536902633E+03  0.13702584124E+03  0.36069557249E+03  0.50400001928E-02 0. -1.
</event>
<event>
 5   0  0.1109788E-02  0.7198818E+03  0.7818609E-02  0.9683823E-01
       -2   -1    0    0    0  501  0.00000000000E+00  0.00000000000E+00  0.84547547542E+02  0.84547547580E+02  0.25500000920E-02 0.  1.
        2   -1    0    0  501    0  0.00000000000E+00  0.00000000000E+00 -0.15323622030E+04  0.15323622030E+04  0.25500000920E-02 0. -1.
    10030    2    1    2    0    0  0.00000000000E+00  0.00000000000E+00 -0.14478146555E+04  0.16169097506E+04  0.71988184099E+03 0.  0.
        1    1    3    3  502    0 -0.47810224126E+02 -0.33116223234E+03 -0.42590430039E+03  0.54161676006E+03  0.50400001928E-02 0.  1.
       -1    1    3    3    0  502  0.47810224126E+02  0.33116223234E+03 -0.10219103551E+04  0.10752929906E+04  0.50400001928E-02 0. -1.
</event>
<event>
 5   0  0.6609285E-03  0.6989654E+03  0.7818609E-02  0.9719003E-01
       -1   -1    0    0    0  501  0.00000000000E+00  0.00000000000E+00  0.18283527884E+03  0.18283527891E+03  0.50400001928E-02 0. -1.
        1   -1    0    0  501    0  0.00000000000E+00  0.00000000000E+00 -0.66802283096E+03  0.66802283098E+03  0.50400001928E-02 0.  1.
    10030    2    1    2    0    0  0.00000000000E+00  0.00000000000E+00 -0.48518755212E+03  0.85085810988E+03  0.69896535137E+03 0.  0.
        2    1    3    3  502    0 -0.94193623140E+02 -0.47107796110E+02  0.16305861929E+03  0.19411258698E+03  0.25500000920E-02 0. -1.
       -2    1    3    3    0  502  0.94193623140E+02  0.47107796110E+02 -0.64824617141E+03  0.65674552290E+03  0.25500000920E-02 0.  1.
</event>
<event>
 5   0  0.1099980E-02  0.7086383E+03  0.7818609E-02  0.9702573E-01
        2   -1    0    0  501    0  0.00000000000E+00  0.00000000000E+00  0.46276825873E+03  0.46276825873E+03  0.25500000920E-02 0. -1.
       -2   -1    0    0    0  501  0.00000000000E+00  0.00000000000E+00 -0.27128491389E+03  0.27128491390E+03  0.25500000920E-02 0.  1.
    10030    2    1    2    0    0  0.00000000000E+00  0.00000000000E+00  0.19148334484E+03  0.73405317263E+03  0.70863826378E+03 0.  0.
        5    1    3    3  502    0 -0.18053436760E+02  0.33771523841E+03 -0.13601894451E+02  0.33850348649E+03  0.46999998093E+01 0.  1.
       -5    1    3    3    0  502  0.18053436760E+02 -0.33771523841E+03  0.20508523929E+03  0.39554968614E+03  0.46999998093E+01 0. -1.
</event>
<event>
 5   0  0.1079446E-02  0.7084578E+03  0.7818609E-02  0.9702877E-01
        2   -1    0    0  501    0  0.00000000000E+00  0.00000000000E+00  0.12093687441E+04  0.12093687441E+04  0.25500000920E-02 0.  1.
       -2   -1    0    0    0  501  0.00000000000E+00  0.00000000000E+00 -0.10375504235E+03  0.10375504239E+03  0.25500000920E-02 0. -1.
    10030    2    1    2    0    0  0.00000000000E+00  0.00000000000E+00  0.11056137017E+04  0.13131237865E+04  0.70845777655E+03 0.  0.
        2    1    3    3  502    0  0.10484822658E+03 -0.38272503578E+02  0.11759239586E+04  0.11812091650E+04  0.25500000920E-02 0.  1.
       -2    1    3    3    0  502 -0.10484822658E+03  0.38272503578E+02 -0.70310256807E+02  0.13191462150E+03  0.25500000920E-02 0. -1.
</event>
<event>
 5   0  0.6990118E-03  0.6965486E+03  0.7818609E-02  0.9723153E-01
        1   -1    0    0  501    0  0.00000000000E+00  0.00000000000E+00  0.76873954580E+03  0.76873954581E+03  0.50400001928E-02 0.  1.
       -1   -1    0    0    0  501  0.00000000000E+00  0.00000000000E+00 -0.15778426240E+03  0.15778426248E+03  0.50400001928E-02 0. -1.
    10030    2    1    2    0    0  0.00000000000E+00  0.00000000000E+00  0.61095528339E+03  0.92652380830E+03  0.69654864082E+03 0.  0.
        5    1    3    3  502    0  0.11193233634E+03 -0.20506746321E+03 -0.38032885707E+02  0.23674902910E+03  0.46999998093E+01 0. -1.
       -5    1    3    3    0  502 -0.11193233634E+03  0.20506746321E+03  0.64898816910E+03  0.68977477920E+03  0.46999998093E+01 0.  1.
</event>
<event>
 5   0  0.6246998E-03  0.7011043E+03  0.7818609E-02  0.9715345E-01
        1   -1    0    0  501    0  0.00000000000E+00  0.00000000000E+00  0.14009304614E+04  0.14009304614E+04  0.50400001928E-02 0.  1.
       -1   -1    0    0    0  501  0.00000000000E+00  0.00000000000E+00 -0.87718003331E+02  0.87718003476E+02  0.50400001928E-02 0. -1.
    10030    2    1    2    0    0  0.00000000000E+00  0.00000000000E+00  0.13132124580E+04  0.14886484649E+04  0.70110433743E+03 0.  0.
        4    1    3    3  502    0 -0.48994714430E+01  0.30227137355E+03  0.27980002276E+03  0.41192433009E+03  0.12699999809E+01 0. -1.
       -4    1    3    3    0  502  0.48994714430E+01 -0.30227137355E+03  0.10334124353E+04  0.10767241348E+04  0.12699999809E+01 0.  1.
</event>
<event>
 5   0  0.6785252E-03  0.7018323E+03  0.7818609E-02  0.9714104E-01
       -1   -1    0    0    0  501  0.00000000000E+00  0.00000000000E+00  0.12647572056E+03  0.12647572066E+03  0.50400001928E-02 0.  1.
        1   -1    0    0  501    0  0.00000000000E+00  0.00000000000E+00 -0.97364269394E+03  0.97364269395E+03  0.50400001928E-02 0. -1.
    10030    2    1    2    0    0  0.00000000000E+00  0.00000000000E+00 -0.84716697338E+03  0.11001184146E+04  0.70183234849E+03 0.  0.
        3    1    3    3  502    0  0.45959683178E+02 -0.83444663525E+02 -0.95298572215E+03  0.95773540249E+03  0.10100000352E+00 0. -1.
       -3    1    3    3    0  502 -0.45959683178E+02  0.83444663525E+02  0.10581874877E+03  0.14238301213E+03  0.10100000352E+00 0.  1.
</event>
<event>
 5   0  0.6785252E-03  0.6992887E+03  0.7818609E-02  0.9718449E-01
        1   -1    0    0  501    0  0.00000000000E+00  0.00000000000E+00  0.19016679171E+03  0.19016679178E+03  0.50400001928E-02 0.  1.
       -1   -1    0    0    0  501  0.00000000000E+00  0.00000000000E+00 -0.64286283683E+03  0.64286283685E+03  0.50400001928E-02 0. -1.
    10030    2    1    2    0    0  0.00000000000E+00  0.00000000000E+00 -0.45269604512E+03  0.83302962863E+03  0.69928867637E+03 0.  0.
        3    1    3    3  502    0  0.12475360501E+03 -0.59937639286E+01  0.16268635308E+03  0.20510057740E+03  0.10100000352E+00 0.  1.
       -3    1    3    3    0  502 -0.12475360501E+03  0.59937639286E+01 -0.61538239820E+03  0.62792905124E+03  0.10100000352E+00 0. -1.
</event>
<event>
 5   0  0.1079446E-02  0.6987415E+03  0.7818609E-02  0.9719387E-01
       -2   -1    0    0    0  501  0.00000000000E+00  0.00000000000E+00  0.81200377325E+02  0.81200377365E+02  0.25500000920E-02 0. -1.
        2   -1    0    0  501    0  0.00000000000E+00  0.00000000000E+00 -0.15031939461E+04  0.15031939461E+04  0.25500000920E-02 0.  1.
    10030    2    1    2    0    0  0.00000000000E+00  0.00000000000E+00 -0.14219935688E+04  0.15843943235E+04  0.69874148481E+03 0.  0.
        2    1    3    3  502    0 -0.18964539617E+03  0.74295008017E+02 -0.67351867875E+02  0.21452598588E+03  0.25500000920E-02 0. -1.
       -2    1    3    3    0  502  0.18964539617E+03 -0.74295008017E+02 -0.13546417009E+04  0.13698683376E+04  0.25500000920E-02 0.  1.
</event>
<event>
 5   0  0.1079446E-02  0.7003343E+03  0.7818609E-02  0.9716661E-01
       -2   -1    0    0    0  501  0.00000000000E+00  0.00000000000E+00  0.18109870393E+03  0.18109870394E+03  0.25500000920E-02 0. -1.
        2   -1    0    0  501    0  0.00000000000E+00  0.00000000000E+00 -0.67707291926E+03  0.67707291927E+03  0.25500000920E-02 0.  1.
    10030    2    1    2    0    0  0.00000000000E+00  0.00000000000E+00 -0.49597421534E+03  0.85817162321E+03  0.70033428633E+03 0.  0.
        2    1    3    3  502    0  0.39804504223E+02 -0.34782305053E+03 -0.23917163968E+03  0.42399097428E+03  0.25500000920E-02 0. -1.
       -2    1    3    3    0  502 -0.39804504223E+02  0.34782305053E+03 -0.25680257565E+03  0.43418064893E+03  0.25500000920E-02 0.  1.
</event>
<event>
 5   0  0.6246998E-03  0.6959765E+03  0.7818609E-02  0.9724138E-01
        1   -1    0    0  501    0  0.00000000000E+00  0.00000000000E+00  0.38822419751E+03  0.38822419754E+03  0.50400001928E-02 0. -1.
       -1   -1    0    0    0  501  0.00000000000E+00  0.00000000000E+00 -0.31192240930E+03  0.31192240934E+03  0.50400001928E-02 0.  1.
    10030    2    1    2    0    0  0.00000000000E+00  0.00000000000E+00  0.76301788206E+02  0.70014660688E+03  0.69597651414E+03 0.  0.
        4    1    3    3  502    0 -0.24779647512E+03  0.22220427423E+03 -0.64027271805E+02  0.33893795450E+03  0.12699999809E+01 0.  1.
       -4    1    3    3    0  502  0.24779647512E+03 -0.22220427423E+03  0.14032906001E+03  0.36120865238E+03  0.12699999809E+01 0. -1.
</event>
<event>
 5   0  0.6689415E-03  0.7008571E+03  0.7818609E-02  0.9715768E-01
       -1   -1    0    0    0  501  0.00000000000E+00  0.00000000000E+00  0.13653996555E+03  0.13653996564E+03  0.50400001928E-02 0.  1.
        1   -1    0    0  501    0  0.00000000000E+00  0.00000000000E+00 -0.89937153240E+03  0.89937153242E+03  0.50400001928E-02 0. -1.
    10030    2    1    2    0    0  0.00000000000E+00  0.00000000000E+00 -0.76283156686E+03  0.10359114981E+04  0.70085706989E+03 0.  0.
        1    1    3    3  502    0  0.22890954151E+03  0.19795473958E+03 -0.64255457672E+03  0.71025491283E+03  0.50400001928E-02 0. -1.
       -1    1    3    3    0  502 -0.22890954151E+03 -0.19795473958E+03 -0.12027699014E+03  0.32565658522E+03  0.50400001928E-02 0.  1.
</event>
<event>
 5   0  0.6246998E-03  0.7022663E+03  0.7818609E-02  0.9713364E-01
       -1   -1    0    0    0  501  0.00000000000E+00  0.00000000000E+00  0.16928294546E+03  0.16928294554E+03  0.50400001928E-02 0. -1.
        1   -1    0    0  501    0  0.00000000000E+00  0.00000000000E+00 -0.72833371103E+03  0.72833371105E+03  0.50400001928E-02 0.  1.
    10030    2    1    2    0    0  0.00000000000E+00  0.00000000000E+00 -0.55905076557E+03  0.89761665659E+03  0.70226626268E+03 0.  0.
        4    1    3    3  502    0 -0.71848560122E+02 -0.33595816625E+03 -0.37225015953E+03  0.50655888032E+03  0.12699999809E+01 0.  1.
       -4    1    3    3    0  502  0.71848560122E+02  0.33595816625E+03 -0.18680060604E+03  0.39105777627E+03  0.12699999809E+01 0. -1.
</event>
<event>
 5   0  0.4440500E-03  0.6937311E+03  0.7818609E-02  0.9728013E-01
        3   -1    0    0  501    0  0.00000000000E+00  0.00000000000E+00  0.30206395839E+03  0.30206397528E+03  0.10100000352E+00 0.  1.
       -3   -1    0    0    0  501  0.00000000000E+00  0.00000000000E+00 -0.39831196512E+03  0.39831197793E+03  0.10100000352E+00 0. -1.
    10030    2    1    2    0    0  0.00000000000E+00  0.00000000000E+00 -0.96248006732E+02  0.70037595320E+03  0.69373106967E+03 0.  0.
        1    1    3    3  502    0  0.25269946932E+01  0.12450434653E+03  0.27871754487E+03  0.30527231753E+03  0.50400001928E-02 0.  1.
       -1    1    3    3    0  502 -0.25269946932E+01 -0.12450434653E+03 -0.37496555160E+03  0.39510363567E+03  0.50400001928E-02 0. -1.
</event>
<event>
 5   0  0.4440500E-03  0.6948630E+03  0.7818609E-02  0.9726058E-01
       -3   -1    0    0    0  501  0.00000000000E+00  0.00000000000E+00  0.39898546594E+03  0.39898547872E+03  0.10100000352E+00 0.  1.
        3   -1    0    0  501    0  0.00000000000E+00  0.00000000000E+00 -0.30253889845E+03  0.30253891531E+03  0.10100000352E+00 0. -1.
    10030    2    1    2    0    0  0.00000000000E+00  0.00000000000E+00  0.96446567487E+02  0.70152439403E+03  0.69486296133E+03 0.  0.
        2    1    3    3  502    0 -0.27187274394E+03  0.15707630712E+03  0.19838001325E+03  0.37140595690E+03  0.25500000920E-02 0.  1.
       -2    1    3    3    0  502  0.27187274394E+03 -0.15707630712E+03 -0.10193344576E+03  0.33011843713E+03  0.25500000920E-02 0. -1.
</event>
<event>
 5   0  0.6785252E-03  0.7015270E+03  0.7818609E-02  0.9714624E-01
       -1   -1    0    0    0  501  0.00000000000E+00  0.00000000000E+00  0.85810248713E+02  0.85810248861E+02  0.50400001928E-02 0.  1.
        1   -1    0    0  501    0  0.00000000000E+00  0.00000000000E+00 -0.14338036792E+04  0.14338036792E+04  0.50400001928E-02 0. -1.
    10030    2    1    2    0    0  0.00000000000E+00  0.00000000000E+00 -0.13479934305E+04  0.15196139281E+04  0.70152704991E+03 0.  0.
        3    1    3    3  502    0  0.13087440720E+02  0.34645892727E+03 -0.55876293089E+03  0.65758732692E+03  0.10100000352E+00 0. -1.
       -3    1    3    3    0  502 -0.13087440720E+02 -0.34645892727E+03 -0.78923049960E+03  0.86202660115E+03  0.10100000352E+00 0.  1.
</event>
<event>
 5   0  0.1100119E-02  0.6992606E+03  0.7818609E-02  0.9718498E-01
        2   -1    0    0  501    0  0.00000000000E+00  0.00000000000E+00  0.58131772485E+03  0.58131772486E+03  0.25500000920E-02 0.  1.
       -2   -1    0    0    0  501  0.00000000000E+00  0.00000000000E+00 -0.21028318419E+03  0.21028318420E+03  0.25500000920E-02 0. -1.
    10030    2    1    2    0    0  0.00000000000E+00  0.00000000000E+00  0.37103454066E+03  0.79160090906E+03  0.69926058724E+03 0.  0.
        4    1    3    3  502    0  0.19828733660E+03  0.18975912632E+03  0.43071440423E+03  0.51072781869E+03  0.12699999809E+01 0.  1.
       -4    1    3    3    0  502 -0.19828733660E+03 -0.18975912632E+03 -0.59679863561E+02  0.28087309037E+03  0.12699999809E+01 0. -1.
</event>
<event>
 5   0  0.1119786E-02  0.7003403E+03  0.7818609E-02  0.9716650E-01
        2   -1    0    0  501    0  0.00000000000E+00  0.00000000000E+00  0.56588651194E+03  0.56588651195E+03  0.25500000920E-02 0.  1.
       -2   -1    0    0    0  501  0.00000000000E+00  0.00000000000E+00 -0.21668500712E+03  0.21668500713E+03  0.25500000920E-02 0. -1.
    10030    2    1    2    0    0  0.00000000000E+00  0.00000000000E+00  0.34920150483E+03  0.78257151908E+03  0.70034026837E+03 0.  0.
        3    1    3    3  502    0 -0.34923443120E+01  0.20486139051E+03 -0.14271144832E+03  0.24969371933E+03  0.10100000352E+00 0. -1.
       -3    1    3    3    0  502  0.34923443120E+01 -0.20486139051E+03  0.49191295315E+03  0.53287779975E+03  0.10100000352E+00 0.  1.
</event>
<event>
 5   0  0.1109788E-02  0.7012928E+03  0.7818609E-02  0.9715024E-01
       -2   -1    0    0    0  501  0.00000000000E+00  0.00000000000E+00  0.82768250685E+02  0.82768250725E+02  0.25500000920E-02 0.  1.
        2   -1    0    0  501    0  0.00000000000E+00  0.00000000000E+00 -0.14855080595E+04  0.14855080595E+04  0.25500000920E-02 0. -1.
    10030    2    1    2    0    0  0.00000000000E+00  0.00000000000E+00 -0.14027398089E+04  0.15682763103E+04  0.70129281616E+03 0.  0.
        1    1    3    3  502    0  0.64258189394E+02  0.11914943791E+03 -0.14247149208E+04  0.14311318280E+04  0.50400001928E-02 0. -1.
       -1    1    3    3    0  502 -0.64258189394E+02 -0.11914943791E+03  0.21975111929E+02  0.13714448231E+03  0.50400001928E-02 0.  1.
</event>
<event>
 5   0  0.4440500E-03  0.7007885E+03  0.7818609E-02  0.9715885E-01
       -3   -1    0    0    0  501  0.00000000000E+00  0.00000000000E+00  0.12340573685E+04  0.12340573727E+04  0.10100000352E+00 0.  1.
        3   -1    0    0  501    0  0.00000000000E+00  0.00000000000E+00 -0.99489770146E+02  0.99489821413E+02  0.10100000352E+00 0. -1.
    10030    2    1    2    0    0  0.00000000000E+00  0.00000000000E+00  0.11345675984E+04  0.13335471941E+04  0.70078847274E+03 0.  0.
        4    1    3    3  502    0 -0.51389106053E+02  0.25455300708E+03  0.11964571725E+03  0.28592793531E+03  0.12699999809E+01 0. -1.
       -4    1    3    3    0  502  0.51389106053E+02 -0.25455300708E+03  0.10149218811E+04  0.10476192588E+04  0.12699999809E+01 0.  1.
</event>
<event>
 5   0  0.1119786E-02  0.6894735E+03  0.7818609E-02  0.9735405E-01
        2   -1    0    0  501    0  0.00000000000E+00  0.00000000000E+00  0.22716394542E+03  0.22716394543E+03  0.25500000920E-02 0.  1.
       -2   -1    0    0    0  501  0.00000000000E+00  0.00000000000E+00 -0.52316154474E+03  0.52316154474E+03  0.25500000920E-02 0. -1.
    10030    2    1    2    0    0  0.00000000000E+00  0.00000000000E+00 -0.29599759932E+03  0.75032549018E+03  0.68947354004E+03 0.  0.
        3    1    3    3  502    0 -0.11803092807E+03  0.17619401596E+02  0.20396779100E+03  0.23631464885E+03  0.10100000352E+00 0.  1.
       -3    1    3    3    0  502  0.11803092807E+03 -0.17619401596E+02 -0.49996539031E+03  0.51401084133E+03  0.10100000352E+00 0. -1.
</event>
<event>
 5   0  0.1099980E-02  0.6964491E+03  0.7818609E-02  0.9723324E-01
        2   -1    0    0  501    0  0.00000000000E+00  0.00000000000E+00  0.49417655680E+03  0.49417655680E+03  0.25500000920E-02 0.  1.
       -2   -1    0    0    0  501  0.00000000000E+00  0.00000000000E+00 -0.24537854638E+03  0.24537854639E+03  0.25500000920E-02 0. -1.
    10030    2    1    2    0    0  0.00000000000E+00  0.00000000000E+00  0.24879801042E+03  0.73955510319E+03  0.69644906538E+03 0.  0.
        5    1    3    3  502    0 -0.21471205970E+03  0.26894607019E+03  0.18063908156E+03  0.38869760102E+03  0.46999998093E+01 0.  1.
       -5    1    3    3    0  502  0.21471205970E+03 -0.26894607019E+03  0.68158928860E+02  0.35085750218E+03  0.46999998093E+01 0. -1.
</event>
<event>
 5   0  0.1099980E-02  0.7001820E+03  0.7818609E-02  0.9716921E-01
       -2   -1    0    0    0  501  0.00000000000E+00  0.00000000000E+00  0.72046636365E+02  0.72046636410E+02  0.25500000920E-02 0. -1.
        2   -1    0    0  501    0  0.00000000000E+00  0.00000000000E+00 -0.17011715896E+04  0.17011715896E+04  0.25500000920E-02 0.  1.
    10030    2    1    2    0    0  0.00000000000E+00  0.00000000000E+00 -0.16291249532E+04  0.17732182260E+04  0.70018195050E+03 0.  0.
        5    1    3    3  502    0 -0.77511457866E+02 -0.83521729129E+02  0.23685897646E+02  0.11647753896E+03  0.46999998093E+01 0. -1.
       -5    1    3    3    0  502  0.77511457866E+02  0.83521729129E+02 -0.16528108509E+04  0.16567406870E+04  0.46999998093E+01 0.  1.
</event>
<event>
 5   0  0.6689415E-03  0.7012107E+03  0.7818609E-02  0.9715164E-01
       -1   -1    0    0    0  501  0.00000000000E+00  0.00000000000E+00  0.21633480342E+03  0.21633480348E+03  0.50400001928E-02 0. -1.
        1   -1    0    0  501    0  0.00000000000E+00  0.00000000000E+00 -0.56821230429E+03  0.56821230431E+03  0.50400001928E-02 0.  1.
    10030    2    1    2    0    0  0.00000000000E+00  0.00000000000E+00 -0.35187750086E+03  0.78454710779E+03  0.70121065931E+03 0.  0.
        1    1    3    3  502    0 -0.32474418255E+03  0.86693236282E+02 -0.28754107387E+03  0.44232835146E+03  0.50400001928E-02 0.  1.
       -1    1    3    3    0  502  0.32474418255E+03 -0.86693236282E+02 -0.64336426990E+02  0.34221875633E+03  0.50400001928E-02 0. -1.
</event>
<event>
 5   0  0.1100119E-02  0.7008603E+03  0.7818609E-02  0.9715762E-01
       -2   -1    0    0    0  501  0.00000000000E+00  0.00000000000E+00  0.32784885556E+03  0.32784885557E+03  0.25500000920E-02 0. -1.
        2   -1    0    0  501    0  0.00000000000E+00  0.00000000000E+00 -0.37456677740E+03  0.37456677740E+03  0.25500000920E-02 0.  1.
    10030    2    1    2    0    0  0.00000000000E+00  0.00000000000E+00 -0.46717921838E+02  0.70241563297E+03  0.70086029794E+03 0.  0.
        4    1    3    3  502    0 -0.23548972964E+03 -0.64260953159E+02 -0.27534244222E+03  0.36796733041E+03  0.12699999809E+01 0.  1.
       -4    1    3    3    0  502  0.23548972964E+03  0.64260953159E+02  0.22862452038E+03  0.33444830256E+03  0.12699999809E+01 0. -1.
</event>
<event>
 5   0  0.6785252E-03  0.6982415E+03  0.7818609E-02  0.9720244E-01
        1   -1    0    0  501    0  0.00000000000E+00  0.00000000000E+00  0.55111254878E+03  0.55111254880E+03  0.50400001928E-02 0.  1.
       -1   -1    0    0    0  501  0.00000000000E+00  0.00000000000E+00 -0.22116224507E+03  0.22116224513E+03  0.50400001928E-02 0. -1.
    10030    2    1    2    0    0  0.00000000000E+00  0.00000000000E+00  0.32995030371E+03  0.77227479393E+03  0.69824147286E+03 0.  0.
        3    1    3    3  502    0 -0.22308190301E+03 -0.89878478307E+02  0.44487155242E+03  0.50572164742E+03  0.10100000352E+00 0.  1.
       -3    1    3    3    0  502  0.22308190301E+03  0.89878478307E+02 -0.11492124871E+03  0.26655314652E+03  0.10100000352E+00 0. -1.
</event>
<event>
 5   0  0.6609285E-03  0.7001517E+03  0.7818609E-02  0.9716973E-01
        1   -1    0    0  501    0  0.00000000000E+00  0.00000000000E+00  0.67858601246E+03  0.67858601248E+03  0.50400001928E-02 0. -1.
       -1   -1    0    0    0  501  0.00000000000E+00  0.00000000000E+00 -0.18060067346E+03  0.18060067353E+03  0.50400001928E-02 0.  1.
    10030    2    1    2    0    0  0.00000000000E+00  0.00000000000E+00  0.49798533901E+03  0.85918668601E+03  0.70015167182E+03 0.  0.
        2    1    3    3  502    0  0.33672008636E+03 -0.38576273155E+02  0.35656597179E+03  0.49194292113E+03  0.25500000920E-02 0. -1.
       -2    1    3    3    0  502 -0.33672008636E+03  0.38576273155E+02  0.14141936722E+03  0.36724376488E+03  0.25500000920E-02 0.  1.
</event>
<event>
 5   0  0.6246998E-03  0.7002531E+03  0.7818609E-02  0.9716799E-01
       -1   -1    0    0    0  501  0.00000000000E+00  0.00000000000E+00  0.23279137624E+03  0.23279137630E+03  0.50400001928E-02 0. -1.
        1   -1    0    0  501    0  0.00000000000E+00  0.00000000000E+00 -0.52660282824E+03  0.52660282827E+03  0.50400001928E-02 0.  1.
    10030    2    1    2    0    0  0.00000000000E+00  0.00000000000E+00 -0.29381145200E+03  0.75939420457E+03  0.70025308896E+03 0.  0.
        4    1    3    3  502    0 -0.48107786658E+02 -0.16891218987E+03  0.18156349731E+03  0.25261156640E+03  0.12699999809E+01 0. -1.
       -4    1    3    3    0  502  0.48107786658E+02  0.16891218987E+03 -0.47537494931E+03  0.50678263817E+03  0.12699999809E+01 0.  1.
</event>
<event>
 5   0  0.1100119E-02  0.6982916E+03  0.7818609E-02  0.9720158E-01
       -2   -1    0    0    0  501  0.00000000000E+00  0.00000000000E+00  0.24175418676E+03  0.24175418678E+03  0.25500000920E-02 0.  1.
        2   -1    0    0  501    0  0.00000000000E+00  0.00000000000E+00 -0.50424267383E+03  0.50424267384E+03  0.25500000920E-02 0. -1.
    10030    2    1    2    0    0  0.00000000000E+00  0.00000000000E+00 -0.26248848707E+03  0.74599686062E+03  0.69829156533E+03 0.  0.
        4    1    3    3  502    0 -0.15910195386E+03  0.27073460984E+03 -0.29428254665E+03  0.43036553167E+03  0.12699999809E+01 0. -1.
       -4    1    3    3    0  502  0.15910195386E+03 -0.27073460984E+03  0.31794059586E+02  0.31563132894E+03  0.12699999809E+01 0.  1.
</event>
<event>
 5   0  0.6990118E-03  0.6969504E+03  0.7818609E-02  0.9722462E-01
        1   -1    0    0  501    0  0.00000000000E+00  0.00000000000E+00  0.10833799644E+04  0.10833799644E+04  0.50400001928E-02 0. -1.
       -1   -1    0    0    0  501  0.00000000000E+00  0.00000000000E+00 -0.11208899105E+03  0.11208899116E+03  0.50400001928E-02 0.  1.
    10030    2    1    2    0    0  0.00000000000E+00  0.00000000000E+00  0.97129097332E+03  0.11954689555E+04  0.69695040628E+03 0.  0.
        5    1    3    3  502    0 -0.10724380105E+03 -0.31420899553E+03  0.30424358720E+03  0.45034961539E+03  0.46999998093E+01 0.  1.
       -5    1    3    3    0  502  0.10724380105E+03  0.31420899553E+03  0.66704738613E+03  0.74511934015E+03  0.46999998093E+01 0. -1.
</event>
<event>
 5   0  0.6785252E-03  0.6990978E+03  0.7818609E-02  0.9718776E-01
       -1   -1    0    0    0  501  0.00000000000E+00  0.00000000000E+00  0.11327230148E+03  0.11327230160E+03  0.50400001928E-02 0. -1.
        1   -1    0    0  501    0  0.00000000000E+00  0.00000000000E+00 -0.10786789524E+04  0.10786789524E+04  0.50400001928E-02 0.  1.
    10030    2    1    2    0    0  0.00000000000E+00  0.00000000000E+00 -0.96540665089E+03  0.11919512540E+04  0.69909784028E+03 0.  0.
        3    1    3    3  502    0 -0.10864148901E+03 -0.21175936102E+03 -0.46215747646E+02  0.24244773797E+03  0.10100000352E+00 0. -1.
       -3    1    3    3    0  502  0.10864148901E+03  0.21175936102E+03 -0.91919090324E+03  0.94950351601E+03  0.10100000352E+00 0.  1.
</event>
<event>
 5   0  0.6990118E-03  0.6994216E+03  0.7818609E-02  0.9718222E-01
        1   -1    0    0  501    0  0.00000000000E+00  0.00000000000E+00  0.25389653042E+03  0.25389653047E+03  0.50400001928E-02 0. -1.
       -1   -1    0    0    0  501  0.00000000000E+00  0.00000000000E+00 -0.48168304814E+03  0.48168304816E+03  0.50400001928E-02 0.  1.
    10030    2    1    2    0    0  0.00000000000E+00  0.00000000000E+00 -0.22778651771E+03  0.73557957864E+03  0.69942163167E+03 0.  0.
        5    1    3    3  502    0  0.30760431151E+02 -0.83535710092E+02  0.24174695594E+03  0.25765888242E+03  0.46999998093E+01 0. -1.
       -5    1    3    3    0  502 -0.30760431151E+02  0.83535710092E+02 -0.46953347366E+03  0.47792069621E+03  0.46999998093E+01 0.  1.
</event>
<event>
 5   0  0.1099980E-02  0.7000847E+03  0.7818609E-02  0.9717087E-01
       -2   -1    0    0    0  501  0.00000000000E+00  0.00000000000E+00  0.60494027391E+03  0.60494027392E+03  0.25500000920E-02 0. -1.
        2   -1    0    0  501    0  0.00000000000E+00  0.00000000000E+00 -0.20254833221E+03  0.20254833223E+03  0.25500000920E-02 0.  1.
    10030    2    1    2    0    0  0.00000000000E+00  0.00000000000E+00  0.40239194170E+03  0.80748860614E+03  0.70008469081E+03 0.  0.
        5    1    3    3  502    0 -0.58478990678E+02 -0.61967555834E+02 -0.19036744873E+03  0.20861837374E+03  0.46999998093E+01 0.  1.
       -5    1    3    3    0  502  0.58478990678E+02  0.61967555834E+02  0.59275939043E+03  0.59887023241E+03  0.46999998093E+01 0. -1.
</event>
<event>
 5   0  0.1109788E-02  0.6981222E+03  0.7818609E-02  0.9720449E-01
        2   -1    0    0  501    0  0.00000000000E+00  0.00000000000E+00  0.35367288707E+03  0.35367288707E+03  0.25500000920E-02 0.  1.
       -2   -1    0    0    0  501  0.00000000000E+00  0.00000000000E+00 -0.34450941664E+03  0.34450941665E+03  0.25500000920E-02 0. -1.
    10030    2    1    2    0    0  0.00000000000E+00  0.00000000000E+00  0.91634704240E+01  0.69818230373E+03  0.69812216699E+03 0.  0.
        1    1    3    3  502    0 -0.27393270127E+03  0.21633908970E+03  0.59651214057E+01  0.34910930847E+03  0.50400001928E-02 0. -1.
       -1    1    3    3    0  502  0.27393270127E+03 -0.21633908970E+03  0.31983490183E+01  0.34907299526E+03  0.50400001928E-02 0.  1.
</event>
<event>
 5   0  0.4440500E-03  0.7009509E+03  0.7818609E-02  0.9715607E-01
       -4   -1    0    0    0  501  0.00000000000E+00  0.00000000000E+00  0.12200780754E+03  0.12201441719E+03  0.12699999809E+01 0.  1.
        4   -1    0    0  501    0  0.00000000000E+00  0.00000000000E+00 -0.10067296242E+04  0.10067304252E+04  0.12699999809E+01 0. -1.
    10030    2    1    2    0    0  0.00000000000E+00  0.00000000000E+00 -0.88472181662E+03  0.11287448424E+04  0.70095094440E+03 0.  0.
        5    1    3    3  502    0  0.15747523088E+03  0.23119834143E+03 -0.78228346953E+03  0.83080722079E+03  0.46999998093E+01 0. -1.
       -5    1    3    3    0  502 -0.15747523088E+03 -0.23119834143E+03 -0.10243834709E+03  0.29793762161E+03  0.46999998093E+01 0.  1.
</event>
<event>
 5   0  0.1099980E-02  0.7247559E+03  0.7818609E-02  0.9675808E-01
        2   -1    0    0  501    0  0.00000000000E+00  0.00000000000E+00  0.15482282692E+03  0.15482282694E+03  0.25500000920E-02 0.  1.
       -2   -1    0    0    0  501  0.00000000000E+00  0.00000000000E+00 -0.84818102030E+03  0.84818102030E+03  0.25500000920E-02 0. -1.
    10030    2    1    2    0    0  0.00000000000E+00  0.00000000000E+00 -0.69335819339E+03  0.10030038472E+04  0.72475591287E+03 0.  0.
        5    1    3    3  502    0 -0.69390958159E+02 -0.35251976970E+03 -0.41174392502E+03  0.54648004803E+03  0.46999998093E+01 0.  1.
       -5    1    3    3    0  502  0.69390958159E+02  0.35251976970E+03 -0.28161426837E+03  0.45652379921E+03  0.46999998093E+01 0. -1.
</event>
<event>
 5   0  0.1109788E-02  0.6979198E+03  0.7818609E-02  0.9720796E-01
        2   -1    0    0  501    0  0.00000000000E+00  0.00000000000E+00  0.28535000543E+03  0.28535000544E+03  0.25500000920E-02 0.  1.
       -2   -1    0    0    0  501  0.00000000000E+00  0.00000000000E+00 -0.42674967153E+03  0.42674967154E+03  0.25500000920E-02 0. -1.
    10030    2    1    2    0    0  0.00000000000E+00  0.00000000000E+00 -0.14139966611E+03  0.71209967698E+03  0.69791982661E+03 0.  0.
        1    1    3    3  502    0 -0.13414565801E+03 -0.30550560169E+03  0.33573854289E+02  0.33534450039E+03  0.50400001928E-02 0.  1.
       -1    1    3    3    0  502  0.13414565801E+03  0.30550560169E+03 -0.17497352040E+03  0.37675517659E+03  0.50400001928E-02 0. -1.
</event>
<event>
 5   0  0.6990118E-03  0.7006976E+03  0.7818609E-02  0.9716040E-01
       -1   -1    0    0    0  501  0.00000000000E+00  0.00000000000E+00  0.52490885393E+03  0.52490885395E+03  0.50400001928E-02 0. -1.
        1   -1    0    0  501    0  0.00000000000E+00  0.00000000000E+00 -0.23383925750E+03  0.23383925755E+03  0.50400001928E-02 0.  1.
    10030    2    1    2    0    0  0.00000000000E+00  0.00000000000E+00  0.29106959643E+03  0.75874811150E+03  0.70069764288E+03 0.  0.
        5    1    3    3  502    0  0.58371182354E+02  0.29061897096E+03 -0.56629008564E+02  0.30182033699E+03  0.46999998093E+01 0. -1.
       -5    1    3    3    0  502 -0.58371182354E+02 -0.29061897096E+03  0.34769860499E+03  0.45692777451E+03  0.46999998093E+01 0.  1.
</event>
<event>
 5   0  0.1109788E-02  0.7153008E+03  0.7818609E-02  0.9691418E-01
       -2   -1    0    0    0  501  0.00000000000E+00  0.00000000000E+00  0.10535806162E+03  0.10535806165E+03  0.25500000920E-02 0.  1.
        2   -1    0    0  501    0  0.00000000000E+00  0.00000000000E+00 -0.12140864800E+04  0.12140864800E+04  0.25500000920E-02 0. -1.
    10030    2    1    2    0    0  0.00000000000E+00  0.00000000000E+00 -0.11087284184E+04  0.13194445417E+04  0.71530077087E+03 0.  0.
        1    1    3    3  502    0 -0.30427801505E+03  0.61079705739E+02 -0.88225706296E+03  0.93525042960E+03  0.50400001928E-02 0. -1.
       -1    1    3    3    0  502  0.30427801505E+03 -0.61079705739E+02 -0.22647135544E+03  0.38419411208E+03  0.50400001928E-02 0.  1.
</event>
<event>
 5   0  0.1119786E-02  0.7061019E+03  0.7818609E-02  0.9706854E-01
        2   -1    0    0  501    0  0.00000000000E+00  0.00000000000E+00  0.21628536345E+03  0.21628536347E+03  0.25500000920E-02 0.  1.
       -2   -1    0    0    0  501  0.00000000000E+00  0.00000000000E+00 -0.57629864386E+03  0.57629864387E+03  0.25500000920E-02 0. -1.
    10030    2    1    2    0    0  0.00000000000E+00  0.00000000000E+00 -0.36001328041E+03  0.79258400734E+03  0.70610186703E+03 0.  0.
        3    1    3    3  502    0  0.11291850944E+03 -0.11250318328E+03  0.17359610156E+03  0.23567599092E+03  0.10100000352E+00 0.  1.
       -3    1    3    3    0  502 -0.11291850944E+03  0.11250318328E+03 -0.53360938197E+03  0.55690801641E+03  0.10100000352E+00 0. -1.
</event>
<event>
 5   0  0.6246998E-03  0.6989018E+03  0.7818609E-02  0.9719112E-01
       -1   -1    0    0    0  501  0.00000000000E+00  0.00000000000E+00  0.10718205301E+03  0.10718205312E+03  0.50400001928E-02 0.  1.
        1   -1    0    0  501    0  0.00000000000E+00  0.00000000000E+00 -0.11393320532E+04  0.11393320532E+04  0.50400001928E-02 0. -1.
    10030    2    1    2    0    0  0.00000000000E+00  0.00000000000E+00 -0.10321500002E+04  0.12465141063E+04  0.69890184888E+03 0.  0.
        4    1    3    3  502    0 -0.29787392161E+02 -0.27912675227E+03 -0.14488036793E+03  0.31589708209E+03  0.12699999809E+01 0.  1.
       -4    1    3    3    0  502  0.29787392161E+02  0.27912675227E+03 -0.88726963223E+03  0.93061702420E+03  0.12699999809E+01 0. -1.
</event>
<event>
 5   0  0.6246998E-03  0.6998056E+03  0.7818609E-02  0.9717565E-01
       -1   -1    0    0    0  501  0.00000000000E+00  0.00000000000E+00  0.17066957462E+03  0.17066957470E+03  0.50400001928E-02 0. -1.
        1   -1    0    0  501    0  0.00000000000E+00  0.00000000000E+00 -0.71736255793E+03  0.71736255795E+03  0.50400001928E-02 0.  1.
    10030    2    1    2    0    0  0.00000000000E+00  0.00000000000E+00 -0.54669298331E+03  0.88803213265E+03  0.69980558058E+03 0.  0.
        4    1    3    3  502    0 -0.81773884527E+02  0.33800848825E+03 -0.32238923398E+03  0.47420790525E+03  0.12699999809E+01 0. -1.
       -4    1    3    3    0  502  0.81773884527E+02 -0.33800848825E+03 -0.22430374932E+03  0.41382422739E+03  0.12699999809E+01 0.  1.
</event>
<event>
 5   0  0.6689415E-03  0.6710126E+03  0.7818609E-02  0.9768130E-01
       -1   -1    0    0    0  501  0.00000000000E+00  0.00000000000E+00  0.32933351735E+03  0.32933351739E+03  0.50400001928E-02 0.  1.
        1   -1    0    0  501    0  0.00000000000E+00  0.00000000000E+00 -0.34179476328E+03  0.34179476332E+03  0.50400001928E-02 0. -1.
    10030    2    1    2    0    0  0.00000000000E+00  0.00000000000E+00 -0.12461245934E+02  0.67112828071E+03  0.67101258298E+03 0.  0.
        1    1    3    3  502    0 -0.24092715210E+03 -0.21031117241E+03  0.95215607842E+02  0.33368052664E+03  0.50400001928E-02 0. -1.
       -1    1    3    3    0  502  0.24092715210E+03  0.21031117241E+03 -0.10767685378E+03  0.33744775407E+03  0.50400001928E-02 0.  1.
</event>
<event>
 5   0  0.1099980E-02  0.6999827E+03  0.7818609E-02  0.9717262E-01
        2   -1    0    0  501    0  0.00000000000E+00  0.00000000000E+00  0.35236396235E+03  0.35236396236E+03  0.25500000920E-02 0. -1.
       -2   -1    0    0    0  501  0.00000000000E+00  0.00000000000E+00 -0.34763466829E+03  0.34763466830E+03  0.25500000920E-02 0.  1.
    10030    2    1    2    0    0  0.00000000000E+00  0.00000000000E+00  0.47292940599E+01  0.69999863065E+03  0.69998265457E+03 0.  0.
        5    1    3    3  502    0 -0.16179553408E+03  0.30713905501E+03  0.46633537551E+02  0.35029840249E+03  0.46999998093E+01 0.  1.
       -5    1    3    3    0  502  0.16179553408E+03 -0.30713905501E+03 -0.41904243491E+02  0.34970022817E+03  0.46999998093E+01 0. -1.
</event>
<event>
 5   0  0.6689415E-03  0.7005575E+03  0.7818609E-02  0.9716279E-01
       -1   -1    0    0    0  501  0.00000000000E+00  0.00000000000E+00  0.48915637119E+03  0.48915637121E+03  0.50400001928E-02 0.  1.
        1   -1    0    0  501    0  0.00000000000E+00  0.00000000000E+00 -0.25083019971E+03  0.25083019976E+03  0.50400001928E-02 0. -1.
    10030    2    1    2    0    0  0.00000000000E+00  0.00000000000E+00  0.23832617148E+03  0.73998657097E+03  0.70055746460E+03 0.  0.
        1    1    3    3  502    0 -0.10971525682E+03  0.34397545848E+02  0.46865463639E+03  0.48255341360E+03  0.50400001928E-02 0.  1.
       -1    1    3    3    0  502  0.10971525682E+03 -0.34397545848E+02 -0.23032846491E+03  0.25743315737E+03  0.50400001928E-02 0. -1.
</event>
<event>
 5   0  0.6990118E-03  0.7014451E+03  0.7818609E-02  0.9714764E-01
       -1   -1    0    0    0  501  0.00000000000E+00  0.00000000000E+00  0.15639760591E+03  0.15639760599E+03  0.50400001928E-02 0. -1.
        1   -1    0    0  501    0  0.00000000000E+00  0.00000000000E+00 -0.78649728000E+03  0.78649728002E+03  0.50400001928E-02 0.  1.
    10030    2    1    2    0    0  0.00000000000E+00  0.00000000000E+00 -0.63009967409E+03  0.94289488601E+03  0.70144505614E+03 0.  0.
        5    1    3    3  502    0  0.46295342074E+01  0.58390012810E+02 -0.77983316682E+03  0.78204391453E+03  0.46999998093E+01 0.  1.
       -5    1    3    3    0  502 -0.46295342074E+01 -0.58390012810E+02  0.14973349273E+03  0.16085097148E+03  0.46999998093E+01 0. -1.
</event>
<event>
 5   0  0.1099980E-02  0.6954609E+03  0.7818609E-02  0.9725026E-01
       -2   -1    0    0    0  501  0.00000000000E+00  0.00000000000E+00  0.21872992629E+03  0.21872992631E+03  0.25500000920E-02 0. -1.
        2   -1    0    0  501    0  0.00000000000E+00  0.00000000000E+00 -0.55281176720E+03  0.55281176720E+03  0.25500000920E-02 0.  1.
    10030    2    1    2    0    0  0.00000000000E+00  0.00000000000E+00 -0.33408184091E+03  0.77154169351E+03  0.69546093233E+03 0.  0.
        5    1    3    3  502    0  0.16963873179E+03 -0.15687252004E+03 -0.45528779358E+03  0.51058334467E+03  0.46999998093E+01 0.  1.
       -5    1    3    3    0  502 -0.16963873179E+03  0.15687252004E+03  0.12120595268E+03  0.26095834884E+03  0.46999998093E+01 0. -1.
</event>
<event>
 5   0  0.1109788E-02  0.7052038E+03  0.7818609E-02  0.9708374E-01
       -2   -1    0    0    0  501  0.00000000000E+00  0.00000000000E+00  0.27609016713E+03  0.27609016714E+03  0.25500000920E-02 0. -1.
        2   -1    0    0  501    0  0.00000000000E+00  0.00000000000E+00 -0.45031706434E+03  0.45031706435E+03  0.25500000920E-02 0.  1.
    10030    2    1    2    0    0  0.00000000000E+00  0.00000000000E+00 -0.17422689721E+03  0.72640723149E+03  0.70520383880E+03 0.  0.
        1    1    3    3  502    0 -0.44142171320E+02  0.79852442975E+02 -0.43794643407E+03  0.44735000065E+03  0.50400001928E-02 0.  1.
       -1    1    3    3    0  502  0.44142171320E+02 -0.79852442975E+02  0.26371953686E+03  0.27905723084E+03  0.50400001928E-02 0. -1.
</event>
<event>
 5   0  0.1100119E-02  0.7179204E+03  0.7818609E-02  0.9687067E-01
        2   -1    0    0  501    0  0.00000000000E+00  0.00000000000E+00  0.88263282050E+03  0.88263282051E+03  0.25500000920E-02 0.  1.
       -2   -1    0    0    0  501  0.00000000000E+00  0.00000000000E+00 -0.14598645245E+03  0.14598645247E+03  0.25500000920E-02 0. -1.
    10030    2    1    2    0    0  0.00000000000E+00  0.00000000000E+00  0.73664636806E+03  0.10286192730E+04  0.71792042537E+03 0.  0.
        4    1    3    3  502    0  0.50958406302E+02  0.59437865607E+01  0.87734952544E+03  0.87884918528E+03  0.12699999809E+01 0.  1.
       -4    1    3    3    0  502 -0.50958406302E+02 -0.59437865607E+01 -0.14070315738E+03  0.14977008770E+03  0.12699999809E+01 0. -1.
</event>
<event>
 5   0  0.1099980E-02  0.6990304E+03  0.7818609E-02  0.9718892E-01
       -2   -1    0    0    0  501  0.00000000000E+00  0.00000000000E+00  0.45004016810E+03  0.45004016811E+03  0.25500000920E-02 0. -1.
        2   -1    0    0  501    0  0.00000000000E+00  0.00000000000E+00 -0.27144435119E+03  0.27144435120E+03  0.25500000920E-02 0.  1.
    10030    2    1    2    0    0  0.00000000000E+00  0.00000000000E+00  0.17859581691E+03  0.72148451932E+03  0.69903036114E+03 0.  0.
        5    1    3    3  502    0  0.13054030767E+03  0.31066311250E+03 -0.63415913980E+01  0.33706771897E+03  0.46999998093E+01 0. -1.
       -5    1    3    3    0  502 -0.13054030767E+03 -0.31066311250E+03  0.18493740831E+03  0.38441680034E+03  0.46999998093E+01 0.  1.
</event>
<event>
 5   0  0.6246998E-03  0.6990127E+03  0.7818609E-02  0.9718922E-01
        1   -1    0    0  501    0  0.00000000000E+00  0.00000000000E+00  0.23859456654E+03  0.23859456659E+03  0.50400001928E-02 0. -1.
       -1   -1    0    0    0  501  0.00000000000E+00  0.00000000000E+00 -0.51197596333E+03  0.51197596336E+03  0.50400001928E-02 0.  1.
    10030    2    1    2    0    0  0.00000000000E+00  0.00000000000E+00 -0.27338139680E+03  0.75057052995E+03  0.69901268394E+03 0.  0.
        4    1    3    3  502    0 -0.25005583035E+03  0.22981359235E+02  0.12433856795E+03  0.28021019529E+03  0.12699999809E+01 0. -1.
       -4    1    3    3    0  502  0.25005583035E+03 -0.22981359235E+02 -0.39771996474E+03  0.47036033466E+03  0.12699999809E+01 0.  1.
</event>
<event>
 5   0  0.1109788E-02  0.6985233E+03  0.7818609E-02  0.9719761E-01
        2   -1    0    0  501    0  0.00000000000E+00  0.00000000000E+00  0.37069354045E+03  0.37069354046E+03  0.25500000920E-02 0.  1.
       -2   -1    0    0    0  501  0.00000000000E+00  0.00000000000E+00 -0.32906889889E+03  0.32906889890E+03  0.25500000920E-02 0. -1.
    10030    2    1    2    0    0  0.00000000000E+00  0.00000000000E+00  0.41624641560E+02  0.69976243936E+03  0.69852334302E+03 0.  0.
        1    1    3    3  502    0 -0.13186270560E+03 -0.21109894527E+02 -0.30248342982E+03  0.33065030790E+03  0.50400001928E-02 0. -1.
       -1    1    3    3    0  502  0.13186270560E+03  0.21109894527E+02  0.34410807138E+03  0.36911213146E+03  0.50400001928E-02 0.  1.
</event>
<event>
 5   0  0.6246998E-03  0.6917592E+03  0.7818609E-02  0.9731430E-01
       -1   -1    0    0    0  501  0.00000000000E+00  0.00000000000E+00  0.25221963188E+03  0.25221963193E+03  0.50400001928E-02 0. -1.
        1   -1    0    0  501    0  0.00000000000E+00  0.00000000000E+00 -0.47431953108E+03  0.47431953111E+03  0.50400001928E-02 0.  1.
    10030    2    1    2    0    0  0.00000000000E+00  0.00000000000E+00 -0.22209989920E+03  0.72653916303E+03  0.69175919958E+03 0.  0.
        4    1    3    3  502    0  0.88229483900E+02  0.31251928227E+03 -0.23610948040E+03  0.40149974253E+03  0.12699999809E+01 0. -1.
       -4    1    3    3    0  502 -0.88229483900E+02 -0.31251928227E+03  0.14009581196E+02  0.32503942051E+03  0.12699999809E+01 0.  1.
</event>
<event>
 5   0  0.6609285E-03  0.7009980E+03  0.7818609E-02  0.9715527E-01
        1   -1    0    0  501    0  0.00000000000E+00  0.00000000000E+00  0.46429678372E+03  0.46429678375E+03  0.50400001928E-02 0.  1.
       -1   -1    0    0    0  501  0.00000000000E+00  0.00000000000E+00 -0.26459274501E+03  0.26459274506E+03  0.50400001928E-02 0. -1.
    10030    2    1    2    0    0  0.00000000000E+00  0.00000000000E+00  0.19970403871E+03  0.72888952880E+03  0.70099803289E+03 0.  0.
        2    1    3    3  502    0 -0.23478024938E+03 -0.25846889537E+03  0.13141820246E+03  0.37309339222E+03  0.25500000920E-02 0.  1.
       -2    1    3    3    0  502  0.23478024938E+03  0.25846889537E+03  0.68285836252E+02  0.35579613659E+03  0.25500000920E-02 0. -1.
</event>
<event>
 5   0  0.4440500E-03  0.6982612E+03  0.7818609E-02  0.9720210E-01
       -4   -1    0    0    0  501  0.00000000000E+00  0.00000000000E+00  0.65566602228E+03  0.65566725225E+03  0.12699999809E+01 0. -1.
        4   -1    0    0  501    0  0.00000000000E+00  0.00000000000E+00 -0.18590231035E+03  0.18590664833E+03  0.12699999809E+01 0.  1.
    10030    2    1    2    0    0  0.00000000000E+00  0.00000000000E+00  0.46976371192E+03  0.84157390058E+03  0.69826118688E+03 0.  0.
        4    1    3    3  502    0 -0.67444248896E+02  0.99844723572E+02  0.62981321749E+03  0.64123630384E+03  0.12699999809E+01 0. -1.
       -4    1    3    3    0  502  0.67444248896E+02 -0.99844723572E+02 -0.16004950557E+03  0.20033759674E+03  0.12699999809E+01 0.  1.
</event>
<event>
 5   0  0.6246998E-03  0.7010711E+03  0.7818609E-02  0.9715402E-01
        1   -1    0    0  501    0  0.00000000000E+00  0.00000000000E+00  0.54865389962E+03  0.54865389964E+03  0.50400001928E-02 0.  1.
       -1   -1    0    0    0  501  0.00000000000E+00  0.00000000000E+00 -0.22395754659E+03  0.22395754665E+03  0.50400001928E-02 0. -1.
    10030    2    1    2    0    0  0.00000000000E+00  0.00000000000E+00  0.32469635303E+03  0.77261144629E+03  0.70107112711E+03 0.  0.
        4    1    3    3  502    0  0.14702207225E+03  0.18324789476E+03 -0.12434921248E+03  0.26581877324E+03  0.12699999809E+01 0. -1.
       -4    1    3    3    0  502 -0.14702207225E+03 -0.18324789476E+03  0.44904556551E+03  0.50679267306E+03  0.12699999809E+01 0.  1.
</event>
<event>
 5   0  0.6246998E-03  0.7030602E+03  0.7818609E-02  0.9712013E-01
       -1   -1    0    0    0  501  0.00000000000E+00  0.00000000000E+00  0.16703454499E+03  0.16703454507E+03  0.50400001928E-02 0. -1.
        1   -1    0    0  501    0  0.00000000000E+00  0.00000000000E+00 -0.73980755276E+03  0.73980755278E+03  0.50400001928E-02 0.  1.
    10030    2    1    2    0    0  0.00000000000E+00  0.00000000000E+00 -0.57277300777E+03  0.90684209784E+03  0.70306021932E+03 0.  0.
        4    1    3    3  502    0 -0.83587521622E+00  0.30693846490E+03 -0.50739874275E+03  0.59301519117E+03  0.12699999809E+01 0. -1.
       -4    1    3    3    0  502  0.83587521622E+00 -0.30693846490E+03 -0.65374265020E+02  0.31382690667E+03  0.12699999809E+01 0.  1.
</event>
<event>
 5   0  0.1100119E-02  0.7002320E+03  0.7818609E-02  0.9716835E-01
       -2   -1    0    0    0  501  0.00000000000E+00  0.00000000000E+00  0.21364005533E+03  0.21364005534E+03  0.25500000920E-02 0.  1.
        2   -1    0    0  501    0  0.00000000000E+00  0.00000000000E+00 -0.57377451511E+03  0.57377451511E+03  0.25500000920E-02 0. -1.
    10030    2    1    2    0    0  0.00000000000E+00  0.00000000000E+00 -0.36013445978E+03  0.78741457046E+03  0.70023201630E+03 0.  0.
        4    1    3    3  502    0  0.41810359104E+02 -0.29440268756E+00 -0.57095439530E+03  0.57248469605E+03  0.12699999809E+01 0. -1.
       -4    1    3    3    0  502 -0.41810359104E+02  0.29440268756E+00  0.21081993552E+03  0.21492987441E+03  0.12699999809E+01 0.  1.
</event>
<event>
 5   0  0.1079446E-02  0.6966933E+03  0.7818609E-02  0.9722904E-01
       -2   -1    0    0    0  501  0.00000000000E+00  0.00000000000E+00  0.31512059889E+03  0.31512059890E+03  0.25500000920E-02 0. -1.
        2   -1    0    0  501    0  0.00000000000E+00  0.00000000000E+00 -0.38507602093E+03  0.38507602094E+03  0.25500000920E-02 0.  1.
    10030    2    1    2    0    0  0.00000000000E+00  0.00000000000E+00 -0.69955422038E+02  0.70019661984E+03  0.69669329361E+03 0.  0.
        2    1    3    3  502    0 -0.11152154975E+03  0.31695490974E+03  0.57397014196E+02  0.34086931237E+03  0.25500000920E-02 0.  1.
       -2    1    3    3    0  502  0.11152154975E+03 -0.31695490974E+03 -0.12735243623E+03  0.35932730747E+03  0.25500000920E-02 0. -1.
</event>
<event>
 5   0  0.6785252E-03  0.6986319E+03  0.7818609E-02  0.9719575E-01
        1   -1    0    0  501    0  0.00000000000E+00  0.00000000000E+00  0.77873536245E+03  0.77873536247E+03  0.50400001928E-02 0. -1.
       -1   -1    0    0    0  501  0.00000000000E+00  0.00000000000E+00 -0.15669204239E+03  0.15669204247E+03  0.50400001928E-02 0.  1.
    10030    2    1    2    0    0  0.00000000000E+00  0.00000000000E+00  0.62204332006E+03  0.93542740493E+03  0.69863190441E+03 0.  0.
        3    1    3    3  502    0 -0.19260846698E+03  0.23024188382E+03  0.71833005744E+02  0.30865731407E+03  0.10100000352E+00 0.  1.
       -3    1    3    3    0  502  0.19260846698E+03 -0.23024188382E+03  0.55021031432E+03  0.62677009086E+03  0.10100000352E+00 0. -1.
</event>
<event>
 5   0  0.1079446E-02  0.7017495E+03  0.7818609E-02  0.9714245E-01
       -2   -1    0    0    0  501  0.00000000000E+00  0.00000000000E+00  0.16853340996E+03  0.16853340998E+03  0.25500000920E-02 0.  1.
        2   -1    0    0  501    0  0.00000000000E+00  0.00000000000E+00 -0.73049656755E+03  0.73049656755E+03  0.25500000920E-02 0. -1.
    10030    2    1    2    0    0  0.00000000000E+00  0.00000000000E+00 -0.56196315759E+03  0.89902997754E+03  0.70174946385E+03 0.  0.
        2    1    3    3  502    0  0.27838081787E+03 -0.19092414603E+03 -0.40363009645E+03  0.52617978302E+03  0.25500000920E-02 0. -1.
       -2    1    3    3    0  502 -0.27838081787E+03  0.19092414603E+03 -0.15833306114E+03  0.37285019452E+03  0.25500000920E-02 0.  1.
</event>
<event>
 5   0  0.6990118E-03  0.6975731E+03  0.7818609E-02  0.9721392E-01
       -1   -1    0    0    0  501  0.00000000000E+00  0.00000000000E+00  0.12022547782E+03  0.12022547793E+03  0.50400001928E-02 0.  1.
        1   -1    0    0  501    0  0.00000000000E+00  0.00000000000E+00 -0.10118657683E+04  0.10118657683E+04  0.50400001928E-02 0. -1.
    10030    2    1    2    0    0  0.00000000000E+00  0.00000000000E+00 -0.89164029047E+03  0.11320912462E+04  0.69757306586E+03 0.  0.
        5    1    3    3  502    0  0.32667630991E+03 -0.45882581849E+02 -0.26215739821E+03  0.42139199590E+03  0.46999998093E+01 0.  1.
       -5    1    3    3    0  502 -0.32667630991E+03  0.45882581849E+02 -0.62948289227E+03  0.71069925034E+03  0.46999998093E+01 0. -1.
</event>
<event>
 5   0  0.1109788E-02  0.7009229E+03  0.7818609E-02  0.9715655E-01
       -2   -1    0    0    0  501  0.00000000000E+00  0.00000000000E+00  0.14454438775E+03  0.14454438777E+03  0.25500000920E-02 0.  1.
        2   -1    0    0  501    0  0.00000000000E+00  0.00000000000E+00 -0.84972675604E+03  0.84972675604E+03  0.25500000920E-02 0. -1.
    10030    2    1    2    0    0  0.00000000000E+00  0.00000000000E+00 -0.70518236829E+03  0.99427114381E+03  0.70092291650E+03 0.  0.
        1    1    3    3  502    0  0.15622286084E+03 -0.22783617716E+03 -0.46676771545E+02  0.28016714100E+03  0.50400001928E-02 0.  1.
       -1    1    3    3    0  502 -0.15622286084E+03  0.22783617716E+03 -0.65850559674E+03  0.71410400281E+03  0.50400001928E-02 0. -1.
</event>
<event>
 5   0  0.1100119E-02  0.6941437E+03  0.7818609E-02  0.9727300E-01
        2   -1    0    0  501    0  0.00000000000E+00  0.00000000000E+00  0.10613497143E+04  0.10613497143E+04  0.25500000920E-02 0. -1.
       -2   -1    0    0    0  501  0.00000000000E+00  0.00000000000E+00 -0.11349591620E+03  0.11349591623E+03  0.25500000920E-02 0.  1.
    10030    2    1    2    0    0  0.00000000000E+00  0.00000000000E+00  0.94785379814E+03  0.11748456306E+04  0.69414366887E+03 0.  0.
        4    1    3    3  502    0 -0.71006719596E+02 -0.21187512510E+03  0.92339677760E+03  0.95005065373E+03  0.12699999809E+01 0. -1.
       -4    1    3    3    0  502  0.71006719596E+02  0.21187512510E+03  0.24457020545E+02  0.22479497685E+03  0.12699999809E+01 0.  1.
</event>
<event>
 5   0  0.6785252E-03  0.6976606E+03  0.7818609E-02  0.9721241E-01
        1   -1    0    0  501    0  0.00000000000E+00  0.00000000000E+00  0.18290107190E+04  0.18290107190E+04  0.50400001928E-02 0. -1.
       -1   -1    0    0    0  501  0.00000000000E+00  0.00000000000E+00 -0.66529170625E+02  0.66529170816E+02  0.50400001928E-02 0.  1.
    10030    2    1    2    0    0  0.00000000000E+00  0.00000000000E+00  0.17624815484E+04  0.18955398898E+04  0.69766056614E+03 0.  0.
        3    1    3    3  502    0  0.14791424768E+03 -0.80357160822E+02  0.17113555411E+04  0.17196144034E+04  0.10100000352E+00 0. -1.
       -3    1    3    3    0  502 -0.14791424768E+03  0.80357160822E+02  0.51126007247E+02  0.17592548644E+03  0.10100000352E+00 0.  1.
</event>
<event>
 5   0  0.1100119E-02  0.7047135E+03  0.7818609E-02  0.9709205E-01
        2   -1    0    0  501    0  0.00000000000E+00  0.00000000000E+00  0.32692966899E+03  0.32692966900E+03  0.25500000920E-02 0. -1.
       -2   -1    0    0    0  501  0.00000000000E+00  0.00000000000E+00 -0.37976141231E+03  0.37976141232E+03  0.25500000920E-02 0.  1.
    10030    2    1    2    0    0  0.00000000000E+00  0.00000000000E+00 -0.52831743323E+02  0.70669108132E+03  0.70471348172E+03 0.  0.
        4    1    3    3  502    0 -0.30474517189E+02  0.30182199076E+02  0.32429975135E+03  0.32712627985E+03  0.12699999809E+01 0. -1.
       -4    1    3    3    0  502  0.30474517189E+02 -0.30182199076E+02 -0.37713149468E+03  0.37956480147E+03  0.12699999809E+01 0.  1.
</event>
<event>
 5   0  0.1099980E-02  0.6998732E+03  0.7818609E-02  0.9717449E-01
        2   -1    0    0  501    0  0.00000000000E+00  0.00000000000E+00  0.78930420685E+03  0.78930420686E+03  0.25500000920E-02 0. -1.
       -2   -1    0    0    0  501  0.00000000000E+00  0.00000000000E+00 -0.15514374834E+03  0.15514374836E+03  0.25500000920E-02 0.  1.
    10030    2    1    2    0    0  0.00000000000E+00  0.00000000000E+00  0.63416045852E+03  0.94444795521E+03  0.69987316920E+03 0.  0.
        5    1    3    3  502    0 -0.26662088758E+03  0.22518331994E+03  0.28296012508E+03  0.44931364063E+03  0.46999998093E+01 0.  1.
       -5    1    3    3    0  502  0.26662088758E+03 -0.22518331994E+03  0.35120033343E+03  0.49513431458E+03  0.46999998093E+01 0. -1.
</event>
<event>
 5   0  0.1109788E-02  0.7009179E+03  0.7818609E-02  0.9715664E-01
        2   -1    0    0  501    0  0.00000000000E+00  0.00000000000E+00  0.11428346400E+04  0.11428346400E+04  0.25500000920E-02 0. -1.
       -2   -1    0    0    0  501  0.00000000000E+00  0.00000000000E+00 -0.10747089828E+03  0.10747089831E+03  0.25500000920E-02 0.  1.
    10030    2    1    2    0    0  0.00000000000E+00  0.00000000000E+00  0.10353637418E+04  0.12503055383E+04  0.70091787071E+03 0.  0.
        1    1    3    3  502    0  0.15136295507E+03  0.62801587328E+02 -0.34916068750E+02  0.16755272430E+03  0.50400001928E-02 0.  1.
       -1    1    3    3    0  502 -0.15136295507E+03 -0.62801587328E+02  0.10702798105E+04  0.10827528140E+04  0.50400001928E-02 0. -1.
</event>
<event>
 5   0  0.6246998E-03  0.6905670E+03  0.7818609E-02  0.9733501E-01
       -1   -1    0    0    0  501  0.00000000000E+00  0.00000000000E+00  0.17868635414E+03  0.17868635421E+03  0.50400001928E-02 0. -1.
        1   -1    0    0  501    0  0.00000000000E+00  0.00000000000E+00 -0.66720642289E+03  0.66720642291E+03  0.50400001928E-02 0.  1.
    10030    2    1    2    0    0  0.00000000000E+00  0.00000000000E+00 -0.48852006875E+03  0.84589277711E+03  0.69056696475E+03 0.  0.
        4    1    3    3  502    0 -0.10064027365E+02 -0.12803507145E+03  0.14833715217E+03  0.19621362792E+03  0.12699999809E+01 0. -1.
       -4    1    3    3    0  502  0.10064027365E+02  0.12803507145E+03 -0.63685722092E+03  0.64967914920E+03  0.12699999809E+01 0.  1.
</event>
<event>
 5   0  0.1109788E-02  0.6994155E+03  0.7818609E-02  0.9718232E-01
        2   -1    0    0  501    0  0.00000000000E+00  0.00000000000E+00  0.59249123946E+03  0.59249123947E+03  0.25500000920E-02 0.  1.
       -2   -1    0    0    0  501  0.00000000000E+00  0.00000000000E+00 -0.20640899894E+03  0.20640899895E+03  0.25500000920E-02 0. -1.
    10030    2    1    2    0    0  0.00000000000E+00  0.00000000000E+00  0.38608224052E+03  0.79890023842E+03  0.69941553779E+03 0.  0.
        1    1    3    3  502    0 -0.95196660519E+02 -0.17837134710E+03  0.51896354376E+03  0.55695771960E+03  0.50400001928E-02 0.  1.
       -1    1    3    3    0  502  0.95196660519E+02  0.17837134710E+03 -0.13288130324E+03  0.24194251882E+03  0.50400001928E-02 0. -1.
</event>
<event>
 5   0  0.6609285E-03  0.7005674E+03  0.7818609E-02  0.9716262E-01
        1   -1    0    0  501    0  0.00000000000E+00  0.00000000000E+00  0.52745812777E+03  0.52745812780E+03  0.50400001928E-02 0.  1.
       -1   -1    0    0    0  501  0.00000000000E+00  0.00000000000E+00 -0.23262255182E+03  0.23262255187E+03  0.50400001928E-02 0. -1.
    10030    2    1    2    0    0  0.00000000000E+00  0.00000000000E+00  0.29483557595E+03  0.76008067967E+03  0.70056735776E+03 0.  0.
        2    1    3    3  502    0  0.22770992696E+03 -0.74909332581E+02  0.42452739511E+03  0.48753125864E+03  0.25500000920E-02 0.  1.
       -2    1    3    3    0  502 -0.22770992696E+03  0.74909332581E+02 -0.12969181915E+03  0.27254942103E+03  0.25500000920E-02 0. -1.
</event>
<event>
 5   0  0.1119786E-02  0.6979890E+03  0.7818609E-02  0.9720678E-01
        2   -1    0    0  501    0  0.00000000000E+00  0.00000000000E+00  0.11728640842E+04  0.11728640842E+04  0.25500000920E-02 0. -1.
       -2   -1    0    0    0  501  0.00000000000E+00  0.00000000000E+00 -0.10384592032E+03  0.10384592035E+03  0.25500000920E-02 0.  1.
    10030    2    1    2    0    0  0.00000000000E+00  0.00000000000E+00  0.10690181639E+04  0.12767100046E+04  0.69798896914E+03 0.  0.
        3    1    3    3  502    0 -0.31271229123E+03  0.39977475545E+02  0.80832852702E+03  0.86763021698E+03  0.10100000352E+00 0.  1.
       -3    1    3    3    0  502  0.31271229123E+03 -0.39977475545E+02  0.26068963689E+03  0.40907978759E+03  0.10100000352E+00 0. -1.
</event>
<event>
 5   0  0.6246998E-03  0.7004870E+03  0.7818609E-02  0.9716400E-01
       -1   -1    0    0    0  501  0.00000000000E+00  0.00000000000E+00  0.16575215035E+03  0.16575215043E+03  0.50400001928E-02 0. -1.
        1   -1    0    0  501    0  0.00000000000E+00  0.00000000000E+00 -0.74008398530E+03  0.74008398531E+03  0.50400001928E-02 0.  1.
    10030    2    1    2    0    0  0.00000000000E+00  0.00000000000E+00 -0.57433183494E+03  0.90583613574E+03  0.70048700786E+03 0.  0.
        4    1    3    3  502    0  0.14612717873E+02 -0.35022978664E+02  0.16308269784E+03  0.16744467681E+03  0.12699999809E+01 0. -1.
       -4    1    3    3    0  502 -0.14612717873E+02  0.35022978664E+02 -0.73741453278E+03  0.73839145893E+03  0.12699999809E+01 0.  1.
</event>
<event>
 5   0  0.6246998E-03  0.7008178E+03  0.7818609E-02  0.9715835E-01
        1   -1    0    0  501    0  0.00000000000E+00  0.00000000000E+00  0.12068457377E+04  0.12068457377E+04  0.50400001928E-02 0. -1.
       -1   -1    0    0    0  501  0.00000000000E+00  0.00000000000E+00 -0.10174157413E+03  0.10174157425E+03  0.50400001928E-02 0.  1.
    10030    2    1    2    0    0  0.00000000000E+00  0.00000000000E+00  0.11051041636E+04  0.13085873120E+04  0.70081776568E+03 0.  0.
        4    1    3    3  502    0  0.12378122406E+03  0.25199035304E+03  0.94406439530E+03  0.98492645656E+03  0.12699999809E+01 0. -1.
       -4    1    3    3    0  502 -0.12378122406E+03 -0.25199035304E+03  0.16103976827E+03  0.32366085540E+03  0.12699999809E+01 0.  1.
</event>
<event>
 5   0  0.1109788E-02  0.7137977E+03  0.7818609E-02  0.9693923E-01
       -2   -1    0    0    0  501  0.00000000000E+00  0.00000000000E+00  0.89031904342E+02  0.89031904378E+02  0.25500000920E-02 0.  1.
        2   -1    0    0  501    0  0.00000000000E+00  0.00000000000E+00 -0.14306868173E+04  0.14306868173E+04  0.25500000920E-02 0. -1.
    10030    2    1    2    0    0  0.00000000000E+00  0.00000000000E+00 -0.13416549130E+04  0.15197187217E+04  0.71379765170E+03 0.  0.
        1    1    3    3  502    0  0.27303013352E+03  0.30422932164E+02 -0.18576697941E+03  0.33163289836E+03  0.50400001928E-02 0.  1.
       -1    1    3    3    0  502 -0.27303013352E+03 -0.30422932164E+02 -0.11558879336E+04  0.11880858233E+04  0.50400001928E-02 0. -1.
</event>
<event>
 5   0  0.1100119E-02  0.7033637E+03  0.7818609E-02  0.9711497E-01
       -2   -1    0    0    0  501  0.00000000000E+00  0.00000000000E+00  0.19170553450E+03  0.19170553452E+03  0.25500000920E-02 0.  1.
        2   -1    0    0  501    0  0.00000000000E+00  0.00000000000E+00 -0.64515670128E+03  0.64515670128E+03  0.25500000920E-02 0. -1.
    10030    2    1    2    0    0  0.00000000000E+00  0.00000000000E+00 -0.45345116678E+03  0.83686223580E+03  0.70336366202E+03 0.  0.
        4    1    3    3  502    0  0.54381591346E+02  0.18050208798E+03  0.12650711686E+03  0.22703309177E+03  0.12699999809E+01 0.  1.
       -4    1    3    3    0  502 -0.54381591346E+02 -0.18050208798E+03 -0.57995828364E+03  0.60982914403E+03  0.12699999809E+01 0. -1.
</event>
<event>
 5   0  0.6990118E-03  0.6993922E+03  0.7818609E-02  0.9718272E-01
        1   -1    0    0  501    0  0.00000000000E+00  0.00000000000E+00  0.11082661199E+04  0.11082661199E+04  0.50400001928E-02 0. -1.
       -1   -1    0    0    0  501  0.00000000000E+00  0.00000000000E+00 -0.11034116471E+03  0.11034116482E+03  0.50400001928E-02 0.  1.
    10030    2    1    2    0    0  0.00000000000E+00  0.00000000000E+00  0.99792495515E+03  0.12186072847E+04  0.69939223486E+03 0.  0.
        5    1    3    3  502    0 -0.13797204172E+03  0.10527503393E+03  0.10278722632E+04  0.10424310992E+04  0.46999998093E+01 0. -1.
       -5    1    3    3    0  502  0.13797204172E+03 -0.10527503393E+03 -0.29947308098E+02  0.17617618547E+03  0.46999998093E+01 0.  1.
</event>
<event>
 5   0  0.1109788E-02  0.7020255E+03  0.7818609E-02  0.9713775E-01
        2   -1    0    0  501    0  0.00000000000E+00  0.00000000000E+00  0.11350553119E+04  0.11350553119E+04  0.25500000920E-02 0.  1.
       -2   -1    0    0    0  501  0.00000000000E+00  0.00000000000E+00 -0.10854971728E+03  0.10854971731E+03  0.25500000920E-02 0. -1.
    10030    2    1    2    0    0  0.00000000000E+00  0.00000000000E+00  0.10265055946E+04  0.12436050292E+04  0.70202545034E+03 0.  0.
        1    1    3    3  502    0 -0.49498538184E+02 -0.34410536008E+03  0.42735415071E+03  0.55089942300E+03  0.50400001928E-02 0. -1.
       -1    1    3    3    0  502  0.49498538184E+02  0.34410536008E+03  0.59915144394E+03  0.69270560624E+03  0.50400001928E-02 0.  1.
</event>
<event>
 5   0  0.1119786E-02  0.7018031E+03  0.7818609E-02  0.9714154E-01
        2   -1    0    0  501    0  0.00000000000E+00  0.00000000000E+00  0.56131491654E+03  0.56131491654E+03  0.25500000920E-02 0. -1.
       -2   -1    0    0    0  501  0.00000000000E+00  0.00000000000E+00 -0.21936332312E+03  0.21936332314E+03  0.25500000920E-02 0.  1.
    10030    2    1    2    0    0  0.00000000000E+00  0.00000000000E+00  0.34195159341E+03  0.78067823968E+03  0.70180312173E+03 0.  0.
        3    1    3    3  502    0  0.62261879553E+01  0.28625922424E+02  0.55995222247E+03  0.56071803119E+03  0.10100000352E+00 0. -1.
       -3    1    3    3    0  502 -0.62261879553E+01 -0.28625922424E+02 -0.21800062905E+03  0.21996020849E+03  0.10100000352E+00 0.  1.
</event>
<event>
 5   0  0.6246998E-03  0.7014094E+03  0.7818609E-02  0.9714825E-01
        1   -1    0    0  501    0  0.00000000000E+00  0.00000000000E+00  0.11619238749E+04  0.11619238749E+04  0.50400001928E-02 0.  1.
       -1   -1    0    0    0  501  0.00000000000E+00  0.00000000000E+00 -0.10585355677E+03  0.10585355689E+03  0.50400001928E-02 0. -1.
    10030    2    1    2    0    0  0.00000000000E+00  0.00000000000E+00  0.10560703181E+04  0.12677774318E+04  0.70140936674E+03 0.  0.
        4    1    3    3  502    0 -0.29878449117E+03 -0.17587464065E+03  0.62347411483E+03  0.71339024815E+03  0.12699999809E+01 0.  1.
       -4    1    3    3    0  502  0.29878449117E+03  0.17587464065E+03  0.43259620329E+03  0.55438718364E+03  0.12699999809E+01 0. -1.
</event>
<event>
 5   0  0.6246998E-03  0.7186967E+03  0.7818609E-02  0.9685782E-01
        1   -1    0    0  501    0  0.00000000000E+00  0.00000000000E+00  0.12172924932E+04  0.12172924932E+04  0.50400001928E-02 0.  1.
       -1   -1    0    0    0  501  0.00000000000E+00  0.00000000000E+00 -0.10608070324E+03  0.10608070336E+03  0.50400001928E-02 0. -1.
    10030    2    1    2    0    0  0.00000000000E+00  0.00000000000E+00  0.11112117900E+04  0.13233731966E+04  0.71869671996E+03 0.  0.
        4    1    3    3  502    0  0.24889200777E+03 -0.25915231005E+03  0.54687556274E+03  0.65435590114E+03  0.12699999809E+01 0. -1.
       -4    1    3    3    0  502 -0.24889200777E+03  0.25915231005E+03  0.56433622724E+03  0.66901729545E+03  0.12699999809E+01 0.  1.
</event>
<event>
 5   0  0.6689415E-03  0.7032711E+03  0.7818609E-02  0.9711655E-01
       -1   -1    0    0    0  501  0.00000000000E+00  0.00000000000E+00  0.22581361431E+03  0.22581361436E+03  0.50400001928E-02 0.  1.
        1   -1    0    0  501    0  0.00000000000E+00  0.00000000000E+00 -0.54756463354E+03  0.54756463357E+03  0.50400001928E-02 0. -1.
    10030    2    1    2    0    0  0.00000000000E+00  0.00000000000E+00 -0.32175101924E+03  0.77337824793E+03  0.70327106864E+03 0.  0.
        1    1    3    3  502    0  0.32196776187E+03 -0.10723786943E+02 -0.31588582171E+03  0.45117855852E+03  0.50400001928E-02 0.  1.
       -1    1    3    3    0  502 -0.32196776187E+03  0.10723786943E+02 -0.58651975314E+01  0.32219968941E+03  0.50400001928E-02 0. -1.
</event>
<event>
 5   0  0.6785252E-03  0.6976049E+03  0.7818609E-02  0.9721337E-01
       -1   -1    0    0    0  501  0.00000000000E+00  0.00000000000E+00  0.54872911193E+03  0.54872911196E+03  0.50400001928E-02 0. -1.
        1   -1    0    0  501    0  0.00000000000E+00  0.00000000000E+00 -0.22171807978E+03  0.22171807984E+03  0.50400001928E-02 0.  1.
    10030    2    1    2    0    0  0.00000000000E+00  0.00000000000E+00  0.32701103215E+03  0.77044719180E+03  0.69760494566E+03 0.  0.
        3    1    3    3  502    0  0.69995102871E+02  0.34164316756E+03  0.17081359712E+03  0.38832546083E+03  0.10100000352E+00 0. -1.
       -3    1    3    3    0  502 -0.69995102871E+02 -0.34164316756E+03  0.15619743503E+03  0.38212173097E+03  0.10100000352E+00 0.  1.
</event>
<event>
 5   0  0.4440500E-03  0.7025737E+03  0.7818609E-02  0.9712841E-01
       -3   -1    0    0    0  501  0.00000000000E+00  0.00000000000E+00  0.23358423197E+03  0.23358425380E+03  0.10100000352E+00 0.  1.
        3   -1    0    0  501    0  0.00000000000E+00  0.00000000000E+00 -0.52829956799E+03  0.52829957764E+03  0.10100000352E+00 0. -1.
    10030    2    1    2    0    0  0.00000000000E+00  0.00000000000E+00 -0.29471533602E+03  0.76188383145E+03  0.70257372804E+03 0.  0.
        3    1    3    3  502    0  0.31809306144E+03  0.30948072581E+02  0.10764773939E+02  0.31977628037E+03  0.10100000352E+00 0.  1.
       -3    1    3    3    0  502 -0.31809306144E+03 -0.30948072581E+02 -0.30548010996E+03  0.44210755107E+03  0.10100000352E+00 0. -1.
</event>
<event>
 5   0  0.4440500E-03  0.6918204E+03  0.7818609E-02  0.9731324E-01
       -3   -1    0    0    0  501  0.00000000000E+00  0.00000000000E+00  0.16743530587E+03  0.16743533633E+03  0.10100000352E+00 0.  1.
        3   -1    0    0  501    0  0.00000000000E+00  0.00000000000E+00 -0.71462738078E+03  0.71462738791E+03  0.10100000352E+00 0. -1.
    10030    2    1    2    0    0  0.00000000000E+00  0.00000000000E+00 -0.54719207491E+03  0.88206272425E+03  0.69182041215E+03 0.  0.
        2    1    3    3  502    0 -0.36189536267E+02 -0.15067864610E+03  0.12070342494E+03  0.19642569517E+03  0.25500000920E-02 0.  1.
       -2    1    3    3    0  502  0.36189536267E+02  0.15067864610E+03 -0.66789549984E+03  0.68563702908E+03  0.25500000920E-02 0. -1.
</event>
<event>
 5   0  0.6785252E-03  0.6990537E+03  0.7818609E-02  0.9718852E-01
        1   -1    0    0  501    0  0.00000000000E+00  0.00000000000E+00  0.18121717212E+03  0.18121717219E+03  0.50400001928E-02 0. -1.
       -1   -1    0    0    0  501  0.00000000000E+00  0.00000000000E+00 -0.67415815506E+03  0.67415815508E+03  0.50400001928E-02 0.  1.
    10030    2    1    2    0    0  0.00000000000E+00  0.00000000000E+00 -0.49294098294E+03  0.85537532726E+03  0.69905374459E+03 0.  0.
        3    1    3    3  502    0  0.24259791376E+02  0.61557329702E+02  0.17348430178E+03  0.18567351853E+03  0.10100000352E+00 0. -1.
       -3    1    3    3    0  502 -0.24259791376E+02 -0.61557329702E+02 -0.66642528472E+03  0.66970180874E+03  0.10100000352E+00 0.  1.
</event>
<event>
 5   0  0.1100119E-02  0.6938362E+03  0.7818609E-02  0.9727831E-01
       -2   -1    0    0    0  501  0.00000000000E+00  0.00000000000E+00  0.22765707924E+03  0.22765707925E+03  0.25500000920E-02 0.  1.
        2   -1    0    0  501    0  0.00000000000E+00  0.00000000000E+00 -0.52865556346E+03  0.52865556347E+03  0.25500000920E-02 0. -1.
    10030    2    1    2    0    0  0.00000000000E+00  0.00000000000E+00 -0.30099848422E+03  0.75631264272E+03  0.69383623863E+03 0.  0.
        4    1    3    3  502    0  0.25545693531E+03  0.21495194890E+03 -0.25326441944E+03  0.41905496679E+03  0.12699999809E+01 0. -1.
       -4    1    3    3    0  502 -0.25545693531E+03 -0.21495194890E+03 -0.47734064788E+02  0.33725767594E+03  0.12699999809E+01 0.  1.
</event>
<event>
 5   0  0.1109788E-02  0.7002553E+03  0.7818609E-02  0.9716796E-01
        2   -1    0    0  501    0  0.00000000000E+00  0.00000000000E+00  0.10422305030E+04  0.10422305030E+04  0.25500000920E-02 0.  1.
       -2   -1    0    0    0  501  0.00000000000E+00  0.00000000000E+00 -0.11762213976E+03  0.11762213979E+03  0.25500000920E-02 0. -1.
    10030    2    1    2    0    0  0.00000000000E+00  0.00000000000E+00  0.92460836325E+03  0.11598526428E+04  0.70025533030E+03 0.  0.
        1    1    3    3  502    0 -0.22976513716E+03  0.23593709161E+03  0.65919870976E+03  0.73688619774E+03  0.50400001928E-02 0.  1.
       -1    1    3    3    0  502  0.22976513716E+03 -0.23593709161E+03  0.26540965349E+03  0.42296644505E+03  0.50400001928E-02 0. -1.
</event>
<event>
 5   0  0.6609285E-03  0.6991438E+03  0.7818609E-02  0.9718697E-01
       -1   -1    0    0    0  501  0.00000000000E+00  0.00000000000E+00  0.29376352187E+03  0.29376352191E+03  0.50400001928E-02 0. -1.
        1   -1    0    0  501    0  0.00000000000E+00  0.00000000000E+00 -0.41598265331E+03  0.41598265334E+03  0.50400001928E-02 0.  1.
    10030    2    1    2    0    0  0.00000000000E+00  0.00000000000E+00 -0.12221913144E+03  0.70974617525E+03  0.69914384585E+03 0.  0.
        2    1    3    3  502    0 -0.14041910072E+03 -0.28797280393E+03 -0.20306818391E+03  0.37931852970E+03  0.25500000920E-02 0.  1.
       -2    1    3    3    0  502  0.14041910072E+03  0.28797280393E+03  0.80849052475E+02  0.33042764555E+03  0.25500000920E-02 0. -1.
</event>
<event>
 5   0  0.1099980E-02  0.6982403E+03  0.7818609E-02  0.9720246E-01
        2   -1    0    0  501    0  0.00000000000E+00  0.00000000000E+00  0.66559367138E+03  0.66559367138E+03  0.25500000920E-02 0. -1.
       -2   -1    0    0    0  501  0.00000000000E+00  0.00000000000E+00 -0.18312202747E+03  0.18312202749E+03  0.25500000920E-02 0.  1.
    10030    2    1    2    0    0  0.00000000000E+00  0.00000000000E+00  0.48247164391E+03  0.84871569887E+03  0.69824025259E+03 0.  0.
        5    1    3    3  502    0  0.11789149136E+03 -0.14757377533E+03 -0.11560669779E+03  0.22150264439E+03  0.46999998093E+01 0.  1.
       -5    1    3    3    0  502 -0.11789149136E+03  0.14757377533E+03  0.59807834170E+03  0.62721305448E+03  0.46999998093E+01 0. -1.
</event>
<event>
 5   0  0.4440500E-03  0.6997640E+03  0.7818609E-02  0.9717636E-01
       -3   -1    0    0    0  501  0.00000000000E+00  0.00000000000E+00  0.33983399020E+03  0.33983400521E+03  0.10100000352E+00 0. -1.
        3   -1    0    0  501    0  0.00000000000E+00  0.00000000000E+00 -0.36022710108E+03  0.36022711523E+03  0.10100000352E+00 0.  1.
    10030    2    1    2    0    0  0.00000000000E+00  0.00000000000E+00 -0.20393110875E+02  0.70006112044E+03  0.69976402693E+03 0.  0.
        3    1    3    3  502    0 -0.80677433339E+02 -0.23494285152E+03 -0.25669601403E+03  0.35721120580E+03  0.10100000352E+00 0.  1.
       -3    1    3    3    0  502  0.80677433339E+02  0.23494285152E+03  0.23630290315E+03  0.34284991464E+03  0.10100000352E+00 0. -1.
</event>
<event>
 5   0  0.4440500E-03  0.7005778E+03  0.7818609E-02  0.9716245E-01
        3   -1    0    0  501    0  0.00000000000E+00  0.00000000000E+00  0.21157924932E+03  0.21157927343E+03  0.10100000352E+00 0. -1.
       -3   -1    0    0    0  501  0.00000000000E+00  0.00000000000E+00 -0.57993536569E+03  0.57993537448E+03  0.10100000352E+00 0.  1.
    10030    2    1    2    0    0  0.00000000000E+00  0.00000000000E+00 -0.36835611636E+03  0.79151464792E+03  0.70057776828E+03 0.  0.
        3    1    3    3  502    0 -0.17593478714E+03  0.27505104607E+03 -0.32751687353E+03  0.46246452828E+03  0.10100000352E+00 0.  1.
       -3    1    3    3    0  502  0.17593478714E+03 -0.27505104607E+03 -0.40839242835E+02  0.32905011963E+03  0.10100000352E+00 0. -1.
</event>
<event>
 5   0  0.6609285E-03  0.7026429E+03  0.7818609E-02  0.9712723E-01
       -1   -1    0    0    0  501  0.00000000000E+00  0.00000000000E+00  0.15859572158E+03  0.15859572166E+03  0.50400001928E-02 0.  1.
        1   -1    0    0  501    0  0.00000000000E+00  0.00000000000E+00 -0.77824776460E+03  0.77824776462E+03  0.50400001928E-02 0. -1.
    10030    2    1    2    0    0  0.00000000000E+00  0.00000000000E+00 -0.61965204302E+03  0.93684348628E+03  0.70264291312E+03 0.  0.
        2    1    3    3  502    0  0.17623759725E+03 -0.96951991138E+02 -0.69387452430E+03  0.72244116352E+03  0.25500000920E-02 0. -1.
       -2    1    3    3    0  502 -0.17623759725E+03  0.96951991138E+02  0.74222481276E+02  0.21440232276E+03  0.25500000920E-02 0.  1.
</event>
<event>
 5   0  0.1079446E-02  0.7003353E+03  0.7818609E-02  0.9716659E-01
       -2   -1    0    0    0  501  0.00000000000E+00  0.00000000000E+00  0.96416110068E+02  0.96416110102E+02  0.25500000920E-02 0.  1.
        2   -1    0    0  501    0  0.00000000000E+00  0.00000000000E+00 -0.12717520429E+04  0.12717520429E+04  0.25500000920E-02 0. -1.
    10030    2    1    2    0    0  0.00000000000E+00  0.00000000000E+00 -0.11753359328E+04  0.13681681530E+04  0.70033530533E+03 0.  0.
        2    1    3    3  502    0 -0.99121603320E+02 -0.17473955169E+03 -0.11479717271E+04  0.11654175601E+04  0.25500000920E-02 0. -1.
       -2    1    3    3    0  502  0.99121603320E+02  0.17473955169E+03 -0.27364205762E+02  0.20275059293E+03  0.25500000920E-02 0.  1.
</event>
<event>
 5   0  0.1119786E-02  0.6997901E+03  0.7818609E-02  0.9717591E-01
       -2   -1    0    0    0  501  0.00000000000E+00  0.00000000000E+00  0.64189120002E+02  0.64189120053E+02  0.25500000920E-02 0. -1.
        2   -1    0    0  501    0  0.00000000000E+00  0.00000000000E+00 -0.19072787638E+04  0.19072787638E+04  0.25500000920E-02 0.  1.
    10030    2    1    2    0    0  0.00000000000E+00  0.00000000000E+00 -0.18430896438E+04  0.19714678838E+04  0.69979009852E+03 0.  0.
        3    1    3    3  502    0  0.37221146347E+01  0.34973284536E+03 -0.94966324106E+03  0.10120213431E+04  0.10100000352E+00 0. -1.
       -3    1    3    3    0  502 -0.37221146347E+01 -0.34973284536E+03 -0.89342640273E+03  0.95944654075E+03  0.10100000352E+00 0.  1.
</event>
<event>
 5   0  0.6990118E-03  0.7035470E+03  0.7818609E-02  0.9711186E-01
       -1   -1    0    0    0  501  0.00000000000E+00  0.00000000000E+00  0.36747601558E+03  0.36747601562E+03  0.50400001928E-02 0. -1.
        1   -1    0    0  501    0  0.00000000000E+00  0.00000000000E+00 -0.33674195185E+03  0.33674195189E+03  0.50400001928E-02 0.  1.
    10030    2    1    2    0    0  0.00000000000E+00  0.00000000000E+00  0.30734063728E+02  0.70421796750E+03  0.70354698712E+03 0.  0.
        5    1    3    3  502    0  0.33606677429E+03 -0.36738975748E+02  0.11257747775E+03  0.35635152254E+03  0.46999998093E+01 0.  1.
       -5    1    3    3    0  502 -0.33606677429E+03  0.36738975748E+02 -0.81843414023E+02  0.34786644497E+03  0.46999998093E+01 0. -1.
</event>
<event>
 5   0  0.1109788E-02  0.6953638E+03  0.7818609E-02  0.9725194E-01
       -2   -1    0    0    0  501  0.00000000000E+00  0.00000000000E+00  0.12404916858E+03  0.12404916860E+03  0.25500000920E-02 0. -1.
        2   -1    0    0  501    0  0.00000000000E+00  0.00000000000E+00 -0.97447404888E+03  0.97447404888E+03  0.25500000920E-02 0.  1.
    10030    2    1    2    0    0  0.00000000000E+00  0.00000000000E+00 -0.85042488030E+03  0.10985232175E+04  0.69536377697E+03 0.  0.
        1    1    3    3  502    0  0.21533630268E+03  0.90594584963E+02 -0.83200430576E+03  0.86418069112E+03  0.50400001928E-02 0.  1.
       -1    1    3    3    0  502 -0.21533630268E+03 -0.90594584963E+02 -0.18420574546E+02  0.23434252637E+03  0.50400001928E-02 0. -1.
</event>
<event>
 5   0  0.1100119E-02  0.7006178E+03  0.7818609E-02  0.9716176E-01
        2   -1    0    0  501    0  0.00000000000E+00  0.00000000000E+00  0.15432854709E+04  0.15432854709E+04  0.25500000920E-02 0.  1.
       -2   -1    0    0    0  501  0.00000000000E+00  0.00000000000E+00 -0.79516275192E+02  0.79516275233E+02  0.25500000920E-02 0. -1.
    10030    2    1    2    0    0  0.00000000000E+00  0.00000000000E+00  0.14637691957E+04  0.16228017461E+04  0.70061776237E+03 0.  0.
        4    1    3    3  502    0  0.22666506655E+02  0.63893304225E+02  0.15279402335E+04  0.15294440477E+04  0.12699999809E+01 0.  1.
       -4    1    3    3    0  502 -0.22666506655E+02 -0.63893304225E+02 -0.64171037875E+02  0.93357698401E+02  0.12699999809E+01 0. -1.
</event>
<event>
 5   0  0.6990118E-03  0.6994878E+03  0.7818609E-02  0.9718109E-01
       -1   -1    0    0    0  501  0.00000000000E+00  0.00000000000E+00  0.36418297031E+03  0.36418297034E+03  0.50400001928E-02 0.  1.
        1   -1    0    0  501    0  0.00000000000E+00  0.00000000000E+00 -0.33587729047E+03  0.33587729050E+03  0.50400001928E-02 0. -1.
    10030    2    1    2    0    0  0.00000000000E+00  0.00000000000E+00  0.28305679839E+02  0.70006026084E+03  0.69948778210E+03 0.  0.
        5    1    3    3  502    0 -0.21658591342E+03 -0.63096512402E+02  0.28159442940E+03  0.36084365096E+03  0.46999998093E+01 0.  1.
       -5    1    3    3    0  502  0.21658591342E+03  0.63096512402E+02 -0.25328874956E+03  0.33921660989E+03  0.46999998093E+01 0. -1.
</event>
<event>
 5   0  0.6609285E-03  0.7006250E+03  0.7818609E-02  0.9716164E-01
        1   -1    0    0  501    0  0.00000000000E+00  0.00000000000E+00  0.40857454156E+03  0.40857454159E+03  0.50400001928E-02 0.  1.
       -1   -1    0    0    0  501  0.00000000000E+00  0.00000000000E+00 -0.30035853088E+03  0.30035853092E+03  0.50400001928E-02 0. -1.
    10030    2    1    2    0    0  0.00000000000E+00  0.00000000000E+00  0.10821601068E+03  0.70893307251E+03  0.70062500407E+03 0.  0.
        2    1    3    3  502    0  0.15576797345E+02 -0.20942207357E+03  0.33782299290E+03  0.39777457945E+03  0.25500000920E-02 0.  1.
       -2    1    3    3    0  502 -0.15576797345E+02  0.20942207357E+03 -0.22960698222E+03  0.31115849307E+03  0.25500000920E-02 0. -1.
</event>
<event>
 5   0  0.6990118E-03  0.6991550E+03  0.7818609E-02  0.9718678E-01
        1   -1    0    0  501    0  0.00000000000E+00  0.00000000000E+00  0.85538175688E+03  0.85538175690E+03  0.50400001928E-02 0.  1.
       -1   -1    0    0    0  501  0.00000000000E+00  0.00000000000E+00 -0.14286535178E+03  0.14286535187E+03  0.50400001928E-02 0. -1.
    10030    2    1    2    0    0  0.00000000000E+00  0.00000000000E+00  0.71251640510E+03  0.99824710877E+03  0.69915496324E+03 0.  0.
        5    1    3    3  502    0  0.18662784335E+02 -0.25186250648E+03  0.11218991971E+02  0.25284575825E+03  0.46999998093E+01 0. -1.
       -5    1    3    3    0  502 -0.18662784335E+02  0.25186250648E+03  0.70129741313E+03  0.74540135051E+03  0.46999998093E+01 0.  1.
</event>
<event>
 5   0  0.1119786E-02  0.7005493E+03  0.7818609E-02  0.9716293E-01
       -2   -1    0    0    0  501  0.00000000000E+00  0.00000000000E+00  0.18719529944E+03  0.18719529946E+03  0.25500000920E-02 0.  1.
        2   -1    0    0  501    0  0.00000000000E+00  0.00000000000E+00 -0.65542429541E+03  0.65542429542E+03  0.25500000920E-02 0. -1.
    10030    2    1    2    0    0  0.00000000000E+00  0.00000000000E+00 -0.46822899597E+03  0.84261959487E+03  0.70054934801E+03 0.  0.
        3    1    3    3  502    0 -0.32439113721E+03  0.10765692246E+03 -0.32628930857E+03  0.47252973022E+03  0.10100000352E+00 0. -1.
       -3    1    3    3    0  502  0.32439113721E+03 -0.10765692246E+03 -0.14193968740E+03  0.37008986465E+03  0.10100000352E+00 0.  1.
</event>
<event>
 5   0  0.1079446E-02  0.6993275E+03  0.7818609E-02  0.9718383E-01
       -2   -1    0    0    0  501  0.00000000000E+00  0.00000000000E+00  0.89571336541E+02  0.89571336577E+02  0.25500000920E-02 0.  1.
        2   -1    0    0  501    0  0.00000000000E+00  0.00000000000E+00 -0.13649986419E+04  0.13649986419E+04  0.25500000920E-02 0. -1.
    10030    2    1    2    0    0  0.00000000000E+00  0.00000000000E+00 -0.12754273053E+04  0.14545699785E+04  0.69932754203E+03 0.  0.
        2    1    3    3  502    0 -0.19762706419E+03  0.17090278967E+03 -0.11210539548E+04  0.11510978193E+04  0.25500000920E-02 0. -1.
       -2    1    3    3    0  502  0.19762706419E+03 -0.17090278967E+03 -0.15437335052E+03  0.30347215915E+03  0.25500000920E-02 0.  1.
</event>
<event>
 5   0  0.1099980E-02  0.7021878E+03  0.7818609E-02  0.9713498E-01
       -2   -1    0    0    0  501  0.00000000000E+00  0.00000000000E+00  0.11640937941E+03  0.11640937944E+03  0.25500000920E-02 0.  1.
        2   -1    0    0  501    0  0.00000000000E+00  0.00000000000E+00 -0.10589089257E+04  0.10589089257E+04  0.25500000920E-02 0. -1.
    10030    2    1    2    0    0  0.00000000000E+00  0.00000000000E+00 -0.94249954628E+03  0.11753183051E+04  0.70218781222E+03 0.  0.
        5    1    3    3  502    0 -0.17949526236E+03  0.23073110013E+03 -0.14587228285E+03  0.32673567709E+03  0.46999998093E+01 0. -1.
       -5    1    3    3    0  502  0.17949526236E+03 -0.23073110013E+03 -0.79662726343E+03  0.84858262804E+03  0.46999998093E+01 0.  1.
</event>
<event>
 5   0  0.6246998E-03  0.7009056E+03  0.7818609E-02  0.9715685E-01
       -1   -1    0    0    0  501  0.00000000000E+00  0.00000000000E+00  0.37587047369E+03  0.37587047372E+03  0.50400001928E-02 0.  1.
        1   -1    0    0  501    0  0.00000000000E+00  0.00000000000E+00 -0.32675398596E+03  0.32675398600E+03  0.50400001928E-02 0. -1.
    10030    2    1    2    0    0  0.00000000000E+00  0.00000000000E+00  0.49116487730E+02  0.70262445972E+03  0.70090562990E+03 0.  0.
        4    1    3    3  502    0 -0.21984574597E+03  0.69104155929E+02 -0.24011199474E+03  0.33281063580E+03  0.12699999809E+01 0. -1.
       -4    1    3    3    0  502  0.21984574597E+03 -0.69104155929E+02  0.28922848247E+03  0.36981382392E+03  0.12699999809E+01 0.  1.
</event>
<event>
 5   0  0.6689415E-03  0.7011512E+03  0.7818609E-02  0.9715266E-01
        1   -1    0    0  501    0  0.00000000000E+00  0.00000000000E+00  0.85739684432E+03  0.85739684433E+03  0.50400001928E-02 0.  1.
       -1   -1    0    0    0  501  0.00000000000E+00  0.00000000000E+00 -0.14334463928E+03  0.14334463937E+03  0.50400001928E-02 0. -1.
    10030    2    1    2    0    0  0.00000000000E+00  0.00000000000E+00  0.71405220504E+03  0.10007414837E+04  0.70115117177E+03 0.  0.
        1    1    3    3  502    0 -0.22862206993E+03  0.20429369830E+03  0.11439095304E+03  0.32724494829E+03  0.50400001928E-02 0. -1.
       -1    1    3    3    0  502  0.22862206993E+03 -0.20429369830E+03  0.59966125200E+03  0.67349653541E+03  0.50400001928E-02 0.  1.
</event>
<event>
 5   0  0.1079446E-02  0.7018776E+03  0.7818609E-02  0.9714027E-01
       -2   -1    0    0    0  501  0.00000000000E+00  0.00000000000E+00  0.90720382192E+03  0.90720382192E+03  0.25500000920E-02 0. -1.
        2   -1    0    0  501    0  0.00000000000E+00  0.00000000000E+00 -0.13575565877E+03  0.13575565879E+03  0.25500000920E-02 0.  1.
    10030    2    1    2    0    0  0.00000000000E+00  0.00000000000E+00  0.77144816315E+03  0.10429594807E+04  0.70187763177E+03 0.  0.
        2    1    3    3  502    0 -0.34330155580E+03 -0.47038005398E+02  0.30312949910E+03  0.46038682149E+03  0.25500000920E-02 0. -1.
       -2    1    3    3    0  502  0.34330155580E+03  0.47038005398E+02  0.46831866405E+03  0.58257265922E+03  0.25500000920E-02 0.  1.
</event>
<event>
 5   0  0.6990118E-03  0.6979513E+03  0.7818609E-02  0.9720742E-01
       -1   -1    0    0    0  501  0.00000000000E+00  0.00000000000E+00  0.17968583098E+03  0.17968583105E+03  0.50400001928E-02 0.  1.
        1   -1    0    0  501    0  0.00000000000E+00  0.00000000000E+00 -0.67776070782E+03  0.67776070784E+03  0.50400001928E-02 0. -1.
    10030    2    1    2    0    0  0.00000000000E+00  0.00000000000E+00 -0.49807487684E+03  0.85744653889E+03  0.69795127632E+03 0.  0.
        5    1    3    3  502    0 -0.82250163236E+01 -0.34675908527E+03 -0.20221825250E+03  0.40152686803E+03  0.46999998093E+01 0.  1.
       -5    1    3    3    0  502  0.82250163236E+01  0.34675908527E+03 -0.29585662434E+03  0.45591967086E+03  0.46999998093E+01 0. -1.
</event>
<event>
 5   0  0.6246998E-03  0.6997922E+03  0.7818609E-02  0.9717588E-01
       -1   -1    0    0    0  501  0.00000000000E+00  0.00000000000E+00  0.11228907218E+03  0.11228907229E+03  0.50400001928E-02 0.  1.
        1   -1    0    0  501    0  0.00000000000E+00  0.00000000000E+00 -0.10902866687E+04  0.10902866687E+04  0.50400001928E-02 0. -1.
    10030    2    1    2    0    0  0.00000000000E+00  0.00000000000E+00 -0.97799759653E+03  0.12025757410E+04  0.69979219349E+03 0.  0.
        4    1    3    3  502    0 -0.28957932318E+02 -0.17229158856E+03 -0.10099625539E+04  0.10249628903E+04  0.12699999809E+01 0. -1.
       -4    1    3    3    0  502  0.28957932318E+02  0.17229158856E+03  0.31964957382E+02  0.17761285069E+03  0.12699999809E+01 0.  1.
</event>
<event>
 5   0  0.1100119E-02  0.7002176E+03  0.7818609E-02  0.9716860E-01
       -2   -1    0    0    0  501  0.00000000000E+00  0.00000000000E+00  0.16305065672E+03  0.16305065674E+03  0.25500000920E-02 0.  1.
        2   -1    0    0  501    0  0.00000000000E+00  0.00000000000E+00 -0.75176737095E+03  0.75176737095E+03  0.25500000920E-02 0. -1.
    10030    2    1    2    0    0  0.00000000000E+00  0.00000000000E+00 -0.58871671423E+03  0.91481802769E+03  0.70021757631E+03 0.  0.
        4    1    3    3  502    0  0.18452499753E+03 -0.10692961033E+03 -0.65710543660E+03  0.69084917600E+03  0.12699999809E+01 0. -1.
       -4    1    3    3    0  502 -0.18452499753E+03  0.10692961033E+03  0.68388722370E+02  0.22396885169E+03  0.12699999809E+01 0.  1.
</event>
<event>
 5   0  0.6990118E-03  0.7003409E+03  0.7818609E-02  0.9716649E-01
       -1   -1    0    0    0  501  0.00000000000E+00  0.00000000000E+00  0.70260739917E+03  0.70260739918E+03  0.50400001928E-02 0. -1.
        1   -1    0    0  501    0  0.00000000000E+00  0.00000000000E+00 -0.17452043079E+03  0.17452043087E+03  0.50400001928E-02 0.  1.
    10030    2    1    2    0    0  0.00000000000E+00  0.00000000000E+00  0.52808696837E+03  0.87712783005E+03  0.70034090562E+03 0.  0.
        5    1    3    3  502    0  0.21756416525E+03 -0.14506437310E+03 -0.27585591800E+02  0.26298458742E+03  0.46999998093E+01 0.  1.
       -5    1    3    3    0  502 -0.21756416525E+03  0.14506437310E+03  0.55567256017E+03  0.61414324263E+03  0.46999998093E+01 0. -1.
</event>
<event>
 5   0  0.1119786E-02  0.7049449E+03  0.7818609E-02  0.9708813E-01
        2   -1    0    0  501    0  0.00000000000E+00  0.00000000000E+00  0.18638521003E+04  0.18638521003E+04  0.25500000920E-02 0. -1.
       -2   -1    0    0    0  501  0.00000000000E+00  0.00000000000E+00 -0.66655950355E+02  0.66655950404E+02  0.25500000920E-02 0.  1.
    10030    2    1    2    0    0  0.00000000000E+00  0.00000000000E+00  0.17971961500E+04  0.19305080507E+04  0.70494491450E+03 0.  0.
        3    1    3    3  502    0 -0.17021733964E+03 -0.30747831921E+03  0.97207849835E+03  0.10336602327E+04  0.10100000352E+00 0. -1.
       -3    1    3    3    0  502  0.17021733964E+03  0.30747831921E+03  0.82511765163E+03  0.89684781805E+03  0.10100000352E+00 0.  1.
</event>
<event>
 5   0  0.1109788E-02  0.7019725E+03  0.7818609E-02  0.9713865E-01
        2   -1    0    0  501    0  0.00000000000E+00  0.00000000000E+00  0.74884710901E+02  0.74884710944E+02  0.25500000920E-02 0. -1.
       -2   -1    0    0    0  501  0.00000000000E+00  0.00000000000E+00 -0.16450799309E+04  0.16450799309E+04  0.25500000920E-02 0.  1.
    10030    2    1    2    0    0  0.00000000000E+00  0.00000000000E+00 -0.15701952200E+04  0.17199646419E+04  0.70197246406E+03 0.  0.
        1    1    3    3  502    0  0.21025229277E+03  0.81819998713E+02 -0.14438784301E+04  0.14613984603E+04  0.50400001928E-02 0.  1.
       -1    1    3    3    0  502 -0.21025229277E+03 -0.81819998713E+02 -0.12631678989E+03  0.25856618154E+03  0.50400001928E-02 0. -1.
</event>
<event>
 5   0  0.6689415E-03  0.7121405E+03  0.7818609E-02  0.9696693E-01
        1   -1    0    0  501    0  0.00000000000E+00  0.00000000000E+00  0.51437836046E+03  0.51437836048E+03  0.50400001928E-02 0. -1.
       -1   -1    0    0    0  501  0.00000000000E+00  0.00000000000E+00 -0.24648400199E+03  0.24648400204E+03  0.50400001928E-02 0.  1.
    10030    2    1    2    0    0  0.00000000000E+00  0.00000000000E+00  0.26789435847E+03  0.76086236252E+03  0.71214053908E+03 0.  0.
        1    1    3    3  502    0  0.77861708451E+02  0.22458780004E+03 -0.14930179993E+03  0.28070118107E+03  0.50400001928E-02 0.  1.
       -1    1    3    3    0  502 -0.77861708451E+02 -0.22458780004E+03  0.41719615840E+03  0.48016118145E+03  0.50400001928E-02 0. -1.
</event>
<event>
 5   0  0.4440500E-03  0.6991664E+03  0.7818609E-02  0.9718659E-01
        3   -1    0    0  501    0  0.00000000000E+00  0.00000000000E+00  0.31632169082E+03  0.31632170694E+03  0.10100000352E+00 0. -1.
       -3   -1    0    0    0  501  0.00000000000E+00  0.00000000000E+00 -0.38634211782E+03  0.38634213102E+03  0.10100000352E+00 0.  1.
    10030    2    1    2    0    0  0.00000000000E+00  0.00000000000E+00 -0.70020426997E+02  0.70266383796E+03  0.69916636717E+03 0.  0.
        4    1    3    3  502    0 -0.38684036196E+02 -0.34690856597E+03 -0.54205009717E+02  0.35324467976E+03  0.12699999809E+01 0.  1.
       -4    1    3    3    0  502  0.38684036196E+02  0.34690856597E+03 -0.15815417280E+02  0.34941915821E+03  0.12699999809E+01 0. -1.
</event>
<event>
 5   0  0.6609285E-03  0.6885569E+03  0.7818609E-02  0.9737004E-01
       -1   -1    0    0    0  501  0.00000000000E+00  0.00000000000E+00  0.11071424176E+04  0.11071424176E+04  0.50400001928E-02 0. -1.
        1   -1    0    0  501    0  0.00000000000E+00  0.00000000000E+00 -0.10705726688E+03  0.10705726699E+03  0.50400001928E-02 0.  1.
    10030    2    1    2    0    0  0.00000000000E+00  0.00000000000E+00  0.10000851507E+04  0.12141996846E+04  0.68855687157E+03 0.  0.
        2    1    3    3  502    0  0.22411093129E+03 -0.15444760604E+03  0.87181379829E+03  0.91331214348E+03  0.25500000920E-02 0. -1.
       -2    1    3    3    0  502 -0.22411093129E+03  0.15444760604E+03  0.12827135241E+03  0.30088754110E+03  0.25500000920E-02 0.  1.
</event>
<event>
 5   0  0.6246998E-03  0.7037677E+03  0.7818609E-02  0.9710811E-01
       -1   -1    0    0    0  501  0.00000000000E+00  0.00000000000E+00  0.84371635559E+02  0.84371635710E+02  0.50400001928E-02 0. -1.
        1   -1    0    0  501    0  0.00000000000E+00  0.00000000000E+00 -0.14675812470E+04  0.14675812470E+04  0.50400001928E-02 0.  1.
    10030    2    1    2    0    0  0.00000000000E+00  0.00000000000E+00 -0.13832096114E+04  0.15519528827E+04  0.70376766123E+03 0.  0.
        4    1    3    3  502    0  0.32674825721E+03 -0.69772986993E+02 -0.93505722502E+03  0.99295836784E+03  0.12699999809E+01 0.  1.
       -4    1    3    3    0  502 -0.32674825721E+03  0.69772986993E+02 -0.44815238642E+03  0.55899451487E+03  0.12699999809E+01 0. -1.
</event>
<event>
 5   0  0.6609285E-03  0.7015761E+03  0.7818609E-02  0.9714541E-01
       -1   -1    0    0    0  501  0.00000000000E+00  0.00000000000E+00  0.34730116635E+03  0.34730116638E+03  0.50400001928E-02 0.  1.
        1   -1    0    0  501    0  0.00000000000E+00  0.00000000000E+00 -0.35430989317E+03  0.35430989321E+03  0.50400001928E-02 0. -1.
    10030    2    1    2    0    0  0.00000000000E+00  0.00000000000E+00 -0.70087268266E+01  0.70161105959E+03  0.70157605197E+03 0.  0.
        2    1    3    3  502    0  0.56280804643E+02 -0.18169775989E+03 -0.29825731743E+03  0.35374995735E+03  0.25500000920E-02 0. -1.
       -2    1    3    3    0  502 -0.56280804643E+02  0.18169775989E+03  0.29124859060E+03  0.34786110224E+03  0.25500000920E-02 0.  1.
</event>
<event>
 5   0  0.6689415E-03  0.7016462E+03  0.7818609E-02  0.9714421E-01
       -1   -1    0    0    0  501  0.00000000000E+00  0.00000000000E+00  0.21391140101E+03  0.21391140107E+03  0.50400001928E-02 0.  1.
        1   -1    0    0  501    0  0.00000000000E+00  0.00000000000E+00 -0.57536360109E+03  0.57536360112E+03  0.50400001928E-02 0. -1.
    10030    2    1    2    0    0  0.00000000000E+00  0.00000000000E+00 -0.36145220008E+03  0.78927500219E+03  0.70164616164E+03 0.  0.
        1    1    3    3  502    0 -0.29128359900E+03  0.87200612127E+02 -0.37758754421E+03  0.48479112551E+03  0.50400001928E-02 0. -1.
       -1    1    3    3    0  502  0.29128359900E+03 -0.87200612127E+02  0.16135344134E+02  0.30448387668E+03  0.50400001928E-02 0.  1.
</event>
<event>
 5   0  0.1099980E-02  0.6977877E+03  0.7818609E-02  0.9721023E-01
        2   -1    0    0  501    0  0.00000000000E+00  0.00000000000E+00  0.77487493558E+03  0.77487493558E+03  0.25500000920E-02 0. -1.
       -2   -1    0    0    0  501  0.00000000000E+00  0.00000000000E+00 -0.15709233618E+03  0.15709233620E+03  0.25500000920E-02 0.  1.
    10030    2    1    2    0    0  0.00000000000E+00  0.00000000000E+00  0.61778259940E+03  0.93196727179E+03  0.69778768659E+03 0.  0.
        5    1    3    3  502    0  0.29976565391E+03 -0.13100511819E+03  0.14705151712E+03  0.35870325750E+03  0.46999998093E+01 0.  1.
       -5    1    3    3    0  502 -0.29976565391E+03  0.13100511819E+03  0.47073108228E+03  0.57326401429E+03  0.46999998093E+01 0. -1.
</event>
<event>
 5   0  0.1079446E-02  0.6994666E+03  0.7818609E-02  0.9718145E-01
       -2   -1    0    0    0  501  0.00000000000E+00  0.00000000000E+00  0.37439787239E+03  0.37439787239E+03  0.25500000920E-02 0. -1.
        2   -1    0    0  501    0  0.00000000000E+00  0.00000000000E+00 -0.32669358177E+03  0.32669358178E+03  0.25500000920E-02 0.  1.
    10030    2    1    2    0    0  0.00000000000E+00  0.00000000000E+00  0.47704290614E+02  0.70109145418E+03  0.69946660233E+03 0.  0.
        2    1    3    3  502    0 -0.23554923630E+03 -0.12211234033E+03  0.25223780116E+03  0.36608574777E+03  0.25500000920E-02 0. -1.
       -2    1    3    3    0  502  0.23554923630E+03  0.12211234033E+03 -0.20453351055E+03  0.33500570640E+03  0.25500000920E-02 0.  1.
</event>
<event>
 5   0  0.6609285E-03  0.6896188E+03  0.7818609E-02  0.9735152E-01
        1   -1    0    0  501    0  0.00000000000E+00  0.00000000000E+00  0.17794449385E+03  0.17794449392E+03  0.50400001928E-02 0.  1.
       -1   -1    0    0    0  501  0.00000000000E+00  0.00000000000E+00 -0.66814952655E+03  0.66814952657E+03  0.50400001928E-02 0. -1.
    10030    2    1    2    0    0  0.00000000000E+00  0.00000000000E+00 -0.49020503270E+03  0.84609402049E+03  0.68961882038E+03 0.  0.
        2    1    3    3  502    0 -0.28041218197E+03  0.38990603749E+02 -0.48659413047E+03  0.56296101711E+03  0.25500000920E-02 0. -1.
       -2    1    3    3    0  502  0.28041218197E+03 -0.38990603749E+02 -0.36109022383E+01  0.28313300337E+03  0.25500000920E-02 0.  1.
</event>
<event>
 5   0  0.6246998E-03  0.7029234E+03  0.7818609E-02  0.9712246E-01
        1   -1    0    0  501    0  0.00000000000E+00  0.00000000000E+00  0.68666840850E+03  0.68666840852E+03  0.50400001928E-02 0.  1.
       -1   -1    0    0    0  501  0.00000000000E+00  0.00000000000E+00 -0.17989078399E+03  0.17989078406E+03  0.50400001928E-02 0. -1.
    10030    2    1    2    0    0  0.00000000000E+00  0.00000000000E+00  0.50677762451E+03  0.86655919258E+03  0.70292337671E+03 0.  0.
        4    1    3    3  502    0 -0.28712525752E+03 -0.16952676173E+03  0.11642404526E+03  0.35318041800E+03  0.12699999809E+01 0. -1.
       -4    1    3    3    0  502  0.28712525752E+03  0.16952676173E+03  0.39035357925E+03  0.51337877457E+03  0.12699999809E+01 0.  1.
</event>
<event>
 5   0  0.6689415E-03  0.6961386E+03  0.7818609E-02  0.9723859E-01
       -1   -1    0    0    0  501  0.00000000000E+00  0.00000000000E+00  0.19470137164E+03  0.19470137171E+03  0.50400001928E-02 0. -1.
        1   -1    0    0  501    0  0.00000000000E+00  0.00000000000E+00 -0.62224648344E+03  0.62224648346E+03  0.50400001928E-02 0.  1.
    10030    2    1    2    0    0  0.00000000000E+00  0.00000000000E+00 -0.42754511180E+03  0.81694785517E+03  0.69613861798E+03 0.  0.
        1    1    3    3  502    0 -0.34209127666E+03 -0.37239985715E+02 -0.15235486345E+03  0.37633132018E+03  0.50400001928E-02 0. -1.
       -1    1    3    3    0  502  0.34209127666E+03  0.37239985715E+02 -0.27519024835E+03  0.44061653500E+03  0.50400001928E-02 0.  1.
</event>
<event>
 5   0  0.6689415E-03  0.7014213E+03  0.7818609E-02  0.9714805E-01
        1   -1    0    0  501    0  0.00000000000E+00  0.00000000000E+00  0.56389981426E+03  0.56389981428E+03  0.50400001928E-02 0. -1.
       -1   -1    0    0    0  501  0.00000000000E+00  0.00000000000E+00 -0.21812020917E+03  0.21812020923E+03  0.50400001928E-02 0.  1.
    10030    2    1    2    0    0  0.00000000000E+00  0.00000000000E+00  0.34577960508E+03  0.78202002351E+03  0.70142125850E+03 0.  0.
        1    1    3    3  502    0  0.97027751360E+02  0.10198487746E+03  0.53102110212E+03  0.54936209433E+03  0.50400001928E-02 0. -1.
       -1    1    3    3    0  502 -0.97027751360E+02 -0.10198487746E+03 -0.18524149703E+03  0.23265792918E+03  0.50400001928E-02 0.  1.
</event>
<event>
 5   0  0.4440500E-03  0.7021267E+03  0.7818609E-02  0.9713602E-01
        3   -1    0    0  501    0  0.00000000000E+00  0.00000000000E+00  0.61944316389E+03  0.61944317213E+03  0.10100000352E+00 0. -1.
       -3   -1    0    0    0  501  0.00000000000E+00  0.00000000000E+00 -0.19896166776E+03  0.19896169339E+03  0.10100000352E+00 0.  1.
    10030    2    1    2    0    0  0.00000000000E+00  0.00000000000E+00  0.42048149614E+03  0.81840486552E+03  0.70212665190E+03 0.  0.
        3    1    3    3  502    0 -0.23145298087E+03  0.19880685560E+03  0.78446353320E+01  0.30521500077E+03  0.10100000352E+00 0.  1.
       -3    1    3    3    0  502  0.23145298087E+03 -0.19880685560E+03  0.41263686081E+03  0.51318986475E+03  0.10100000352E+00 0. -1.
</event>
<event>
 5   0  0.6609285E-03  0.6949706E+03  0.7818609E-02  0.9725872E-01
        1   -1    0    0  501    0  0.00000000000E+00  0.00000000000E+00  0.79155445378E+03  0.79155445380E+03  0.50400001928E-02 0. -1.
       -1   -1    0    0    0  501  0.00000000000E+00  0.00000000000E+00 -0.15254292084E+03  0.15254292093E+03  0.50400001928E-02 0.  1.
    10030    2    1    2    0    0  0.00000000000E+00  0.00000000000E+00  0.63901153294E+03  0.94409737472E+03  0.69497058480E+03 0.  0.
        2    1    3    3  502    0  0.14531405016E+03 -0.55511753414E+02  0.74161289210E+03  0.75775154878E+03  0.25500000920E-02 0. -1.
       -2    1    3    3    0  502 -0.14531405016E+03  0.55511753414E+02 -0.10260135916E+03  0.18634582595E+03  0.25500000920E-02 0.  1.
</event>
<event>
 5   0  0.6246998E-03  0.6995479E+03  0.7818609E-02  0.9718006E-01
       -1   -1    0    0    0  501  0.00000000000E+00  0.00000000000E+00  0.10510310230E+03  0.10510310242E+03  0.50400001928E-02 0. -1.
        1   -1    0    0  501    0  0.00000000000E+00  0.00000000000E+00 -0.11640173090E+04  0.11640173090E+04  0.50400001928E-02 0.  1.
    10030    2    1    2    0    0  0.00000000000E+00  0.00000000000E+00 -0.10589142067E+04  0.12691204114E+04  0.69954794085E+03 0.  0.
        4    1    3    3  502    0  0.65230468977E+02  0.32584176007E+03 -0.33144848952E+03  0.46934803802E+03  0.12699999809E+01 0. -1.
       -4    1    3    3    0  502 -0.65230468977E+02 -0.32584176007E+03 -0.72746571715E+03  0.79977237338E+03  0.12699999809E+01 0.  1.
</event>
<event>
 5   0  0.6785252E-03  0.6950808E+03  0.7818609E-02  0.9725682E-01
        1   -1    0    0  501    0  0.00000000000E+00  0.00000000000E+00  0.11594005267E+04  0.11594005267E+04  0.50400001928E-02 0. -1.
       -1   -1    0    0    0  501  0.00000000000E+00  0.00000000000E+00 -0.10417826768E+03  0.10417826780E+03  0.50400001928E-02 0.  1.
    10030    2    1    2    0    0  0.00000000000E+00  0.00000000000E+00  0.10552222590E+04  0.12635787945E+04  0.69508082551E+03 0.  0.
        3    1    3    3  502    0  0.10704490495E+03 -0.66490080888E+02  0.11164068859E+04  0.11234962784E+04  0.10100000352E+00 0. -1.
       -3    1    3    3    0  502 -0.10704490495E+03  0.66490080888E+02 -0.61184626919E+02  0.14008251606E+03  0.10100000352E+00 0.  1.
</event>
<event>
 5   0  0.1079446E-02  0.6964275E+03  0.7818609E-02  0.9723361E-01
       -2   -1    0    0    0  501  0.00000000000E+00  0.00000000000E+00  0.12750163546E+03  0.12750163549E+03  0.25500000920E-02 0. -1.
        2   -1    0    0  501    0  0.00000000000E+00  0.00000000000E+00 -0.95099025382E+03  0.95099025383E+03  0.25500000920E-02 0.  1.
    10030    2    1    2    0    0  0.00000000000E+00  0.00000000000E+00 -0.82348861836E+03  0.10784918893E+04  0.69642749137E+03 0.  0.
        2    1    3    3  502    0  0.89834133957E+02 -0.25684955934E+03 -0.74822668618E+03  0.79616897809E+03  0.25500000920E-02 0.  1.
       -2    1    3    3    0  502 -0.89834133957E+02  0.25684955934E+03 -0.75261932180E+02  0.28232291122E+03  0.25500000920E-02 0. -1.
</event>
<event>
 5   0  0.6990118E-03  0.7070579E+03  0.7818609E-02  0.9705238E-01
       -1   -1    0    0    0  501  0.00000000000E+00  0.00000000000E+00  0.11040996741E+04  0.11040996741E+04  0.50400001928E-02 0.  1.
        1   -1    0    0  501    0  0.00000000000E+00  0.00000000000E+00 -0.11319875902E+03  0.11319875914E+03  0.50400001928E-02 0. -1.
    10030    2    1    2    0    0  0.00000000000E+00  0.00000000000E+00  0.99090091507E+03  0.12172984332E+04  0.70705788454E+03 0.  0.
        5    1    3    3  502    0 -0.74962383633E+02 -0.92229242335E+02  0.10686167170E+04  0.10752159643E+04  0.46999998093E+01 0.  1.
       -5    1    3    3    0  502  0.74962383633E+02  0.92229242335E+02 -0.77715801936E+02  0.14208246891E+03  0.46999998093E+01 0. -1.
</event>
<event>
 5   0  0.1109788E-02  0.6995488E+03  0.7818609E-02  0.9718004E-01
        2   -1    0    0  501    0  0.00000000000E+00  0.00000000000E+00  0.44164021614E+03  0.44164021615E+03  0.25500000920E-02 0. -1.
       -2   -1    0    0    0  501  0.00000000000E+00  0.00000000000E+00 -0.27701767560E+03  0.27701767561E+03  0.25500000920E-02 0.  1.
    10030    2    1    2    0    0  0.00000000000E+00  0.00000000000E+00  0.16462254054E+03  0.71865789176E+03  0.69954884357E+03 0.  0.
        1    1    3    3  502    0 -0.32157149280E+01  0.32324560741E+03  0.21954196697E+03  0.39076430085E+03  0.50400001928E-02 0. -1.
       -1    1    3    3    0  502  0.32157149280E+01 -0.32324560741E+03 -0.54919426426E+02  0.32789359091E+03  0.50400001928E-02 0.  1.
</event>
<event>
 5   0  0.6785252E-03  0.7018753E+03  0.7818609E-02  0.9714031E-01
       -1   -1    0    0    0  501  0.00000000000E+00  0.00000000000E+00  0.64721223660E+02  0.64721223857E+02  0.50400001928E-02 0. -1.
        1   -1    0    0  501    0  0.00000000000E+00  0.00000000000E+00 -0.19028877143E+04  0.19028877143E+04  0.50400001928E-02 0.  1.
    10030    2    1    2    0    0  0.00000000000E+00  0.00000000000E+00 -0.18381664906E+04  0.19676089382E+04  0.70187526401E+03 0.  0.
        3    1    3    3  502    0 -0.18040627993E+02  0.72327082942E+02  0.42271131896E+02  0.85694398755E+02  0.10100000352E+00 0. -1.
       -3    1    3    3    0  502  0.18040627993E+02 -0.72327082942E+02 -0.18804376225E+04  0.18819145394E+04  0.10100000352E+00 0.  1.
</event>
<event>
 5   0  0.1109788E-02  0.7089331E+03  0.7818609E-02  0.9702076E-01
       -2   -1    0    0    0  501  0.00000000000E+00  0.00000000000E+00  0.80520831221E+02  0.80520831261E+02  0.25500000920E-02 0. -1.
        2   -1    0    0  501    0  0.00000000000E+00  0.00000000000E+00 -0.15604229026E+04  0.15604229026E+04  0.25500000920E-02 0.  1.
    10030    2    1    2    0    0  0.00000000000E+00  0.00000000000E+00 -0.14799020714E+04  0.16409437339E+04  0.70893313989E+03 0.  0.
        1    1    3    3  502    0  0.25304688890E+02  0.24364488415E+02 -0.15563840975E+04  0.15567804645E+04  0.50400001928E-02 0.  1.
       -1    1    3    3    0  502 -0.25304688890E+02 -0.24364488415E+02  0.76482026104E+02  0.84163269411E+02  0.50400001928E-02 0. -1.
</event>
<event>
 5   0  0.6689415E-03  0.7102678E+03  0.7818609E-02  0.9699832E-01
       -1   -1    0    0    0  501  0.00000000000E+00  0.00000000000E+00  0.18893428509E+04  0.18893428509E+04  0.50400001928E-02 0.  1.
        1   -1    0    0  501    0  0.00000000000E+00  0.00000000000E+00 -0.66753423050E+02  0.66753423240E+02  0.50400001928E-02 0. -1.
    10030    2    1    2    0    0  0.00000000000E+00  0.00000000000E+00  0.18225894279E+04  0.19560962742E+04  0.71026784471E+03 0.  0.
        1    1    3    3  502    0  0.35019340514E+03  0.39433574279E+02  0.10322737603E+04  0.10907701610E+04  0.50400001928E-02 0. -1.
       -1    1    3    3    0  502 -0.35019340514E+03 -0.39433574279E+02  0.79031566757E+03  0.86532611322E+03  0.50400001928E-02 0.  1.
</event>
<event>
 5   0  0.1099980E-02  0.7007280E+03  0.7818609E-02  0.9715988E-01
       -2   -1    0    0    0  501  0.00000000000E+00  0.00000000000E+00  0.10171879333E+03  0.10171879336E+03  0.25500000920E-02 0. -1.
        2   -1    0    0  501    0  0.00000000000E+00  0.00000000000E+00 -0.12068069752E+04  0.12068069752E+04  0.25500000920E-02 0.  1.
    10030    2    1    2    0    0  0.00000000000E+00  0.00000000000E+00 -0.11050881818E+04  0.13085257685E+04  0.70072804802E+03 0.  0.
        5    1    3    3  502    0  0.14526613973E+03  0.31770927378E+03 -0.60164679614E+03  0.69573155118E+03  0.46999998093E+01 0. -1.
       -5    1    3    3    0  502 -0.14526613973E+03 -0.31770927378E+03 -0.50344138570E+03  0.61279421736E+03  0.46999998093E+01 0.  1.
</event>
<event>
 5   0  0.6609285E-03  0.6968348E+03  0.7818609E-02  0.9722661E-01
       -1   -1    0    0    0  501  0.00000000000E+00  0.00000000000E+00  0.17253808823E+03  0.17253808831E+03  0.50400001928E-02 0. -1.
        1   -1    0    0  501    0  0.00000000000E+00  0.00000000000E+00 -0.70358189895E+03  0.70358189897E+03  0.50400001928E-02 0.  1.
    10030    2    1    2    0    0  0.00000000000E+00  0.00000000000E+00 -0.53104381072E+03  0.87611998728E+03  0.69683477468E+03 0.  0.
        2    1    3    3  502    0 -0.79671239760E+02  0.13628626891E+03 -0.65603640612E+03  0.67476308413E+03  0.25500000920E-02 0.  1.
       -2    1    3    3    0  502  0.79671239760E+02 -0.13628626891E+03  0.12499259540E+03  0.20135690315E+03  0.25500000920E-02 0. -1.
</event>
<event>
 5   0  0.1119786E-02  0.7001966E+03  0.7818609E-02  0.9716896E-01
        2   -1    0    0  501    0  0.00000000000E+00  0.00000000000E+00  0.51107486577E+03  0.51107486577E+03  0.25500000920E-02 0. -1.
       -2   -1    0    0    0  501  0.00000000000E+00  0.00000000000E+00 -0.23982556660E+03  0.23982556661E+03  0.25500000920E-02 0.  1.
    10030    2    1    2    0    0  0.00000000000E+00  0.00000000000E+00  0.27124929917E+03  0.75090043239E+03  0.70019659886E+03 0.  0.
        3    1    3    3  502    0  0.18068170969E+02  0.26661488401E+03  0.37818664727E+03  0.46307138278E+03  0.10100000352E+00 0. -1.
       -3    1    3    3    0  502 -0.18068170969E+02 -0.26661488401E+03 -0.10693734810E+03  0.28782904960E+03  0.10100000352E+00 0.  1.
</event>
<event>
 5   0  0.1079446E-02  0.6996535E+03  0.7818609E-02  0.9717825E-01
       -2   -1    0    0    0  501  0.00000000000E+00  0.00000000000E+00  0.15249197212E+03  0.15249197214E+03  0.25500000920E-02 0.  1.
        2   -1    0    0  501    0  0.00000000000E+00  0.00000000000E+00 -0.80252584960E+03  0.80252584961E+03  0.25500000920E-02 0. -1.
    10030    2    1    2    0    0  0.00000000000E+00  0.00000000000E+00 -0.65003387749E+03  0.95501782175E+03  0.69965348422E+03 0.  0.
        2    1    3    3  502    0 -0.74330511503E+02  0.41325216248E+02  0.13816627369E+03  0.16224277373E+03  0.25500000920E-02 0.  1.
       -2    1    3    3    0  502  0.74330511503E+02 -0.41325216248E+02 -0.78820015117E+03  0.79277504801E+03  0.25500000920E-02 0. -1.
</event>
<event>
 5   0  0.4440500E-03  0.7024891E+03  0.7818609E-02  0.9712985E-01
       -4   -1    0    0    0  501  0.00000000000E+00  0.00000000000E+00  0.29256308861E+03  0.29256584510E+03  0.12699999809E+01 0.  1.
        4   -1    0    0  501    0  0.00000000000E+00  0.00000000000E+00 -0.42169046443E+03  0.42169237685E+03  0.12699999809E+01 0. -1.
    10030    2    1    2    0    0  0.00000000000E+00  0.00000000000E+00 -0.12912737582E+03  0.71425822195E+03  0.70248909489E+03 0.  0.
        4    1    3    3  502    0  0.25216310632E+03 -0.19829122251E+03  0.80890626894E+02  0.33083311130E+03  0.12699999809E+01 0.  1.
       -4    1    3    3    0  502 -0.25216310632E+03  0.19829122251E+03 -0.21001800271E+03  0.38342511065E+03  0.12699999809E+01 0. -1.
</event>
<event>
 5   0  0.1099980E-02  0.6976862E+03  0.7818609E-02  0.9721197E-01
        2   -1    0    0  501    0  0.00000000000E+00  0.00000000000E+00  0.15130883804E+04  0.15130883804E+04  0.25500000920E-02 0.  1.
       -2   -1    0    0    0  501  0.00000000000E+00  0.00000000000E+00 -0.80425908458E+02  0.80425908498E+02  0.25500000920E-02 0. -1.
    10030    2    1    2    0    0  0.00000000000E+00  0.00000000000E+00  0.14326624720E+04  0.15935142889E+04  0.69768619768E+03 0.  0.
        5    1    3    3  502    0 -0.19200852348E+03 -0.64454349492E+02  0.67708686632E+02  0.21360756659E+03  0.46999998093E+01 0. -1.
       -5    1    3    3    0  502  0.19200852348E+03  0.64454349492E+02  0.13649537853E+04  0.13799067223E+04  0.46999998093E+01 0.  1.
</event>
<event>
 5   0  0.1099980E-02  0.7005024E+03  0.7818609E-02  0.9716373E-01
        2   -1    0    0  501    0  0.00000000000E+00  0.00000000000E+00  0.10722944189E+04  0.10722944189E+04  0.25500000920E-02 0. -1.
       -2   -1    0    0    0  501  0.00000000000E+00  0.00000000000E+00 -0.11440504699E+03  0.11440504702E+03  0.25500000920E-02 0.  1.
    10030    2    1    2    0    0  0.00000000000E+00  0.00000000000E+00  0.95788937191E+03  0.11866994659E+04  0.70050237231E+03 0.  0.
        5    1    3    3  502    0 -0.17421044024E+03 -0.18015539893E+03  0.89338117181E+03  0.92787782245E+03  0.46999998093E+01 0. -1.
       -5    1    3    3    0  502  0.17421044024E+03  0.18015539893E+03  0.64508200095E+02  0.25882164347E+03  0.46999998093E+01 0.  1.
</event>
<event>
 5   0  0.1119786E-02  0.7014195E+03  0.7818609E-02  0.9714808E-01
        2   -1    0    0  501    0  0.00000000000E+00  0.00000000000E+00  0.93232363188E+03  0.93232363188E+03  0.25500000920E-02 0.  1.
       -2   -1    0    0    0  501  0.00000000000E+00  0.00000000000E+00 -0.13192555876E+03  0.13192555879E+03  0.25500000920E-02 0. -1.
    10030    2    1    2    0    0  0.00000000000E+00  0.00000000000E+00  0.80039807312E+03  0.10642491907E+04  0.70141946394E+03 0.  0.
        3    1    3    3  502    0 -0.34025101610E+03  0.50375623293E+02  0.29630308703E+03  0.45398676959E+03  0.10100000352E+00 0. -1.
       -3    1    3    3    0  502  0.34025101610E+03 -0.50375623293E+02  0.50409498609E+03  0.61026242108E+03  0.10100000352E+00 0.  1.
</event>
<event>
 5   0  0.1109788E-02  0.7013077E+03  0.7818609E-02  0.9714998E-01
       -2   -1    0    0    0  501  0.00000000000E+00  0.00000000000E+00  0.12585197383E+03  0.12585197386E+03  0.25500000920E-02 0. -1.
        2   -1    0    0  501    0  0.00000000000E+00  0.00000000000E+00 -0.97700604494E+03  0.97700604494E+03  0.25500000920E-02 0.  1.
    10030    2    1    2    0    0  0.00000000000E+00  0.00000000000E+00 -0.85115407111E+03  0.11028580188E+04  0.70130774762E+03 0.  0.
        1    1    3    3  502    0  0.13991282000E+03 -0.23968373980E+03 -0.76261534566E+03  0.81154547487E+03  0.50400001928E-02 0.  1.
       -1    1    3    3    0  502 -0.13991282000E+03  0.23968373980E+03 -0.88538725450E+02  0.29131254393E+03  0.50400001928E-02 0. -1.
</event>
<event>
 5   0  0.6990118E-03  0.6997086E+03  0.7818609E-02  0.9717731E-01
        1   -1    0    0  501    0  0.00000000000E+00  0.00000000000E+00  0.86576240855E+03  0.86576240857E+03  0.50400001928E-02 0. -1.
       -1   -1    0    0    0  501  0.00000000000E+00  0.00000000000E+00 -0.14137600988E+03  0.14137600997E+03  0.50400001928E-02 0.  1.
    10030    2    1    2    0    0  0.00000000000E+00  0.00000000000E+00  0.72438639867E+03  0.10071384185E+04  0.69970861043E+03 0.  0.
        5    1    3    3  502    0 -0.30083193737E+03 -0.16147208081E+03  0.25254717326E+03  0.42470607735E+03  0.46999998093E+01 0.  1.
       -5    1    3    3    0  502  0.30083193737E+03  0.16147208081E+03  0.47183922541E+03  0.58243234118E+03  0.46999998093E+01 0. -1.
</event>
<event>
 5   0  0.6689415E-03  0.6983829E+03  0.7818609E-02  0.9720002E-01
        1   -1    0    0  501    0  0.00000000000E+00  0.00000000000E+00  0.40886622641E+03  0.40886622644E+03  0.50400001928E-02 0. -1.
       -1   -1    0    0    0  501  0.00000000000E+00  0.00000000000E+00 -0.29822635401E+03  0.29822635405E+03  0.50400001928E-02 0.  1.
    10030    2    1    2    0    0  0.00000000000E+00  0.00000000000E+00  0.11063987240E+03  0.70709258049E+03  0.69838294368E+03 0.  0.
        1    1    3    3  502    0  0.23422854547E+03  0.19424740087E+03  0.22874421465E+03  0.38068225598E+03  0.50400001928E-02 0. -1.
       -1    1    3    3    0  502 -0.23422854547E+03 -0.19424740087E+03 -0.11810434225E+03  0.32641032450E+03  0.50400001928E-02 0.  1.
</event>
<event>
 5   0  0.4440500E-03  0.7045975E+03  0.7818609E-02  0.9709402E-01
        3   -1    0    0  501    0  0.00000000000E+00  0.00000000000E+00  0.45805758601E+03  0.45805759715E+03  0.10100000352E+00 0.  1.
       -3   -1    0    0    0  501  0.00000000000E+00  0.00000000000E+00 -0.27095806379E+03  0.27095808262E+03  0.10100000352E+00 0. -1.
    10030    2    1    2    0    0  0.00000000000E+00  0.00000000000E+00  0.18709952222E+03  0.72901567976E+03  0.70459749512E+03 0.  0.
        2    1    3    3  502    0  0.16663556190E+03 -0.30081655700E+03  0.14370582036E+02  0.34418675902E+03  0.25500000920E-02 0. -1.
       -2    1    3    3    0  502 -0.16663556190E+03  0.30081655700E+03  0.17272894018E+03  0.38482892074E+03  0.25500000920E-02 0.  1.
</event>
<event>
 5   0  0.1079446E-02  0.7016357E+03  0.7818609E-02  0.9714439E-01
       -2   -1    0    0    0  501  0.00000000000E+00  0.00000000000E+00  0.11664650802E+03  0.11664650805E+03  0.25500000920E-02 0. -1.
        2   -1    0    0  501    0  0.00000000000E+00  0.00000000000E+00 -0.10550951700E+04  0.10550951700E+04  0.25500000920E-02 0.  1.
    10030    2    1    2    0    0  0.00000000000E+00  0.00000000000E+00 -0.93844866201E+03  0.11717416781E+04  0.70163570957E+03 0.  0.
        2    1    3    3  502    0 -0.34570610166E+03  0.29116035006E+02 -0.38224375510E+03  0.51620803998E+03  0.25500000920E-02 0. -1.
       -2    1    3    3    0  502  0.34570610166E+03 -0.29116035006E+02 -0.55620490691E+03  0.65553363811E+03  0.25500000920E-02 0.  1.
</event>
<event>
 5   0  0.4440500E-03  0.7003003E+03  0.7818609E-02  0.9716719E-01
        4   -1    0    0  501    0  0.00000000000E+00  0.00000000000E+00  0.50317312096E+03  0.50317472368E+03  0.12699999809E+01 0.  1.
       -4   -1    0    0    0  501  0.00000000000E+00  0.00000000000E+00 -0.24366023070E+03  0.24366354040E+03  0.12699999809E+01 0. -1.
    10030    2    1    2    0    0  0.00000000000E+00  0.00000000000E+00  0.25951289026E+03  0.74683826409E+03  0.70030025881E+03 0.  0.
        5    1    3    3  502    0 -0.12885488563E+03  0.32267233647E+03  0.83737921866E+02  0.35742852129E+03  0.46999998093E+01 0.  1.
       -5    1    3    3    0  502  0.12885488563E+03 -0.32267233647E+03  0.17577496840E+03  0.38940974280E+03  0.46999998093E+01 0. -1.
</event>
<event>
 5   0  0.1109788E-02  0.7191944E+03  0.7818609E-02  0.9684959E-01
        2   -1    0    0  501    0  0.00000000000E+00  0.00000000000E+00  0.73877402582E+03  0.73877402582E+03  0.25500000920E-02 0.  1.
       -2   -1    0    0    0  501  0.00000000000E+00  0.00000000000E+00 -0.17503344581E+03  0.17503344583E+03  0.25500000920E-02 0. -1.
    10030    2    1    2    0    0  0.00000000000E+00  0.00000000000E+00  0.56374058001E+03  0.91380747166E+03  0.71919444777E+03 0.  0.
        1    1    3    3  502    0 -0.58199754267E+02 -0.17726990913E+03  0.67245968601E+03  0.69786378428E+03  0.50400001928E-02 0.  1.
       -1    1    3    3    0  502  0.58199754267E+02  0.17726990913E+03 -0.10871910600E+03  0.21594368737E+03  0.50400001928E-02 0. -1.
</event>
<event>
 5   0  0.1099980E-02  0.6969806E+03  0.7818609E-02  0.9722410E-01
        2   -1    0    0  501    0  0.00000000000E+00  0.00000000000E+00  0.13128681226E+04  0.13128681226E+04  0.25500000920E-02 0.  1.
       -2   -1    0    0    0  501  0.00000000000E+00  0.00000000000E+00 -0.92503948674E+02  0.92503948709E+02  0.25500000920E-02 0. -1.
    10030    2    1    2    0    0  0.00000000000E+00  0.00000000000E+00  0.12203641740E+04  0.14053720713E+04  0.69698058928E+03 0.  0.
        5    1    3    3  502    0 -0.20332721780E+03  0.28271748520E+03  0.63506296601E+03  0.72429151226E+03  0.46999998093E+01 0.  1.
       -5    1    3    3    0  502  0.20332721780E+03 -0.28271748520E+03  0.58530120795E+03  0.68108055908E+03  0.46999998093E+01 0. -1.
</event>
<event>
 5   0  0.4440500E-03  0.6994866E+03  0.7818609E-02  0.9718111E-01
        3   -1    0    0  501    0  0.00000000000E+00  0.00000000000E+00  0.59391637549E+03  0.59391638408E+03  0.10100000352E+00 0.  1.
       -3   -1    0    0    0  501  0.00000000000E+00  0.00000000000E+00 -0.20595554253E+03  0.20595556729E+03  0.10100000352E+00 0. -1.
    10030    2    1    2    0    0  0.00000000000E+00  0.00000000000E+00  0.38796083296E+03  0.79987195137E+03  0.69948661937E+03 0.  0.
        2    1    3    3  502    0 -0.20887601627E+03  0.26825836596E+03  0.10018000268E+03  0.35444008524E+03  0.25500000920E-02 0. -1.
       -2    1    3    3    0  502  0.20887601627E+03 -0.26825836596E+03  0.28778083028E+03  0.44543186613E+03  0.25500000920E-02 0.  1.
</event>
<event>
 5   0  0.6785252E-03  0.6977116E+03  0.7818609E-02  0.9721154E-01
       -1   -1    0    0    0  501  0.00000000000E+00  0.00000000000E+00  0.18649326377E+03  0.18649326384E+03  0.50400001928E-02 0.  1.
        1   -1    0    0  501    0  0.00000000000E+00  0.00000000000E+00 -0.65257244226E+03  0.65257244228E+03  0.50400001928E-02 0. -1.
    10030    2    1    2    0    0  0.00000000000E+00  0.00000000000E+00 -0.46607917849E+03  0.83906570612E+03  0.69771158696E+03 0.  0.
        3    1    3    3  502    0  0.10732070801E+03 -0.18121614022E+01  0.16614164022E+03  0.19779806145E+03  0.10100000352E+00 0.  1.
       -3    1    3    3    0  502 -0.10732070801E+03  0.18121614022E+01 -0.63222081871E+03  0.64126764467E+03  0.10100000352E+00 0. -1.
</event>
<event>
 5   0  0.6990118E-03  0.6982548E+03  0.7818609E-02  0.9720221E-01
        1   -1    0    0  501    0  0.00000000000E+00  0.00000000000E+00  0.28513385792E+03  0.28513385797E+03  0.50400001928E-02 0.  1.
       -1   -1    0    0    0  501  0.00000000000E+00  0.00000000000E+00 -0.42748323064E+03  0.42748323067E+03  0.50400001928E-02 0. -1.
    10030    2    1    2    0    0  0.00000000000E+00  0.00000000000E+00 -0.14234937271E+03  0.71261708863E+03  0.69825480385E+03 0.  0.
        5    1    3    3  502    0 -0.59280141753E+02 -0.31572628954E+03 -0.21062572696E+03  0.38416469381E+03  0.46999998093E+01 0. -1.
       -5    1    3    3    0  502  0.59280141753E+02  0.31572628954E+03  0.68276354246E+02  0.32845239482E+03  0.46999998093E+01 0.  1.
</event>
<event>
 5   0  0.1109788E-02  0.6982613E+03  0.7818609E-02  0.9720210E-01
       -2   -1    0    0    0  501  0.00000000000E+00  0.00000000000E+00  0.12814694449E+04  0.12814694449E+04  0.25500000920E-02 0.  1.
        2   -1    0    0  501    0  0.00000000000E+00  0.00000000000E+00 -0.95119096350E+02  0.95119096385E+02  0.25500000920E-02 0. -1.
    10030    2    1    2    0    0  0.00000000000E+00  0.00000000000E+00  0.11863503485E+04  0.13765885412E+04  0.69826131390E+03 0.  0.
        1    1    3    3  502    0 -0.30366382011E+01  0.19472348774E+03  0.11644397243E+04  0.11806126924E+04  0.50400001928E-02 0.  1.
       -1    1    3    3    0  502  0.30366382011E+01 -0.19472348774E+03  0.21910624168E+02  0.19597584883E+03  0.50400001928E-02 0. -1.
</event>
<event>
 5   0  0.1100119E-02  0.7006972E+03  0.7818609E-02  0.9716041E-01
        2   -1    0    0  501    0  0.00000000000E+00  0.00000000000E+00  0.11469954539E+04  0.11469954539E+04  0.25500000920E-02 0. -1.
       -2   -1    0    0    0  501  0.00000000000E+00  0.00000000000E+00 -0.10701361659E+03  0.10701361662E+03  0.25500000920E-02 0.  1.
    10030    2    1    2    0    0  0.00000000000E+00  0.00000000000E+00  0.10399818373E+04  0.12540090705E+04  0.70069717212E+03 0.  0.
        4    1    3    3  502    0 -0.37880745931E+02 -0.40383784582E+02  0.11391113670E+04  0.11404569788E+04  0.12699999809E+01 0. -1.
       -4    1    3    3    0  502  0.37880745931E+02  0.40383784582E+02 -0.99129529759E+02  0.11355209174E+03  0.12699999809E+01 0.  1.
</event>
<event>
 5   0  0.4440500E-03  0.7127156E+03  0.7818609E-02  0.9695731E-01
        4   -1    0    0  501    0  0.00000000000E+00  0.00000000000E+00  0.65956340792E+03  0.65956463062E+03  0.12699999809E+01 0.  1.
       -4   -1    0    0    0  501  0.00000000000E+00  0.00000000000E+00 -0.19253430246E+03  0.19253849102E+03  0.12699999809E+01 0. -1.
    10030    2    1    2    0    0  0.00000000000E+00  0.00000000000E+00  0.46702910547E+03  0.85210312164E+03  0.71271561268E+03 0.  0.
        2    1    3    3  502    0 -0.15530216052E+03 -0.30685037938E+03  0.12190308338E+03  0.36487844295E+03  0.25500000920E-02 0. -1.
       -2    1    3    3    0  502  0.15530216052E+03  0.30685037938E+03  0.34512602209E+03  0.48722467869E+03  0.25500000920E-02 0.  1.
</event>
<event>
 5   0  0.6609285E-03  0.6992457E+03  0.7818609E-02  0.9718523E-01
        1   -1    0    0  501    0  0.00000000000E+00  0.00000000000E+00  0.61035738082E+03  0.61035738084E+03  0.50400001928E-02 0.  1.
       -1   -1    0    0    0  501  0.00000000000E+00  0.00000000000E+00 -0.20026980282E+03  0.20026980288E+03  0.50400001928E-02 0. -1.
    10030    2    1    2    0    0  0.00000000000E+00  0.00000000000E+00  0.41008757801E+03  0.81062718372E+03  0.69924574318E+03 0.  0.
        2    1    3    3  502    0  0.26280710565E+03 -0.18690907655E+03  0.48503099661E+02  0.32612133994E+03  0.25500000920E-02 0. -1.
       -2    1    3    3    0  502 -0.26280710565E+03  0.18690907655E+03  0.36158447834E+03  0.48450584379E+03  0.25500000920E-02 0.  1.
</event>
<event>
 5   0  0.1119786E-02  0.6996822E+03  0.7818609E-02  0.9717776E-01
       -2   -1    0    0    0  501  0.00000000000E+00  0.00000000000E+00  0.14697112501E+03  0.14697112503E+03  0.25500000920E-02 0.  1.
        2   -1    0    0  501    0  0.00000000000E+00  0.00000000000E+00 -0.83274036404E+03  0.83274036404E+03  0.25500000920E-02 0. -1.
    10030    2    1    2    0    0  0.00000000000E+00  0.00000000000E+00 -0.68576923903E+03  0.97971148907E+03  0.69968217972E+03 0.  0.
        3    1    3    3  502    0 -0.64925891877E+01  0.33724118270E+03 -0.21291996577E+03  0.39888430785E+03  0.10100000352E+00 0.  1.
       -3    1    3    3    0  502  0.64925891877E+01 -0.33724118270E+03 -0.47284927326E+03  0.58082718122E+03  0.10100000352E+00 0. -1.
</event>
<event>
 5   0  0.6246998E-03  0.7005269E+03  0.7818609E-02  0.9716331E-01
        1   -1    0    0  501    0  0.00000000000E+00  0.00000000000E+00  0.60176980623E+03  0.60176980625E+03  0.50400001928E-02 0. -1.
       -1   -1    0    0    0  501  0.00000000000E+00  0.00000000000E+00 -0.20387281057E+03  0.20387281063E+03  0.50400001928E-02 0.  1.
    10030    2    1    2    0    0  0.00000000000E+00  0.00000000000E+00  0.39789699567E+03  0.80564261688E+03  0.70052694950E+03 0.  0.
        4    1    3    3  502    0 -0.33005500260E+03  0.11848856953E+02  0.64799995394E+02  0.33656701035E+03  0.12699999809E+01 0.  1.
       -4    1    3    3    0  502  0.33005500260E+03 -0.11848856953E+02  0.33309700027E+03  0.46907560653E+03  0.12699999809E+01 0. -1.
</event>
<event>
 5   0  0.1119786E-02  0.7007318E+03  0.7818609E-02  0.9715982E-01
        2   -1    0    0  501    0  0.00000000000E+00  0.00000000000E+00  0.55355423806E+03  0.55355423806E+03  0.25500000920E-02 0. -1.
       -2   -1    0    0    0  501  0.00000000000E+00  0.00000000000E+00 -0.22176011908E+03  0.22176011910E+03  0.25500000920E-02 0.  1.
    10030    2    1    2    0    0  0.00000000000E+00  0.00000000000E+00  0.33179411897E+03  0.77531435716E+03  0.70073177110E+03 0.  0.
        3    1    3    3  502    0 -0.12924705705E+03 -0.27426653318E+03 -0.28373917342E+02  0.30451933004E+03  0.10100000352E+00 0. -1.
       -3    1    3    3    0  502  0.12924705705E+03  0.27426653318E+03  0.36016803631E+03  0.47079502712E+03  0.10100000352E+00 0.  1.
</event>
<event>
 5   0  0.6609285E-03  0.7007200E+03  0.7818609E-02  0.9716002E-01
       -1   -1    0    0    0  501  0.00000000000E+00  0.00000000000E+00  0.14596351964E+03  0.14596351973E+03  0.50400001928E-02 0.  1.
        1   -1    0    0  501    0  0.00000000000E+00  0.00000000000E+00 -0.84097818113E+03  0.84097818114E+03  0.50400001928E-02 0. -1.
    10030    2    1    2    0    0  0.00000000000E+00  0.00000000000E+00 -0.69501466149E+03  0.98694170087E+03  0.70072001629E+03 0.  0.
        2    1    3    3  502    0 -0.81813299546E+02 -0.31867188139E+03 -0.51714998272E+03  0.61293497909E+03  0.25500000920E-02 0. -1.
       -2    1    3    3    0  502  0.81813299546E+02  0.31867188139E+03 -0.17786467877E+03  0.37400672177E+03  0.25500000920E-02 0.  1.
</event>
<event>
 5   0  0.1109788E-02  0.7044652E+03  0.7818609E-02  0.9709626E-01
       -2   -1    0    0    0  501  0.00000000000E+00  0.00000000000E+00  0.74984722803E+02  0.74984722846E+02  0.25500000920E-02 0.  1.
        2   -1    0    0  501    0  0.00000000000E+00  0.00000000000E+00 -0.16545743754E+04  0.16545743754E+04  0.25500000920E-02 0. -1.
    10030    2    1    2    0    0  0.00000000000E+00  0.00000000000E+00 -0.15795896526E+04  0.17295590982E+04  0.70446518987E+03 0.  0.
        1    1    3    3  502    0 -0.26081149740E+03  0.15783098180E+03 -0.12230034860E+04  0.12604248421E+04  0.50400001928E-02 0.  1.
       -1    1    3    3    0  502  0.26081149740E+03 -0.15783098180E+03 -0.35658616663E+03  0.46913425610E+03  0.50400001928E-02 0. -1.
</event>
<event>
 5   0  0.1079446E-02  0.7005567E+03  0.7818609E-02  0.9716281E-01
        2   -1    0    0  501    0  0.00000000000E+00  0.00000000000E+00  0.51046762094E+03  0.51046762095E+03  0.25500000920E-02 0.  1.
       -2   -1    0    0    0  501  0.00000000000E+00  0.00000000000E+00 -0.24035789485E+03  0.24035789487E+03  0.25500000920E-02 0. -1.
    10030    2    1    2    0    0  0.00000000000E+00  0.00000000000E+00  0.27010972609E+03  0.75082551582E+03  0.70055670083E+03 0.  0.
        2    1    3    3  502    0  0.54441562251E+02 -0.12180451508E+03  0.48216916062E+03  0.50028724055E+03  0.25500000920E-02 0.  1.
       -2    1    3    3    0  502 -0.54441562251E+02  0.12180451508E+03 -0.21205943453E+03  0.25053827527E+03  0.25500000920E-02 0. -1.
</event>
<event>
 5   0  0.6990118E-03  0.6998301E+03  0.7818609E-02  0.9717523E-01
        1   -1    0    0  501    0  0.00000000000E+00  0.00000000000E+00  0.59475888933E+03  0.59475888935E+03  0.50400001928E-02 0.  1.
       -1   -1    0    0    0  501  0.00000000000E+00  0.00000000000E+00 -0.20586585204E+03  0.20586585210E+03  0.50400001928E-02 0. -1.
    10030    2    1    2    0    0  0.00000000000E+00  0.00000000000E+00  0.38889303729E+03  0.80062474145E+03  0.69983010950E+03 0.  0.
        5    1    3    3  502    0 -0.13618443280E+03  0.25348720036E+03  0.42215248400E+03  0.51091757675E+03  0.46999998093E+01 0.  1.
       -5    1    3    3    0  502  0.13618443280E+03 -0.25348720036E+03 -0.33259446715E+02  0.28970716470E+03  0.46999998093E+01 0. -1.
</event>
<event>
 5   0  0.6246998E-03  0.7010012E+03  0.7818609E-02  0.9715521E-01
        1   -1    0    0  501    0  0.00000000000E+00  0.00000000000E+00  0.14974944343E+03  0.14974944351E+03  0.50400001928E-02 0.  1.
       -1   -1    0    0    0  501  0.00000000000E+00  0.00000000000E+00 -0.82037489880E+03  0.82037489882E+03  0.50400001928E-02 0. -1.
    10030    2    1    2    0    0  0.00000000000E+00  0.00000000000E+00 -0.67062545537E+03  0.97012434233E+03  0.70100123979E+03 0.  0.
        4    1    3    3  502    0  0.20855352688E+03 -0.21107614225E+03 -0.59348329289E+03  0.66352976063E+03  0.12699999809E+01 0. -1.
       -4    1    3    3    0  502 -0.20855352688E+03  0.21107614225E+03 -0.77142162483E+02  0.30659458170E+03  0.12699999809E+01 0.  1.
</event>
<event>
 5   0  0.6990118E-03  0.6995892E+03  0.7818609E-02  0.9717935E-01
       -1   -1    0    0    0  501  0.00000000000E+00  0.00000000000E+00  0.14423532941E+03  0.14423532950E+03  0.50400001928E-02 0. -1.
        1   -1    0    0  501    0  0.00000000000E+00  0.00000000000E+00 -0.84830998100E+03  0.84830998101E+03  0.50400001928E-02 0.  1.
    10030    2    1    2    0    0  0.00000000000E+00  0.00000000000E+00 -0.70407465159E+03  0.99254531051E+03  0.69958922120E+03 0.  0.
        5    1    3    3  502    0  0.13737733336E+03 -0.31895981579E+03 -0.29309010564E+03  0.45445769422E+03  0.46999998093E+01 0. -1.
       -5    1    3    3    0  502 -0.13737733336E+03  0.31895981579E+03 -0.41098454594E+03  0.53808761630E+03  0.46999998093E+01 0.  1.
</event>
<event>
 5   0  0.1100119E-02  0.6985816E+03  0.7818609E-02  0.9719661E-01
        2   -1    0    0  501    0  0.00000000000E+00  0.00000000000E+00  0.16295991541E+04  0.16295991541E+04  0.25500000920E-02 0. -1.
       -2   -1    0    0    0  501  0.00000000000E+00  0.00000000000E+00 -0.74867525657E+02  0.74867525700E+02  0.25500000920E-02 0.  1.
    10030    2    1    2    0    0  0.00000000000E+00  0.00000000000E+00  0.15547316285E+04  0.17044666798E+04  0.69858158155E+03 0.  0.
        4    1    3    3  502    0  0.17061580734E+03  0.15425602606E+02  0.34679865844E+02  0.17479132967E+03  0.12699999809E+01 0.  1.
       -4    1    3    3    0  502 -0.17061580734E+03 -0.15425602606E+02  0.15200517626E+04  0.15296753502E+04  0.12699999809E+01 0. -1.
</event>
<event>
 5   0  0.1099980E-02  0.7006508E+03  0.7818609E-02  0.9716120E-01
        2   -1    0    0  501    0  0.00000000000E+00  0.00000000000E+00  0.26979581897E+03  0.26979581898E+03  0.25500000920E-02 0.  1.
       -2   -1    0    0    0  501  0.00000000000E+00  0.00000000000E+00 -0.45489174230E+03  0.45489174231E+03  0.25500000920E-02 0. -1.
    10030    2    1    2    0    0  0.00000000000E+00  0.00000000000E+00 -0.18509592333E+03  0.72468756129E+03  0.70065081222E+03 0.  0.
        5    1    3    3  502    0  0.33224068660E+03  0.56661392289E+02 -0.19127634887E+03  0.38756047121E+03  0.46999998093E+01 0.  1.
       -5    1    3    3    0  502 -0.33224068660E+03 -0.56661392289E+02  0.61804255423E+01  0.33712709008E+03  0.46999998093E+01 0. -1.
</event>
<event>
 5   0  0.6246998E-03  0.6960329E+03  0.7818609E-02  0.9724041E-01
        1   -1    0    0  501    0  0.00000000000E+00  0.00000000000E+00  0.10736534725E+04  0.10736534725E+04  0.50400001928E-02 0.  1.
       -1   -1    0    0    0  501  0.00000000000E+00  0.00000000000E+00 -0.11280684096E+03  0.11280684107E+03  0.50400001928E-02 0. -1.
    10030    2    1    2    0    0  0.00000000000E+00  0.00000000000E+00  0.96084663150E+03  0.11864603135E+04  0.69603292044E+03 0.  0.
        4    1    3    3  502    0  0.15216446942E+03  0.25972382317E+03  0.18271070617E+03  0.35212967089E+03  0.12699999809E+01 0. -1.
       -4    1    3    3    0  502 -0.15216446942E+03 -0.25972382317E+03  0.77813592533E+03  0.83433064265E+03  0.12699999809E+01 0.  1.
</event>
<event>
 5   0  0.1100119E-02  0.7008052E+03  0.7818609E-02  0.9715856E-01
       -2   -1    0    0    0  501  0.00000000000E+00  0.00000000000E+00  0.67181937862E+02  0.67181937910E+02  0.25500000920E-02 0. -1.
        2   -1    0    0  501    0  0.00000000000E+00  0.00000000000E+00 -0.18276040064E+04  0.18276040064E+04  0.25500000920E-02 0.  1.
    10030    2    1    2    0    0  0.00000000000E+00  0.00000000000E+00 -0.17604220686E+04  0.18947859443E+04  0.70080519074E+03 0.  0.
        4    1    3    3  502    0  0.25224380993E+03 -0.65125722869E+02 -0.15137841468E+04  0.15360378757E+04  0.12699999809E+01 0.  1.
       -4    1    3    3    0  502 -0.25224380993E+03  0.65125722869E+02 -0.24663792172E+03  0.35874806864E+03  0.12699999809E+01 0. -1.
</event>
<event>
 5   0  0.6990118E-03  0.7012799E+03  0.7818609E-02  0.9715046E-01
       -1   -1    0    0    0  501  0.00000000000E+00  0.00000000000E+00  0.72942954486E+03  0.72942954488E+03  0.50400001928E-02 0.  1.
        1   -1    0    0  501    0  0.00000000000E+00  0.00000000000E+00 -0.16855415578E+03  0.16855415586E+03  0.50400001928E-02 0. -1.
    10030    2    1    2    0    0  0.00000000000E+00  0.00000000000E+00  0.56087538908E+03  0.89798370074E+03  0.70127991894E+03 0.  0.
        5    1    3    3  502    0 -0.88861139678E+02  0.86825978265E+02 -0.13938275007E+03  0.18677444595E+03  0.46999998093E+01 0. -1.
       -5    1    3    3    0  502  0.88861139678E+02 -0.86825978265E+02  0.70025813915E+03  0.71120925478E+03  0.46999998093E+01 0.  1.
</event>
<event>
 5   0  0.6785252E-03  0.7013789E+03  0.7818609E-02  0.9714877E-01
        1   -1    0    0  501    0  0.00000000000E+00  0.00000000000E+00  0.82919168755E+03  0.82919168757E+03  0.50400001928E-02 0. -1.
       -1   -1    0    0    0  501  0.00000000000E+00  0.00000000000E+00 -0.14831684815E+03  0.14831684823E+03  0.50400001928E-02 0.  1.
    10030    2    1    2    0    0  0.00000000000E+00  0.00000000000E+00  0.68087483940E+03  0.97750853580E+03  0.70137892086E+03 0.  0.
        3    1    3    3  502    0  0.21058663171E+03  0.77453951211E+02  0.71605639724E+03  0.75038831163E+03  0.10100000352E+00 0. -1.
       -3    1    3    3    0  502 -0.21058663171E+03 -0.77453951211E+02 -0.35181557836E+02  0.22712022416E+03  0.10100000352E+00 0.  1.
</event>
<event>
 5   0  0.6609285E-03  0.7215043E+03  0.7818609E-02  0.9681148E-01
       -1   -1    0    0    0  501  0.00000000000E+00  0.00000000000E+00  0.39353582873E+03  0.39353582876E+03  0.50400001928E-02 0.  1.
        1   -1    0    0  501    0  0.00000000000E+00  0.00000000000E+00 -0.33069948938E+03  0.33069948942E+03  0.50400001928E-02 0. -1.
    10030    2    1    2    0    0  0.00000000000E+00  0.00000000000E+00  0.62836339347E+02  0.72423531818E+03  0.72150425539E+03 0.  0.
        2    1    3    3  502    0 -0.26032350932E+03  0.20632489876E+03  0.17267684059E+03  0.37437358967E+03  0.25500000920E-02 0.  1.
       -2    1    3    3    0  502  0.26032350932E+03 -0.20632489876E+03 -0.10984050125E+03  0.34986172851E+03  0.25500000920E-02 0. -1.
</event>
<event>
 5   0  0.6609285E-03  0.7165152E+03  0.7818609E-02  0.9689398E-01
        1   -1    0    0  501    0  0.00000000000E+00  0.00000000000E+00  0.87032549299E+03  0.87032549301E+03  0.50400001928E-02 0. -1.
       -1   -1    0    0    0  501  0.00000000000E+00  0.00000000000E+00 -0.14747186538E+03  0.14747186547E+03  0.50400001928E-02 0.  1.
    10030    2    1    2    0    0  0.00000000000E+00  0.00000000000E+00  0.72285362761E+03  0.10177973585E+04  0.71651524476E+03 0.  0.
        2    1    3    3  502    0 -0.15435399048E+02  0.29418692268E+02 -0.14527904784E+03  0.14902923453E+03  0.25500000920E-02 0.  1.
       -2    1    3    3    0  502  0.15435399048E+02 -0.29418692268E+02  0.86813267544E+03  0.86876812394E+03  0.25500000920E-02 0. -1.
</event>
<event>
 5   0  0.6689415E-03  0.7071847E+03  0.7818609E-02  0.9705024E-01
       -1   -1    0    0    0  501  0.00000000000E+00  0.00000000000E+00  0.86577948066E+02  0.86577948212E+02  0.50400001928E-02 0.  1.
        1   -1    0    0  501    0  0.00000000000E+00  0.00000000000E+00 -0.14441038165E+04  0.14441038165E+04  0.50400001928E-02 0. -1.
    10030    2    1    2    0    0  0.00000000000E+00  0.00000000000E+00 -0.13575258684E+04  0.15306817647E+04  0.70718468689E+03 0.  0.
        1    1    3    3  502    0 -0.35281869999E+03 -0.70838466828E+01 -0.72698402706E+03  0.80810704215E+03  0.50400001928E-02 0.  1.
       -1    1    3    3    0  502  0.35281869999E+03  0.70838466828E+01 -0.63054184136E+03  0.72257472255E+03  0.50400001928E-02 0. -1.
</event>
<event>
 5   0  0.6990118E-03  0.7010426E+03  0.7818609E-02  0.9715451E-01
        1   -1    0    0  501    0  0.00000000000E+00  0.00000000000E+00  0.12634962368E+04  0.12634962368E+04  0.50400001928E-02 0. -1.
       -1   -1    0    0    0  501  0.00000000000E+00  0.00000000000E+00 -0.97242225772E+02  0.97242225902E+02  0.50400001928E-02 0.  1.
    10030    2    1    2    0    0  0.00000000000E+00  0.00000000000E+00  0.11662540110E+04  0.13607384627E+04  0.70104261329E+03 0.  0.
        5    1    3    3  502    0  0.28983036740E+03  0.17939080814E+03  0.42471789516E+03  0.54460084868E+03  0.46999998093E+01 0.  1.
       -5    1    3    3    0  502 -0.28983036740E+03 -0.17939080814E+03  0.74153611583E+03  0.81613761400E+03  0.46999998093E+01 0. -1.
</event>
<event>
 5   0  0.6609285E-03  0.7000347E+03  0.7818609E-02  0.9717173E-01
       -1   -1    0    0    0  501  0.00000000000E+00  0.00000000000E+00  0.22927154020E+03  0.22927154026E+03  0.50400001928E-02 0. -1.
        1   -1    0    0  501    0  0.00000000000E+00  0.00000000000E+00 -0.53435396926E+03  0.53435396928E+03  0.50400001928E-02 0.  1.
    10030    2    1    2    0    0  0.00000000000E+00  0.00000000000E+00 -0.30508242905E+03  0.76362550954E+03  0.70003473507E+03 0.  0.
        2    1    3    3  502    0 -0.35744978278E+02  0.17293403359E+03 -0.48219909606E+03  0.51351713866E+03  0.25500000920E-02 0.  1.
       -2    1    3    3    0  502  0.35744978278E+02 -0.17293403359E+03  0.17711666701E+03  0.25010837088E+03  0.25500000920E-02 0. -1.
</event>
<event>
 5   0  0.1100119E-02  0.7115520E+03  0.7818609E-02  0.9697678E-01
        2   -1    0    0  501    0  0.00000000000E+00  0.00000000000E+00  0.27945751971E+03  0.27945751973E+03  0.25500000920E-02 0. -1.
       -2   -1    0    0    0  501  0.00000000000E+00  0.00000000000E+00 -0.45293665149E+03  0.45293665150E+03  0.25500000920E-02 0.  1.
    10030    2    1    2    0    0  0.00000000000E+00  0.00000000000E+00 -0.17347913178E+03  0.73239417123E+03  0.71155197483E+03 0.  0.
        4    1    3    3  502    0 -0.14843526808E+03  0.26643061572E+03  0.10181084180E+03  0.32153594233E+03  0.12699999809E+01 0. -1.
       -4    1    3    3    0  502  0.14843526808E+03 -0.26643061572E+03 -0.27528997358E+03  0.41085822890E+03  0.12699999809E+01 0.  1.
</event>
<event>
 5   0  0.1100119E-02  0.6978303E+03  0.7818609E-02  0.9720950E-01
        2   -1    0    0  501    0  0.00000000000E+00  0.00000000000E+00  0.10677899561E+04  0.10677899561E+04  0.25500000920E-02 0. -1.
       -2   -1    0    0    0  501  0.00000000000E+00  0.00000000000E+00 -0.11401286292E+03  0.11401286295E+03  0.25500000920E-02 0.  1.
    10030    2    1    2    0    0  0.00000000000E+00  0.00000000000E+00  0.95377709319E+03  0.11818028191E+04  0.69783032297E+03 0.  0.
        4    1    3    3  502    0 -0.30550783584E+03  0.77048263670E+02  0.22303443663E+03  0.38602777817E+03  0.12699999809E+01 0.  1.
       -4    1    3    3    0  502  0.30550783584E+03 -0.77048263670E+02  0.73074265656E+03  0.79577504089E+03  0.12699999809E+01 0. -1.
</event>
<event>
 5   0  0.1100119E-02  0.7152238E+03  0.7818609E-02  0.9691546E-01
       -2   -1    0    0    0  501  0.00000000000E+00  0.00000000000E+00  0.15228111960E+03  0.15228111962E+03  0.25500000920E-02 0. -1.
        2   -1    0    0  501    0  0.00000000000E+00  0.00000000000E+00 -0.83980383967E+03  0.83980383967E+03  0.25500000920E-02 0.  1.
    10030    2    1    2    0    0  0.00000000000E+00  0.00000000000E+00 -0.68752272007E+03  0.99208495930E+03  0.71522379425E+03 0.  0.
        4    1    3    3  502    0 -0.17710550466E+02  0.30605031308E+03 -0.59916886300E+03  0.67304189842E+03  0.12699999809E+01 0.  1.
       -4    1    3    3    0  502  0.17710550466E+02 -0.30605031308E+03 -0.88353857062E+02  0.31904306088E+03  0.12699999809E+01 0. -1.
</event>
<event>
 5   0  0.6246998E-03  0.6964323E+03  0.7818609E-02  0.9723353E-01
       -1   -1    0    0    0  501  0.00000000000E+00  0.00000000000E+00  0.13934278046E+03  0.13934278055E+03  0.50400001928E-02 0.  1.
        1   -1    0    0  501    0  0.00000000000E+00  0.00000000000E+00 -0.87018853103E+03  0.87018853104E+03  0.50400001928E-02 0. -1.
    10030    2    1    2    0    0  0.00000000000E+00  0.00000000000E+00 -0.73084575056E+03  0.10095313116E+04  0.69643230682E+03 0.  0.
        4    1    3    3  502    0  0.13983553639E+03  0.17666922283E+03  0.19430272894E+02  0.22615291273E+03  0.12699999809E+01 0.  1.
       -4    1    3    3    0  502 -0.13983553639E+03 -0.17666922283E+03 -0.75027602346E+03  0.78337839887E+03  0.12699999809E+01 0. -1.
</event>
<event>
 5   0  0.6246998E-03  0.7137393E+03  0.7818609E-02  0.9694020E-01
       -1   -1    0    0    0  501  0.00000000000E+00  0.00000000000E+00  0.41075586349E+03  0.41075586352E+03  0.50400001928E-02 0. -1.
        1   -1    0    0  501    0  0.00000000000E+00  0.00000000000E+00 -0.31005263201E+03  0.31005263205E+03  0.50400001928E-02 0.  1.
    10030    2    1    2    0    0  0.00000000000E+00  0.00000000000E+00  0.10070323148E+03  0.72080849558E+03  0.71373927065E+03 0.  0.
        4    1    3    3  502    0 -0.30266595094E+03  0.10772580976E+03  0.20727009270E+03  0.38232712717E+03  0.12699999809E+01 0. -1.
       -4    1    3    3    0  502  0.30266595094E+03 -0.10772580976E+03 -0.10656686122E+03  0.33848136840E+03  0.12699999809E+01 0.  1.
</event>
<event>
 5   0  0.1099980E-02  0.6688046E+03  0.7818609E-02  0.9772120E-01
        2   -1    0    0  501    0  0.00000000000E+00  0.00000000000E+00  0.24415846341E+03  0.24415846342E+03  0.25500000920E-02 0.  1.
       -2   -1    0    0    0  501  0.00000000000E+00  0.00000000000E+00 -0.45800132864E+03  0.45800132865E+03  0.25500000920E-02 0. -1.
    10030    2    1    2    0    0  0.00000000000E+00  0.00000000000E+00 -0.21384286523E+03  0.70215979207E+03  0.66880460719E+03 0.  0.
        5    1    3    3  502    0  0.21140627771E+03 -0.16250062709E+03  0.10489218230E+03  0.28657202928E+03  0.46999998093E+01 0.  1.
       -5    1    3    3    0  502 -0.21140627771E+03  0.16250062709E+03 -0.31873504754E+03  0.41558776280E+03  0.46999998093E+01 0. -1.
</event>
<event>
 5   0  0.6990118E-03  0.6986490E+03  0.7818609E-02  0.9719545E-01
        1   -1    0    0  501    0  0.00000000000E+00  0.00000000000E+00  0.14963298275E+03  0.14963298283E+03  0.50400001928E-02 0. -1.
       -1   -1    0    0    0  501  0.00000000000E+00  0.00000000000E+00 -0.81551271195E+03  0.81551271196E+03  0.50400001928E-02 0.  1.
    10030    2    1    2    0    0  0.00000000000E+00  0.00000000000E+00 -0.66587972920E+03  0.96514569479E+03  0.69864898083E+03 0.  0.
        5    1    3    3  502    0  0.73782028407E+02  0.16141992217E+03 -0.74853545175E+03  0.76930331568E+03  0.46999998093E+01 0.  1.
       -5    1    3    3    0  502 -0.73782028407E+02 -0.16141992217E+03  0.82655722554E+02  0.19584237911E+03  0.46999998093E+01 0. -1.
</event>
<event>
 5   0  0.6990118E-03  0.7002137E+03  0.7818609E-02  0.9716867E-01
        1   -1    0    0  501    0  0.00000000000E+00  0.00000000000E+00  0.11401646479E+04  0.11401646479E+04  0.50400001928E-02 0.  1.
       -1   -1    0    0    0  501  0.00000000000E+00  0.00000000000E+00 -0.10750623279E+03  0.10750623291E+03  0.50400001928E-02 0. -1.
    10030    2    1    2    0    0  0.00000000000E+00  0.00000000000E+00  0.10326584151E+04  0.12476708808E+04  0.70021369920E+03 0.  0.
        5    1    3    3  502    0 -0.18698803579E+03  0.92190211924E+02  0.10174332486E+04  0.10385836827E+04  0.46999998093E+01 0.  1.
       -5    1    3    3    0  502  0.18698803579E+03 -0.92190211924E+02  0.15225166497E+02  0.20908719807E+03  0.46999998093E+01 0. -1.
</event>
<event>
 5   0  0.1079446E-02  0.6999388E+03  0.7818609E-02  0.9717337E-01
       -2   -1    0    0    0  501  0.00000000000E+00  0.00000000000E+00  0.77007416985E+02  0.77007417027E+02  0.25500000920E-02 0. -1.
        2   -1    0    0  501    0  0.00000000000E+00  0.00000000000E+00 -0.15904779149E+04  0.15904779149E+04  0.25500000920E-02 0.  1.
    10030    2    1    2    0    0  0.00000000000E+00  0.00000000000E+00 -0.15134704979E+04  0.16674853319E+04  0.69993884314E+03 0.  0.
        2    1    3    3  502    0 -0.15542902171E+03 -0.28387408169E+03 -0.43946540164E+03  0.54577698219E+03  0.25500000920E-02 0.  1.
       -2    1    3    3    0  502  0.15542902171E+03  0.28387408169E+03 -0.10740050963E+04  0.11217083497E+04  0.25500000920E-02 0. -1.
</event>
<event>
 5   0  0.6785252E-03  0.7035410E+03  0.7818609E-02  0.9711196E-01
       -1   -1    0    0    0  501  0.00000000000E+00  0.00000000000E+00  0.27221247306E+03  0.27221247310E+03  0.50400001928E-02 0. -1.
        1   -1    0    0  501    0  0.00000000000E+00  0.00000000000E+00 -0.45458056297E+03  0.45458056299E+03  0.50400001928E-02 0.  1.
    10030    2    1    2    0    0  0.00000000000E+00  0.00000000000E+00 -0.18236808991E+03  0.72679303610E+03  0.70354104152E+03 0.  0.
        3    1    3    3  502    0 -0.73577888637E+02  0.43363879978E+02  0.26133939815E+03  0.27494076273E+03  0.10100000352E+00 0. -1.
       -3    1    3    3    0  502  0.73577888637E+02 -0.43363879978E+02 -0.44370748806E+03  0.45185227337E+03  0.10100000352E+00 0.  1.
</event>
<event>
 5   0  0.1119786E-02  0.6999343E+03  0.7818609E-02  0.9717345E-01
       -2   -1    0    0    0  501  0.00000000000E+00  0.00000000000E+00  0.13402197319E+03  0.13402197321E+03  0.25500000920E-02 0. -1.
        2   -1    0    0  501    0  0.00000000000E+00  0.00000000000E+00 -0.91385758520E+03  0.91385758520E+03  0.25500000920E-02 0.  1.
    10030    2    1    2    0    0  0.00000000000E+00  0.00000000000E+00 -0.77983561201E+03  0.10478795584E+04  0.69993427347E+03 0.  0.
        3    1    3    3  502    0  0.32015955965E+03  0.11340784715E+03 -0.51618655358E+03  0.61790942033E+03  0.10100000352E+00 0. -1.
       -3    1    3    3    0  502 -0.32015955965E+03 -0.11340784715E+03 -0.26364905843E+03  0.42997013808E+03  0.10100000352E+00 0.  1.
</event>
<event>
 5   0  0.6990118E-03  0.6967995E+03  0.7818609E-02  0.9722721E-01
       -1   -1    0    0    0  501  0.00000000000E+00  0.00000000000E+00  0.10562984944E+03  0.10562984956E+03  0.50400001928E-02 0. -1.
        1   -1    0    0  501    0  0.00000000000E+00  0.00000000000E+00 -0.11491294693E+04  0.11491294693E+04  0.50400001928E-02 0.  1.
    10030    2    1    2    0    0  0.00000000000E+00  0.00000000000E+00 -0.10434996199E+04  0.12547593189E+04  0.69679946301E+03 0.  0.
        5    1    3    3  502    0  0.18136047940E+03 -0.11931504114E+03 -0.31124553469E+02  0.21935936350E+03  0.46999998093E+01 0. -1.
       -5    1    3    3    0  502 -0.18136047940E+03  0.11931504114E+03 -0.10123750664E+04  0.10353999554E+04  0.46999998093E+01 0.  1.
</event>
<event>
 5   0  0.1100119E-02  0.6994145E+03  0.7818609E-02  0.9718234E-01
        2   -1    0    0  501    0  0.00000000000E+00  0.00000000000E+00  0.19179746008E+04  0.19179746008E+04  0.25500000920E-02 0.  1.
       -2   -1    0    0    0  501  0.00000000000E+00  0.00000000000E+00 -0.63762662510E+02  0.63762662561E+02  0.25500000920E-02 0. -1.
    10030    2    1    2    0    0  0.00000000000E+00  0.00000000000E+00  0.18542119383E+04  0.19817372634E+04  0.69941451866E+03 0.  0.
        4    1    3    3  502    0  0.14565222281E+03 -0.25011646710E+03  0.37099850105E+03  0.47054682849E+03  0.12699999809E+01 0. -1.
       -4    1    3    3    0  502 -0.14565222281E+03  0.25011646710E+03  0.14832134373E+04  0.15111904349E+04  0.12699999809E+01 0.  1.
</event>
<event>
 5   0  0.1100119E-02  0.7030900E+03  0.7818609E-02  0.9711962E-01
        2   -1    0    0  501    0  0.00000000000E+00  0.00000000000E+00  0.20002201966E+04  0.20002201966E+04  0.25500000920E-02 0. -1.
       -2   -1    0    0    0  501  0.00000000000E+00  0.00000000000E+00 -0.61785135242E+02  0.61785135295E+02  0.25500000920E-02 0.  1.
    10030    2    1    2    0    0  0.00000000000E+00  0.00000000000E+00  0.19384350614E+04  0.20620053319E+04  0.70308996698E+03 0.  0.
        4    1    3    3  502    0  0.26575387296E+03 -0.62884090619E+02  0.16184332594E+04  0.16413126935E+04  0.12699999809E+01 0. -1.
       -4    1    3    3    0  502 -0.26575387296E+03  0.62884090619E+02  0.32000180201E+03  0.42069263844E+03  0.12699999809E+01 0.  1.
</event>
<event>
 5   0  0.6609285E-03  0.6996666E+03  0.7818609E-02  0.9717803E-01
        1   -1    0    0  501    0  0.00000000000E+00  0.00000000000E+00  0.74812420307E+03  0.74812420308E+03  0.50400001928E-02 0.  1.
       -1   -1    0    0    0  501  0.00000000000E+00  0.00000000000E+00 -0.16358692185E+03  0.16358692193E+03  0.50400001928E-02 0. -1.
    10030    2    1    2    0    0  0.00000000000E+00  0.00000000000E+00  0.58453728122E+03  0.91171112501E+03  0.69966659369E+03 0.  0.
        2    1    3    3  502    0  0.23065728579E+03  0.17027453587E+03  0.31046709325E+02  0.28837492821E+03  0.25500000920E-02 0. -1.
       -2    1    3    3    0  502 -0.23065728579E+03 -0.17027453587E+03  0.55349057189E+03  0.62333619680E+03  0.25500000920E-02 0.  1.
</event>
<event>
 5   0  0.1109788E-02  0.6993032E+03  0.7818609E-02  0.9718425E-01
        2   -1    0    0  501    0  0.00000000000E+00  0.00000000000E+00  0.14878774210E+04  0.14878774211E+04  0.25500000920E-02 0.  1.
       -2   -1    0    0    0  501  0.00000000000E+00  0.00000000000E+00 -0.82168216516E+02  0.82168216555E+02  0.25500000920E-02 0. -1.
    10030    2    1    2    0    0  0.00000000000E+00  0.00000000000E+00  0.14057092045E+04  0.15700456376E+04  0.69930317921E+03 0.  0.
        1    1    3    3  502    0  0.33071727470E+03 -0.11257716189E+03  0.73528923323E+03  0.81406252198E+03  0.50400001928E-02 0. -1.
       -1    1    3    3    0  502 -0.33071727470E+03  0.11257716189E+03  0.67041997130E+03  0.75598311563E+03  0.50400001928E-02 0.  1.
</event>
<event>
 5   0  0.6689415E-03  0.7012063E+03  0.7818609E-02  0.9715172E-01
       -1   -1    0    0    0  501  0.00000000000E+00  0.00000000000E+00  0.82032951683E+03  0.82032951684E+03  0.50400001928E-02 0.  1.
        1   -1    0    0  501    0  0.00000000000E+00  0.00000000000E+00 -0.14984534016E+03  0.14984534025E+03  0.50400001928E-02 0. -1.
    10030    2    1    2    0    0  0.00000000000E+00  0.00000000000E+00  0.67048417667E+03  0.97017485709E+03  0.70120626222E+03 0.  0.
        1    1    3    3  502    0  0.32729956928E+03  0.50313987670E+01  0.50900249107E+03  0.60517258610E+03  0.50400001928E-02 0.  1.
       -1    1    3    3    0  502 -0.32729956928E+03 -0.50313987670E+01  0.16148168559E+03  0.36500227099E+03  0.50400001928E-02 0. -1.
</event>
<event>
 5   0  0.6990118E-03  0.6975484E+03  0.7818609E-02  0.9721434E-01
       -1   -1    0    0    0  501  0.00000000000E+00  0.00000000000E+00  0.26472487224E+03  0.26472487229E+03  0.50400001928E-02 0. -1.
        1   -1    0    0  501    0  0.00000000000E+00  0.00000000000E+00 -0.45950888837E+03  0.45950888840E+03  0.50400001928E-02 0.  1.
    10030    2    1    2    0    0  0.00000000000E+00  0.00000000000E+00 -0.19478401613E+03  0.72423376069E+03  0.69754836907E+03 0.  0.
        5    1    3    3  502    0  0.21542884444E+03  0.15341533902E+03  0.13862686579E+03  0.29863916552E+03  0.46999998093E+01 0. -1.
       -5    1    3    3    0  502 -0.21542884444E+03 -0.15341533902E+03 -0.33341088192E+03  0.42559459518E+03  0.46999998093E+01 0.  1.
</event>
<event>
 5   0  0.1109788E-02  0.7028481E+03  0.7818609E-02  0.9712374E-01
        2   -1    0    0  501    0  0.00000000000E+00  0.00000000000E+00  0.61846847173E+03  0.61846847173E+03  0.25500000920E-02 0.  1.
       -2   -1    0    0    0  501  0.00000000000E+00  0.00000000000E+00 -0.19968497025E+03  0.19968497027E+03  0.25500000920E-02 0. -1.
    10030    2    1    2    0    0  0.00000000000E+00  0.00000000000E+00  0.41878350148E+03  0.81815344200E+03  0.70284808710E+03 0.  0.
        1    1    3    3  502    0 -0.77058971383E+02  0.13684282665E+03  0.57534724303E+03  0.59639625616E+03  0.50400001928E-02 0.  1.
       -1    1    3    3    0  502  0.77058971383E+02 -0.13684282665E+03 -0.15656374155E+03  0.22175718584E+03  0.50400001928E-02 0. -1.
</event>
<event>
 5   0  0.6785252E-03  0.6946037E+03  0.7818609E-02  0.9726505E-01
       -1   -1    0    0    0  501  0.00000000000E+00  0.00000000000E+00  0.12026071646E+03  0.12026071656E+03  0.50400001928E-02 0.  1.
        1   -1    0    0  501    0  0.00000000000E+00  0.00000000000E+00 -0.10029755933E+04  0.10029755934E+04  0.50400001928E-02 0. -1.
    10030    2    1    2    0    0  0.00000000000E+00  0.00000000000E+00 -0.88271487688E+03  0.11232363099E+04  0.69460366688E+03 0.  0.
        3    1    3    3  502    0 -0.21002074670E+03 -0.24304909025E+03 -0.65489274096E+03  0.72942860286E+03  0.10100000352E+00 0. -1.
       -3    1    3    3    0  502  0.21002074670E+03  0.24304909025E+03 -0.22782213592E+03  0.39380770705E+03  0.10100000352E+00 0.  1.
</event>
<event>
 5   0  0.6785252E-03  0.7006658E+03  0.7818609E-02  0.9716094E-01
       -1   -1    0    0    0  501  0.00000000000E+00  0.00000000000E+00  0.40077700122E+03  0.40077700125E+03  0.50400001928E-02 0.  1.
        1   -1    0    0  501    0  0.00000000000E+00  0.00000000000E+00 -0.30623802679E+03  0.30623802683E+03  0.50400001928E-02 0. -1.
    10030    2    1    2    0    0  0.00000000000E+00  0.00000000000E+00  0.94538974430E+02  0.70701502808E+03  0.70066584920E+03 0.  0.
        3    1    3    3  502    0  0.80526162627E+02  0.16543533406E+02 -0.29636748108E+03  0.30755787327E+03  0.10100000352E+00 0. -1.
       -3    1    3    3    0  502 -0.80526162627E+02 -0.16543533406E+02  0.39090645551E+03  0.39945715481E+03  0.10100000352E+00 0.  1.
</event>
<event>
 5   0  0.6246998E-03  0.6995892E+03  0.7818609E-02  0.9717935E-01
        1   -1    0    0  501    0  0.00000000000E+00  0.00000000000E+00  0.67432227713E+03  0.67432227715E+03  0.50400001928E-02 0.  1.
       -1   -1    0    0    0  501  0.00000000000E+00  0.00000000000E+00 -0.18145070474E+03  0.18145070481E+03  0.50400001928E-02 0. -1.
    10030    2    1    2    0    0  0.00000000000E+00  0.00000000000E+00  0.49287157239E+03  0.85577298196E+03  0.69958917215E+03 0.  0.
        4    1    3    3  502    0  0.18323170224E+03 -0.11707198311E+03  0.58160411224E+03  0.62092242850E+03  0.12699999809E+01 0.  1.
       -4    1    3    3    0  502 -0.18323170224E+03  0.11707198311E+03 -0.88732539854E+02  0.23485055347E+03  0.12699999809E+01 0. -1.
</event>
<event>
 5   0  0.1099980E-02  0.6971559E+03  0.7818609E-02  0.9722108E-01
       -2   -1    0    0    0  501  0.00000000000E+00  0.00000000000E+00  0.13302781902E+03  0.13302781904E+03  0.25500000920E-02 0. -1.
        2   -1    0    0  501    0  0.00000000000E+00  0.00000000000E+00 -0.91339234898E+03  0.91339234899E+03  0.25500000920E-02 0.  1.
    10030    2    1    2    0    0  0.00000000000E+00  0.00000000000E+00 -0.78036452996E+03  0.10464201680E+04  0.69715591400E+03 0.  0.
        5    1    3    3  502    0 -0.26547843456E+03  0.18753045676E+03 -0.57908001084E+03  0.66407998041E+03  0.46999998093E+01 0.  1.
       -5    1    3    3    0  502  0.26547843456E+03 -0.18753045676E+03 -0.20128451912E+03  0.38234018761E+03  0.46999998093E+01 0. -1.
</event>
<event>
 5   0  0.1109788E-02  0.7003659E+03  0.7818609E-02  0.9716607E-01
        2   -1    0    0  501    0  0.00000000000E+00  0.00000000000E+00  0.34426774054E+03  0.34426774055E+03  0.25500000920E-02 0. -1.
       -2   -1    0    0    0  501  0.00000000000E+00  0.00000000000E+00 -0.35619978439E+03  0.35619978440E+03  0.25500000920E-02 0.  1.
    10030    2    1    2    0    0  0.00000000000E+00  0.00000000000E+00 -0.11932043844E+02  0.70046752495E+03  0.70036588997E+03 0.  0.
        1    1    3    3  502    0 -0.11575144426E+03 -0.31293062799E+03 -0.11230228681E+03  0.35204513692E+03  0.50400001928E-02 0.  1.
       -1    1    3    3    0  502  0.11575144426E+03  0.31293062799E+03  0.10037024297E+03  0.34842238803E+03  0.50400001928E-02 0. -1.
</event>
<event>
 5   0  0.6609285E-03  0.6944882E+03  0.7818609E-02  0.9726705E-01
       -1   -1    0    0    0  501  0.00000000000E+00  0.00000000000E+00  0.14963300012E+03  0.14963300020E+03  0.50400001928E-02 0.  1.
        1   -1    0    0  501    0  0.00000000000E+00  0.00000000000E+00 -0.80582803134E+03  0.80582803135E+03  0.50400001928E-02 0. -1.
    10030    2    1    2    0    0  0.00000000000E+00  0.00000000000E+00 -0.65619503122E+03  0.95546103155E+03  0.69448820279E+03 0.  0.
        2    1    3    3  502    0 -0.13250725037E+03 -0.74096470712E+02 -0.75774990884E+03  0.77280876207E+03  0.25500000920E-02 0. -1.
       -2    1    3    3    0  502  0.13250725037E+03  0.74096470712E+02  0.10155487762E+03  0.18265226949E+03  0.25500000920E-02 0.  1.
</event>
<event>
 5   0  0.6990118E-03  0.7025038E+03  0.7818609E-02  0.9712960E-01
        1   -1    0    0  501    0  0.00000000000E+00  0.00000000000E+00  0.67155084005E+03  0.67155084007E+03  0.50400001928E-02 0.  1.
       -1   -1    0    0    0  501  0.00000000000E+00  0.00000000000E+00 -0.18372084398E+03  0.18372084405E+03  0.50400001928E-02 0. -1.
    10030    2    1    2    0    0  0.00000000000E+00  0.00000000000E+00  0.48782999607E+03  0.85527168411E+03  0.70250377122E+03 0.  0.
        5    1    3    3  502    0  0.35088585022E+03  0.13083108849E+02  0.23419437942E+03  0.42209139410E+03  0.46999998093E+01 0. -1.
       -5    1    3    3    0  502 -0.35088585022E+03 -0.13083108849E+02  0.25363561665E+03  0.43318029001E+03  0.46999998093E+01 0.  1.
</event>
<event>
 5   0  0.1119786E-02  0.6976184E+03  0.7818609E-02  0.9721314E-01
        2   -1    0    0  501    0  0.00000000000E+00  0.00000000000E+00  0.15400907967E+03  0.15400907970E+03  0.25500000920E-02 0. -1.
       -2   -1    0    0    0  501  0.00000000000E+00  0.00000000000E+00 -0.79000443249E+03  0.79000443250E+03  0.25500000920E-02 0.  1.
    10030    2    1    2    0    0  0.00000000000E+00  0.00000000000E+00 -0.63599535282E+03  0.94401351219E+03  0.69761839310E+03 0.  0.
        3    1    3    3  502    0 -0.14883827485E+02 -0.32181630751E+03 -0.13705079397E+03  0.35010026339E+03  0.10100000352E+00 0. -1.
       -3    1    3    3    0  502  0.14883827485E+02  0.32181630751E+03 -0.49894455885E+03  0.59391324880E+03  0.10100000352E+00 0.  1.
</event>
<event>
 5   0  0.1109788E-02  0.7004720E+03  0.7818609E-02  0.9716425E-01
        2   -1    0    0  501    0  0.00000000000E+00  0.00000000000E+00  0.24303618708E+03  0.24303618710E+03  0.25500000920E-02 0. -1.
       -2   -1    0    0    0  501  0.00000000000E+00  0.00000000000E+00 -0.50472016781E+03  0.50472016782E+03  0.25500000920E-02 0.  1.
    10030    2    1    2    0    0  0.00000000000E+00  0.00000000000E+00 -0.26168398073E+03  0.74775635492E+03  0.70047202696E+03 0.  0.
        1    1    3    3  502    0  0.33082850109E+02  0.25261184068E+03 -0.38739408807E+03  0.46366086369E+03  0.50400001928E-02 0.  1.
       -1    1    3    3    0  502 -0.33082850109E+02 -0.25261184068E+03  0.12571010734E+03  0.28409549122E+03  0.50400001928E-02 0. -1.
</event>
<event>
 5   0  0.4440500E-03  0.6986043E+03  0.7818609E-02  0.9719622E-01
        3   -1    0    0  501    0  0.00000000000E+00  0.00000000000E+00  0.94601840705E+03  0.94601841244E+03  0.10100000352E+00 0.  1.
       -3   -1    0    0    0  501  0.00000000000E+00  0.00000000000E+00 -0.12897420456E+03  0.12897424411E+03  0.10100000352E+00 0. -1.
    10030    2    1    2    0    0  0.00000000000E+00  0.00000000000E+00  0.81704420249E+03  0.10749926565E+04  0.69860431062E+03 0.  0.
        4    1    3    3  502    0  0.97617897317E+02  0.33229669705E+03  0.47836326000E+03  0.59057884332E+03  0.12699999809E+01 0.  1.
       -4    1    3    3    0  502 -0.97617897317E+02 -0.33229669705E+03  0.33868094248E+03  0.48441381323E+03  0.12699999809E+01 0. -1.
</event>
<event>
 5   0  0.6990118E-03  0.7020948E+03  0.7818609E-02  0.9713656E-01
        1   -1    0    0  501    0  0.00000000000E+00  0.00000000000E+00  0.87346725230E+03  0.87346725231E+03  0.50400001928E-02 0. -1.
       -1   -1    0    0    0  501  0.00000000000E+00  0.00000000000E+00 -0.14108632548E+03  0.14108632557E+03  0.50400001928E-02 0.  1.
    10030    2    1    2    0    0  0.00000000000E+00  0.00000000000E+00  0.73238092681E+03  0.10145535779E+04  0.70209482297E+03 0.  0.
        5    1    3    3  502    0 -0.25032430559E+03 -0.18589795704E+03  0.13322147237E+03  0.33910228412E+03  0.46999998093E+01 0.  1.
       -5    1    3    3    0  502  0.25032430559E+03  0.18589795704E+03  0.59915945444E+03  0.67545129376E+03  0.46999998093E+01 0. -1.
</event>
<event>
 5   0  0.6609285E-03  0.7013313E+03  0.7818609E-02  0.9714958E-01
       -1   -1    0    0    0  501  0.00000000000E+00  0.00000000000E+00  0.12229322345E+03  0.12229322355E+03  0.50400001928E-02 0.  1.
        1   -1    0    0  501    0  0.00000000000E+00  0.00000000000E+00 -0.10055046298E+04  0.10055046298E+04  0.50400001928E-02 0. -1.
    10030    2    1    2    0    0  0.00000000000E+00  0.00000000000E+00 -0.88321140637E+03  0.11277978534E+04  0.70133131241E+03 0.  0.
        2    1    3    3  502    0  0.10515881615E+03  0.31350249717E+03 -0.62930545584E+03  0.71089207978E+03  0.25500000920E-02 0. -1.
       -2    1    3    3    0  502 -0.10515881615E+03 -0.31350249717E+03 -0.25390595053E+03  0.41690577360E+03  0.25500000920E-02 0.  1.
</event>
<event>
 5   0  0.6990118E-03  0.7052405E+03  0.7818609E-02  0.9708312E-01
       -1   -1    0    0    0  501  0.00000000000E+00  0.00000000000E+00  0.62947319795E+02  0.62947319997E+02  0.50400001928E-02 0. -1.
        1   -1    0    0  501    0  0.00000000000E+00  0.00000000000E+00 -0.19753187854E+04  0.19753187854E+04  0.50400001928E-02 0.  1.
    10030    2    1    2    0    0  0.00000000000E+00  0.00000000000E+00 -0.19123714656E+04  0.20382661054E+04  0.70524045117E+03 0.  0.
        5    1    3    3  502    0 -0.32701707852E+03 -0.21804989425E+02 -0.13319448254E+04  0.13716831759E+04  0.46999998093E+01 0.  1.
       -5    1    3    3    0  502  0.32701707852E+03  0.21804989425E+02 -0.58042664020E+03  0.66658292947E+03  0.46999998093E+01 0. -1.
</event>
<event>
 5   0  0.6609285E-03  0.7065560E+03  0.7818609E-02  0.9706086E-01
        1   -1    0    0  501    0  0.00000000000E+00  0.00000000000E+00  0.20727720943E+03  0.20727720949E+03  0.50400001928E-02 0.  1.
       -1   -1    0    0    0  501  0.00000000000E+00  0.00000000000E+00 -0.60211794605E+03  0.60211794607E+03  0.50400001928E-02 0. -1.
    10030    2    1    2    0    0  0.00000000000E+00  0.00000000000E+00 -0.39484073662E+03  0.80939515556E+03  0.70655595005E+03 0.  0.
        2    1    3    3  502    0  0.13084094412E+03 -0.28716266434E+03 -0.37935584742E+03  0.49344970101E+03  0.25500000920E-02 0. -1.
       -2    1    3    3    0  502 -0.13084094412E+03  0.28716266434E+03 -0.15484889201E+02  0.31594545455E+03  0.25500000920E-02 0.  1.
</event>
<event>
 5   0  0.6990118E-03  0.7013829E+03  0.7818609E-02  0.9714870E-01
       -1   -1    0    0    0  501  0.00000000000E+00  0.00000000000E+00  0.17899789646E+03  0.17899789653E+03  0.50400001928E-02 0.  1.
        1   -1    0    0  501    0  0.00000000000E+00  0.00000000000E+00 -0.68707222107E+03  0.68707222109E+03  0.50400001928E-02 0. -1.
    10030    2    1    2    0    0  0.00000000000E+00  0.00000000000E+00 -0.50807432461E+03  0.86607011763E+03  0.70138286928E+03 0.  0.
        5    1    3    3  502    0  0.24099115384E+03  0.17901741378E+03 -0.30273769990E+02  0.30176573996E+03  0.46999998093E+01 0.  1.
       -5    1    3    3    0  502 -0.24099115384E+03 -0.17901741378E+03 -0.47780055462E+03  0.56430437767E+03  0.46999998093E+01 0. -1.
</event>
<event>
 5   0  0.4440500E-03  0.7021841E+03  0.7818609E-02  0.9713504E-01
        4   -1    0    0  501    0  0.00000000000E+00  0.00000000000E+00  0.17522279212E+03  0.17522739449E+03  0.12699999809E+01 0.  1.
       -4   -1    0    0    0  501  0.00000000000E+00  0.00000000000E+00 -0.70346492921E+03  0.70346607561E+03  0.12699999809E+01 0. -1.
    10030    2    1    2    0    0  0.00000000000E+00  0.00000000000E+00 -0.52824213709E+03  0.87869347010E+03  0.70218406347E+03 0.  0.
        4    1    3    3  502    0 -0.16670408339E+03  0.30580783795E+03 -0.31945544022E+03  0.47261197229E+03  0.12699999809E+01 0. -1.
       -4    1    3    3    0  502  0.16670408339E+03 -0.30580783795E+03 -0.20878669687E+03  0.40608149780E+03  0.12699999809E+01 0.  1.
</event>
<event>
 5   0  0.1119786E-02  0.7026089E+03  0.7818609E-02  0.9712781E-01
        2   -1    0    0  501    0  0.00000000000E+00  0.00000000000E+00  0.24131082232E+03  0.24131082233E+03  0.25500000920E-02 0. -1.
       -2   -1    0    0    0  501  0.00000000000E+00  0.00000000000E+00 -0.51143501791E+03  0.51143501791E+03  0.25500000920E-02 0.  1.
    10030    2    1    2    0    0  0.00000000000E+00  0.00000000000E+00 -0.27012419559E+03  0.75274584024E+03  0.70260886627E+03 0.  0.
        3    1    3    3  502    0 -0.25704703867E+03 -0.19658408270E+03  0.11429502045E+02  0.32380414664E+03  0.10100000352E+00 0. -1.
       -3    1    3    3    0  502  0.25704703867E+03  0.19658408270E+03 -0.28155369763E+03  0.42894169361E+03  0.10100000352E+00 0.  1.
</event>
<event>
 5   0  0.1079446E-02  0.6923838E+03  0.7818609E-02  0.9730346E-01
        2   -1    0    0  501    0  0.00000000000E+00  0.00000000000E+00  0.16361334477E+03  0.16361334479E+03  0.25500000920E-02 0. -1.
       -2   -1    0    0    0  501  0.00000000000E+00  0.00000000000E+00 -0.73251258353E+03  0.73251258353E+03  0.25500000920E-02 0.  1.
    10030    2    1    2    0    0  0.00000000000E+00  0.00000000000E+00 -0.56889923876E+03  0.89612592832E+03  0.69238380653E+03 0.  0.
        2    1    3    3  502    0  0.11907252995E+03  0.26870277619E+02  0.13483639096E+03  0.18188219138E+03  0.25500000920E-02 0. -1.
       -2    1    3    3    0  502 -0.11907252995E+03 -0.26870277619E+02 -0.70373562972E+03  0.71424373694E+03  0.25500000920E-02 0.  1.
</event>
<event>
 5   0  0.1109788E-02  0.6995418E+03  0.7818609E-02  0.9718016E-01
       -2   -1    0    0    0  501  0.00000000000E+00  0.00000000000E+00  0.58039143370E+03  0.58039143370E+03  0.25500000920E-02 0. -1.
        2   -1    0    0  501    0  0.00000000000E+00  0.00000000000E+00 -0.21078821328E+03  0.21078821329E+03  0.25500000920E-02 0.  1.
    10030    2    1    2    0    0  0.00000000000E+00  0.00000000000E+00  0.36960322042E+03  0.79117964699E+03  0.69954177379E+03 0.  0.
        1    1    3    3  502    0 -0.84743974950E+02  0.32672564641E+03  0.28851153114E+03  0.44403839129E+03  0.50400001928E-02 0. -1.
       -1    1    3    3    0  502  0.84743974950E+02 -0.32672564641E+03  0.81091689282E+02  0.34714125570E+03  0.50400001928E-02 0.  1.
</event>
<event>
 5   0  0.6609285E-03  0.6995285E+03  0.7818609E-02  0.9718039E-01
       -1   -1    0    0    0  501  0.00000000000E+00  0.00000000000E+00  0.10142934200E+03  0.10142934212E+03  0.50400001928E-02 0. -1.
        1   -1    0    0  501    0  0.00000000000E+00  0.00000000000E+00 -0.12061108953E+04  0.12061108953E+04  0.50400001928E-02 0.  1.
    10030    2    1    2    0    0  0.00000000000E+00  0.00000000000E+00 -0.11046815533E+04  0.13075402374E+04  0.69952851143E+03 0.  0.
        2    1    3    3  502    0 -0.23750500459E+03 -0.12394823817E+03 -0.13203331824E+03  0.29867137473E+03  0.25500000920E-02 0. -1.
       -2    1    3    3    0  502  0.23750500459E+03  0.12394823817E+03 -0.97264823504E+03  0.10088688627E+04  0.25500000920E-02 0.  1.
</event>
<event>
 5   0  0.1100119E-02  0.7050600E+03  0.7818609E-02  0.9708618E-01
       -2   -1    0    0    0  501  0.00000000000E+00  0.00000000000E+00  0.87932941601E+02  0.87932941638E+02  0.25500000920E-02 0.  1.
        2   -1    0    0  501    0  0.00000000000E+00  0.00000000000E+00 -0.14133202360E+04  0.14133202360E+04  0.25500000920E-02 0. -1.
    10030    2    1    2    0    0  0.00000000000E+00  0.00000000000E+00 -0.13253872944E+04  0.15012531777E+04  0.70506001392E+03 0.  0.
        4    1    3    3  502    0  0.13730497842E+03  0.32431475412E+03 -0.69589065644E+03  0.77993469948E+03  0.12699999809E+01 0.  1.
       -4    1    3    3    0  502 -0.13730497842E+03 -0.32431475412E+03 -0.62949663797E+03  0.72131847817E+03  0.12699999809E+01 0. -1.
</event>
<event>
 5   0  0.6246998E-03  0.7043973E+03  0.7818609E-02  0.9709742E-01
        1   -1    0    0  501    0  0.00000000000E+00  0.00000000000E+00  0.97004620592E+03  0.97004620593E+03  0.50400001928E-02 0. -1.
       -1   -1    0    0    0  501  0.00000000000E+00  0.00000000000E+00 -0.12787420985E+03  0.12787420995E+03  0.50400001928E-02 0.  1.
    10030    2    1    2    0    0  0.00000000000E+00  0.00000000000E+00  0.84217199607E+03  0.10979204159E+04  0.70439730879E+03 0.  0.
        4    1    3    3  502    0 -0.34541934611E+03  0.58245080960E+02  0.47804166313E+03  0.59264868068E+03  0.12699999809E+01 0. -1.
       -4    1    3    3    0  502  0.34541934611E+03 -0.58245080960E+02  0.36413033295E+03  0.50527173520E+03  0.12699999809E+01 0.  1.
</event>
<event>
 5   0  0.6609285E-03  0.6958834E+03  0.7818609E-02  0.9724298E-01
        1   -1    0    0  501    0  0.00000000000E+00  0.00000000000E+00  0.61615869187E+03  0.61615869190E+03  0.50400001928E-02 0. -1.
       -1   -1    0    0    0  501  0.00000000000E+00  0.00000000000E+00 -0.19648091293E+03  0.19648091299E+03  0.50400001928E-02 0.  1.
    10030    2    1    2    0    0  0.00000000000E+00  0.00000000000E+00  0.41967777895E+03  0.81263960489E+03  0.69588338771E+03 0.  0.
        2    1    3    3  502    0  0.16282854417E+03 -0.29610612908E+03  0.11303659701E+03  0.35632744316E+03  0.25500000920E-02 0.  1.
       -2    1    3    3    0  502 -0.16282854417E+03  0.29610612908E+03  0.30664118194E+03  0.45631216173E+03  0.25500000920E-02 0. -1.
</event>
<event>
 5   0  0.1119786E-02  0.7004543E+03  0.7818609E-02  0.9716456E-01
        2   -1    0    0  501    0  0.00000000000E+00  0.00000000000E+00  0.11823501175E+04  0.11823501175E+04  0.25500000920E-02 0. -1.
       -2   -1    0    0    0  501  0.00000000000E+00  0.00000000000E+00 -0.10374172483E+03  0.10374172486E+03  0.25500000920E-02 0.  1.
    10030    2    1    2    0    0  0.00000000000E+00  0.00000000000E+00  0.10786083927E+04  0.12860918424E+04  0.70045425424E+03 0.  0.
        3    1    3    3  502    0 -0.24374977195E+02 -0.28947112459E+03  0.18011013511E+03  0.34180014987E+03  0.10100000352E+00 0.  1.
       -3    1    3    3    0  502  0.24374977195E+02  0.28947112459E+03  0.89849825760E+03  0.94429169254E+03  0.10100000352E+00 0. -1.
</event>
<event>
 5   0  0.6785252E-03  0.6975568E+03  0.7818609E-02  0.9721420E-01
       -1   -1    0    0    0  501  0.00000000000E+00  0.00000000000E+00  0.19378614906E+03  0.19378614913E+03  0.50400001928E-02 0.  1.
        1   -1    0    0  501    0  0.00000000000E+00  0.00000000000E+00 -0.62773507495E+03  0.62773507497E+03  0.50400001928E-02 0. -1.
    10030    2    1    2    0    0  0.00000000000E+00  0.00000000000E+00 -0.43394892589E+03  0.82152122410E+03  0.69755677286E+03 0.  0.
        3    1    3    3  502    0  0.21713126423E+03 -0.81506291602E+02 -0.52376138874E+03  0.57281346354E+03  0.10100000352E+00 0. -1.
       -3    1    3    3    0  502 -0.21713126423E+03  0.81506291602E+02  0.89812462852E+02  0.24870776056E+03  0.10100000352E+00 0.  1.
</event>
<event>
 5   0  0.1119786E-02  0.6982704E+03  0.7818609E-02  0.9720195E-01
        2   -1    0    0  501    0  0.00000000000E+00  0.00000000000E+00  0.16865667291E+04  0.16865667291E+04  0.25500000920E-02 0.  1.
       -2   -1    0    0    0  501  0.00000000000E+00  0.00000000000E+00 -0.72274267222E+02  0.72274267267E+02  0.25500000920E-02 0. -1.
    10030    2    1    2    0    0  0.00000000000E+00  0.00000000000E+00  0.16142924619E+04  0.17588409964E+04  0.69827036171E+03 0.  0.
        3    1    3    3  502    0  0.22632617206E+03  0.20977841657E+03  0.12184592873E+04  0.12569302150E+04  0.10100000352E+00 0.  1.
       -3    1    3    3    0  502 -0.22632617206E+03 -0.20977841657E+03  0.39583317459E+03  0.50191078144E+03  0.10100000352E+00 0. -1.
</event>
<event>
 5   0  0.4440500E-03  0.6999641E+03  0.7818609E-02  0.9717294E-01
        3   -1    0    0  501    0  0.00000000000E+00  0.00000000000E+00  0.18038457510E+03  0.18038460337E+03  0.10100000352E+00 0. -1.
       -3   -1    0    0    0  501  0.00000000000E+00  0.00000000000E+00 -0.67903490247E+03  0.67903490998E+03  0.10100000352E+00 0.  1.
    10030    2    1    2    0    0  0.00000000000E+00  0.00000000000E+00 -0.49865032737E+03  0.85941951335E+03  0.69996410690E+03 0.  0.
        4    1    3    3  502    0  0.26081879276E+02  0.29154607138E+03 -0.48487965947E+03  0.56638262087E+03  0.12699999809E+01 0.  1.
       -4    1    3    3    0  502 -0.26081879276E+02 -0.29154607138E+03 -0.13770667905E+02  0.29303689248E+03  0.12699999809E+01 0. -1.
</event>
<event>
 5   0  0.6246998E-03  0.6995337E+03  0.7818609E-02  0.9718030E-01
        1   -1    0    0  501    0  0.00000000000E+00  0.00000000000E+00  0.55634313799E+03  0.55634313802E+03  0.50400001928E-02 0. -1.
       -1   -1    0    0    0  501  0.00000000000E+00  0.00000000000E+00 -0.21989459823E+03  0.21989459829E+03  0.50400001928E-02 0.  1.
    10030    2    1    2    0    0  0.00000000000E+00  0.00000000000E+00  0.33644853976E+03  0.77623773631E+03  0.69953370423E+03 0.  0.
        4    1    3    3  502    0 -0.16400626489E+03  0.18048323380E+03 -0.10999269506E+03  0.26752992071E+03  0.12699999809E+01 0.  1.
       -4    1    3    3    0  502  0.16400626489E+03 -0.18048323380E+03  0.44644123482E+03  0.50870781560E+03  0.12699999809E+01 0. -1.
</event>
<event>
 5   0  0.6990118E-03  0.6951644E+03  0.7818609E-02  0.9725538E-01
        1   -1    0    0  501    0  0.00000000000E+00  0.00000000000E+00  0.42680170418E+03  0.42680170421E+03  0.50400001928E-02 0.  1.
       -1   -1    0    0    0  501  0.00000000000E+00  0.00000000000E+00 -0.28306680551E+03  0.28306680555E+03  0.50400001928E-02 0. -1.
    10030    2    1    2    0    0  0.00000000000E+00  0.00000000000E+00  0.14373489867E+03  0.70986850976E+03  0.69516442663E+03 0.  0.
        5    1    3    3  502    0  0.30581412785E+03 -0.11064188169E+03 -0.53311778675E+02  0.32958783733E+03  0.46999998093E+01 0. -1.
       -5    1    3    3    0  502 -0.30581412785E+03  0.11064188169E+03  0.19704667734E+03  0.38028067243E+03  0.46999998093E+01 0.  1.
</event>
<event>
 5   0  0.1099980E-02  0.6978595E+03  0.7818609E-02  0.9720900E-01
        2   -1    0    0  501    0  0.00000000000E+00  0.00000000000E+00  0.92232738577E+03  0.92232738577E+03  0.25500000920E-02 0.  1.
       -2   -1    0    0    0  501  0.00000000000E+00  0.00000000000E+00 -0.13200514755E+03  0.13200514758E+03  0.25500000920E-02 0. -1.
    10030    2    1    2    0    0  0.00000000000E+00  0.00000000000E+00  0.79032223821E+03  0.10543325334E+04  0.69785947774E+03 0.  0.
        5    1    3    3  502    0  0.70118350385E+02  0.32881676288E+03  0.25430032860E+03  0.42157774341E+03  0.46999998093E+01 0. -1.
       -5    1    3    3    0  502 -0.70118350385E+02 -0.32881676288E+03  0.53602190961E+03  0.63275478994E+03  0.46999998093E+01 0.  1.
</event>
<event>
 5   0  0.6689415E-03  0.6985597E+03  0.7818609E-02  0.9719699E-01
        1   -1    0    0  501    0  0.00000000000E+00  0.00000000000E+00  0.17485444646E+04  0.17485444646E+04  0.50400001928E-02 0.  1.
       -1   -1    0    0    0  501  0.00000000000E+00  0.00000000000E+00 -0.69770262790E+02  0.69770262972E+02  0.50400001928E-02 0. -1.
    10030    2    1    2    0    0  0.00000000000E+00  0.00000000000E+00  0.16787742018E+04  0.18183147275E+04  0.69855968096E+03 0.  0.
        1    1    3    3  502    0 -0.19347679397E+02  0.21516422252E+03  0.15537834686E+04  0.15687297545E+04  0.50400001928E-02 0.  1.
       -1    1    3    3    0  502  0.19347679397E+02 -0.21516422252E+03  0.12499073312E+03  0.24958497299E+03  0.50400001928E-02 0. -1.
</event>
<event>
 5   0  0.1099980E-02  0.7001088E+03  0.7818609E-02  0.9717046E-01
       -2   -1    0    0    0  501  0.00000000000E+00  0.00000000000E+00  0.60284192912E+03  0.60284192913E+03  0.25500000920E-02 0.  1.
        2   -1    0    0  501    0  0.00000000000E+00  0.00000000000E+00 -0.20326736965E+03  0.20326736967E+03  0.25500000920E-02 0. -1.
    10030    2    1    2    0    0  0.00000000000E+00  0.00000000000E+00  0.39957455947E+03  0.80610929880E+03  0.70010882942E+03 0.  0.
        5    1    3    3  502    0  0.72141205903E+02 -0.89732679212E+02  0.58037815341E+03  0.59170702062E+03  0.46999998093E+01 0.  1.
       -5    1    3    3    0  502 -0.72141205903E+02  0.89732679212E+02 -0.18080359394E+03  0.21440227817E+03  0.46999998093E+01 0. -1.
</event>
<event>
 5   0  0.6609285E-03  0.7003783E+03  0.7818609E-02  0.9716585E-01
       -1   -1    0    0    0  501  0.00000000000E+00  0.00000000000E+00  0.39230500757E+03  0.39230500761E+03  0.50400001928E-02 0.  1.
        1   -1    0    0  501    0  0.00000000000E+00  0.00000000000E+00 -0.31259466746E+03  0.31259466750E+03  0.50400001928E-02 0. -1.
    10030    2    1    2    0    0  0.00000000000E+00  0.00000000000E+00  0.79710340117E+02  0.70489967510E+03  0.70037833607E+03 0.  0.
        2    1    3    3  502    0  0.33917884289E+03  0.84878146674E+02  0.20084884149E+02  0.35021420563E+03  0.25500000920E-02 0. -1.
       -2    1    3    3    0  502 -0.33917884289E+03 -0.84878146674E+02  0.59625455968E+02  0.35468546947E+03  0.25500000920E-02 0.  1.
</event>
<event>
 5   0  0.6689415E-03  0.7032396E+03  0.7818609E-02  0.9711708E-01
       -1   -1    0    0    0  501  0.00000000000E+00  0.00000000000E+00  0.32312517614E+03  0.32312517618E+03  0.50400001928E-02 0.  1.
        1   -1    0    0  501    0  0.00000000000E+00  0.00000000000E+00 -0.38262718110E+03  0.38262718113E+03  0.50400001928E-02 0. -1.
    10030    2    1    2    0    0  0.00000000000E+00  0.00000000000E+00 -0.59502004959E+02  0.70575235731E+03  0.70323957600E+03 0.  0.
        1    1    3    3  502    0  0.11645573664E+03  0.13529792711E+03  0.27426542526E+03  0.32724454342E+03  0.50400001928E-02 0.  1.
       -1    1    3    3    0  502 -0.11645573664E+03 -0.13529792711E+03 -0.33376743022E+03  0.37850781389E+03  0.50400001928E-02 0. -1.
</event>
<event>
 5   0  0.4440500E-03  0.6967011E+03  0.7818609E-02  0.9722891E-01
        3   -1    0    0  501    0  0.00000000000E+00  0.00000000000E+00  0.82204830715E+03  0.82204831335E+03  0.10100000352E+00 0. -1.
       -3   -1    0    0    0  501  0.00000000000E+00  0.00000000000E+00 -0.14761671616E+03  0.14761675071E+03  0.10100000352E+00 0.  1.
    10030    2    1    2    0    0  0.00000000000E+00  0.00000000000E+00  0.67443159099E+03  0.96966506406E+03  0.69670105894E+03 0.  0.
        4    1    3    3  502    0  0.17859322991E+03  0.13467855995E+03 -0.34455037581E+02  0.22632414540E+03  0.12699999809E+01 0.  1.
       -4    1    3    3    0  502 -0.17859322991E+03 -0.13467855995E+03  0.70888662857E+03  0.74334091866E+03  0.12699999809E+01 0. -1.
</event>
<event>
 5   0  0.6785252E-03  0.6989459E+03  0.7818609E-02  0.9719037E-01
       -1   -1    0    0    0  501  0.00000000000E+00  0.00000000000E+00  0.14975544831E+03  0.14975544840E+03  0.50400001928E-02 0.  1.
        1   -1    0    0  501    0  0.00000000000E+00  0.00000000000E+00 -0.81553848063E+03  0.81553848065E+03  0.50400001928E-02 0. -1.
    10030    2    1    2    0    0  0.00000000000E+00  0.00000000000E+00 -0.66578303232E+03  0.96529392904E+03  0.69894586580E+03 0.  0.
        3    1    3    3  502    0  0.57745347287E+02  0.34420613245E+03 -0.35755567801E+03  0.49965834310E+03  0.10100000352E+00 0. -1.
       -3    1    3    3    0  502 -0.57745347287E+02 -0.34420613245E+03 -0.30822735431E+03  0.46563558594E+03  0.10100000352E+00 0.  1.
</event>
<event>
 5   0  0.1079446E-02  0.7027470E+03  0.7818609E-02  0.9712546E-01
        2   -1    0    0  501    0  0.00000000000E+00  0.00000000000E+00  0.60769645151E+03  0.60769645152E+03  0.25500000920E-02 0.  1.
       -2   -1    0    0    0  501  0.00000000000E+00  0.00000000000E+00 -0.20316614352E+03  0.20316614354E+03  0.25500000920E-02 0. -1.
    10030    2    1    2    0    0  0.00000000000E+00  0.00000000000E+00  0.40453030799E+03  0.81086259505E+03  0.70274702274E+03 0.  0.
        2    1    3    3  502    0 -0.57901538731E+02 -0.18288801201E+03  0.54194082260E+03  0.57489170139E+03  0.25500000920E-02 0.  1.
       -2    1    3    3    0  502  0.57901538731E+02  0.18288801201E+03 -0.13741051461E+03  0.23597089366E+03  0.25500000920E-02 0. -1.
</event>
<event>
 5   0  0.1109788E-02  0.7021374E+03  0.7818609E-02  0.9713584E-01
        2   -1    0    0  501    0  0.00000000000E+00  0.00000000000E+00  0.80188583223E+03  0.80188583224E+03  0.25500000920E-02 0.  1.
       -2   -1    0    0    0  501  0.00000000000E+00  0.00000000000E+00 -0.15369920916E+03  0.15369920918E+03  0.25500000920E-02 0. -1.
    10030    2    1    2    0    0  0.00000000000E+00  0.00000000000E+00  0.64818662307E+03  0.95558504142E+03  0.70213736053E+03 0.  0.
        1    1    3    3  502    0  0.23123699086E+03  0.13713807203E+03  0.16828846548E+02  0.26937076093E+03  0.50400001928E-02 0. -1.
       -1    1    3    3    0  502 -0.23123699086E+03 -0.13713807203E+03  0.63135777653E+03  0.68621428049E+03  0.50400001928E-02 0.  1.
</event>
<event>
 5   0  0.6246998E-03  0.7002044E+03  0.7818609E-02  0.9716883E-01
       -1   -1    0    0    0  501  0.00000000000E+00  0.00000000000E+00  0.11997615006E+03  0.11997615017E+03  0.50400001928E-02 0.  1.
        1   -1    0    0  501    0  0.00000000000E+00  0.00000000000E+00 -0.10216327740E+04  0.10216327740E+04  0.50400001928E-02 0. -1.
    10030    2    1    2    0    0  0.00000000000E+00  0.00000000000E+00 -0.90165662395E+03  0.11416089242E+04  0.70020444750E+03 0.  0.
        4    1    3    3  502    0 -0.33943278432E+03  0.61014973765E+02 -0.35256395335E+03  0.49319407559E+03  0.12699999809E+01 0.  1.
       -4    1    3    3    0  502  0.33943278432E+03 -0.61014973765E+02 -0.54909267060E+03  0.64841484861E+03  0.12699999809E+01 0. -1.
</event>
<event>
 5   0  0.6689415E-03  0.7421364E+03  0.7818609E-02  0.9647768E-01
        1   -1    0    0  501    0  0.00000000000E+00  0.00000000000E+00  0.41483186150E+03  0.41483186154E+03  0.50400001928E-02 0. -1.
       -1   -1    0    0    0  501  0.00000000000E+00  0.00000000000E+00 -0.33192148185E+03  0.33192148189E+03  0.50400001928E-02 0.  1.
    10030    2    1    2    0    0  0.00000000000E+00  0.00000000000E+00  0.82910379657E+02  0.74675334342E+03  0.74213639235E+03 0.  0.
        1    1    3    3  502    0 -0.34471739070E+03 -0.95928463893E+02 -0.57437752297E+02  0.36239680607E+03  0.50400001928E-02 0. -1.
       -1    1    3    3    0  502  0.34471739070E+03  0.95928463893E+02  0.14034813195E+03  0.38435653735E+03  0.50400001928E-02 0.  1.
</event>
<event>
 5   0  0.6689415E-03  0.6978585E+03  0.7818609E-02  0.9720901E-01
        1   -1    0    0  501    0  0.00000000000E+00  0.00000000000E+00  0.42657245286E+03  0.42657245289E+03  0.50400001928E-02 0.  1.
       -1   -1    0    0    0  501  0.00000000000E+00  0.00000000000E+00 -0.28541840304E+03  0.28541840308E+03  0.50400001928E-02 0. -1.
    10030    2    1    2    0    0  0.00000000000E+00  0.00000000000E+00  0.14115404982E+03  0.71199085597E+03  0.69785851947E+03 0.  0.
        1    1    3    3  502    0  0.28011953655E+03  0.20609965101E+03  0.99570960423E+02  0.36174355155E+03  0.50400001928E-02 0. -1.
       -1    1    3    3    0  502 -0.28011953655E+03 -0.20609965101E+03  0.41583089397E+02  0.35024730442E+03  0.50400001928E-02 0.  1.
</event>
<event>
 5   0  0.6609285E-03  0.6967243E+03  0.7818609E-02  0.9722850E-01
        1   -1    0    0  501    0  0.00000000000E+00  0.00000000000E+00  0.71288000494E+03  0.71288000496E+03  0.50400001928E-02 0. -1.
       -1   -1    0    0    0  501  0.00000000000E+00  0.00000000000E+00 -0.17023369743E+03  0.17023369750E+03  0.50400001928E-02 0.  1.
    10030    2    1    2    0    0  0.00000000000E+00  0.00000000000E+00  0.54264630752E+03  0.88311370246E+03  0.69672433316E+03 0.  0.
        2    1    3    3  502    0 -0.86257175076E+02 -0.29791869412E+03  0.70268565522E+02  0.31801496799E+03  0.25500000920E-02 0.  1.
       -2    1    3    3    0  502  0.86257175076E+02  0.29791869412E+03  0.47237774200E+03  0.56509873447E+03  0.25500000920E-02 0. -1.
</event>
<event>
 5   0  0.1109788E-02  0.6942263E+03  0.7818609E-02  0.9727157E-01
       -2   -1    0    0    0  501  0.00000000000E+00  0.00000000000E+00  0.55416378830E+02  0.55416378889E+02  0.25500000920E-02 0.  1.
        2   -1    0    0  501    0  0.00000000000E+00  0.00000000000E+00 -0.21742227003E+04  0.21742227003E+04  0.25500000920E-02 0. -1.
    10030    2    1    2    0    0  0.00000000000E+00  0.00000000000E+00 -0.21188063215E+04  0.22296390792E+04  0.69422632876E+03 0.  0.
        1    1    3    3  502    0 -0.76815542077E+02 -0.21829999260E+03 -0.18903064931E+04  0.19044196365E+04  0.50400001928E-02 0. -1.
       -1    1    3    3    0  502  0.76815542077E+02  0.21829999260E+03 -0.22849982841E+03  0.32521944266E+03  0.50400001928E-02 0.  1.
</event>
<event>
 5   0  0.1119786E-02  0.7127192E+03  0.7818609E-02  0.9695725E-01
       -2   -1    0    0    0  501  0.00000000000E+00  0.00000000000E+00  0.18027890688E+03  0.18027890690E+03  0.25500000920E-02 0.  1.
        2   -1    0    0  501    0  0.00000000000E+00  0.00000000000E+00 -0.70442049478E+03  0.70442049479E+03  0.25500000920E-02 0. -1.
    10030    2    1    2    0    0  0.00000000000E+00  0.00000000000E+00 -0.52414158790E+03  0.88469940169E+03  0.71271917834E+03 0.  0.
        3    1    3    3  502    0  0.16915544286E+03  0.21576703725E+03  0.20507805995E+02  0.27493555339E+03  0.10100000352E+00 0.  1.
       -3    1    3    3    0  502 -0.16915544286E+03 -0.21576703725E+03 -0.54464939390E+03  0.60976384829E+03  0.10100000352E+00 0. -1.
</event>
<event>
 5   0  0.6785252E-03  0.7044442E+03  0.7818609E-02  0.9709662E-01
       -1   -1    0    0    0  501  0.00000000000E+00  0.00000000000E+00  0.29527359535E+03  0.29527359539E+03  0.50400001928E-02 0.  1.
        1   -1    0    0  501    0  0.00000000000E+00  0.00000000000E+00 -0.42015407554E+03  0.42015407557E+03  0.50400001928E-02 0. -1.
    10030    2    1    2    0    0  0.00000000000E+00  0.00000000000E+00 -0.12488048019E+03  0.71542767096E+03  0.70444419086E+03 0.  0.
        3    1    3    3  502    0  0.20511290835E+03  0.26439423475E+03  0.49204553637E+02  0.33822583408E+03  0.10100000352E+00 0.  1.
       -3    1    3    3    0  502 -0.20511290835E+03 -0.26439423475E+03 -0.17408503383E+03  0.37720183688E+03  0.10100000352E+00 0. -1.
</event>
<event>
 5   0  0.1100119E-02  0.7003244E+03  0.7818609E-02  0.9716678E-01
       -2   -1    0    0    0  501  0.00000000000E+00  0.00000000000E+00  0.69068302795E+03  0.69068302796E+03  0.25500000920E-02 0. -1.
        2   -1    0    0  501    0  0.00000000000E+00  0.00000000000E+00 -0.17752509203E+03  0.17752509205E+03  0.25500000920E-02 0.  1.
    10030    2    1    2    0    0  0.00000000000E+00  0.00000000000E+00  0.51315793592E+03  0.86820812001E+03  0.70032440515E+03 0.  0.
        4    1    3    3  502    0  0.13258234416E+03  0.26988443468E+03  0.34131556266E+02  0.30262561376E+03  0.12699999809E+01 0. -1.
       -4    1    3    3    0  502 -0.13258234416E+03 -0.26988443468E+03  0.47902637966E+03  0.56558250625E+03  0.12699999809E+01 0.  1.
</event>
<event>
 5   0  0.6785252E-03  0.6994095E+03  0.7818609E-02  0.9718243E-01
       -1   -1    0    0    0  501  0.00000000000E+00  0.00000000000E+00  0.17029027164E+03  0.17029027171E+03  0.50400001928E-02 0.  1.
        1   -1    0    0  501    0  0.00000000000E+00  0.00000000000E+00 -0.71814680021E+03  0.71814680022E+03  0.50400001928E-02 0. -1.
    10030    2    1    2    0    0  0.00000000000E+00  0.00000000000E+00 -0.54785652857E+03  0.88843707194E+03  0.69940950444E+03 0.  0.
        3    1    3    3  502    0 -0.19205363056E+03 -0.26644916615E+03 -0.42643256945E+03  0.53826062613E+03  0.10100000352E+00 0. -1.
       -3    1    3    3    0  502  0.19205363056E+03  0.26644916615E+03 -0.12142395912E+03  0.35017644581E+03  0.10100000352E+00 0.  1.
</event>
<event>
 5   0  0.6785252E-03  0.6983098E+03  0.7818609E-02  0.9720127E-01
        1   -1    0    0  501    0  0.00000000000E+00  0.00000000000E+00  0.37215623658E+03  0.37215623662E+03  0.50400001928E-02 0.  1.
       -1   -1    0    0    0  501  0.00000000000E+00  0.00000000000E+00 -0.32757514092E+03  0.32757514096E+03  0.50400001928E-02 0. -1.
    10030    2    1    2    0    0  0.00000000000E+00  0.00000000000E+00  0.44581095666E+02  0.69973137758E+03  0.69830976413E+03 0.  0.
        3    1    3    3  502    0  0.31700038024E+03  0.54394366807E+02 -0.11385781177E+03  0.34119144144E+03  0.10100000352E+00 0. -1.
       -3    1    3    3    0  502 -0.31700038024E+03 -0.54394366807E+02  0.15843890744E+03  0.35853993613E+03  0.10100000352E+00 0.  1.
</event>
<event>
 5   0  0.1119786E-02  0.6999391E+03  0.7818609E-02  0.9717336E-01
       -2   -1    0    0    0  501  0.00000000000E+00  0.00000000000E+00  0.65833734442E+02  0.65833734491E+02  0.25500000920E-02 0.  1.
        2   -1    0    0  501    0  0.00000000000E+00  0.00000000000E+00 -0.18604246268E+04  0.18604246268E+04  0.25500000920E-02 0. -1.
    10030    2    1    2    0    0  0.00000000000E+00  0.00000000000E+00 -0.17945908924E+04  0.19262583613E+04  0.69993914273E+03 0.  0.
        3    1    3    3  502    0  0.27086659122E+03 -0.13380599461E+03 -0.13834483275E+04  0.14160515667E+04  0.10100000352E+00 0. -1.
       -3    1    3    3    0  502 -0.27086659122E+03  0.13380599461E+03 -0.41114256489E+03  0.51020679464E+03  0.10100000352E+00 0.  1.
</event>
<event>
 5   0  0.6246998E-03  0.6998557E+03  0.7818609E-02  0.9717479E-01
       -1   -1    0    0    0  501  0.00000000000E+00  0.00000000000E+00  0.49179955979E+03  0.49179955982E+03  0.50400001928E-02 0. -1.
        1   -1    0    0  501    0  0.00000000000E+00  0.00000000000E+00 -0.24898253372E+03  0.24898253377E+03  0.50400001928E-02 0.  1.
    10030    2    1    2    0    0  0.00000000000E+00  0.00000000000E+00  0.24281702607E+03  0.74078209359E+03  0.69985570086E+03 0.  0.
        4    1    3    3  502    0  0.25324561822E+02  0.16504899735E+03 -0.20408929133E+03  0.26369785114E+03  0.12699999809E+01 0.  1.
       -4    1    3    3    0  502 -0.25324561822E+02 -0.16504899735E+03  0.44690631741E+03  0.47708424245E+03  0.12699999809E+01 0. -1.
</event>
<event>
 5   0  0.6785252E-03  0.7004033E+03  0.7818609E-02  0.9716543E-01
       -1   -1    0    0    0  501  0.00000000000E+00  0.00000000000E+00  0.10259016295E+03  0.10259016308E+03  0.50400001928E-02 0.  1.
        1   -1    0    0  501    0  0.00000000000E+00  0.00000000000E+00 -0.11954478660E+04  0.11954478660E+04  0.50400001928E-02 0. -1.
    10030    2    1    2    0    0  0.00000000000E+00  0.00000000000E+00 -0.10928577031E+04  0.12980380291E+04  0.70040328801E+03 0.  0.
        3    1    3    3  502    0  0.27161454051E+03 -0.21908604668E+03 -0.49182719660E+03  0.60304822028E+03  0.10100000352E+00 0. -1.
       -3    1    3    3    0  502 -0.27161454051E+03  0.21908604668E+03 -0.60103050647E+03  0.69498980883E+03  0.10100000352E+00 0.  1.
</event>
<event>
 5   0  0.1079446E-02  0.6993769E+03  0.7818609E-02  0.9718298E-01
        2   -1    0    0  501    0  0.00000000000E+00  0.00000000000E+00  0.87492185112E+03  0.87492185113E+03  0.25500000920E-02 0. -1.
       -2   -1    0    0    0  501  0.00000000000E+00  0.00000000000E+00 -0.13976335763E+03  0.13976335766E+03  0.25500000920E-02 0.  1.
    10030    2    1    2    0    0  0.00000000000E+00  0.00000000000E+00  0.73515849349E+03  0.10146852088E+04  0.69937691009E+03 0.  0.
        2    1    3    3  502    0 -0.16127547283E+03 -0.13225373394E+03 -0.39642817011E+02  0.21230256999E+03  0.25500000920E-02 0.  1.
       -2    1    3    3    0  502  0.16127547283E+03  0.13225373394E+03  0.77480131050E+03  0.80238263879E+03  0.25500000920E-02 0. -1.
</event>
<event>
 5   0  0.6246998E-03  0.6994888E+03  0.7818609E-02  0.9718107E-01
        1   -1    0    0  501    0  0.00000000000E+00  0.00000000000E+00  0.11159120649E+04  0.11159120649E+04  0.50400001928E-02 0. -1.
       -1   -1    0    0    0  501  0.00000000000E+00  0.00000000000E+00 -0.10961540714E+03  0.10961540726E+03  0.50400001928E-02 0.  1.
    10030    2    1    2    0    0  0.00000000000E+00  0.00000000000E+00  0.10062966578E+04  0.12255274722E+04  0.69948882881E+03 0.  0.
        4    1    3    3  502    0 -0.13595127694E+03 -0.25620518908E+03  0.84556071830E+03  0.89392303351E+03  0.12699999809E+01 0. -1.
       -4    1    3    3    0  502  0.13595127694E+03  0.25620518908E+03  0.16073593949E+03  0.33160443869E+03  0.12699999809E+01 0.  1.
</event>
<event>
 5   0  0.1109788E-02  0.6975844E+03  0.7818609E-02  0.9721372E-01
        2   -1    0    0  501    0  0.00000000000E+00  0.00000000000E+00  0.14759813337E+04  0.14759813337E+04  0.25500000920E-02 0.  1.
       -2   -1    0    0    0  501  0.00000000000E+00  0.00000000000E+00 -0.82423806308E+02  0.82423806347E+02  0.25500000920E-02 0. -1.
    10030    2    1    2    0    0  0.00000000000E+00  0.00000000000E+00  0.13935575274E+04  0.15584051400E+04  0.69758440233E+03 0.  0.
        1    1    3    3  502    0 -0.24768606887E+02 -0.13201516846E+03 -0.22328873858E+02  0.13616191547E+03  0.50400001928E-02 0. -1.
       -1    1    3    3    0  502  0.24768606887E+02  0.13201516846E+03  0.14158864012E+04  0.14222432246E+04  0.50400001928E-02 0.  1.
</event>
<event>
 5   0  0.4440500E-03  0.6983053E+03  0.7818609E-02  0.9720135E-01
       -4   -1    0    0    0  501  0.00000000000E+00  0.00000000000E+00  0.47133351829E+03  0.47133522928E+03  0.12699999809E+01 0.  1.
        4   -1    0    0  501    0  0.00000000000E+00  0.00000000000E+00 -0.25864022094E+03  0.25864333896E+03  0.12699999809E+01 0. -1.
    10030    2    1    2    0    0  0.00000000000E+00  0.00000000000E+00  0.21269329735E+03  0.72997856824E+03  0.69830528521E+03 0.  0.
        4    1    3    3  502    0 -0.22756906582E+02 -0.93354236906E+02  0.45723975331E+03  0.46722873976E+03  0.12699999809E+01 0.  1.
       -4    1    3    3    0  502  0.22756906582E+02  0.93354236906E+02 -0.24454645596E+03  0.26274982849E+03  0.12699999809E+01 0. -1.
</event>
<event>
 5   0  0.6246998E-03  0.6999177E+03  0.7818609E-02  0.9717373E-01
        1   -1    0    0  501    0  0.00000000000E+00  0.00000000000E+00  0.15289207620E+04  0.15289207620E+04  0.50400001928E-02 0. -1.
       -1   -1    0    0    0  501  0.00000000000E+00  0.00000000000E+00 -0.80103029205E+02  0.80103029363E+02  0.50400001928E-02 0.  1.
    10030    2    1    2    0    0  0.00000000000E+00  0.00000000000E+00  0.14488177328E+04  0.16090237914E+04  0.69991766540E+03 0.  0.
        4    1    3    3  502    0 -0.98567461030E+02 -0.21892198180E+03  0.13908784734E+03  0.27746967522E+03  0.12699999809E+01 0.  1.
       -4    1    3    3    0  502  0.98567461030E+02  0.21892198180E+03  0.13097298855E+04  0.13315541162E+04  0.12699999809E+01 0. -1.
</event>
<event>
 5   0  0.1119786E-02  0.7016584E+03  0.7818609E-02  0.9714400E-01
       -2   -1    0    0    0  501  0.00000000000E+00  0.00000000000E+00  0.93659448474E+02  0.93659448508E+02  0.25500000920E-02 0.  1.
        2   -1    0    0  501    0  0.00000000000E+00  0.00000000000E+00 -0.13141345105E+04  0.13141345105E+04  0.25500000920E-02 0. -1.
    10030    2    1    2    0    0  0.00000000000E+00  0.00000000000E+00 -0.12204750620E+04  0.14077939590E+04  0.70165835989E+03 0.  0.
        3    1    3    3  502    0  0.21153611032E+03  0.21180332516E+03 -0.97731713124E+03  0.10221335332E+04  0.10100000352E+00 0. -1.
       -3    1    3    3    0  502 -0.21153611032E+03 -0.21180332516E+03 -0.24315793080E+03  0.38566042581E+03  0.10100000352E+00 0.  1.
</event>
<event>
 5   0  0.6785252E-03  0.6994618E+03  0.7818609E-02  0.9718153E-01
        1   -1    0    0  501    0  0.00000000000E+00  0.00000000000E+00  0.14200201233E+03  0.14200201242E+03  0.50400001928E-02 0.  1.
       -1   -1    0    0    0  501  0.00000000000E+00  0.00000000000E+00 -0.86133779449E+03  0.86133779450E+03  0.50400001928E-02 0. -1.
    10030    2    1    2    0    0  0.00000000000E+00  0.00000000000E+00 -0.71933578216E+03  0.10033398069E+04  0.69946179357E+03 0.  0.
        3    1    3    3  502    0 -0.11674995321E+03 -0.31681382638E+03 -0.22890390263E+03  0.40791979481E+03  0.10100000352E+00 0.  1.
       -3    1    3    3    0  502  0.11674995321E+03  0.31681382638E+03 -0.49043187953E+03  0.59542001211E+03  0.10100000352E+00 0. -1.
</event>
<event>
 5   0  0.1079446E-02  0.6999854E+03  0.7818609E-02  0.9717257E-01
        2   -1    0    0  501    0  0.00000000000E+00  0.00000000000E+00  0.14840341091E+04  0.14840341091E+04  0.25500000920E-02 0.  1.
       -2   -1    0    0    0  501  0.00000000000E+00  0.00000000000E+00 -0.82541825592E+02  0.82541825631E+02  0.25500000920E-02 0. -1.
    10030    2    1    2    0    0  0.00000000000E+00  0.00000000000E+00  0.14014922835E+04  0.15665759347E+04  0.69998538453E+03 0.  0.
        2    1    3    3  502    0 -0.10280047587E+03 -0.56757249321E+02  0.14386305953E+04  0.14434151561E+04  0.25500000920E-02 0.  1.
       -2    1    3    3    0  502  0.10280047587E+03  0.56757249321E+02 -0.37138311755E+02  0.12316077865E+03  0.25500000920E-02 0. -1.
</event>
<event>
 5   0  0.1119786E-02  0.6956733E+03  0.7818609E-02  0.9724660E-01
       -2   -1    0    0    0  501  0.00000000000E+00  0.00000000000E+00  0.71439913260E+02  0.71439913306E+02  0.25500000920E-02 0. -1.
        2   -1    0    0  501    0  0.00000000000E+00  0.00000000000E+00 -0.16935957982E+04  0.16935957982E+04  0.25500000920E-02 0.  1.
    10030    2    1    2    0    0  0.00000000000E+00  0.00000000000E+00 -0.16221558850E+04  0.17650357115E+04  0.69567330541E+03 0.  0.
        3    1    3    3  502    0  0.29770556241E+03  0.53962275998E+02 -0.12464788355E+04  0.12826730007E+04  0.10100000352E+00 0.  1.
       -3    1    3    3    0  502 -0.29770556241E+03 -0.53962275998E+02 -0.37567704942E+03  0.48236271081E+03  0.10100000352E+00 0. -1.
</event>
<event>
 5   0  0.1079446E-02  0.7005720E+03  0.7818609E-02  0.9716254E-01
        2   -1    0    0  501    0  0.00000000000E+00  0.00000000000E+00  0.35357604889E+03  0.35357604890E+03  0.25500000920E-02 0. -1.
       -2   -1    0    0    0  501  0.00000000000E+00  0.00000000000E+00 -0.34702660705E+03  0.34702660706E+03  0.25500000920E-02 0.  1.
    10030    2    1    2    0    0  0.00000000000E+00  0.00000000000E+00  0.65494418374E+01  0.70060265595E+03  0.70057204222E+03 0.  0.
        2    1    3    3  502    0  0.28442795002E+03  0.11936647590E+03  0.16927198089E+03  0.35185311970E+03  0.25500000920E-02 0. -1.
       -2    1    3    3    0  502 -0.28442795002E+03 -0.11936647590E+03 -0.16272253905E+03  0.34874953626E+03  0.25500000920E-02 0.  1.
</event>
<event>
 5   0  0.1079446E-02  0.7002982E+03  0.7818609E-02  0.9716722E-01
        2   -1    0    0  501    0  0.00000000000E+00  0.00000000000E+00  0.13955607242E+04  0.13955607242E+04  0.25500000920E-02 0. -1.
       -2   -1    0    0    0  501  0.00000000000E+00  0.00000000000E+00 -0.87853150256E+02  0.87853150293E+02  0.25500000920E-02 0.  1.
    10030    2    1    2    0    0  0.00000000000E+00  0.00000000000E+00  0.13077075740E+04  0.14834138745E+04  0.70029823940E+03 0.  0.
        2    1    3    3  502    0 -0.22507951813E+01 -0.25444599516E+03  0.14434032352E+03  0.29254394461E+03  0.25500000920E-02 0.  1.
       -2    1    3    3    0  502  0.22507951813E+01  0.25444599516E+03  0.11633672505E+04  0.11908699299E+04  0.25500000920E-02 0. -1.
</event>
<event>
 5   0  0.6990118E-03  0.7016254E+03  0.7818609E-02  0.9714457E-01
        1   -1    0    0  501    0  0.00000000000E+00  0.00000000000E+00  0.92188779951E+03  0.92188779952E+03  0.50400001928E-02 0.  1.
       -1   -1    0    0    0  501  0.00000000000E+00  0.00000000000E+00 -0.13349733334E+03  0.13349733344E+03  0.50400001928E-02 0. -1.
    10030    2    1    2    0    0  0.00000000000E+00  0.00000000000E+00  0.78839046617E+03  0.10553851330E+04  0.70162543549E+03 0.  0.
        5    1    3    3  502    0  0.10634005467E+03  0.81555763907E+02  0.88181584114E+03  0.89195337184E+03  0.46999998093E+01 0.  1.
       -5    1    3    3    0  502 -0.10634005467E+03 -0.81555763907E+02 -0.93425374975E+02  0.16343176112E+03  0.46999998093E+01 0. -1.
</event>
<event>
 5   0  0.6246998E-03  0.7009248E+03  0.7818609E-02  0.9715652E-01
       -1   -1    0    0    0  501  0.00000000000E+00  0.00000000000E+00  0.28247309470E+03  0.28247309474E+03  0.50400001928E-02 0.  1.
        1   -1    0    0  501    0  0.00000000000E+00  0.00000000000E+00 -0.43481629639E+03  0.43481629642E+03  0.50400001928E-02 0. -1.
    10030    2    1    2    0    0  0.00000000000E+00  0.00000000000E+00 -0.15234320170E+03  0.71728939116E+03  0.70092483161E+03 0.  0.
        4    1    3    3  502    0  0.53810869072E+01 -0.34473185594E+03 -0.14051469416E+03  0.37231035544E+03  0.12699999809E+01 0.  1.
       -4    1    3    3    0  502 -0.53810869072E+01  0.34473185594E+03 -0.11828507541E+02  0.34497903572E+03  0.12699999809E+01 0. -1.
</event>
<event>
 5   0  0.1079446E-02  0.6992907E+03  0.7818609E-02  0.9718446E-01
       -2   -1    0    0    0  501  0.00000000000E+00  0.00000000000E+00  0.95239741559E+02  0.95239741593E+02  0.25500000920E-02 0.  1.
        2   -1    0    0  501    0  0.00000000000E+00  0.00000000000E+00 -0.12836224235E+04  0.12836224235E+04  0.25500000920E-02 0. -1.
    10030    2    1    2    0    0  0.00000000000E+00  0.00000000000E+00 -0.11883826820E+04  0.13788621651E+04  0.69929069178E+03 0.  0.
        2    1    3    3  502    0  0.72314903307E+02  0.30800604536E+03 -0.88768318130E+03  0.94237922282E+03  0.25500000920E-02 0.  1.
       -2    1    3    3    0  502 -0.72314903307E+02 -0.30800604536E+03 -0.30069950067E+03  0.43648294231E+03  0.25500000920E-02 0. -1.
</event>
<event>
 5   0  0.1079446E-02  0.7032481E+03  0.7818609E-02  0.9711694E-01
        2   -1    0    0  501    0  0.00000000000E+00  0.00000000000E+00  0.42481277443E+03  0.42481277444E+03  0.25500000920E-02 0. -1.
       -2   -1    0    0    0  501  0.00000000000E+00  0.00000000000E+00 -0.29104460078E+03  0.29104460079E+03  0.25500000920E-02 0.  1.
    10030    2    1    2    0    0  0.00000000000E+00  0.00000000000E+00  0.13376817366E+03  0.71585737523E+03  0.70324807670E+03 0.  0.
        2    1    3    3  502    0 -0.77848200157E+02 -0.56826864252E+02  0.41110377865E+03  0.42225105280E+03  0.25500000920E-02 0. -1.
       -2    1    3    3    0  502  0.77848200157E+02  0.56826864252E+02 -0.27733560499E+03  0.29360632243E+03  0.25500000920E-02 0.  1.
</event>
<event>
 5   0  0.6990118E-03  0.6996369E+03  0.7818609E-02  0.9717853E-01
        1   -1    0    0  501    0  0.00000000000E+00  0.00000000000E+00  0.94936461266E+03  0.94936461267E+03  0.50400001928E-02 0. -1.
       -1   -1    0    0    0  501  0.00000000000E+00  0.00000000000E+00 -0.12889985096E+03  0.12889985106E+03  0.50400001928E-02 0.  1.
    10030    2    1    2    0    0  0.00000000000E+00  0.00000000000E+00  0.82046476169E+03  0.10782644637E+04  0.69963692624E+03 0.  0.
        5    1    3    3  502    0 -0.27050368934E+03  0.74012986279E+02  0.88053727852E+02  0.29398251151E+03  0.46999998093E+01 0.  1.
       -5    1    3    3    0  502  0.27050368934E+03 -0.74012986279E+02  0.73241103384E+03  0.78428195222E+03  0.46999998093E+01 0. -1.
</event>
<event>
 5   0  0.1119786E-02  0.6938944E+03  0.7818609E-02  0.9727731E-01
       -2   -1    0    0    0  501  0.00000000000E+00  0.00000000000E+00  0.26688669808E+03  0.26688669809E+03  0.25500000920E-02 0.  1.
        2   -1    0    0  501    0  0.00000000000E+00  0.00000000000E+00 -0.45102415711E+03  0.45102415711E+03  0.25500000920E-02 0. -1.
    10030    2    1    2    0    0  0.00000000000E+00  0.00000000000E+00 -0.18413745903E+03  0.71791085521E+03  0.69389436675E+03 0.  0.
        3    1    3    3  502    0 -0.89633761619E+02 -0.21205194099E+03 -0.36061381177E+03  0.42783474420E+03  0.10100000352E+00 0. -1.
       -3    1    3    3    0  502  0.89633761619E+02  0.21205194099E+03  0.17647635275E+03  0.29007611101E+03  0.10100000352E+00 0.  1.
</event>
<event>
 5   0  0.4440500E-03  0.6992742E+03  0.7818609E-02  0.9718474E-01
       -4   -1    0    0    0  501  0.00000000000E+00  0.00000000000E+00  0.61465370916E+03  0.61465502120E+03  0.12699999809E+01 0. -1.
        4   -1    0    0  501    0  0.00000000000E+00  0.00000000000E+00 -0.19888260685E+03  0.19888666171E+03  0.12699999809E+01 0.  1.
    10030    2    1    2    0    0  0.00000000000E+00  0.00000000000E+00  0.41577110232E+03  0.81354168291E+03  0.69927423827E+03 0.  0.
        2    1    3    3  502    0  0.18380453007E+03  0.29470208395E+03  0.25460609944E+03  0.43064798785E+03  0.25500000920E-02 0.  1.
       -2    1    3    3    0  502 -0.18380453007E+03 -0.29470208395E+03  0.16116500288E+03  0.38289369506E+03  0.25500000920E-02 0. -1.
</event>
<event>
 5   0  0.6246998E-03  0.6997435E+03  0.7818609E-02  0.9717671E-01
       -1   -1    0    0    0  501  0.00000000000E+00  0.00000000000E+00  0.19424011644E+03  0.19424011650E+03  0.50400001928E-02 0.  1.
        1   -1    0    0  501    0  0.00000000000E+00  0.00000000000E+00 -0.63020067535E+03  0.63020067537E+03  0.50400001928E-02 0. -1.
    10030    2    1    2    0    0  0.00000000000E+00  0.00000000000E+00 -0.43596055891E+03  0.82444079187E+03  0.69974353186E+03 0.  0.
        4    1    3    3  502    0  0.12754190758E+03  0.75339160661E+02  0.15546718325E+03  0.21474306807E+03  0.12699999809E+01 0.  1.
       -4    1    3    3    0  502 -0.12754190758E+03 -0.75339160661E+02 -0.59142774216E+03  0.60969772380E+03  0.12699999809E+01 0. -1.
</event>
<event>
 5   0  0.1079446E-02  0.7011125E+03  0.7818609E-02  0.9715332E-01
       -2   -1    0    0    0  501  0.00000000000E+00  0.00000000000E+00  0.11800925989E+03  0.11800925992E+03  0.25500000920E-02 0.  1.
        2   -1    0    0  501    0  0.00000000000E+00  0.00000000000E+00 -0.10413563615E+04  0.10413563615E+04  0.25500000920E-02 0. -1.
    10030    2    1    2    0    0  0.00000000000E+00  0.00000000000E+00 -0.92334710165E+03  0.11593656215E+04  0.70111252599E+03 0.  0.
        2    1    3    3  502    0  0.18570326753E+02 -0.13954903025E+03  0.69211792863E+02  0.15687275467E+03  0.25500000920E-02 0.  1.
       -2    1    3    3    0  502 -0.18570326753E+02  0.13954903025E+03 -0.99255889452E+03  0.10024928668E+04  0.25500000920E-02 0. -1.
</event>
<event>
 5   0  0.1099980E-02  0.6981004E+03  0.7818609E-02  0.9720486E-01
        2   -1    0    0  501    0  0.00000000000E+00  0.00000000000E+00  0.11579559681E+04  0.11579559681E+04  0.25500000920E-02 0.  1.
       -2   -1    0    0    0  501  0.00000000000E+00  0.00000000000E+00 -0.10521647136E+03  0.10521647139E+03  0.25500000920E-02 0. -1.
    10030    2    1    2    0    0  0.00000000000E+00  0.00000000000E+00  0.10527394967E+04  0.12631724395E+04  0.69810039670E+03 0.  0.
        5    1    3    3  502    0 -0.11534496271E+03  0.35848254476E+02  0.11188741148E+04  0.11253847931E+04  0.46999998093E+01 0.  1.
       -5    1    3    3    0  502  0.11534496271E+03 -0.35848254476E+02 -0.66134618114E+02  0.13778764633E+03  0.46999998093E+01 0. -1.
</event>
<event>
 5   0  0.4440500E-03  0.6592811E+03  0.7818609E-02  0.9789518E-01
        4   -1    0    0  501    0  0.00000000000E+00  0.00000000000E+00  0.48011911435E+03  0.48012079404E+03  0.12699999809E+01 0. -1.
       -4   -1    0    0    0  501  0.00000000000E+00  0.00000000000E+00 -0.22632099228E+03  0.22632455555E+03  0.12699999809E+01 0.  1.
    10030    2    1    2    0    0  0.00000000000E+00  0.00000000000E+00  0.25379812208E+03  0.70644534959E+03  0.65928108208E+03 0.  0.
        2    1    3    3  502    0 -0.21080394179E+03  0.19359166570E+03  0.30214351760E+03  0.41618113861E+03  0.25500000920E-02 0. -1.
       -2    1    3    3    0  502  0.21080394179E+03 -0.19359166570E+03 -0.48345395527E+02  0.29026421098E+03  0.25500000920E-02 0.  1.
</event>
<event>
 5   0  0.6990118E-03  0.6945956E+03  0.7818609E-02  0.9726519E-01
       -1   -1    0    0    0  501  0.00000000000E+00  0.00000000000E+00  0.54143243258E+03  0.54143243260E+03  0.50400001928E-02 0. -1.
        1   -1    0    0  501    0  0.00000000000E+00  0.00000000000E+00 -0.22277156234E+03  0.22277156239E+03  0.50400001928E-02 0.  1.
    10030    2    1    2    0    0  0.00000000000E+00  0.00000000000E+00  0.31866087024E+03  0.76420399499E+03  0.69459556271E+03 0.  0.
        5    1    3    3  502    0 -0.26832595799E+02 -0.26505290037E+02  0.53913733190E+03  0.54047541224E+03  0.46999998093E+01 0. -1.
       -5    1    3    3    0  502  0.26832595799E+02  0.26505290037E+02 -0.22047646165E+03  0.22372858275E+03  0.46999998093E+01 0.  1.
</event>
<event>
 5   0  0.1100119E-02  0.7204545E+03  0.7818609E-02  0.9682878E-01
       -2   -1    0    0    0  501  0.00000000000E+00  0.00000000000E+00  0.73229689558E+02  0.73229689602E+02  0.25500000920E-02 0. -1.
        2   -1    0    0  501    0  0.00000000000E+00  0.00000000000E+00 -0.17720088003E+04  0.17720088003E+04  0.25500000920E-02 0.  1.
    10030    2    1    2    0    0  0.00000000000E+00  0.00000000000E+00 -0.16987791108E+04  0.18452384899E+04  0.72045445209E+03 0.  0.
        4    1    3    3  502    0 -0.72326887866E+02  0.28213577252E+03 -0.30649500378E+03  0.42281505778E+03  0.12699999809E+01 0. -1.
       -4    1    3    3    0  502  0.72326887866E+02 -0.28213577252E+03 -0.13922841070E+04  0.14224234321E+04  0.12699999809E+01 0.  1.
</event>
<event>
 5   0  0.6785252E-03  0.7024876E+03  0.7818609E-02  0.9712988E-01
       -1   -1    0    0    0  501  0.00000000000E+00  0.00000000000E+00  0.12835521548E+03  0.12835521557E+03  0.50400001928E-02 0.  1.
        1   -1    0    0  501    0  0.00000000000E+00  0.00000000000E+00 -0.96117788604E+03  0.96117788605E+03  0.50400001928E-02 0. -1.
    10030    2    1    2    0    0  0.00000000000E+00  0.00000000000E+00 -0.83282267056E+03  0.10895331016E+04  0.70248756497E+03 0.  0.
        3    1    3    3  502    0  0.71607305817E+02  0.11063741240E+03  0.88555428821E+02  0.15877757223E+03  0.10100000352E+00 0.  1.
       -3    1    3    3    0  502 -0.71607305817E+02 -0.11063741240E+03 -0.92137809938E+03  0.93075552939E+03  0.10100000352E+00 0. -1.
</event>
<event>
 5   0  0.6609285E-03  0.6982643E+03  0.7818609E-02  0.9720205E-01
       -1   -1    0    0    0  501  0.00000000000E+00  0.00000000000E+00  0.41686487380E+03  0.41686487383E+03  0.50400001928E-02 0.  1.
        1   -1    0    0  501    0  0.00000000000E+00  0.00000000000E+00 -0.29240474090E+03  0.29240474094E+03  0.50400001928E-02 0. -1.
    10030    2    1    2    0    0  0.00000000000E+00  0.00000000000E+00  0.12446013290E+03  0.70926961477E+03  0.69826432084E+03 0.  0.
        2    1    3    3  502    0  0.13971432926E+03 -0.28886951081E+03 -0.77515815329E+02  0.33011269244E+03  0.25500000920E-02 0. -1.
       -2    1    3    3    0  502 -0.13971432926E+03  0.28886951081E+03  0.20197594823E+03  0.37915692233E+03  0.25500000920E-02 0.  1.
</event>
<event>
 5   0  0.1079446E-02  0.7024406E+03  0.7818609E-02  0.9713068E-01
       -2   -1    0    0    0  501  0.00000000000E+00  0.00000000000E+00  0.17771963728E+03  0.17771963730E+03  0.25500000920E-02 0. -1.
        2   -1    0    0  501    0  0.00000000000E+00  0.00000000000E+00 -0.69410282157E+03  0.69410282158E+03  0.25500000920E-02 0.  1.
    10030    2    1    2    0    0  0.00000000000E+00  0.00000000000E+00 -0.51638318429E+03  0.87182245887E+03  0.70244060730E+03 0.  0.
        2    1    3    3  502    0 -0.75149180203E+02  0.27414987278E+03 -0.21744832873E+01  0.28427149068E+03  0.25500000920E-02 0. -1.
       -2    1    3    3    0  502  0.75149180203E+02 -0.27414987278E+03 -0.51420870100E+03  0.58755096819E+03  0.25500000920E-02 0.  1.
</event>
<event>
 5   0  0.1119786E-02  0.7003406E+03  0.7818609E-02  0.9716650E-01
        2   -1    0    0  501    0  0.00000000000E+00  0.00000000000E+00  0.36580047997E+03  0.36580047998E+03  0.25500000920E-02 0.  1.
       -2   -1    0    0    0  501  0.00000000000E+00  0.00000000000E+00 -0.33520800334E+03  0.33520800334E+03  0.25500000920E-02 0. -1.
    10030    2    1    2    0    0  0.00000000000E+00  0.00000000000E+00  0.30592476632E+02  0.70100848332E+03  0.70034062717E+03 0.  0.
        3    1    3    3  502    0  0.17440858736E+03 -0.29648374245E+03  0.80919977507E+02  0.35336810530E+03  0.10100000352E+00 0.  1.
       -3    1    3    3    0  502 -0.17440858736E+03  0.29648374245E+03 -0.50327500875E+02  0.34764037802E+03  0.10100000352E+00 0. -1.
</event>
<event>
 5   0  0.6246998E-03  0.6986688E+03  0.7818609E-02  0.9719511E-01
       -1   -1    0    0    0  501  0.00000000000E+00  0.00000000000E+00  0.54725205741E+03  0.54725205744E+03  0.50400001928E-02 0.  1.
        1   -1    0    0  501    0  0.00000000000E+00  0.00000000000E+00 -0.22299512133E+03  0.22299512139E+03  0.50400001928E-02 0. -1.
    10030    2    1    2    0    0  0.00000000000E+00  0.00000000000E+00  0.32425693608E+03  0.77024717883E+03  0.69866884566E+03 0.  0.
        4    1    3    3  502    0 -0.97051318974E+02 -0.28845834446E+03 -0.26920746137E+02  0.30553807370E+03  0.12699999809E+01 0.  1.
       -4    1    3    3    0  502  0.97051318974E+02  0.28845834446E+03  0.35117768221E+03  0.46470910513E+03  0.12699999809E+01 0. -1.
</event>
<event>
 5   0  0.1119786E-02  0.6935354E+03  0.7818609E-02  0.9728352E-01
        2   -1    0    0  501    0  0.00000000000E+00  0.00000000000E+00  0.38172660609E+03  0.38172660610E+03  0.25500000920E-02 0. -1.
       -2   -1    0    0    0  501  0.00000000000E+00  0.00000000000E+00 -0.31501034491E+03  0.31501034492E+03  0.25500000920E-02 0.  1.
    10030    2    1    2    0    0  0.00000000000E+00  0.00000000000E+00  0.66716261177E+02  0.69673695102E+03  0.69353537719E+03 0.  0.
        3    1    3    3  502    0  0.29701839754E+03 -0.17083498968E+03  0.86926863533E+02  0.35349796602E+03  0.10100000352E+00 0.  1.
       -3    1    3    3    0  502 -0.29701839754E+03  0.17083498968E+03 -0.20210602356E+02  0.34323898500E+03  0.10100000352E+00 0. -1.
</event>
<event>
 5   0  0.4440500E-03  0.6882803E+03  0.7818609E-02  0.9737487E-01
       -3   -1    0    0    0  501  0.00000000000E+00  0.00000000000E+00  0.24839028709E+04  0.24839028729E+04  0.10100000352E+00 0.  1.
        3   -1    0    0  501    0  0.00000000000E+00  0.00000000000E+00 -0.47679928964E+02  0.47680035937E+02  0.10100000352E+00 0. -1.
    10030    2    1    2    0    0  0.00000000000E+00  0.00000000000E+00  0.24362229419E+04  0.25315829088E+04  0.68828032208E+03 0.  0.
        4    1    3    3  502    0 -0.24374700547E+03  0.21250816643E+03  0.78511422387E+03  0.84910439930E+03  0.12699999809E+01 0. -1.
       -4    1    3    3    0  502  0.24374700547E+03 -0.21250816643E+03  0.16511087180E+04  0.16824785096E+04  0.12699999809E+01 0.  1.
</event>
<event>
 5   0  0.6689415E-03  0.7002524E+03  0.7818609E-02  0.9716801E-01
       -1   -1    0    0    0  501  0.00000000000E+00  0.00000000000E+00  0.47518084243E+03  0.47518084246E+03  0.50400001928E-02 0. -1.
        1   -1    0    0  501    0  0.00000000000E+00  0.00000000000E+00 -0.25798250790E+03  0.25798250794E+03  0.50400001928E-02 0.  1.
    10030    2    1    2    0    0  0.00000000000E+00  0.00000000000E+00  0.21719833454E+03  0.73316335040E+03  0.70025237011E+03 0.  0.
        1    1    3    3  502    0 -0.16417122957E+03  0.19163701815E+03  0.36272326755E+03  0.44186548653E+03  0.50400001928E-02 0. -1.
       -1    1    3    3    0  502  0.16417122957E+03 -0.19163701815E+03 -0.14552493301E+03  0.29129786387E+03  0.50400001928E-02 0.  1.
</event>
<event>
 5   0  0.1079446E-02  0.7049622E+03  0.7818609E-02  0.9708784E-01
       -2   -1    0    0    0  501  0.00000000000E+00  0.00000000000E+00  0.12080041071E+03  0.12080041074E+03  0.25500000920E-02 0.  1.
        2   -1    0    0  501    0  0.00000000000E+00  0.00000000000E+00 -0.10284975877E+04  0.10284975877E+04  0.25500000920E-02 0. -1.
    10030    2    1    2    0    0  0.00000000000E+00  0.00000000000E+00 -0.90769717695E+03  0.11492979984E+04  0.70496221465E+03 0.  0.
        2    1    3    3  502    0  0.90531775668E+02 -0.21731434321E+03 -0.26159099226E+02  0.23686668117E+03  0.25500000920E-02 0.  1.
       -2    1    3    3    0  502 -0.90531775668E+02  0.21731434321E+03 -0.88153807772E+03  0.91243131722E+03  0.25500000920E-02 0. -1.
</event>
<event>
 5   0  0.1119786E-02  0.7025210E+03  0.7818609E-02  0.9712931E-01
        2   -1    0    0  501    0  0.00000000000E+00  0.00000000000E+00  0.90872586857E+03  0.90872586858E+03  0.25500000920E-02 0. -1.
       -2   -1    0    0    0  501  0.00000000000E+00  0.00000000000E+00 -0.13577686613E+03  0.13577686616E+03  0.25500000920E-02 0.  1.
    10030    2    1    2    0    0  0.00000000000E+00  0.00000000000E+00  0.77294900244E+03  0.10445027347E+04  0.70252103348E+03 0.  0.
        3    1    3    3  502    0  0.25400593906E+02  0.17249992426E+03 -0.66893559018E+02  0.18675163314E+03  0.10100000352E+00 0.  1.
       -3    1    3    3    0  502 -0.25400593906E+02 -0.17249992426E+03  0.83984256146E+03  0.85775110159E+03  0.10100000352E+00 0. -1.
</event>
<event>
 5   0  0.1109788E-02  0.6990894E+03  0.7818609E-02  0.9718791E-01
        2   -1    0    0  501    0  0.00000000000E+00  0.00000000000E+00  0.10202152246E+04  0.10202152246E+04  0.25500000920E-02 0.  1.
       -2   -1    0    0    0  501  0.00000000000E+00  0.00000000000E+00 -0.11976052176E+03  0.11976052179E+03  0.25500000920E-02 0. -1.
    10030    2    1    2    0    0  0.00000000000E+00  0.00000000000E+00  0.90045470288E+03  0.11399757464E+04  0.69908942956E+03 0.  0.
        1    1    3    3  502    0 -0.34500987658E+03  0.47411473214E+02  0.49919720411E+03  0.60866863838E+03  0.50400001928E-02 0. -1.
       -1    1    3    3    0  502  0.34500987658E+03 -0.47411473214E+02  0.40125749878E+03  0.53130710806E+03  0.50400001928E-02 0.  1.
</event>
<event>
 5   0  0.6246998E-03  0.7012945E+03  0.7818609E-02  0.9715021E-01
        1   -1    0    0  501    0  0.00000000000E+00  0.00000000000E+00  0.59453385484E+03  0.59453385486E+03  0.50400001928E-02 0.  1.
       -1   -1    0    0    0  501  0.00000000000E+00  0.00000000000E+00 -0.20680653832E+03  0.20680653838E+03  0.50400001928E-02 0. -1.
    10030    2    1    2    0    0  0.00000000000E+00  0.00000000000E+00  0.38772731652E+03  0.80134039324E+03  0.70129448441E+03 0.  0.
        4    1    3    3  502    0  0.49982037018E+02  0.10526011097E+03 -0.18403349529E+03  0.21782524022E+03  0.12699999809E+01 0. -1.
       -4    1    3    3    0  502 -0.49982037018E+02 -0.10526011097E+03  0.57176081181E+03  0.58351515302E+03  0.12699999809E+01 0.  1.
</event>
<event>
 5   0  0.1119786E-02  0.6913473E+03  0.7818609E-02  0.9732145E-01
        2   -1    0    0  501    0  0.00000000000E+00  0.00000000000E+00  0.61516301193E+03  0.61516301193E+03  0.25500000920E-02 0.  1.
       -2   -1    0    0    0  501  0.00000000000E+00  0.00000000000E+00 -0.19424161413E+03  0.19424161414E+03  0.25500000920E-02 0. -1.
    10030    2    1    2    0    0  0.00000000000E+00  0.00000000000E+00  0.42092139780E+03  0.80940462607E+03  0.69134725398E+03 0.  0.
        3    1    3    3  502    0  0.14913680578E+03  0.27613351998E+03  0.40805941431E+02  0.31647534304E+03  0.10100000352E+00 0. -1.
       -3    1    3    3    0  502 -0.14913680578E+03 -0.27613351998E+03  0.38011545637E+03  0.49292928303E+03  0.10100000352E+00 0.  1.
</event>
<event>
 5   0  0.6246998E-03  0.7113157E+03  0.7818609E-02  0.9698074E-01
        1   -1    0    0  501    0  0.00000000000E+00  0.00000000000E+00  0.78763240020E+03  0.78763240022E+03  0.50400001928E-02 0. -1.
       -1   -1    0    0    0  501  0.00000000000E+00  0.00000000000E+00 -0.16059841837E+03  0.16059841845E+03  0.50400001928E-02 0.  1.
    10030    2    1    2    0    0  0.00000000000E+00  0.00000000000E+00  0.62703398183E+03  0.94823081867E+03  0.71131573236E+03 0.  0.
        4    1    3    3  502    0  0.35560338832E+03  0.17458643308E+01  0.32129997866E+03  0.47926204420E+03  0.12699999809E+01 0.  1.
       -4    1    3    3    0  502 -0.35560338832E+03 -0.17458643308E+01  0.30573400317E+03  0.46896877447E+03  0.12699999809E+01 0. -1.
</event>
<event>
 5   0  0.1099980E-02  0.7002602E+03  0.7818609E-02  0.9716787E-01
       -2   -1    0    0    0  501  0.00000000000E+00  0.00000000000E+00  0.47146325462E+03  0.47146325463E+03  0.25500000920E-02 0.  1.
        2   -1    0    0  501    0  0.00000000000E+00  0.00000000000E+00 -0.26002253614E+03  0.26002253616E+03  0.25500000920E-02 0. -1.
    10030    2    1    2    0    0  0.00000000000E+00  0.00000000000E+00  0.21144071847E+03  0.73148579078E+03  0.70026015500E+03 0.  0.
        5    1    3    3  502    0  0.92010825455E+02 -0.30641662269E+03 -0.42787497898E+02  0.32281573480E+03  0.46999998093E+01 0.  1.
       -5    1    3    3    0  502 -0.92010825455E+02  0.30641662269E+03  0.25422821637E+03  0.40867005598E+03  0.46999998093E+01 0. -1.
</event>
<event>
 5   0  0.6246998E-03  0.7031897E+03  0.7818609E-02  0.9711793E-01
        1   -1    0    0  501    0  0.00000000000E+00  0.00000000000E+00  0.35818405117E+03  0.35818405120E+03  0.50400001928E-02 0. -1.
       -1   -1    0    0    0  501  0.00000000000E+00  0.00000000000E+00 -0.34512685272E+03  0.34512685275E+03  0.50400001928E-02 0.  1.
    10030    2    1    2    0    0  0.00000000000E+00  0.00000000000E+00  0.13057198450E+02  0.70331090396E+03  0.70318968792E+03 0.  0.
        4    1    3    3  502    0  0.23649530927E+03 -0.26016616768E+03  0.74535767773E+01  0.35167262449E+03  0.12699999809E+01 0.  1.
       -4    1    3    3    0  502 -0.23649530927E+03  0.26016616768E+03  0.56036216729E+01  0.35163827947E+03  0.12699999809E+01 0. -1.
</event>
<event>
 5   0  0.6785252E-03  0.7014886E+03  0.7818609E-02  0.9714690E-01
       -1   -1    0    0    0  501  0.00000000000E+00  0.00000000000E+00  0.16879607477E+03  0.16879607485E+03  0.50400001928E-02 0.  1.
        1   -1    0    0  501    0  0.00000000000E+00  0.00000000000E+00 -0.72881760547E+03  0.72881760548E+03  0.50400001928E-02 0. -1.
    10030    2    1    2    0    0  0.00000000000E+00  0.00000000000E+00 -0.56002153070E+03  0.89761368033E+03  0.70148856318E+03 0.  0.
        3    1    3    3  502    0  0.15562990277E+03  0.50914213284E+02 -0.67690597228E+03  0.69642991698E+03  0.10100000352E+00 0. -1.
       -3    1    3    3    0  502 -0.15562990277E+03 -0.50914213284E+02  0.11688444159E+03  0.20118376335E+03  0.10100000352E+00 0.  1.
</event>
<event>
 5   0  0.1109788E-02  0.7016033E+03  0.7818609E-02  0.9714494E-01
       -2   -1    0    0    0  501  0.00000000000E+00  0.00000000000E+00  0.85707926171E+02  0.85707926209E+02  0.25500000920E-02 0. -1.
        2   -1    0    0  501    0  0.00000000000E+00  0.00000000000E+00 -0.14358274631E+04  0.14358274631E+04  0.25500000920E-02 0.  1.
    10030    2    1    2    0    0  0.00000000000E+00  0.00000000000E+00 -0.13501195370E+04  0.15215353894E+04  0.70160329029E+03 0.  0.
        1    1    3    3  502    0  0.31636627490E+03  0.11718208669E+03 -0.46656942585E+03  0.57576582957E+03  0.50400001928E-02 0. -1.
       -1    1    3    3    0  502 -0.31636627490E+03 -0.11718208669E+03 -0.88355011112E+03  0.94576955979E+03  0.50400001928E-02 0.  1.
</event>
<event>
 5   0  0.1100119E-02  0.7018446E+03  0.7818609E-02  0.9714083E-01
       -2   -1    0    0    0  501  0.00000000000E+00  0.00000000000E+00  0.18234108638E+03  0.18234108640E+03  0.25500000920E-02 0. -1.
        2   -1    0    0  501    0  0.00000000000E+00  0.00000000000E+00 -0.67536314675E+03  0.67536314675E+03  0.25500000920E-02 0.  1.
    10030    2    1    2    0    0  0.00000000000E+00  0.00000000000E+00 -0.49302206037E+03  0.85770423315E+03  0.70184456937E+03 0.  0.
        4    1    3    3  502    0  0.57085954010E+02 -0.12494650024E+03  0.14811476094E+03  0.20201492364E+03  0.12699999809E+01 0. -1.
       -4    1    3    3    0  502 -0.57085954010E+02  0.12494650024E+03 -0.64113682130E+03  0.65568930951E+03  0.12699999809E+01 0.  1.
</event>
<event>
 5   0  0.1119786E-02  0.7003897E+03  0.7818609E-02  0.9716566E-01
       -2   -1    0    0    0  501  0.00000000000E+00  0.00000000000E+00  0.94458736405E+02  0.94458736440E+02  0.25500000920E-02 0.  1.
        2   -1    0    0  501    0  0.00000000000E+00  0.00000000000E+00 -0.12983071061E+04  0.12983071061E+04  0.25500000920E-02 0. -1.
    10030    2    1    2    0    0  0.00000000000E+00  0.00000000000E+00 -0.12038483697E+04  0.13927658425E+04  0.70038974501E+03 0.  0.
        3    1    3    3  502    0  0.21362481646E+03  0.33669610285E+02 -0.54195541327E+02  0.22294925827E+03  0.10100000352E+00 0.  1.
       -3    1    3    3    0  502 -0.21362481646E+03 -0.33669610285E+02 -0.11496528283E+04  0.11698165842E+04  0.10100000352E+00 0. -1.
</event>
<event>
 5   0  0.6609285E-03  0.6997293E+03  0.7818609E-02  0.9717695E-01
       -1   -1    0    0    0  501  0.00000000000E+00  0.00000000000E+00  0.19958310683E+03  0.19958310689E+03  0.50400001928E-02 0. -1.
        1   -1    0    0  501    0  0.00000000000E+00  0.00000000000E+00 -0.61330470657E+03  0.61330470659E+03  0.50400001928E-02 0.  1.
    10030    2    1    2    0    0  0.00000000000E+00  0.00000000000E+00 -0.41372159975E+03  0.81288781349E+03  0.69972925851E+03 0.  0.
        2    1    3    3  502    0 -0.43607420857E+02 -0.29073418194E+03  0.13490077870E+02  0.29429569129E+03  0.25500000920E-02 0. -1.
       -2    1    3    3    0  502  0.43607420857E+02  0.29073418194E+03 -0.42721167762E+03  0.51859212220E+03  0.25500000920E-02 0.  1.
</event>
<event>
 5   0  0.6609285E-03  0.7078955E+03  0.7818609E-02  0.9703824E-01
        1   -1    0    0  501    0  0.00000000000E+00  0.00000000000E+00  0.31190724809E+03  0.31190724813E+03  0.50400001928E-02 0.  1.
       -1   -1    0    0    0  501  0.00000000000E+00  0.00000000000E+00 -0.40165467856E+03  0.40165467859E+03  0.50400001928E-02 0. -1.
    10030    2    1    2    0    0  0.00000000000E+00  0.00000000000E+00 -0.89747430475E+02  0.71356192672E+03  0.70789548804E+03 0.  0.
        2    1    3    3  502    0  0.14524322735E+03 -0.12080674285E+03 -0.34658406768E+03  0.39472823586E+03  0.25500000920E-02 0. -1.
       -2    1    3    3    0  502 -0.14524322735E+03  0.12080674285E+03  0.25683663721E+03  0.31883369086E+03  0.25500000920E-02 0.  1.
</event>
<event>
 5   0  0.1099980E-02  0.7009563E+03  0.7818609E-02  0.9715598E-01
       -2   -1    0    0    0  501  0.00000000000E+00  0.00000000000E+00  0.10298427384E+03  0.10298427387E+03  0.25500000920E-02 0. -1.
        2   -1    0    0  501    0  0.00000000000E+00  0.00000000000E+00 -0.11927544013E+04  0.11927544013E+04  0.25500000920E-02 0.  1.
    10030    2    1    2    0    0  0.00000000000E+00  0.00000000000E+00 -0.10897701274E+04  0.12957386752E+04  0.70095633504E+03 0.  0.
        5    1    3    3  502    0  0.66800661589E+02  0.22456674352E+03 -0.63130018988E+02  0.24269330436E+03  0.46999998093E+01 0. -1.
       -5    1    3    3    0  502 -0.66800661589E+02 -0.22456674352E+03 -0.10266401085E+04  0.10530453708E+04  0.46999998093E+01 0.  1.
</event>
<event>
 5   0  0.6689415E-03  0.7014434E+03  0.7818609E-02  0.9714767E-01
       -1   -1    0    0    0  501  0.00000000000E+00  0.00000000000E+00  0.28637751525E+03  0.28637751530E+03  0.50400001928E-02 0.  1.
        1   -1    0    0  501    0  0.00000000000E+00  0.00000000000E+00 -0.42952290134E+03  0.42952290137E+03  0.50400001928E-02 0. -1.
    10030    2    1    2    0    0  0.00000000000E+00  0.00000000000E+00 -0.14314538609E+03  0.71590041666E+03  0.70144337264E+03 0.  0.
        1    1    3    3  502    0 -0.92784333679E+01  0.37251230415E+02 -0.42737212129E+03  0.42909284960E+03  0.50400001928E-02 0. -1.
       -1    1    3    3    0  502  0.92784333679E+01 -0.37251230415E+02  0.28422673521E+03  0.28680756706E+03  0.50400001928E-02 0.  1.
</event>
<event>
 5   0  0.1119786E-02  0.6977301E+03  0.7818609E-02  0.9721122E-01
       -2   -1    0    0    0  501  0.00000000000E+00  0.00000000000E+00  0.10826981936E+03  0.10826981939E+03  0.25500000920E-02 0. -1.
        2   -1    0    0  501    0  0.00000000000E+00  0.00000000000E+00 -0.11241067814E+04  0.11241067814E+04  0.25500000920E-02 0.  1.
    10030    2    1    2    0    0  0.00000000000E+00  0.00000000000E+00 -0.10158369620E+04  0.12323766008E+04  0.69773014320E+03 0.  0.
        3    1    3    3  502    0 -0.18268761525E+03  0.24121958653E+02  0.15296296433E+02  0.18490705919E+03  0.10100000352E+00 0. -1.
       -3    1    3    3    0  502  0.18268761525E+03 -0.24121958653E+02 -0.10311332585E+04  0.10474695416E+04  0.10100000352E+00 0.  1.
</event>
<event>
 5   0  0.4440500E-03  0.6986778E+03  0.7818609E-02  0.9719496E-01
        4   -1    0    0  501    0  0.00000000000E+00  0.00000000000E+00  0.51214058852E+03  0.51214216318E+03  0.12699999809E+01 0. -1.
       -4   -1    0    0    0  501  0.00000000000E+00  0.00000000000E+00 -0.23828577650E+03  0.23828916085E+03  0.12699999809E+01 0.  1.
    10030    2    1    2    0    0  0.00000000000E+00  0.00000000000E+00  0.27385481202E+03  0.75043132404E+03  0.69867783279E+03 0.  0.
        1    1    3    3  502    0  0.10066628626E+03  0.22729243953E+03  0.40055090987E+03  0.47141975529E+03  0.50400001928E-02 0. -1.
       -1    1    3    3    0  502 -0.10066628626E+03 -0.22729243953E+03 -0.12669609785E+03  0.27901156874E+03  0.50400001928E-02 0.  1.
</event>
<event>
 5   0  0.6246998E-03  0.6939369E+03  0.7818609E-02  0.9727657E-01
        1   -1    0    0  501    0  0.00000000000E+00  0.00000000000E+00  0.31189212584E+03  0.31189212588E+03  0.50400001928E-02 0. -1.
       -1   -1    0    0    0  501  0.00000000000E+00  0.00000000000E+00 -0.38598952892E+03  0.38598952896E+03  0.50400001928E-02 0.  1.
    10030    2    1    2    0    0  0.00000000000E+00  0.00000000000E+00 -0.74097403080E+02  0.69788165484E+03  0.69393686962E+03 0.  0.
        4    1    3    3  502    0 -0.12957150679E+03 -0.20679936552E+03 -0.28508961941E+03  0.37527650732E+03  0.12699999809E+01 0.  1.
       -4    1    3    3    0  502  0.12957150679E+03  0.20679936552E+03  0.21099221633E+03  0.32260514752E+03  0.12699999809E+01 0. -1.
</event>
<event>
 5   0  0.6990118E-03  0.7109261E+03  0.7818609E-02  0.9698727E-01
       -1   -1    0    0    0  501  0.00000000000E+00  0.00000000000E+00  0.15586756756E+03  0.15586756764E+03  0.50400001928E-02 0. -1.
        1   -1    0    0  501    0  0.00000000000E+00  0.00000000000E+00 -0.81064968192E+03  0.81064968194E+03  0.50400001928E-02 0.  1.
    10030    2    1    2    0    0  0.00000000000E+00  0.00000000000E+00 -0.65478211437E+03  0.96651724958E+03  0.71092613993E+03 0.  0.
        5    1    3    3  502    0 -0.34712442593E+03 -0.24823574930E+02 -0.42561875988E+03  0.54980450681E+03  0.46999998093E+01 0.  1.
       -5    1    3    3    0  502  0.34712442593E+03  0.24823574930E+02 -0.22916335448E+03  0.41671274277E+03  0.46999998093E+01 0. -1.
</event>
<event>
 5   0  0.1100119E-02  0.7083391E+03  0.7818609E-02  0.9703077E-01
       -2   -1    0    0    0  501  0.00000000000E+00  0.00000000000E+00  0.26908344125E+03  0.26908344127E+03  0.25500000920E-02 0.  1.
        2   -1    0    0  501    0  0.00000000000E+00  0.00000000000E+00 -0.46616048672E+03  0.46616048673E+03  0.25500000920E-02 0. -1.
    10030    2    1    2    0    0  0.00000000000E+00  0.00000000000E+00 -0.19707704547E+03  0.73524392799E+03  0.70833909380E+03 0.  0.
        4    1    3    3  502    0  0.15090051809E+03 -0.30498446347E+03 -0.20049342464E+03  0.39495026971E+03  0.12699999809E+01 0. -1.
       -4    1    3    3    0  502 -0.15090051809E+03  0.30498446347E+03  0.34163791727E+01  0.34029365828E+03  0.12699999809E+01 0.  1.
</event>
<event>
 5   0  0.6785252E-03  0.7040864E+03  0.7818609E-02  0.9710269E-01
       -1   -1    0    0    0  501  0.00000000000E+00  0.00000000000E+00  0.45129127237E+03  0.45129127240E+03  0.50400001928E-02 0. -1.
        1   -1    0    0  501    0  0.00000000000E+00  0.00000000000E+00 -0.27462182162E+03  0.27462182166E+03  0.50400001928E-02 0.  1.
    10030    2    1    2    0    0  0.00000000000E+00  0.00000000000E+00  0.17666945076E+03  0.72591309406E+03  0.70408644732E+03 0.  0.
        3    1    3    3  502    0  0.20152112383E+03  0.10150018808E+03 -0.19026689157E+03  0.29515174361E+03  0.10100000352E+00 0.  1.
       -3    1    3    3    0  502 -0.20152112383E+03 -0.10150018808E+03  0.36693634232E+03  0.43076135046E+03  0.10100000352E+00 0. -1.
</event>
<event>
 5   0  0.1079446E-02  0.7005704E+03  0.7818609E-02  0.9716257E-01
       -2   -1    0    0    0  501  0.00000000000E+00  0.00000000000E+00  0.16507800572E+03  0.16507800574E+03  0.25500000920E-02 0. -1.
        2   -1    0    0  501    0  0.00000000000E+00  0.00000000000E+00 -0.74328334551E+03  0.74328334552E+03  0.25500000920E-02 0.  1.
    10030    2    1    2    0    0  0.00000000000E+00  0.00000000000E+00 -0.57820533979E+03  0.90836135125E+03  0.70057043149E+03 0.  0.
        2    1    3    3  502    0 -0.98830442816E+02 -0.22877398807E+03 -0.60827431452E+03  0.65734514203E+03  0.25500000920E-02 0. -1.
       -2    1    3    3    0  502  0.98830442816E+02  0.22877398807E+03  0.30068974723E+02  0.25101620922E+03  0.25500000920E-02 0.  1.
</event>
<event>
 5   0  0.6609285E-03  0.6976933E+03  0.7818609E-02  0.9721185E-01
       -1   -1    0    0    0  501  0.00000000000E+00  0.00000000000E+00  0.21411168511E+03  0.21411168517E+03  0.50400001928E-02 0.  1.
        1   -1    0    0  501    0  0.00000000000E+00  0.00000000000E+00 -0.56836687532E+03  0.56836687534E+03  0.50400001928E-02 0. -1.
    10030    2    1    2    0    0  0.00000000000E+00  0.00000000000E+00 -0.35425519021E+03  0.78247856051E+03  0.69769331219E+03 0.  0.
        2    1    3    3  502    0  0.24736179380E+03  0.35360640564E+02  0.95879016112E+02  0.26763971617E+03  0.25500000920E-02 0.  1.
       -2    1    3    3    0  502 -0.24736179380E+03 -0.35360640564E+02 -0.45013420632E+03  0.51483884434E+03  0.25500000920E-02 0. -1.
</event>
<event>
 5   0  0.6246998E-03  0.6965850E+03  0.7818609E-02  0.9723090E-01
        1   -1    0    0  501    0  0.00000000000E+00  0.00000000000E+00  0.85709418215E+03  0.85709418217E+03  0.50400001928E-02 0. -1.
       -1   -1    0    0    0  501  0.00000000000E+00  0.00000000000E+00 -0.14153365210E+03  0.14153365219E+03  0.50400001928E-02 0.  1.
    10030    2    1    2    0    0  0.00000000000E+00  0.00000000000E+00  0.71556053005E+03  0.99862783435E+03  0.69658501231E+03 0.  0.
        4    1    3    3  502    0 -0.33097553533E+03  0.97201719646E+02  0.28883179277E+03  0.44990932053E+03  0.12699999809E+01 0.  1.
       -4    1    3    3    0  502  0.33097553533E+03 -0.97201719646E+02  0.42672873728E+03  0.54871851382E+03  0.12699999809E+01 0. -1.
</event>
<event>
 5   0  0.1079446E-02  0.6790543E+03  0.7818609E-02  0.9753738E-01
        2   -1    0    0  501    0  0.00000000000E+00  0.00000000000E+00  0.12846174372E+04  0.12846174372E+04  0.25500000920E-02 0. -1.
       -2   -1    0    0    0  501  0.00000000000E+00  0.00000000000E+00 -0.89737753541E+02  0.89737753577E+02  0.25500000920E-02 0.  1.
    10030    2    1    2    0    0  0.00000000000E+00  0.00000000000E+00  0.11948796837E+04  0.13743551908E+04  0.67905429239E+03 0.  0.
        2    1    3    3  502    0  0.23434594574E+03 -0.29731541916E+02  0.10910316078E+04  0.11163117647E+04  0.25500000920E-02 0. -1.
       -2    1    3    3    0  502 -0.23434594574E+03  0.29731541916E+02  0.10384807590E+03  0.25804342608E+03  0.25500000920E-02 0.  1.
</event>
<event>
 5   0  0.1100119E-02  0.7000548E+03  0.7818609E-02  0.9717138E-01
       -2   -1    0    0    0  501  0.00000000000E+00  0.00000000000E+00  0.36272273683E+03  0.36272273684E+03  0.25500000920E-02 0.  1.
        2   -1    0    0  501    0  0.00000000000E+00  0.00000000000E+00 -0.33777639743E+03  0.33777639744E+03  0.25500000920E-02 0. -1.
    10030    2    1    2    0    0  0.00000000000E+00  0.00000000000E+00  0.24946339405E+02  0.70049913428E+03  0.70005479591E+03 0.  0.
        4    1    3    3  502    0 -0.20998076933E+02  0.48948360462E+02  0.35864174243E+03  0.36257740351E+03  0.12699999809E+01 0.  1.
       -4    1    3    3    0  502  0.20998076933E+02 -0.48948360462E+02 -0.33369540302E+03  0.33792173077E+03  0.12699999809E+01 0. -1.
</event>
<event>
 5   0  0.4440500E-03  0.7024689E+03  0.7818609E-02  0.9713019E-01
        3   -1    0    0  501    0  0.00000000000E+00  0.00000000000E+00  0.22214066780E+03  0.22214069076E+03  0.10100000352E+00 0. -1.
       -3   -1    0    0    0  501  0.00000000000E+00  0.00000000000E+00 -0.55534909722E+03  0.55534910640E+03  0.10100000352E+00 0.  1.
    10030    2    1    2    0    0  0.00000000000E+00  0.00000000000E+00 -0.33320842942E+03  0.77748979716E+03  0.70246887991E+03 0.  0.
        5    1    3    3  502    0  0.28726275149E+03 -0.18990107420E+03 -0.24297503194E+03  0.42147510309E+03  0.46999998093E+01 0.  1.
       -5    1    3    3    0  502 -0.28726275149E+03  0.18990107420E+03 -0.90233397478E+02  0.35601469407E+03  0.46999998093E+01 0. -1.
</event>
<event>
 5   0  0.6609285E-03  0.7200341E+03  0.7818609E-02  0.9683572E-01
        1   -1    0    0  501    0  0.00000000000E+00  0.00000000000E+00  0.42286229802E+03  0.42286229805E+03  0.50400001928E-02 0. -1.
       -1   -1    0    0    0  501  0.00000000000E+00  0.00000000000E+00 -0.30651177665E+03  0.30651177669E+03  0.50400001928E-02 0.  1.
    10030    2    1    2    0    0  0.00000000000E+00  0.00000000000E+00  0.11635052137E+03  0.72937407473E+03  0.72003409438E+03 0.  0.
        2    1    3    3  502    0 -0.15267722378E+03 -0.24292400274E+03  0.27845842905E+03  0.39982684063E+03  0.25500000920E-02 0. -1.
       -2    1    3    3    0  502  0.15267722378E+03  0.24292400274E+03 -0.16210790768E+03  0.32954723411E+03  0.25500000920E-02 0.  1.
</event>
<event>
 5   0  0.6689415E-03  0.6976261E+03  0.7818609E-02  0.9721300E-01
       -1   -1    0    0    0  501  0.00000000000E+00  0.00000000000E+00  0.80187069972E+03  0.80187069973E+03  0.50400001928E-02 0. -1.
        1   -1    0    0  501    0  0.00000000000E+00  0.00000000000E+00 -0.15173337273E+03  0.15173337281E+03  0.50400001928E-02 0.  1.
    10030    2    1    2    0    0  0.00000000000E+00  0.00000000000E+00  0.65013732699E+03  0.95360407254E+03  0.69762610560E+03 0.  0.
        1    1    3    3  502    0  0.31417620339E+03 -0.10368564499E+03  0.17400530069E+03  0.37381177676E+03  0.50400001928E-02 0.  1.
       -1    1    3    3    0  502 -0.31417620339E+03  0.10368564499E+03  0.47613202630E+03  0.57979229578E+03  0.50400001928E-02 0. -1.
</event>
<event>
 5   0  0.6246998E-03  0.6906119E+03  0.7818609E-02  0.9733423E-01
       -1   -1    0    0    0  501  0.00000000000E+00  0.00000000000E+00  0.68416383791E+03  0.68416383793E+03  0.50400001928E-02 0. -1.
        1   -1    0    0  501    0  0.00000000000E+00  0.00000000000E+00 -0.17428015843E+03  0.17428015850E+03  0.50400001928E-02 0.  1.
    10030    2    1    2    0    0  0.00000000000E+00  0.00000000000E+00  0.50988367949E+03  0.85844399643E+03  0.69061185076E+03 0.  0.
        4    1    3    3  502    0 -0.34454016823E+03  0.15592258095E+02  0.23401169575E+03  0.41679027422E+03  0.12699999809E+01 0.  1.
       -4    1    3    3    0  502  0.34454016823E+03 -0.15592258095E+02  0.27587198373E+03  0.44165372221E+03  0.12699999809E+01 0. -1.
</event>
<event>
 5   0  0.1100119E-02  0.7011509E+03  0.7818609E-02  0.9715266E-01
       -2   -1    0    0    0  501  0.00000000000E+00  0.00000000000E+00  0.24507270190E+03  0.24507270191E+03  0.25500000920E-02 0.  1.
        2   -1    0    0  501    0  0.00000000000E+00  0.00000000000E+00 -0.50149664693E+03  0.50149664694E+03  0.25500000920E-02 0. -1.
    10030    2    1    2    0    0  0.00000000000E+00  0.00000000000E+00 -0.25642394503E+03  0.74656934886E+03  0.70115087753E+03 0.  0.
        4    1    3    3  502    0  0.20551609835E+03  0.88628257238E+02 -0.41552364268E+03  0.47196752557E+03  0.12699999809E+01 0. -1.
       -4    1    3    3    0  502 -0.20551609835E+03 -0.88628257238E+02  0.15909969764E+03  0.27460182329E+03  0.12699999809E+01 0.  1.
</event>
<event>
 5   0  0.6785252E-03  0.6993546E+03  0.7818609E-02  0.9718337E-01
       -1   -1    0    0    0  501  0.00000000000E+00  0.00000000000E+00  0.23796268393E+03  0.23796268398E+03  0.50400001928E-02 0. -1.
        1   -1    0    0  501    0  0.00000000000E+00  0.00000000000E+00 -0.51383779260E+03  0.51383779262E+03  0.50400001928E-02 0.  1.
    10030    2    1    2    0    0  0.00000000000E+00  0.00000000000E+00 -0.27587510867E+03  0.75180047661E+03  0.69935461752E+03 0.  0.
        3    1    3    3  502    0  0.14621473075E+03 -0.18191970189E+03 -0.41784998767E+03  0.47861482198E+03  0.10100000352E+00 0.  1.
       -3    1    3    3    0  502 -0.14621473075E+03  0.18191970189E+03  0.14197487901E+03  0.27318565462E+03  0.10100000352E+00 0. -1.
</event>
<event>
 5   0  0.6689415E-03  0.6982627E+03  0.7818609E-02  0.9720208E-01
        1   -1    0    0  501    0  0.00000000000E+00  0.00000000000E+00  0.92641798897E+02  0.92641799034E+02  0.50400001928E-02 0.  1.
       -1   -1    0    0    0  501  0.00000000000E+00  0.00000000000E+00 -0.13157418852E+04  0.13157418852E+04  0.50400001928E-02 0. -1.
    10030    2    1    2    0    0  0.00000000000E+00  0.00000000000E+00 -0.12231000863E+04  0.14083836843E+04  0.69826268763E+03 0.  0.
        1    1    3    3  502    0 -0.33981068261E+03 -0.40104342614E+02 -0.47161974963E+03  0.58267044423E+03  0.50400001928E-02 0. -1.
       -1    1    3    3    0  502  0.33981068261E+03  0.40104342614E+02 -0.75148033671E+03  0.82571324005E+03  0.50400001928E-02 0.  1.
</event>
<event>
 5   0  0.6689415E-03  0.6996915E+03  0.7818609E-02  0.9717760E-01
       -1   -1    0    0    0  501  0.00000000000E+00  0.00000000000E+00  0.23687130170E+03  0.23687130175E+03  0.50400001928E-02 0.  1.
        1   -1    0    0  501    0  0.00000000000E+00  0.00000000000E+00 -0.51670266128E+03  0.51670266130E+03  0.50400001928E-02 0. -1.
    10030    2    1    2    0    0  0.00000000000E+00  0.00000000000E+00 -0.27983135958E+03  0.75357396305E+03  0.69969145199E+03 0.  0.
        1    1    3    3  502    0 -0.14685620180E+03 -0.16147072073E+03  0.15454828863E+03  0.26744104248E+03  0.50400001928E-02 0.  1.
       -1    1    3    3    0  502  0.14685620180E+03  0.16147072073E+03 -0.43437964820E+03  0.48613292057E+03  0.50400001928E-02 0. -1.
</event>
<event>
 5   0  0.1100119E-02  0.7012879E+03  0.7818609E-02  0.9715032E-01
       -2   -1    0    0    0  501  0.00000000000E+00  0.00000000000E+00  0.18870215689E+03  0.18870215691E+03  0.25500000920E-02 0.  1.
        2   -1    0    0  501    0  0.00000000000E+00  0.00000000000E+00 -0.65156217031E+03  0.65156217031E+03  0.25500000920E-02 0. -1.
    10030    2    1    2    0    0  0.00000000000E+00  0.00000000000E+00 -0.46286001342E+03  0.84026432722E+03  0.70128792060E+03 0.  0.
        4    1    3    3  502    0  0.13360253666E+03  0.11924921569E+03  0.12977409845E+03  0.22116270656E+03  0.12699999809E+01 0.  1.
       -4    1    3    3    0  502 -0.13360253666E+03 -0.11924921569E+03 -0.59263411188E+03  0.61910162066E+03  0.12699999809E+01 0. -1.
</event>
<event>
 5   0  0.1119786E-02  0.6961936E+03  0.7818609E-02  0.9723764E-01
        2   -1    0    0  501    0  0.00000000000E+00  0.00000000000E+00  0.15951584331E+03  0.15951584333E+03  0.25500000920E-02 0.  1.
       -2   -1    0    0    0  501  0.00000000000E+00  0.00000000000E+00 -0.75961963993E+03  0.75961963993E+03  0.25500000920E-02 0. -1.
    10030    2    1    2    0    0  0.00000000000E+00  0.00000000000E+00 -0.60010379662E+03  0.91913548326E+03  0.69619355777E+03 0.  0.
        3    1    3    3  502    0  0.13275838914E+03 -0.15742823324E+03  0.70467058811E+02  0.21765581795E+03  0.10100000352E+00 0.  1.
       -3    1    3    3    0  502 -0.13275838914E+03  0.15742823324E+03 -0.67057085543E+03  0.70147966532E+03  0.10100000352E+00 0. -1.
</event>
<event>
 5   0  0.4440500E-03  0.6965499E+03  0.7818609E-02  0.9723151E-01
        3   -1    0    0  501    0  0.00000000000E+00  0.00000000000E+00  0.20918116845E+03  0.20918119283E+03  0.10100000352E+00 0. -1.
       -3   -1    0    0    0  501  0.00000000000E+00  0.00000000000E+00 -0.57985823483E+03  0.57985824362E+03  0.10100000352E+00 0.  1.
    10030    2    1    2    0    0  0.00000000000E+00  0.00000000000E+00 -0.37067706638E+03  0.78903943645E+03  0.69654988675E+03 0.  0.
        4    1    3    3  502    0  0.14779179786E+03 -0.10132563312E+03 -0.52363014788E+03  0.55344326187E+03  0.12699999809E+01 0.  1.
       -4    1    3    3    0  502 -0.14779179786E+03  0.10132563312E+03  0.15295308150E+03  0.23559617459E+03  0.12699999809E+01 0. -1.
</event>
<event>
 5   0  0.1099980E-02  0.7013407E+03  0.7818609E-02  0.9714942E-01
        2   -1    0    0  501    0  0.00000000000E+00  0.00000000000E+00  0.28115485792E+03  0.28115485793E+03  0.25500000920E-02 0. -1.
       -2   -1    0    0    0  501  0.00000000000E+00  0.00000000000E+00 -0.43737354804E+03  0.43737354805E+03  0.25500000920E-02 0.  1.
    10030    2    1    2    0    0  0.00000000000E+00  0.00000000000E+00 -0.15621869012E+03  0.71852840598E+03  0.70134070968E+03 0.  0.
        5    1    3    3  502    0 -0.64977708612E+02 -0.30164543200E+03  0.92511934552E+02  0.32216861625E+03  0.46999998093E+01 0. -1.
       -5    1    3    3    0  502  0.64977708612E+02  0.30164543200E+03 -0.24873062467E+03  0.39635978973E+03  0.46999998093E+01 0.  1.
</event>
<event>
 5   0  0.1119786E-02  0.6928933E+03  0.7818609E-02  0.9729463E-01
        2   -1    0    0  501    0  0.00000000000E+00  0.00000000000E+00  0.83082868547E+03  0.83082868548E+03  0.25500000920E-02 0. -1.
       -2   -1    0    0    0  501  0.00000000000E+00  0.00000000000E+00 -0.14446452866E+03  0.14446452868E+03  0.25500000920E-02 0.  1.
    10030    2    1    2    0    0  0.00000000000E+00  0.00000000000E+00  0.68636415682E+03  0.97529321416E+03  0.69289328026E+03 0.  0.
        3    1    3    3  502    0  0.17487524068E+03  0.13779587538E+02 -0.77334176822E+02  0.19170762098E+03  0.10100000352E+00 0.  1.
       -3    1    3    3    0  502 -0.17487524068E+03 -0.13779587538E+02  0.76369833364E+03  0.78358559318E+03  0.10100000352E+00 0. -1.
</event>
<event>
 5   0  0.6785252E-03  0.7042313E+03  0.7818609E-02  0.9710023E-01
        1   -1    0    0  501    0  0.00000000000E+00  0.00000000000E+00  0.10323688077E+04  0.10323688077E+04  0.50400001928E-02 0. -1.
       -1   -1    0    0    0  501  0.00000000000E+00  0.00000000000E+00 -0.12009799969E+03  0.12009799979E+03  0.50400001928E-02 0.  1.
    10030    2    1    2    0    0  0.00000000000E+00  0.00000000000E+00  0.91227080805E+03  0.11524668075E+04  0.70423129387E+03 0.  0.
        3    1    3    3  502    0 -0.14266644802E+02  0.34792325198E+03  0.54166121237E+03  0.64393400719E+03  0.10100000352E+00 0.  1.
       -3    1    3    3    0  502  0.14266644802E+02 -0.34792325198E+03  0.37060959568E+03  0.50853280035E+03  0.10100000352E+00 0. -1.
</event>
<event>
 5   0  0.1099980E-02  0.7001846E+03  0.7818609E-02  0.9716917E-01
       -2   -1    0    0    0  501  0.00000000000E+00  0.00000000000E+00  0.17281045903E+03  0.17281045905E+03  0.25500000920E-02 0. -1.
        2   -1    0    0  501    0  0.00000000000E+00  0.00000000000E+00 -0.70924301569E+03  0.70924301569E+03  0.25500000920E-02 0.  1.
    10030    2    1    2    0    0  0.00000000000E+00  0.00000000000E+00 -0.53643255666E+03  0.88205347475E+03  0.70018457886E+03 0.  0.
        5    1    3    3  502    0  0.20771694814E+03 -0.22607853126E+02  0.85601618478E+02  0.22584767577E+03  0.46999998093E+01 0.  1.
       -5    1    3    3    0  502 -0.20771694814E+03  0.22607853126E+02 -0.62203417514E+03  0.65620579897E+03  0.46999998093E+01 0. -1.
</event>
<event>
 5   0  0.1079446E-02  0.6995497E+03  0.7818609E-02  0.9718003E-01
       -2   -1    0    0    0  501  0.00000000000E+00  0.00000000000E+00  0.66063884316E+03  0.66063884316E+03  0.25500000920E-02 0. -1.
        2   -1    0    0  501    0  0.00000000000E+00  0.00000000000E+00 -0.18518808944E+03  0.18518808946E+03  0.25500000920E-02 0.  1.
    10030    2    1    2    0    0  0.00000000000E+00  0.00000000000E+00  0.47545075372E+03  0.84582693262E+03  0.69954969854E+03 0.  0.
        2    1    3    3  502    0  0.21267159574E+03 -0.96497438004E+02  0.55256003087E+03  0.59988628164E+03  0.25500000920E-02 0. -1.
       -2    1    3    3    0  502 -0.21267159574E+03  0.96497438004E+02 -0.77109277153E+02  0.24594065098E+03  0.25500000920E-02 0.  1.
</event>
<event>
 5   0  0.1099980E-02  0.6986000E+03  0.7818609E-02  0.9719629E-01
        2   -1    0    0  501    0  0.00000000000E+00  0.00000000000E+00  0.62252910060E+03  0.62252910061E+03  0.25500000920E-02 0. -1.
       -2   -1    0    0    0  501  0.00000000000E+00  0.00000000000E+00 -0.19599164356E+03  0.19599164358E+03  0.25500000920E-02 0.  1.
    10030    2    1    2    0    0  0.00000000000E+00  0.00000000000E+00  0.42653745704E+03  0.81852074418E+03  0.69860003321E+03 0.  0.
        5    1    3    3  502    0 -0.83931435425E+02  0.30224978427E+01  0.61048482783E+03  0.61625273740E+03  0.46999998093E+01 0. -1.
       -5    1    3    3    0  502  0.83931435425E+02 -0.30224978427E+01 -0.18394737080E+03  0.20226800678E+03  0.46999998093E+01 0.  1.
</event>
<event>
 5   0  0.6246998E-03  0.7002027E+03  0.7818609E-02  0.9716886E-01
       -1   -1    0    0    0  501  0.00000000000E+00  0.00000000000E+00  0.18900002067E+03  0.18900002073E+03  0.50400001928E-02 0. -1.
        1   -1    0    0  501    0  0.00000000000E+00  0.00000000000E+00 -0.64852343338E+03  0.64852343340E+03  0.50400001928E-02 0.  1.
    10030    2    1    2    0    0  0.00000000000E+00  0.00000000000E+00 -0.45952341271E+03  0.83752345413E+03  0.70020266308E+03 0.  0.
        4    1    3    3  502    0 -0.81393788605E+02 -0.31530799197E+03 -0.76000332853E+02  0.33439758091E+03  0.12699999809E+01 0. -1.
       -4    1    3    3    0  502  0.81393788605E+02  0.31530799197E+03 -0.38352307986E+03  0.50312587323E+03  0.12699999809E+01 0.  1.
</event>
<event>
 5   0  0.4440500E-03  0.6995559E+03  0.7818609E-02  0.9717992E-01
       -3   -1    0    0    0  501  0.00000000000E+00  0.00000000000E+00  0.36956314125E+03  0.36956315506E+03  0.10100000352E+00 0. -1.
        3   -1    0    0  501    0  0.00000000000E+00  0.00000000000E+00 -0.33105200881E+03  0.33105202422E+03  0.10100000352E+00 0.  1.
    10030    2    1    2    0    0  0.00000000000E+00  0.00000000000E+00  0.38511132443E+02  0.70061517927E+03  0.69955594637E+03 0.  0.
        1    1    3    3  502    0  0.32426403427E+02 -0.25490682925E+03  0.25692411095E+03  0.36337165829E+03  0.50400001928E-02 0. -1.
       -1    1    3    3    0  502 -0.32426403427E+02  0.25490682925E+03 -0.21841297851E+03  0.33724352098E+03  0.50400001928E-02 0.  1.
</event>
<event>
 5   0  0.1079446E-02  0.7014551E+03  0.7818609E-02  0.9714747E-01
       -2   -1    0    0    0  501  0.00000000000E+00  0.00000000000E+00  0.99512218375E+02  0.99512218408E+02  0.25500000920E-02 0. -1.
        2   -1    0    0  501    0  0.00000000000E+00  0.00000000000E+00 -0.12361277012E+04  0.12361277012E+04  0.25500000920E-02 0.  1.
    10030    2    1    2    0    0  0.00000000000E+00  0.00000000000E+00 -0.11366154828E+04  0.13356399196E+04  0.70145508697E+03 0.  0.
        2    1    3    3  502    0  0.32279608972E+03 -0.13092697259E+03 -0.49048103924E+03  0.60159025720E+03  0.25500000920E-02 0. -1.
       -2    1    3    3    0  502 -0.32279608972E+03  0.13092697259E+03 -0.64613444353E+03  0.73404966236E+03  0.25500000920E-02 0.  1.
</event>
<event>
 5   0  0.6990118E-03  0.7012932E+03  0.7818609E-02  0.9715023E-01
        1   -1    0    0  501    0  0.00000000000E+00  0.00000000000E+00  0.95437615201E+03  0.95437615202E+03  0.50400001928E-02 0. -1.
       -1   -1    0    0    0  501  0.00000000000E+00  0.00000000000E+00 -0.12883080222E+03  0.12883080232E+03  0.50400001928E-02 0.  1.
    10030    2    1    2    0    0  0.00000000000E+00  0.00000000000E+00  0.82554534979E+03  0.10832069543E+04  0.70129322068E+03 0.  0.
        5    1    3    3  502    0 -0.72077416396E+02  0.16229091651E+03 -0.54186444993E+02  0.18571956374E+03  0.46999998093E+01 0.  1.
       -5    1    3    3    0  502  0.72077416396E+02 -0.16229091651E+03  0.87973179478E+03  0.89748739060E+03  0.46999998093E+01 0. -1.
</event>
<event>
 5   0  0.6785252E-03  0.6980038E+03  0.7818609E-02  0.9720652E-01
        1   -1    0    0  501    0  0.00000000000E+00  0.00000000000E+00  0.74117943997E+03  0.74117943999E+03  0.50400001928E-02 0.  1.
       -1   -1    0    0    0  501  0.00000000000E+00  0.00000000000E+00 -0.16433579786E+03  0.16433579793E+03  0.50400001928E-02 0. -1.
    10030    2    1    2    0    0  0.00000000000E+00  0.00000000000E+00  0.57684364211E+03  0.90551523792E+03  0.69800376694E+03 0.  0.
        3    1    3    3  502    0  0.26856426633E+03  0.99429431766E+02  0.29647429813E+02  0.28790963399E+03  0.10100000352E+00 0. -1.
       -3    1    3    3    0  502 -0.26856426633E+03 -0.99429431766E+02  0.54719621230E+03  0.61760560393E+03  0.10100000352E+00 0.  1.
</event>
<event>
 5   0  0.1100119E-02  0.7029988E+03  0.7818609E-02  0.9712118E-01
        2   -1    0    0  501    0  0.00000000000E+00  0.00000000000E+00  0.14472862592E+04  0.14472862592E+04  0.25500000920E-02 0. -1.
       -2   -1    0    0    0  501  0.00000000000E+00  0.00000000000E+00 -0.85367933109E+02  0.85367933147E+02  0.25500000920E-02 0.  1.
    10030    2    1    2    0    0  0.00000000000E+00  0.00000000000E+00  0.13619183261E+04  0.15326541924E+04  0.70299882389E+03 0.  0.
        4    1    3    3  502    0 -0.12618834795E+03  0.16080919954E+03  0.13043766000E+04  0.13202965672E+04  0.12699999809E+01 0. -1.
       -4    1    3    3    0  502  0.12618834795E+03 -0.16080919954E+03  0.57541726073E+02  0.21235762514E+03  0.12699999809E+01 0.  1.
</event>
<event>
 5   0  0.6785252E-03  0.7008624E+03  0.7818609E-02  0.9715758E-01
       -1   -1    0    0    0  501  0.00000000000E+00  0.00000000000E+00  0.38345342147E+03  0.38345342150E+03  0.50400001928E-02 0.  1.
        1   -1    0    0  501    0  0.00000000000E+00  0.00000000000E+00 -0.32025282630E+03  0.32025282634E+03  0.50400001928E-02 0. -1.
    10030    2    1    2    0    0  0.00000000000E+00  0.00000000000E+00  0.63200595173E+02  0.70370624784E+03  0.70086244586E+03 0.  0.
        3    1    3    3  502    0 -0.21987822503E+02 -0.32714748770E+03 -0.92566711930E+02  0.34070155475E+03  0.10100000352E+00 0. -1.
       -3    1    3    3    0  502  0.21987822503E+02  0.32714748770E+03  0.15576730710E+03  0.36300469310E+03  0.10100000352E+00 0.  1.
</event>
<event>
 5   0  0.6246998E-03  0.7017881E+03  0.7818609E-02  0.9714179E-01
        1   -1    0    0  501    0  0.00000000000E+00  0.00000000000E+00  0.20568603220E+03  0.20568603226E+03  0.50400001928E-02 0. -1.
       -1   -1    0    0    0  501  0.00000000000E+00  0.00000000000E+00 -0.59861451723E+03  0.59861451725E+03  0.50400001928E-02 0.  1.
    10030    2    1    2    0    0  0.00000000000E+00  0.00000000000E+00 -0.39292848503E+03  0.80430054951E+03  0.70178813013E+03 0.  0.
        4    1    3    3  502    0 -0.28580563682E+03 -0.18605258589E+03 -0.10178579787E+03  0.35589659777E+03  0.12699999809E+01 0. -1.
       -4    1    3    3    0  502  0.28580563682E+03  0.18605258589E+03 -0.29114268715E+03  0.44840395174E+03  0.12699999809E+01 0.  1.
</event>
<event>
 5   0  0.6785252E-03  0.6981032E+03  0.7818609E-02  0.9720481E-01
       -1   -1    0    0    0  501  0.00000000000E+00  0.00000000000E+00  0.55618036527E+03  0.55618036530E+03  0.50400001928E-02 0. -1.
        1   -1    0    0  501    0  0.00000000000E+00  0.00000000000E+00 -0.21906027974E+03  0.21906027979E+03  0.50400001928E-02 0.  1.
    10030    2    1    2    0    0  0.00000000000E+00  0.00000000000E+00  0.33712008554E+03  0.77524064509E+03  0.69810321996E+03 0.  0.
        3    1    3    3  502    0 -0.33651554115E+03  0.52775796900E+02  0.25319863004E+03  0.42442614273E+03  0.10100000352E+00 0. -1.
       -3    1    3    3    0  502  0.33651554115E+03 -0.52775796900E+02  0.83921455499E+02  0.35081450236E+03  0.10100000352E+00 0.  1.
</event>
<event>
 5   0  0.1119786E-02  0.7044108E+03  0.7818609E-02  0.9709719E-01
       -2   -1    0    0    0  501  0.00000000000E+00  0.00000000000E+00  0.20459381690E+03  0.20459381692E+03  0.25500000920E-02 0.  1.
        2   -1    0    0  501    0  0.00000000000E+00  0.00000000000E+00 -0.60631663879E+03  0.60631663879E+03  0.25500000920E-02 0. -1.
    10030    2    1    2    0    0  0.00000000000E+00  0.00000000000E+00 -0.40172282188E+03  0.81091045571E+03  0.70441077616E+03 0.  0.
        3    1    3    3  502    0 -0.11668962645E+03  0.31210588295E+03 -0.33222862508E+03  0.47053418644E+03  0.10100000352E+00 0. -1.
       -3    1    3    3    0  502  0.11668962645E+03 -0.31210588295E+03 -0.69494196805E+02  0.34037626927E+03  0.10100000352E+00 0.  1.
</event>
<event>
 5   0  0.6246998E-03  0.7021356E+03  0.7818609E-02  0.9713587E-01
        1   -1    0    0  501    0  0.00000000000E+00  0.00000000000E+00  0.15117330599E+04  0.15117330599E+04  0.50400001928E-02 0.  1.
       -1   -1    0    0    0  501  0.00000000000E+00  0.00000000000E+00 -0.81528025489E+02  0.81528025645E+02  0.50400001928E-02 0. -1.
    10030    2    1    2    0    0  0.00000000000E+00  0.00000000000E+00  0.14302050344E+04  0.15932610856E+04  0.70213563240E+03 0.  0.
        4    1    3    3  502    0  0.11163645110E+03  0.14773553598E+03  0.38303541864E+02  0.18909590166E+03  0.12699999809E+01 0. -1.
       -4    1    3    3    0  502 -0.11163645110E+03 -0.14773553598E+03  0.13919014926E+04  0.14041651839E+04  0.12699999809E+01 0.  1.
</event>
<event>
 5   0  0.6990118E-03  0.7174239E+03  0.7818609E-02  0.9687890E-01
        1   -1    0    0  501    0  0.00000000000E+00  0.00000000000E+00  0.45927626485E+03  0.45927626488E+03  0.50400001928E-02 0. -1.
       -1   -1    0    0    0  501  0.00000000000E+00  0.00000000000E+00 -0.28016749407E+03  0.28016749411E+03  0.50400001928E-02 0.  1.
    10030    2    1    2    0    0  0.00000000000E+00  0.00000000000E+00  0.17910877079E+03  0.73944375899E+03  0.71742394784E+03 0.  0.
        5    1    3    3  502    0  0.22848478489E+03  0.98990235687E+02  0.35564053794E+03  0.43417352051E+03  0.46999998093E+01 0. -1.
       -5    1    3    3    0  502 -0.22848478489E+03 -0.98990235687E+02 -0.17653176716E+03  0.30527023848E+03  0.46999998093E+01 0.  1.
</event>
<event>
 5   0  0.1099980E-02  0.7004683E+03  0.7818609E-02  0.9716432E-01
        2   -1    0    0  501    0  0.00000000000E+00  0.00000000000E+00  0.49276514015E+03  0.49276514015E+03  0.25500000920E-02 0.  1.
       -2   -1    0    0    0  501  0.00000000000E+00  0.00000000000E+00 -0.24892985054E+03  0.24892985055E+03  0.25500000920E-02 0. -1.
    10030    2    1    2    0    0  0.00000000000E+00  0.00000000000E+00  0.24383528960E+03  0.74169499070E+03  0.70046827964E+03 0.  0.
        5    1    3    3  502    0  0.26233890565E+03  0.15928593485E+03 -0.56675137953E+02  0.31213438086E+03  0.46999998093E+01 0. -1.
       -5    1    3    3    0  502 -0.26233890565E+03 -0.15928593485E+03  0.30051042756E+03  0.42956060984E+03  0.46999998093E+01 0.  1.
</event>
<event>
 5   0  0.6990118E-03  0.7004809E+03  0.7818609E-02  0.9716410E-01
       -1   -1    0    0    0  501  0.00000000000E+00  0.00000000000E+00  0.48240356018E+03  0.48240356021E+03  0.50400001928E-02 0.  1.
        1   -1    0    0  501    0  0.00000000000E+00  0.00000000000E+00 -0.25428576873E+03  0.25428576878E+03  0.50400001928E-02 0. -1.
    10030    2    1    2    0    0  0.00000000000E+00  0.00000000000E+00  0.22811779145E+03  0.73668932899E+03  0.70048086389E+03 0.  0.
        5    1    3    3  502    0  0.11329857079E+03  0.32120419296E+03  0.28376288044E+02  0.34181281931E+03  0.46999998093E+01 0. -1.
       -5    1    3    3    0  502 -0.11329857079E+03 -0.32120419296E+03  0.19974150341E+03  0.39487650969E+03  0.46999998093E+01 0.  1.
</event>
<event>
 5   0  0.1100119E-02  0.7302960E+03  0.7818609E-02  0.9666780E-01
       -2   -1    0    0    0  501  0.00000000000E+00  0.00000000000E+00  0.10843465523E+03  0.10843465526E+03  0.25500000920E-02 0.  1.
        2   -1    0    0  501    0  0.00000000000E+00  0.00000000000E+00 -0.12296165482E+04  0.12296165482E+04  0.25500000920E-02 0. -1.
    10030    2    1    2    0    0  0.00000000000E+00  0.00000000000E+00 -0.11211818929E+04  0.13380512034E+04  0.73029595778E+03 0.  0.
        4    1    3    3  502    0 -0.11670539943E+03 -0.22307909516E+03 -0.76018869854E+02  0.26299223264E+03  0.12699999809E+01 0.  1.
       -4    1    3    3    0  502  0.11670539943E+03  0.22307909516E+03 -0.10451630231E+04  0.10750589708E+04  0.12699999809E+01 0. -1.
</event>
<event>
 5   0  0.6609285E-03  0.6790767E+03  0.7818609E-02  0.9753698E-01
       -1   -1    0    0    0  501  0.00000000000E+00  0.00000000000E+00  0.18250598207E+03  0.18250598214E+03  0.50400001928E-02 0. -1.
        1   -1    0    0  501    0  0.00000000000E+00  0.00000000000E+00 -0.63168491039E+03  0.63168491041E+03  0.50400001928E-02 0.  1.
    10030    2    1    2    0    0  0.00000000000E+00  0.00000000000E+00 -0.44917892833E+03  0.81419089255E+03  0.67907665242E+03 0.  0.
        2    1    3    3  502    0  0.18197286112E+03  0.14618039528E+03 -0.52023514145E+03  0.57019946734E+03  0.25500000920E-02 0.  1.
       -2    1    3    3    0  502 -0.18197286112E+03 -0.14618039528E+03  0.71056213120E+02  0.24399142521E+03  0.25500000920E-02 0. -1.
</event>
<event>
 5   0  0.6609285E-03  0.6985335E+03  0.7818609E-02  0.9719743E-01
       -1   -1    0    0    0  501  0.00000000000E+00  0.00000000000E+00  0.15133233493E+03  0.15133233502E+03  0.50400001928E-02 0. -1.
        1   -1    0    0  501    0  0.00000000000E+00  0.00000000000E+00 -0.80608848398E+03  0.80608848400E+03  0.50400001928E-02 0.  1.
    10030    2    1    2    0    0  0.00000000000E+00  0.00000000000E+00 -0.65475614905E+03  0.95742081901E+03  0.69853347090E+03 0.  0.
        2    1    3    3  502    0 -0.17075492948E+03  0.15553837813E+03  0.31707026041E+02  0.23314109144E+03  0.25500000920E-02 0. -1.
       -2    1    3    3    0  502  0.17075492948E+03 -0.15553837813E+03 -0.68646317509E+03  0.72427972757E+03  0.25500000920E-02 0.  1.
</event>
<event>
 5   0  0.6689415E-03  0.7038543E+03  0.7818609E-02  0.9710663E-01
       -1   -1    0    0    0  501  0.00000000000E+00  0.00000000000E+00  0.98076257626E+03  0.98076257627E+03  0.50400001928E-02 0.  1.
        1   -1    0    0  501    0  0.00000000000E+00  0.00000000000E+00 -0.12628205555E+03  0.12628205565E+03  0.50400001928E-02 0. -1.
    10030    2    1    2    0    0  0.00000000000E+00  0.00000000000E+00  0.85448052071E+03  0.11070446319E+04  0.70385428662E+03 0.  0.
        1    1    3    3  502    0  0.18706028702E+03  0.10080453259E+03 -0.13993423266E+02  0.21295286025E+03  0.50400001928E-02 0. -1.
       -1    1    3    3    0  502 -0.18706028702E+03 -0.10080453259E+03  0.86847394398E+03  0.89409177167E+03  0.50400001928E-02 0.  1.
</event>
<event>
 5   0  0.1119786E-02  0.6993561E+03  0.7818609E-02  0.9718334E-01
       -2   -1    0    0    0  501  0.00000000000E+00  0.00000000000E+00  0.11932863114E+03  0.11932863117E+03  0.25500000920E-02 0.  1.
        2   -1    0    0  501    0  0.00000000000E+00  0.00000000000E+00 -0.10246890066E+04  0.10246890066E+04  0.25500000920E-02 0. -1.
    10030    2    1    2    0    0  0.00000000000E+00  0.00000000000E+00 -0.90536037548E+03  0.11440176378E+04  0.69935609391E+03 0.  0.
        3    1    3    3  502    0 -0.79620004661E+02  0.61137303231E+01  0.10421354967E+03  0.13129050604E+03  0.10100000352E+00 0.  1.
       -3    1    3    3    0  502  0.79620004661E+02 -0.61137303231E+01 -0.10095739251E+04  0.10127271317E+04  0.10100000352E+00 0. -1.
</event>
<event>
 5   0  0.6609285E-03  0.6971239E+03  0.7818609E-02  0.9722163E-01
        1   -1    0    0  501    0  0.00000000000E+00  0.00000000000E+00  0.65588114258E+03  0.65588114260E+03  0.50400001928E-02 0. -1.
       -1   -1    0    0    0  501  0.00000000000E+00  0.00000000000E+00 -0.18524003703E+03  0.18524003710E+03  0.50400001928E-02 0.  1.
    10030    2    1    2    0    0  0.00000000000E+00  0.00000000000E+00  0.47064110555E+03  0.84112117969E+03  0.69712394070E+03 0.  0.
        2    1    3    3  502    0  0.31490223697E+03  0.12639871243E+03  0.13913279420E+03  0.36673967304E+03  0.25500000920E-02 0. -1.
       -2    1    3    3    0  502 -0.31490223697E+03 -0.12639871243E+03  0.33150831135E+03  0.47438150665E+03  0.25500000920E-02 0.  1.
</event>
<event>
 5   0  0.4440500E-03  0.7022780E+03  0.7818609E-02  0.9713344E-01
       -3   -1    0    0    0  501  0.00000000000E+00  0.00000000000E+00  0.18729545550E+03  0.18729548273E+03  0.10100000352E+00 0. -1.
        3   -1    0    0  501    0  0.00000000000E+00  0.00000000000E+00 -0.65831062208E+03  0.65831062982E+03  0.10100000352E+00 0.  1.
    10030    2    1    2    0    0  0.00000000000E+00  0.00000000000E+00 -0.47101516658E+03  0.84560611255E+03  0.70227801506E+03 0.  0.
        2    1    3    3  502    0  0.31226682122E+02 -0.55461692503E+02 -0.65130681043E+03  0.65440940269E+03  0.25500000920E-02 0.  1.
       -2    1    3    3    0  502 -0.31226682122E+02  0.55461692503E+02  0.18029164385E+03  0.19119670986E+03  0.25500000920E-02 0. -1.
</event>
<event>
 5   0  0.6609285E-03  0.7014352E+03  0.7818609E-02  0.9714781E-01
       -1   -1    0    0    0  501  0.00000000000E+00  0.00000000000E+00  0.17244996058E+03  0.17244996065E+03  0.50400001928E-02 0. -1.
        1   -1    0    0  501    0  0.00000000000E+00  0.00000000000E+00 -0.71326689384E+03  0.71326689386E+03  0.50400001928E-02 0.  1.
    10030    2    1    2    0    0  0.00000000000E+00  0.00000000000E+00 -0.54081693326E+03  0.88571685451E+03  0.70143523654E+03 0.  0.
        2    1    3    3  502    0 -0.44370588943E+02  0.34669895076E+03 -0.23394367571E+03  0.42059309912E+03  0.25500000920E-02 0. -1.
       -2    1    3    3    0  502  0.44370588943E+02 -0.34669895076E+03 -0.30687325755E+03  0.46512375539E+03  0.25500000920E-02 0.  1.
</event>
<event>
 5   0  0.1099980E-02  0.6998710E+03  0.7818609E-02  0.9717453E-01
        2   -1    0    0  501    0  0.00000000000E+00  0.00000000000E+00  0.49794215135E+03  0.49794215136E+03  0.25500000920E-02 0.  1.
       -2   -1    0    0    0  501  0.00000000000E+00  0.00000000000E+00 -0.24592187767E+03  0.24592187768E+03  0.25500000920E-02 0. -1.
    10030    2    1    2    0    0  0.00000000000E+00  0.00000000000E+00  0.25202027368E+03  0.74386402905E+03  0.69987104195E+03 0.  0.
        5    1    3    3  502    0  0.33346541775E+03  0.15620609935E+02  0.14589332422E+02  0.33418277471E+03  0.46999998093E+01 0.  1.
       -5    1    3    3    0  502 -0.33346541775E+03 -0.15620609935E+02  0.23743094126E+03  0.40968125434E+03  0.46999998093E+01 0. -1.
</event>
<event>
 5   0  0.1100119E-02  0.7000196E+03  0.7818609E-02  0.9717199E-01
        2   -1    0    0  501    0  0.00000000000E+00  0.00000000000E+00  0.84427389531E+03  0.84427389531E+03  0.25500000920E-02 0. -1.
       -2   -1    0    0    0  501  0.00000000000E+00  0.00000000000E+00 -0.14510323048E+03  0.14510323051E+03  0.25500000920E-02 0.  1.
    10030    2    1    2    0    0  0.00000000000E+00  0.00000000000E+00  0.69917066483E+03  0.98937712582E+03  0.70001962725E+03 0.  0.
        4    1    3    3  502    0  0.12057403903E+03 -0.44327598617E+02  0.80974561654E+03  0.81987353372E+03  0.12699999809E+01 0. -1.
       -4    1    3    3    0  502 -0.12057403903E+03  0.44327598617E+02 -0.11057495172E+03  0.16950359210E+03  0.12699999809E+01 0.  1.
</event>
<event>
 5   0  0.6609285E-03  0.7235733E+03  0.7818609E-02  0.9677747E-01
       -1   -1    0    0    0  501  0.00000000000E+00  0.00000000000E+00  0.74144383828E+03  0.74144383830E+03  0.50400001928E-02 0. -1.
        1   -1    0    0  501    0  0.00000000000E+00  0.00000000000E+00 -0.17653335356E+03  0.17653335363E+03  0.50400001928E-02 0.  1.
    10030    2    1    2    0    0  0.00000000000E+00  0.00000000000E+00  0.56491048472E+03  0.91797719193E+03  0.72357326454E+03 0.  0.
        2    1    3    3  502    0  0.26004198121E+03  0.18202343774E+03  0.62220189566E+02  0.32345898638E+03  0.25500000920E-02 0. -1.
       -2    1    3    3    0  502 -0.26004198121E+03 -0.18202343774E+03  0.50269029515E+03  0.59451820555E+03  0.25500000920E-02 0.  1.
</event>
<event>
 5   0  0.6689415E-03  0.7022521E+03  0.7818609E-02  0.9713389E-01
        1   -1    0    0  501    0  0.00000000000E+00  0.00000000000E+00  0.15554418125E+03  0.15554418133E+03  0.50400001928E-02 0. -1.
       -1   -1    0    0    0  501  0.00000000000E+00  0.00000000000E+00 -0.79263338297E+03  0.79263338299E+03  0.50400001928E-02 0.  1.
    10030    2    1    2    0    0  0.00000000000E+00  0.00000000000E+00 -0.63708920172E+03  0.94817756432E+03  0.70225212177E+03 0.  0.
        1    1    3    3  502    0  0.26992996060E+03  0.12346355507E+03 -0.65282794888E+02  0.30391985193E+03  0.50400001928E-02 0.  1.
       -1    1    3    3    0  502 -0.26992996060E+03 -0.12346355507E+03 -0.57180640683E+03  0.64425771239E+03  0.50400001928E-02 0. -1.
</event>
<event>
 5   0  0.6785252E-03  0.6993620E+03  0.7818609E-02  0.9718324E-01
        1   -1    0    0  501    0  0.00000000000E+00  0.00000000000E+00  0.77966280205E+03  0.77966280206E+03  0.50400001928E-02 0.  1.
       -1   -1    0    0    0  501  0.00000000000E+00  0.00000000000E+00 -0.15683294137E+03  0.15683294145E+03  0.50400001928E-02 0. -1.
    10030    2    1    2    0    0  0.00000000000E+00  0.00000000000E+00  0.62282986068E+03  0.93649574352E+03  0.69936202519E+03 0.  0.
        3    1    3    3  502    0 -0.85177635375E+02 -0.19320768868E+03  0.68465900120E+03  0.71647916834E+03  0.10100000352E+00 0.  1.
       -3    1    3    3    0  502  0.85177635375E+02  0.19320768868E+03 -0.61829140524E+02  0.22001657518E+03  0.10100000352E+00 0. -1.
</event>
<event>
 5   0  0.1079446E-02  0.6684640E+03  0.7818609E-02  0.9772737E-01
       -2   -1    0    0    0  501  0.00000000000E+00  0.00000000000E+00  0.35776651821E+03  0.35776651822E+03  0.25500000920E-02 0. -1.
        2   -1    0    0  501    0  0.00000000000E+00  0.00000000000E+00 -0.31224564708E+03  0.31224564709E+03  0.25500000920E-02 0.  1.
    10030    2    1    2    0    0  0.00000000000E+00  0.00000000000E+00  0.45520871138E+02  0.67001216531E+03  0.66846402443E+03 0.  0.
        2    1    3    3  502    0  0.53959096681E+02  0.31766413917E+03  0.11178589238E+03  0.34105450470E+03  0.25500000920E-02 0.  1.
       -2    1    3    3    0  502 -0.53959096681E+02 -0.31766413917E+03 -0.66265021244E+02  0.32895766062E+03  0.25500000920E-02 0. -1.
</event>
<event>
 5   0  0.6689415E-03  0.6993413E+03  0.7818609E-02  0.9718359E-01
        1   -1    0    0  501    0  0.00000000000E+00  0.00000000000E+00  0.53337110427E+03  0.53337110429E+03  0.50400001928E-02 0. -1.
       -1   -1    0    0    0  501  0.00000000000E+00  0.00000000000E+00 -0.22923922801E+03  0.22923922806E+03  0.50400001928E-02 0.  1.
    10030    2    1    2    0    0  0.00000000000E+00  0.00000000000E+00  0.30413187626E+03  0.76261033236E+03  0.69934134788E+03 0.  0.
        1    1    3    3  502    0 -0.82742680384E+02 -0.18853181897E+03  0.46026388434E+03  0.50421566931E+03  0.50400001928E-02 0. -1.
       -1    1    3    3    0  502  0.82742680384E+02  0.18853181897E+03 -0.15613200808E+03  0.25839466305E+03  0.50400001928E-02 0.  1.
</event>
<event>
 5   0  0.1099980E-02  0.7003232E+03  0.7818609E-02  0.9716680E-01
        2   -1    0    0  501    0  0.00000000000E+00  0.00000000000E+00  0.52571627370E+03  0.52571627371E+03  0.25500000920E-02 0. -1.
       -2   -1    0    0    0  501  0.00000000000E+00  0.00000000000E+00 -0.23323061860E+03  0.23323061862E+03  0.25500000920E-02 0.  1.
    10030    2    1    2    0    0  0.00000000000E+00  0.00000000000E+00  0.29248565510E+03  0.75894689232E+03  0.70032315893E+03 0.  0.
        5    1    3    3  502    0 -0.12764947980E+02  0.30485517394E+03  0.33234898676E+03  0.45119570031E+03  0.46999998093E+01 0. -1.
       -5    1    3    3    0  502  0.12764947980E+02 -0.30485517394E+03 -0.39863331667E+02  0.30775119201E+03  0.46999998093E+01 0.  1.
</event>
<event>
 5   0  0.6689415E-03  0.7007755E+03  0.7818609E-02  0.9715907E-01
       -1   -1    0    0    0  501  0.00000000000E+00  0.00000000000E+00  0.12194694084E+03  0.12194694095E+03  0.50400001928E-02 0. -1.
        1   -1    0    0  501    0  0.00000000000E+00  0.00000000000E+00 -0.10067623566E+04  0.10067623566E+04  0.50400001928E-02 0.  1.
    10030    2    1    2    0    0  0.00000000000E+00  0.00000000000E+00 -0.88481541572E+03  0.11287092975E+04  0.70077554069E+03 0.  0.
        1    1    3    3  502    0 -0.29579817471E+03 -0.17153033435E+03 -0.56562430101E+03  0.66094634100E+03  0.50400001928E-02 0.  1.
       -1    1    3    3    0  502  0.29579817471E+03  0.17153033435E+03 -0.31919111471E+03  0.46776295653E+03  0.50400001928E-02 0. -1.
</event>
<event>
 5   0  0.1079446E-02  0.7000848E+03  0.7818609E-02  0.9717087E-01
        2   -1    0    0  501    0  0.00000000000E+00  0.00000000000E+00  0.85636375982E+03  0.85636375982E+03  0.25500000920E-02 0. -1.
       -2   -1    0    0    0  501  0.00000000000E+00  0.00000000000E+00 -0.14308134825E+03  0.14308134827E+03  0.25500000920E-02 0.  1.
    10030    2    1    2    0    0  0.00000000000E+00  0.00000000000E+00  0.71328241157E+03  0.99944510810E+03  0.70008479875E+03 0.  0.
        2    1    3    3  502    0 -0.11210282725E+03 -0.23106116665E+02 -0.11561101386E+03  0.16268633328E+03  0.25500000920E-02 0.  1.
       -2    1    3    3    0  502  0.11210282725E+03  0.23106116665E+02  0.82889342543E+03  0.83675877481E+03  0.25500000920E-02 0. -1.
</event>
<event>
 5   0  0.6990118E-03  0.6999466E+03  0.7818609E-02  0.9717324E-01
        1   -1    0    0  501    0  0.00000000000E+00  0.00000000000E+00  0.41430373685E+03  0.41430373688E+03  0.50400001928E-02 0. -1.
       -1   -1    0    0    0  501  0.00000000000E+00  0.00000000000E+00 -0.29563166530E+03  0.29563166534E+03  0.50400001928E-02 0.  1.
    10030    2    1    2    0    0  0.00000000000E+00  0.00000000000E+00  0.11867207155E+03  0.70993540222E+03  0.69994657993E+03 0.  0.
        5    1    3    3  502    0  0.24607241140E+03  0.22808502180E+03  0.16017723181E+03  0.37182421171E+03  0.46999998093E+01 0. -1.
       -5    1    3    3    0  502 -0.24607241140E+03 -0.22808502180E+03 -0.41505160257E+02  0.33811119051E+03  0.46999998093E+01 0.  1.
</event>
<event>
 5   0  0.1099980E-02  0.7024395E+03  0.7818609E-02  0.9713069E-01
       -2   -1    0    0    0  501  0.00000000000E+00  0.00000000000E+00  0.94443263461E+03  0.94443263461E+03  0.25500000920E-02 0.  1.
        2   -1    0    0  501    0  0.00000000000E+00  0.00000000000E+00 -0.13061315665E+03  0.13061315667E+03  0.25500000920E-02 0. -1.
    10030    2    1    2    0    0  0.00000000000E+00  0.00000000000E+00  0.81381947796E+03  0.10750457913E+04  0.70243954235E+03 0.  0.
        5    1    3    3  502    0  0.22929567869E+03 -0.18972009285E+03  0.12156048941E+03  0.32151090880E+03  0.46999998093E+01 0. -1.
       -5    1    3    3    0  502 -0.22929567869E+03  0.18972009285E+03  0.69225898854E+03  0.75353488248E+03  0.46999998093E+01 0.  1.
</event>
<event>
 5   0  0.6689415E-03  0.6986771E+03  0.7818609E-02  0.9719497E-01
       -1   -1    0    0    0  501  0.00000000000E+00  0.00000000000E+00  0.52541787144E+03  0.52541787147E+03  0.50400001928E-02 0. -1.
        1   -1    0    0  501    0  0.00000000000E+00  0.00000000000E+00 -0.23226737188E+03  0.23226737193E+03  0.50400001928E-02 0.  1.
    10030    2    1    2    0    0  0.00000000000E+00  0.00000000000E+00  0.29315049956E+03  0.75768524340E+03  0.69867711618E+03 0.  0.
        1    1    3    3  502    0 -0.82663805351E+02  0.27124282538E+03 -0.74695035064E+02  0.29323254138E+03  0.50400001928E-02 0.  1.
       -1    1    3    3    0  502  0.82663805351E+02 -0.27124282538E+03  0.36784553463E+03  0.46445270201E+03  0.50400001928E-02 0. -1.
</event>
<event>
 5   0  0.6609285E-03  0.7020739E+03  0.7818609E-02  0.9713692E-01
        1   -1    0    0  501    0  0.00000000000E+00  0.00000000000E+00  0.59261365266E+03  0.59261365268E+03  0.50400001928E-02 0.  1.
       -1   -1    0    0    0  501  0.00000000000E+00  0.00000000000E+00 -0.20793804537E+03  0.20793804543E+03  0.50400001928E-02 0. -1.
    10030    2    1    2    0    0  0.00000000000E+00  0.00000000000E+00  0.38467560729E+03  0.80055169811E+03  0.70207385545E+03 0.  0.
        2    1    3    3  502    0  0.16692468043E+02 -0.14324518486E+03 -0.17259950721E+03  0.22491867724E+03  0.25500000920E-02 0. -1.
       -2    1    3    3    0  502 -0.16692468043E+02  0.14324518486E+03  0.55727511450E+03  0.57563302087E+03  0.25500000920E-02 0.  1.
</event>
<event>
 5   0  0.1119786E-02  0.7006949E+03  0.7818609E-02  0.9716045E-01
       -2   -1    0    0    0  501  0.00000000000E+00  0.00000000000E+00  0.11673285521E+03  0.11673285523E+03  0.25500000920E-02 0. -1.
        2   -1    0    0  501    0  0.00000000000E+00  0.00000000000E+00 -0.10514890811E+04  0.10514890811E+04  0.25500000920E-02 0.  1.
    10030    2    1    2    0    0  0.00000000000E+00  0.00000000000E+00 -0.93475622586E+03  0.11682219363E+04  0.70069486274E+03 0.  0.
        3    1    3    3  502    0 -0.13037261211E+03 -0.17984323027E+03 -0.91908057919E+03  0.94554202800E+03  0.10100000352E+00 0.  1.
       -3    1    3    3    0  502  0.13037261211E+03  0.17984323027E+03 -0.15675646669E+02  0.22267990831E+03  0.10100000352E+00 0. -1.
</event>
<event>
 5   0  0.6785252E-03  0.6839862E+03  0.7818609E-02  0.9745017E-01
       -1   -1    0    0    0  501  0.00000000000E+00  0.00000000000E+00  0.48986501264E+02  0.48986501523E+02  0.50400001928E-02 0.  1.
        1   -1    0    0  501    0  0.00000000000E+00  0.00000000000E+00 -0.23875817091E+04  0.23875817091E+04  0.50400001928E-02 0. -1.
    10030    2    1    2    0    0  0.00000000000E+00  0.00000000000E+00 -0.23385952078E+04  0.24365682106E+04  0.68398618328E+03 0.  0.
        3    1    3    3  502    0 -0.15864527608E+02  0.33650373476E+02 -0.23803519565E+04  0.23806426607E+04  0.10100000352E+00 0. -1.
       -3    1    3    3    0  502  0.15864527608E+02 -0.33650373476E+02  0.41756748689E+02  0.55925549916E+02  0.10100000352E+00 0.  1.
</event>
<event>
 5   0  0.1109788E-02  0.6990763E+03  0.7818609E-02  0.9718813E-01
       -2   -1    0    0    0  501  0.00000000000E+00  0.00000000000E+00  0.41087657578E+03  0.41087657579E+03  0.25500000920E-02 0. -1.
        2   -1    0    0  501    0  0.00000000000E+00  0.00000000000E+00 -0.29735673619E+03  0.29735673620E+03  0.25500000920E-02 0.  1.
    10030    2    1    2    0    0  0.00000000000E+00  0.00000000000E+00  0.11351983959E+03  0.70823331199E+03  0.69907629786E+03 0.  0.
        1    1    3    3  502    0 -0.55230719244E+02  0.23298904526E+03  0.31473749066E+03  0.39546683251E+03  0.50400001928E-02 0. -1.
       -1    1    3    3    0  502  0.55230719244E+02 -0.23298904526E+03 -0.20121765107E+03  0.31276647948E+03  0.50400001928E-02 0.  1.
</event>
<event>
 5   0  0.6246998E-03  0.7054166E+03  0.7818609E-02  0.9708014E-01
       -1   -1    0    0    0  501  0.00000000000E+00  0.00000000000E+00  0.15885621814E+03  0.15885621822E+03  0.50400001928E-02 0. -1.
        1   -1    0    0  501    0  0.00000000000E+00  0.00000000000E+00 -0.78311777285E+03  0.78311777286E+03  0.50400001928E-02 0.  1.
    10030    2    1    2    0    0  0.00000000000E+00  0.00000000000E+00 -0.62426155471E+03  0.94197399108E+03  0.70541655154E+03 0.  0.
        4    1    3    3  502    0  0.25757847430E+03  0.15047798277E+03 -0.56341413013E+03  0.63751657912E+03  0.12699999809E+01 0.  1.
       -4    1    3    3    0  502 -0.25757847430E+03 -0.15047798277E+03 -0.60847424578E+02  0.30445741196E+03  0.12699999809E+01 0. -1.
</event>
<event>
 5   0  0.1079446E-02  0.7037647E+03  0.7818609E-02  0.9710816E-01
        2   -1    0    0  501    0  0.00000000000E+00  0.00000000000E+00  0.20045409332E+04  0.20045409332E+04  0.25500000920E-02 0.  1.
       -2   -1    0    0    0  501  0.00000000000E+00  0.00000000000E+00 -0.61770337835E+02  0.61770337888E+02  0.25500000920E-02 0. -1.
    10030    2    1    2    0    0  0.00000000000E+00  0.00000000000E+00  0.19427705953E+04  0.20663112711E+04  0.70376465016E+03 0.  0.
        2    1    3    3  502    0 -0.31161109538E+02  0.45092597476E+02  0.19919298877E+04  0.19926838772E+04  0.25500000920E-02 0.  1.
       -2    1    3    3    0  502  0.31161109538E+02 -0.45092597476E+02 -0.49159292339E+02  0.73627393846E+02  0.25500000920E-02 0. -1.
</event>
<event>
 5   0  0.6689415E-03  0.6967175E+03  0.7818609E-02  0.9722862E-01
       -1   -1    0    0    0  501  0.00000000000E+00  0.00000000000E+00  0.43830053408E+03  0.43830053411E+03  0.50400001928E-02 0. -1.
        1   -1    0    0  501    0  0.00000000000E+00  0.00000000000E+00 -0.27687351415E+03  0.27687351419E+03  0.50400001928E-02 0.  1.
    10030    2    1    2    0    0  0.00000000000E+00  0.00000000000E+00  0.16142701993E+03  0.71517404830E+03  0.69671747258E+03 0.  0.
        1    1    3    3  502    0  0.29797371360E+02  0.12431838377E+03 -0.25192472157E+03  0.28250488358E+03  0.50400001928E-02 0.  1.
       -1    1    3    3    0  502 -0.29797371360E+02 -0.12431838377E+03  0.41335174150E+03  0.43266916473E+03  0.50400001928E-02 0. -1.
</event>
<event>
 5   0  0.1100119E-02  0.7003211E+03  0.7818609E-02  0.9716683E-01
       -2   -1    0    0    0  501  0.00000000000E+00  0.00000000000E+00  0.12227982146E+03  0.12227982149E+03  0.25500000920E-02 0. -1.
        2   -1    0    0  501    0  0.00000000000E+00  0.00000000000E+00 -0.10027199758E+04  0.10027199758E+04  0.25500000920E-02 0.  1.
    10030    2    1    2    0    0  0.00000000000E+00  0.00000000000E+00 -0.88044015436E+03  0.11249997973E+04  0.70032112530E+03 0.  0.
        4    1    3    3  502    0 -0.88089244264E+02 -0.21833453718E+03 -0.85658951334E+03  0.88835628682E+03  0.12699999809E+01 0.  1.
       -4    1    3    3    0  502  0.88089244264E+02  0.21833453718E+03 -0.23850641022E+02  0.23664351049E+03  0.12699999809E+01 0. -1.
</event>
<event>
 5   0  0.1109788E-02  0.7002956E+03  0.7818609E-02  0.9716727E-01
       -2   -1    0    0    0  501  0.00000000000E+00  0.00000000000E+00  0.83623999191E+02  0.83623999230E+02  0.25500000920E-02 0. -1.
        2   -1    0    0  501    0  0.00000000000E+00  0.00000000000E+00 -0.14661278904E+04  0.14661278904E+04  0.25500000920E-02 0.  1.
    10030    2    1    2    0    0  0.00000000000E+00  0.00000000000E+00 -0.13825038912E+04  0.15497518896E+04  0.70029558774E+03 0.  0.
        1    1    3    3  502    0  0.75415322435E+02 -0.33276624193E+03 -0.51724459881E+03  0.61964733329E+03  0.50400001928E-02 0. -1.
       -1    1    3    3    0  502 -0.75415322435E+02  0.33276624193E+03 -0.86525929241E+03  0.93010455636E+03  0.50400001928E-02 0.  1.
</event>
<event>
 5   0  0.6785252E-03  0.6992204E+03  0.7818609E-02  0.9718566E-01
        1   -1    0    0  501    0  0.00000000000E+00  0.00000000000E+00  0.63627379643E+03  0.63627379645E+03  0.50400001928E-02 0. -1.
       -1   -1    0    0    0  501  0.00000000000E+00  0.00000000000E+00 -0.19209857294E+03  0.19209857300E+03  0.50400001928E-02 0.  1.
    10030    2    1    2    0    0  0.00000000000E+00  0.00000000000E+00  0.44417522349E+03  0.82837236945E+03  0.69922038965E+03 0.  0.
        3    1    3    3  502    0  0.18464352066E+03 -0.21482080598E+03  0.46484034678E+03  0.54435077533E+03  0.10100000352E+00 0. -1.
       -3    1    3    3    0  502 -0.18464352066E+03  0.21482080598E+03 -0.20665123289E+02  0.28402159412E+03  0.10100000352E+00 0.  1.
</event>
<event>
 5   0  0.6990118E-03  0.6996011E+03  0.7818609E-02  0.9717915E-01
        1   -1    0    0  501    0  0.00000000000E+00  0.00000000000E+00  0.49784034097E+03  0.49784034100E+03  0.50400001928E-02 0.  1.
       -1   -1    0    0    0  501  0.00000000000E+00  0.00000000000E+00 -0.24578244378E+03  0.24578244383E+03  0.50400001928E-02 0. -1.
    10030    2    1    2    0    0  0.00000000000E+00  0.00000000000E+00  0.25205789719E+03  0.74362278483E+03  0.69960107389E+03 0.  0.
        5    1    3    3  502    0  0.34142860187E+03  0.16304556561E+02  0.47207582325E+02  0.34509415319E+03  0.46999998093E+01 0.  1.
       -5    1    3    3    0  502 -0.34142860187E+03 -0.16304556561E+02  0.20485031487E+03  0.39852863164E+03  0.46999998093E+01 0. -1.
</event>
<event>
 5   0  0.6785252E-03  0.6994457E+03  0.7818609E-02  0.9718181E-01
        1   -1    0    0  501    0  0.00000000000E+00  0.00000000000E+00  0.80614851619E+03  0.80614851620E+03  0.50400001928E-02 0.  1.
       -1   -1    0    0    0  501  0.00000000000E+00  0.00000000000E+00 -0.15171653470E+03  0.15171653478E+03  0.50400001928E-02 0. -1.
    10030    2    1    2    0    0  0.00000000000E+00  0.00000000000E+00  0.65443198149E+03  0.95786505098E+03  0.69944566444E+03 0.  0.
        3    1    3    3  502    0  0.22149484184E+03 -0.46590466199E+02 -0.37882502113E+02  0.22949015376E+03  0.10100000352E+00 0. -1.
       -3    1    3    3    0  502 -0.22149484184E+03  0.46590466199E+02  0.69231448360E+03  0.72837489723E+03  0.10100000352E+00 0.  1.
</event>
<event>
 5   0  0.6990118E-03  0.6966220E+03  0.7818609E-02  0.9723027E-01
       -1   -1    0    0    0  501  0.00000000000E+00  0.00000000000E+00  0.97425209376E+02  0.97425209506E+02  0.50400001928E-02 0. -1.
        1   -1    0    0  501    0  0.00000000000E+00  0.00000000000E+00 -0.12452684830E+04  0.12452684830E+04  0.50400001928E-02 0.  1.
    10030    2    1    2    0    0  0.00000000000E+00  0.00000000000E+00 -0.11478432736E+04  0.13426936925E+04  0.69662197145E+03 0.  0.
        5    1    3    3  502    0  0.22753143870E+03  0.11467805075E+03 -0.10315681445E+04  0.10625801324E+04  0.46999998093E+01 0.  1.
       -5    1    3    3    0  502 -0.22753143870E+03 -0.11467805075E+03 -0.11627512906E+03  0.28011356010E+03  0.46999998093E+01 0. -1.
</event>
<event>
 5   0  0.1079446E-02  0.7061767E+03  0.7818609E-02  0.9706727E-01
        2   -1    0    0  501    0  0.00000000000E+00  0.00000000000E+00  0.29338279041E+03  0.29338279043E+03  0.25500000920E-02 0. -1.
       -2   -1    0    0    0  501  0.00000000000E+00  0.00000000000E+00 -0.42494444010E+03  0.42494444011E+03  0.25500000920E-02 0.  1.
    10030    2    1    2    0    0  0.00000000000E+00  0.00000000000E+00 -0.13156164969E+03  0.71832723054E+03  0.70617670767E+03 0.  0.
        2    1    3    3  502    0  0.30034830279E+02  0.35180857030E+03 -0.65621800133E+02  0.35913448989E+03  0.25500000920E-02 0. -1.
       -2    1    3    3    0  502 -0.30034830279E+02 -0.35180857030E+03 -0.65939849555E+02  0.35919274065E+03  0.25500000920E-02 0.  1.
</event>
<event>
 5   0  0.6689415E-03  0.6992613E+03  0.7818609E-02  0.9718496E-01
       -1   -1    0    0    0  501  0.00000000000E+00  0.00000000000E+00  0.18768639980E+03  0.18768639986E+03  0.50400001928E-02 0. -1.
        1   -1    0    0  501    0  0.00000000000E+00  0.00000000000E+00 -0.65130763617E+03  0.65130763619E+03  0.50400001928E-02 0.  1.
    10030    2    1    2    0    0  0.00000000000E+00  0.00000000000E+00 -0.46362123637E+03  0.83899403605E+03  0.69926128286E+03 0.  0.
        1    1    3    3  502    0 -0.59020386627E+01 -0.34955135110E+03 -0.23725687596E+03  0.42250657549E+03  0.50400001928E-02 0.  1.
       -1    1    3    3    0  502  0.59020386627E+01  0.34955135110E+03 -0.22636436041E+03  0.41648746056E+03  0.50400001928E-02 0. -1.
</event>
<event>
 5   0  0.1109788E-02  0.7006006E+03  0.7818609E-02  0.9716206E-01
       -2   -1    0    0    0  501  0.00000000000E+00  0.00000000000E+00  0.11566339520E+03  0.11566339523E+03  0.25500000920E-02 0.  1.
        2   -1    0    0  501    0  0.00000000000E+00  0.00000000000E+00 -0.10609261186E+04  0.10609261186E+04  0.25500000920E-02 0. -1.
    10030    2    1    2    0    0  0.00000000000E+00  0.00000000000E+00 -0.94526272336E+03  0.11765895138E+04  0.70060064787E+03 0.  0.
        1    1    3    3  502    0  0.29276779498E+03  0.12145044796E+03 -0.72312192824E+03  0.78953689984E+03  0.50400001928E-02 0. -1.
       -1    1    3    3    0  502 -0.29276779498E+03 -0.12145044796E+03 -0.22214079512E+03  0.38705261395E+03  0.50400001928E-02 0.  1.
</event>
<event>
 5   0  0.1100119E-02  0.6992971E+03  0.7818609E-02  0.9718435E-01
       -2   -1    0    0    0  501  0.00000000000E+00  0.00000000000E+00  0.12914328253E+03  0.12914328256E+03  0.25500000920E-02 0. -1.
        2   -1    0    0  501    0  0.00000000000E+00  0.00000000000E+00 -0.94665488680E+03  0.94665488680E+03  0.25500000920E-02 0.  1.
    10030    2    1    2    0    0  0.00000000000E+00  0.00000000000E+00 -0.81751160427E+03  0.10757981694E+04  0.69929713148E+03 0.  0.
        4    1    3    3  502    0 -0.33805652107E+03  0.79126345786E+02 -0.47235919856E+03  0.58623204910E+03  0.12699999809E+01 0.  1.
       -4    1    3    3    0  502  0.33805652107E+03 -0.79126345786E+02 -0.34515240571E+03  0.48956612026E+03  0.12699999809E+01 0. -1.
</event>
<event>
 5   0  0.6785252E-03  0.7308416E+03  0.7818609E-02  0.9665896E-01
       -1   -1    0    0    0  501  0.00000000000E+00  0.00000000000E+00  0.20963991785E+03  0.20963991791E+03  0.50400001928E-02 0.  1.
        1   -1    0    0  501    0  0.00000000000E+00  0.00000000000E+00 -0.63696058803E+03  0.63696058805E+03  0.50400001928E-02 0. -1.
    10030    2    1    2    0    0  0.00000000000E+00  0.00000000000E+00 -0.42732067018E+03  0.84660050596E+03  0.73084161179E+03 0.  0.
        3    1    3    3  502    0  0.34037042057E+03 -0.63765404297E+02 -0.78498836600E+02  0.35507763592E+03  0.10100000352E+00 0.  1.
       -3    1    3    3    0  502 -0.34037042057E+03  0.63765404297E+02 -0.34882183358E+03  0.49152287004E+03  0.10100000352E+00 0. -1.
</event>
<event>
 5   0  0.1119786E-02  0.7007251E+03  0.7818609E-02  0.9715993E-01
       -2   -1    0    0    0  501  0.00000000000E+00  0.00000000000E+00  0.13078509847E+03  0.13078509849E+03  0.25500000920E-02 0.  1.
        2   -1    0    0  501    0  0.00000000000E+00  0.00000000000E+00 -0.93859263494E+03  0.93859263495E+03  0.25500000920E-02 0. -1.
    10030    2    1    2    0    0  0.00000000000E+00  0.00000000000E+00 -0.80780753647E+03  0.10693777334E+04  0.70072513926E+03 0.  0.
        3    1    3    3  502    0  0.31730634450E+03  0.96194850073E+02 -0.57667811080E+03  0.66520253992E+03  0.10100000352E+00 0. -1.
       -3    1    3    3    0  502 -0.31730634450E+03 -0.96194850073E+02 -0.23112942567E+03  0.40417519352E+03  0.10100000352E+00 0.  1.
</event>
<event>
 5   0  0.1109788E-02  0.6952814E+03  0.7818609E-02  0.9725336E-01
       -2   -1    0    0    0  501  0.00000000000E+00  0.00000000000E+00  0.53848481690E+02  0.53848481751E+02  0.25500000920E-02 0.  1.
        2   -1    0    0  501    0  0.00000000000E+00  0.00000000000E+00 -0.22443354941E+04  0.22443354941E+04  0.25500000920E-02 0. -1.
    10030    2    1    2    0    0  0.00000000000E+00  0.00000000000E+00 -0.21904870124E+04  0.22981839758E+04  0.69528140729E+03 0.  0.
        1    1    3    3  502    0  0.23436262155E+03 -0.25363036679E+03 -0.96303334878E+03  0.10230774322E+04  0.50400001928E-02 0. -1.
       -1    1    3    3    0  502 -0.23436262155E+03  0.25363036679E+03 -0.12274536636E+04  0.12751065436E+04  0.50400001928E-02 0.  1.
</event>
<event>
 5   0  0.6609285E-03  0.6970094E+03  0.7818609E-02  0.9722360E-01
        1   -1    0    0  501    0  0.00000000000E+00  0.00000000000E+00  0.36441154403E+03  0.36441154406E+03  0.50400001928E-02 0.  1.
       -1   -1    0    0    0  501  0.00000000000E+00  0.00000000000E+00 -0.33329222468E+03  0.33329222472E+03  0.50400001928E-02 0. -1.
    10030    2    1    2    0    0  0.00000000000E+00  0.00000000000E+00  0.31119319343E+02  0.69770376878E+03  0.69700942385E+03 0.  0.
        2    1    3    3  502    0 -0.31804122002E+03 -0.12376127433E+03  0.86259074878E+02  0.35200525374E+03  0.25500000920E-02 0.  1.
       -2    1    3    3    0  502  0.31804122002E+03  0.12376127433E+03 -0.55139755536E+02  0.34569851504E+03  0.25500000920E-02 0. -1.
</event>
<event>
 5   0  0.6785252E-03  0.6992056E+03  0.7818609E-02  0.9718592E-01
        1   -1    0    0  501    0  0.00000000000E+00  0.00000000000E+00  0.49064683785E+03  0.49064683788E+03  0.50400001928E-02 0.  1.
       -1   -1    0    0    0  501  0.00000000000E+00  0.00000000000E+00 -0.24910403267E+03  0.24910403272E+03  0.50400001928E-02 0. -1.
    10030    2    1    2    0    0  0.00000000000E+00  0.00000000000E+00  0.24154280518E+03  0.73975087060E+03  0.69920556620E+03 0.  0.
        3    1    3    3  502    0  0.53156140899E+02 -0.34525955832E+03  0.13544496405E+03  0.37466663371E+03  0.10100000352E+00 0.  1.
       -3    1    3    3    0  502 -0.53156140899E+02  0.34525955832E+03  0.10609784113E+03  0.36508423688E+03  0.10100000352E+00 0. -1.
</event>
<event>
 5   0  0.6246998E-03  0.6996086E+03  0.7818609E-02  0.9717902E-01
        1   -1    0    0  501    0  0.00000000000E+00  0.00000000000E+00  0.12653999227E+03  0.12653999237E+03  0.50400001928E-02 0. -1.
       -1   -1    0    0    0  501  0.00000000000E+00  0.00000000000E+00 -0.96699108674E+03  0.96699108675E+03  0.50400001928E-02 0.  1.
    10030    2    1    2    0    0  0.00000000000E+00  0.00000000000E+00 -0.84045109446E+03  0.10935310791E+04  0.69960858973E+03 0.  0.
        4    1    3    3  502    0  0.32364556598E+03 -0.44670126973E+02 -0.22487691085E+03  0.39662716821E+03  0.12699999809E+01 0. -1.
       -4    1    3    3    0  502 -0.32364556598E+03  0.44670126973E+02 -0.61557418361E+03  0.69690391092E+03  0.12699999809E+01 0.  1.
</event>
<event>
 5   0  0.1099980E-02  0.6995016E+03  0.7818609E-02  0.9718085E-01
       -2   -1    0    0    0  501  0.00000000000E+00  0.00000000000E+00  0.68884074949E+02  0.68884074996E+02  0.25500000920E-02 0. -1.
        2   -1    0    0  501    0  0.00000000000E+00  0.00000000000E+00 -0.17758187059E+04  0.17758187059E+04  0.25500000920E-02 0.  1.
    10030    2    1    2    0    0  0.00000000000E+00  0.00000000000E+00 -0.17069346310E+04  0.18447027809E+04  0.69950161938E+03 0.  0.
        5    1    3    3  502    0  0.21339379080E+03 -0.27684974309E+03 -0.82447662013E+03  0.89552581054E+03  0.46999998093E+01 0. -1.
       -5    1    3    3    0  502 -0.21339379080E+03  0.27684974309E+03 -0.88245801085E+03  0.94917697039E+03  0.46999998093E+01 0.  1.
</event>
<event>
 5   0  0.1119786E-02  0.7032456E+03  0.7818609E-02  0.9711698E-01
        2   -1    0    0  501    0  0.00000000000E+00  0.00000000000E+00  0.53362829650E+03  0.53362829651E+03  0.25500000920E-02 0.  1.
       -2   -1    0    0    0  501  0.00000000000E+00  0.00000000000E+00 -0.23169420825E+03  0.23169420826E+03  0.25500000920E-02 0. -1.
    10030    2    1    2    0    0  0.00000000000E+00  0.00000000000E+00  0.30193408825E+03  0.76532250477E+03  0.70324557778E+03 0.  0.
        3    1    3    3  502    0 -0.66389872359E+02 -0.11264195613E+02 -0.22461151414E+03  0.23448846399E+03  0.10100000352E+00 0. -1.
       -3    1    3    3    0  502  0.66389872359E+02  0.11264195613E+02  0.52654560239E+03  0.53083404079E+03  0.10100000352E+00 0.  1.
</event>
<event>
 5   0  0.1100119E-02  0.6992582E+03  0.7818609E-02  0.9718502E-01
        2   -1    0    0  501    0  0.00000000000E+00  0.00000000000E+00  0.34390336553E+03  0.34390336554E+03  0.25500000920E-02 0. -1.
       -2   -1    0    0    0  501  0.00000000000E+00  0.00000000000E+00 -0.35545020457E+03  0.35545020458E+03  0.25500000920E-02 0.  1.
    10030    2    1    2    0    0  0.00000000000E+00  0.00000000000E+00 -0.11546839041E+02  0.69935357012E+03  0.69925824025E+03 0.  0.
        4    1    3    3  502    0 -0.27390261936E+03 -0.82725701676E+02  0.19518361794E+03  0.34635883737E+03  0.12699999809E+01 0. -1.
       -4    1    3    3    0  502  0.27390261936E+03  0.82725701676E+02 -0.20673045698E+03  0.35299473276E+03  0.12699999809E+01 0.  1.
</event>
<event>
 5   0  0.1119786E-02  0.7010157E+03  0.7818609E-02  0.9715497E-01
        2   -1    0    0  501    0  0.00000000000E+00  0.00000000000E+00  0.57543288348E+03  0.57543288348E+03  0.25500000920E-02 0. -1.
       -2   -1    0    0    0  501  0.00000000000E+00  0.00000000000E+00 -0.21350144418E+03  0.21350144420E+03  0.25500000920E-02 0.  1.
    10030    2    1    2    0    0  0.00000000000E+00  0.00000000000E+00  0.36193143929E+03  0.78893432768E+03  0.70101569643E+03 0.  0.
        3    1    3    3  502    0 -0.17359863260E+02 -0.32984714608E+03  0.48973860216E+02  0.33391459060E+03  0.10100000352E+00 0.  1.
       -3    1    3    3    0  502  0.17359863260E+02  0.32984714608E+03  0.31295757908E+03  0.45501973708E+03  0.10100000352E+00 0. -1.
</event>
<event>
 5   0  0.6990118E-03  0.6950967E+03  0.7818609E-02  0.9725654E-01
        1   -1    0    0  501    0  0.00000000000E+00  0.00000000000E+00  0.31073984290E+03  0.31073984294E+03  0.50400001928E-02 0.  1.
       -1   -1    0    0    0  501  0.00000000000E+00  0.00000000000E+00 -0.38871703986E+03  0.38871703990E+03  0.50400001928E-02 0. -1.
    10030    2    1    2    0    0  0.00000000000E+00  0.00000000000E+00 -0.77977196964E+02  0.69945688284E+03  0.69509674701E+03 0.  0.
        5    1    3    3  502    0 -0.28205518052E+03  0.18447873332E+03 -0.12425650423E+03  0.35923432011E+03  0.46999998093E+01 0. -1.
       -5    1    3    3    0  502  0.28205518052E+03 -0.18447873332E+03  0.46279307263E+02  0.34022256272E+03  0.46999998093E+01 0.  1.
</event>
<event>
 5   0  0.6246998E-03  0.6952587E+03  0.7818609E-02  0.9725375E-01
        1   -1    0    0  501    0  0.00000000000E+00  0.00000000000E+00  0.87524611717E+03  0.87524611718E+03  0.50400001928E-02 0. -1.
       -1   -1    0    0    0  501  0.00000000000E+00  0.00000000000E+00 -0.13807105528E+03  0.13807105537E+03  0.50400001928E-02 0.  1.
    10030    2    1    2    0    0  0.00000000000E+00  0.00000000000E+00  0.73717506189E+03  0.10133171726E+04  0.69525867152E+03 0.  0.
        4    1    3    3  502    0 -0.94209869526E+01 -0.19976512005E+03  0.78300509326E+03  0.80814197215E+03  0.12699999809E+01 0. -1.
       -4    1    3    3    0  502  0.94209869526E+01  0.19976512005E+03 -0.45830031371E+02  0.20517520040E+03  0.12699999809E+01 0.  1.
</event>
<event>
 5   0  0.6990118E-03  0.6973882E+03  0.7818609E-02  0.9721709E-01
       -1   -1    0    0    0  501  0.00000000000E+00  0.00000000000E+00  0.72767762214E+02  0.72767762389E+02  0.50400001928E-02 0. -1.
        1   -1    0    0  501    0  0.00000000000E+00  0.00000000000E+00 -0.16708990149E+04  0.16708990149E+04  0.50400001928E-02 0.  1.
    10030    2    1    2    0    0  0.00000000000E+00  0.00000000000E+00 -0.15981312527E+04  0.17436667773E+04  0.69738822002E+03 0.  0.
        5    1    3    3  502    0 -0.22366463493E+03 -0.22396954013E+03 -0.11646309490E+04  0.12068867226E+04  0.46999998093E+01 0.  1.
       -5    1    3    3    0  502  0.22366463493E+03  0.22396954013E+03 -0.43350030369E+03  0.53678005470E+03  0.46999998093E+01 0. -1.
</event>
<event>
 5   0  0.6246998E-03  0.7002515E+03  0.7818609E-02  0.9716802E-01
       -1   -1    0    0    0  501  0.00000000000E+00  0.00000000000E+00  0.23867443828E+03  0.23867443833E+03  0.50400001928E-02 0.  1.
        1   -1    0    0  501    0  0.00000000000E+00  0.00000000000E+00 -0.51362037302E+03  0.51362037305E+03  0.50400001928E-02 0. -1.
    10030    2    1    2    0    0  0.00000000000E+00  0.00000000000E+00 -0.27494593475E+03  0.75229481138E+03  0.70025153780E+03 0.  0.
        4    1    3    3  502    0 -0.58715146988E+02  0.30437761012E+03 -0.31233743002E+03  0.44005622496E+03  0.12699999809E+01 0.  1.
       -4    1    3    3    0  502  0.58715146988E+02 -0.30437761012E+03  0.37391495275E+02  0.31223858642E+03  0.12699999809E+01 0. -1.
</event>
<event>
 5   0  0.1119786E-02  0.7017520E+03  0.7818609E-02  0.9714241E-01
        2   -1    0    0  501    0  0.00000000000E+00  0.00000000000E+00  0.86646209533E+03  0.86646209533E+03  0.25500000920E-02 0.  1.
       -2   -1    0    0    0  501  0.00000000000E+00  0.00000000000E+00 -0.14208811258E+03  0.14208811261E+03  0.25500000920E-02 0. -1.
    10030    2    1    2    0    0  0.00000000000E+00  0.00000000000E+00  0.72437398274E+03  0.10085502079E+04  0.70175198971E+03 0.  0.
        3    1    3    3  502    0 -0.17273889107E+03 -0.19429601459E+03  0.70084033576E+03  0.74750709174E+03  0.10100000352E+00 0.  1.
       -3    1    3    3    0  502  0.17273889107E+03  0.19429601459E+03  0.23533646979E+02  0.26104311619E+03  0.10100000352E+00 0. -1.
</event>
<event>
 5   0  0.6689415E-03  0.6998981E+03  0.7818609E-02  0.9717406E-01
       -1   -1    0    0    0  501  0.00000000000E+00  0.00000000000E+00  0.13250569803E+03  0.13250569813E+03  0.50400001928E-02 0. -1.
        1   -1    0    0  501    0  0.00000000000E+00  0.00000000000E+00 -0.92421943059E+03  0.92421943061E+03  0.50400001928E-02 0.  1.
    10030    2    1    2    0    0  0.00000000000E+00  0.00000000000E+00 -0.79171373256E+03  0.10567251287E+04  0.69989810928E+03 0.  0.
        1    1    3    3  502    0 -0.34361102218E+03  0.24398334466E+02 -0.30277841334E+03  0.45862684275E+03  0.50400001928E-02 0. -1.
       -1    1    3    3    0  502  0.34361102218E+03 -0.24398334466E+02 -0.48893531922E+03  0.59809828598E+03  0.50400001928E-02 0.  1.
</event>
<event>
 5   0  0.1099980E-02  0.7010988E+03  0.7818609E-02  0.9715355E-01
        2   -1    0    0  501    0  0.00000000000E+00  0.00000000000E+00  0.12402179003E+04  0.12402179003E+04  0.25500000920E-02 0. -1.
       -2   -1    0    0    0  501  0.00000000000E+00  0.00000000000E+00 -0.99083298007E+02  0.99083298040E+02  0.25500000920E-02 0.  1.
    10030    2    1    2    0    0  0.00000000000E+00  0.00000000000E+00  0.11411346023E+04  0.13393011983E+04  0.70109879427E+03 0.  0.
        5    1    3    3  502    0 -0.24124187620E+03 -0.12363648208E+03  0.14607392466E+03  0.30796640076E+03  0.46999998093E+01 0.  1.
       -5    1    3    3    0  502  0.24124187620E+03  0.12363648208E+03  0.99506067762E+03  0.10313347976E+04  0.46999998093E+01 0. -1.
</event>
<event>
 5   0  0.1119786E-02  0.7049175E+03  0.7818609E-02  0.9708859E-01
       -2   -1    0    0    0  501  0.00000000000E+00  0.00000000000E+00  0.34963840243E+03  0.34963840244E+03  0.25500000920E-02 0. -1.
        2   -1    0    0  501    0  0.00000000000E+00  0.00000000000E+00 -0.35530182327E+03  0.35530182328E+03  0.25500000920E-02 0.  1.
    10030    2    1    2    0    0  0.00000000000E+00  0.00000000000E+00 -0.56634208401E+01  0.70494022571E+03  0.70491747566E+03 0.  0.
        3    1    3    3  502    0 -0.28948596574E+03 -0.13953864619E+03 -0.14759132518E+03  0.35363309745E+03  0.10100000352E+00 0.  1.
       -3    1    3    3    0  502  0.28948596574E+03  0.13953864619E+03  0.14192790434E+03  0.35130712827E+03  0.10100000352E+00 0. -1.
</event>
<event>
 5   0  0.6785252E-03  0.6995285E+03  0.7818609E-02  0.9718039E-01
        1   -1    0    0  501    0  0.00000000000E+00  0.00000000000E+00  0.32319614172E+03  0.32319614176E+03  0.50400001928E-02 0.  1.
       -1   -1    0    0    0  501  0.00000000000E+00  0.00000000000E+00 -0.37851631996E+03  0.37851631999E+03  0.50400001928E-02 0. -1.
    10030    2    1    2    0    0  0.00000000000E+00  0.00000000000E+00 -0.55320178243E+02  0.70171246175E+03  0.69952845321E+03 0.  0.
        3    1    3    3  502    0  0.27535714224E+03 -0.30422509184E+02  0.18651980028E+03  0.33397115286E+03  0.10100000352E+00 0.  1.
       -3    1    3    3    0  502 -0.27535714224E+03  0.30422509184E+02 -0.24183997852E+03  0.36774130889E+03  0.10100000352E+00 0. -1.
</event>
<event>
 5   0  0.1100119E-02  0.7035066E+03  0.7818609E-02  0.9711254E-01
        2   -1    0    0  501    0  0.00000000000E+00  0.00000000000E+00  0.14196153964E+04  0.14196153964E+04  0.25500000920E-02 0. -1.
       -2   -1    0    0    0  501  0.00000000000E+00  0.00000000000E+00 -0.87157670476E+02  0.87157670514E+02  0.25500000920E-02 0.  1.
    10030    2    1    2    0    0  0.00000000000E+00  0.00000000000E+00  0.13324577259E+04  0.15067730669E+04  0.70350656272E+03 0.  0.
        4    1    3    3  502    0  0.10735505154E+03 -0.27585111765E+03  0.10732268941E+04  0.11132998362E+04  0.12699999809E+01 0. -1.
       -4    1    3    3    0  502 -0.10735505154E+03  0.27585111765E+03  0.25923083178E+03  0.39347323065E+03  0.12699999809E+01 0.  1.
</event>
<event>
 5   0  0.1099980E-02  0.7013893E+03  0.7818609E-02  0.9714859E-01
        2   -1    0    0  501    0  0.00000000000E+00  0.00000000000E+00  0.10261704146E+04  0.10261704146E+04  0.25500000920E-02 0. -1.
       -2   -1    0    0    0  501  0.00000000000E+00  0.00000000000E+00 -0.11985019586E+03  0.11985019589E+03  0.25500000920E-02 0.  1.
    10030    2    1    2    0    0  0.00000000000E+00  0.00000000000E+00  0.90632021870E+03  0.11460206105E+04  0.70138926480E+03 0.  0.
        5    1    3    3  502    0 -0.20318355071E+03 -0.88528030663E+02  0.89716783983E+03  0.92414987438E+03  0.46999998093E+01 0. -1.
       -5    1    3    3    0  502  0.20318355071E+03  0.88528030663E+02  0.91523788777E+01  0.22187073609E+03  0.46999998093E+01 0.  1.
</event>
<event>
 5   0  0.6609285E-03  0.6961220E+03  0.7818609E-02  0.9723887E-01
        1   -1    0    0  501    0  0.00000000000E+00  0.00000000000E+00  0.14494211907E+03  0.14494211916E+03  0.50400001928E-02 0. -1.
       -1   -1    0    0    0  501  0.00000000000E+00  0.00000000000E+00 -0.83582652621E+03  0.83582652622E+03  0.50400001928E-02 0.  1.
    10030    2    1    2    0    0  0.00000000000E+00  0.00000000000E+00 -0.69088440714E+03  0.98076864538E+03  0.69612202359E+03 0.  0.
        2    1    3    3  502    0  0.15404316928E+03 -0.14815059468E+03  0.41605293404E+02  0.21773584260E+03  0.25500000920E-02 0. -1.
       -2    1    3    3    0  502 -0.15404316928E+03  0.14815059468E+03 -0.73248970054E+03  0.76303280278E+03  0.25500000920E-02 0.  1.
</event>
<event>
 5   0  0.6246998E-03  0.6969057E+03  0.7818609E-02  0.9722538E-01
       -1   -1    0    0    0  501  0.00000000000E+00  0.00000000000E+00  0.87136056029E+02  0.87136056175E+02  0.50400001928E-02 0. -1.
        1   -1    0    0  501    0  0.00000000000E+00  0.00000000000E+00 -0.13934460776E+04  0.13934460776E+04  0.50400001928E-02 0.  1.
    10030    2    1    2    0    0  0.00000000000E+00  0.00000000000E+00 -0.13063100216E+04  0.14805821338E+04  0.69690571991E+03 0.  0.
        4    1    3    3  502    0  0.94490174478E+02  0.27286201297E+03 -0.10674925170E+04  0.11058589232E+04  0.12699999809E+01 0.  1.
       -4    1    3    3    0  502 -0.94490174478E+02 -0.27286201297E+03 -0.23881750461E+03  0.37472321066E+03  0.12699999809E+01 0. -1.
</event>
<event>
 5   0  0.6689415E-03  0.7002667E+03  0.7818609E-02  0.9716776E-01
        1   -1    0    0  501    0  0.00000000000E+00  0.00000000000E+00  0.59755921252E+03  0.59755921254E+03  0.50400001928E-02 0.  1.
       -1   -1    0    0    0  501  0.00000000000E+00  0.00000000000E+00 -0.20515684741E+03  0.20515684747E+03  0.50400001928E-02 0. -1.
    10030    2    1    2    0    0  0.00000000000E+00  0.00000000000E+00  0.39240236511E+03  0.80271606001E+03  0.70026670409E+03 0.  0.
        1    1    3    3  502    0 -0.31390018274E+03 -0.54245043478E+02  0.29622325634E+02  0.31992707242E+03  0.50400001928E-02 0. -1.
       -1    1    3    3    0  502  0.31390018274E+03  0.54245043478E+02  0.36278003948E+03  0.48278898759E+03  0.50400001928E-02 0.  1.
</event>
<event>
 5   0  0.6990118E-03  0.6981360E+03  0.7818609E-02  0.9720425E-01
        1   -1    0    0  501    0  0.00000000000E+00  0.00000000000E+00  0.39783033662E+03  0.39783033665E+03  0.50400001928E-02 0. -1.
       -1   -1    0    0    0  501  0.00000000000E+00  0.00000000000E+00 -0.30628252889E+03  0.30628252893E+03  0.50400001928E-02 0.  1.
    10030    2    1    2    0    0  0.00000000000E+00  0.00000000000E+00  0.91547807730E+02  0.70411286558E+03  0.69813603716E+03 0.  0.
        5    1    3    3  502    0 -0.32429177114E+03 -0.60623952420E+02 -0.69157710565E+02  0.33711317887E+03  0.46999998093E+01 0.  1.
       -5    1    3    3    0  502  0.32429177114E+03  0.60623952420E+02  0.16070551830E+03  0.36699968671E+03  0.46999998093E+01 0. -1.
</event>
<event>
 5   0  0.1109788E-02  0.7007501E+03  0.7818609E-02  0.9715950E-01
        2   -1    0    0  501    0  0.00000000000E+00  0.00000000000E+00  0.37936207058E+03  0.37936207059E+03  0.25500000920E-02 0. -1.
       -2   -1    0    0    0  501  0.00000000000E+00  0.00000000000E+00 -0.32360289733E+03  0.32360289734E+03  0.25500000920E-02 0.  1.
    10030    2    1    2    0    0  0.00000000000E+00  0.00000000000E+00  0.55759173257E+02  0.70296496793E+03  0.70075007009E+03 0.  0.
        1    1    3    3  502    0 -0.10066170345E+03 -0.49452215636E+02  0.36086907126E+03  0.37789520610E+03  0.50400001928E-02 0. -1.
       -1    1    3    3    0  502  0.10066170345E+03  0.49452215636E+02 -0.30510989800E+03  0.32506976183E+03  0.50400001928E-02 0.  1.
</event>
<event>
 5   0  0.6246998E-03  0.6963703E+03  0.7818609E-02  0.9723460E-01
       -1   -1    0    0    0  501  0.00000000000E+00  0.00000000000E+00  0.46494158337E+03  0.46494158340E+03  0.50400001928E-02 0. -1.
        1   -1    0    0  501    0  0.00000000000E+00  0.00000000000E+00 -0.26074866888E+03  0.26074866893E+03  0.50400001928E-02 0.  1.
    10030    2    1    2    0    0  0.00000000000E+00  0.00000000000E+00  0.20419291449E+03  0.72569025233E+03  0.69637030091E+03 0.  0.
        4    1    3    3  502    0 -0.14974536198E+03  0.24676012739E+03 -0.10082516794E+03  0.30574754503E+03  0.12699999809E+01 0.  1.
       -4    1    3    3    0  502  0.14974536198E+03 -0.24676012739E+03  0.30501808243E+03  0.41994270730E+03  0.12699999809E+01 0. -1.
</event>
<event>
 5   0  0.1109788E-02  0.7015068E+03  0.7818609E-02  0.9714659E-01
       -2   -1    0    0    0  501  0.00000000000E+00  0.00000000000E+00  0.11945546678E+03  0.11945546681E+03  0.25500000920E-02 0. -1.
        2   -1    0    0  501    0  0.00000000000E+00  0.00000000000E+00 -0.10299064503E+04  0.10299064503E+04  0.25500000920E-02 0.  1.
    10030    2    1    2    0    0  0.00000000000E+00  0.00000000000E+00 -0.91045098349E+03  0.11493619171E+04  0.70150682327E+03 0.  0.
        1    1    3    3  502    0 -0.19234028030E+03 -0.83851286711E+02  0.52900747458E+01  0.20988998696E+03  0.50400001928E-02 0. -1.
       -1    1    3    3    0  502  0.19234028030E+03  0.83851286711E+02 -0.91574105823E+03  0.93947193011E+03  0.50400001928E-02 0.  1.
</event>
<event>
 5   0  0.6785252E-03  0.6985027E+03  0.7818609E-02  0.9719796E-01
        1   -1    0    0  501    0  0.00000000000E+00  0.00000000000E+00  0.31462378103E+03  0.31462378107E+03  0.50400001928E-02 0.  1.
       -1   -1    0    0    0  501  0.00000000000E+00  0.00000000000E+00 -0.38769002113E+03  0.38769002116E+03  0.50400001928E-02 0. -1.
    10030    2    1    2    0    0  0.00000000000E+00  0.00000000000E+00 -0.73066240098E+02  0.70231380223E+03  0.69850268530E+03 0.  0.
        3    1    3    3  502    0  0.51123419420E+02 -0.57349112420E+02  0.30602205603E+03  0.31551867407E+03  0.10100000352E+00 0.  1.
       -3    1    3    3    0  502 -0.51123419420E+02  0.57349112420E+02 -0.37908829613E+03  0.38679512816E+03  0.10100000352E+00 0. -1.
</event>
<event>
 5   0  0.6609285E-03  0.6979144E+03  0.7818609E-02  0.9720805E-01
       -1   -1    0    0    0  501  0.00000000000E+00  0.00000000000E+00  0.23804202046E+03  0.23804202051E+03  0.50400001928E-02 0.  1.
        1   -1    0    0  501    0  0.00000000000E+00  0.00000000000E+00 -0.51155312429E+03  0.51155312431E+03  0.50400001928E-02 0. -1.
    10030    2    1    2    0    0  0.00000000000E+00  0.00000000000E+00 -0.27351110383E+03  0.74959514482E+03  0.69791443403E+03 0.  0.
        2    1    3    3  502    0 -0.25587940861E+03  0.15886773681E+03  0.52527049638E+02  0.30573243286E+03  0.25500000920E-02 0.  1.
       -2    1    3    3    0  502  0.25587940861E+03 -0.15886773681E+03 -0.32603815347E+03  0.44386271196E+03  0.25500000920E-02 0. -1.
</event>
<event>
 5   0  0.6990118E-03  0.7005728E+03  0.7818609E-02  0.9716253E-01
        1   -1    0    0  501    0  0.00000000000E+00  0.00000000000E+00  0.71121595684E+03  0.71121595686E+03  0.50400001928E-02 0.  1.
       -1   -1    0    0    0  501  0.00000000000E+00  0.00000000000E+00 -0.17252220486E+03  0.17252220493E+03  0.50400001928E-02 0. -1.
    10030    2    1    2    0    0  0.00000000000E+00  0.00000000000E+00  0.53869375198E+03  0.88373816179E+03  0.70057275152E+03 0.  0.
        5    1    3    3  502    0  0.88308417922E+01  0.82052659933E+02 -0.16004300793E+03  0.18012905694E+03  0.46999998093E+01 0. -1.
       -5    1    3    3    0  502 -0.88308417922E+01 -0.82052659933E+02  0.69873675991E+03  0.70360910484E+03  0.46999998093E+01 0.  1.
</event>
<event>
 5   0  0.1099980E-02  0.7050365E+03  0.7818609E-02  0.9708658E-01
        2   -1    0    0  501    0  0.00000000000E+00  0.00000000000E+00  0.98480056520E+03  0.98480056520E+03  0.25500000920E-02 0. -1.
       -2   -1    0    0    0  501  0.00000000000E+00  0.00000000000E+00 -0.12618707988E+03  0.12618707991E+03  0.25500000920E-02 0.  1.
    10030    2    1    2    0    0  0.00000000000E+00  0.00000000000E+00  0.85861348532E+03  0.11109876451E+04  0.70503647453E+03 0.  0.
        5    1    3    3  502    0 -0.23266923803E+01  0.23916880722E+02  0.98345899015E+03  0.98376374501E+03  0.46999998093E+01 0. -1.
       -5    1    3    3    0  502  0.23266923803E+01 -0.23916880722E+02 -0.12484550484E+03  0.12722390010E+03  0.46999998093E+01 0.  1.
</event>
<event>
 5   0  0.1099980E-02  0.6980856E+03  0.7818609E-02  0.9720512E-01
       -2   -1    0    0    0  501  0.00000000000E+00  0.00000000000E+00  0.29255972851E+03  0.29255972852E+03  0.25500000920E-02 0. -1.
        2   -1    0    0  501    0  0.00000000000E+00  0.00000000000E+00 -0.41643075221E+03  0.41643075222E+03  0.25500000920E-02 0.  1.
    10030    2    1    2    0    0  0.00000000000E+00  0.00000000000E+00 -0.12387102370E+03  0.70899048073E+03  0.69808557589E+03 0.  0.
        5    1    3    3  502    0  0.25053054611E+03  0.13792670420E+03 -0.26510911574E+03  0.38999264546E+03  0.46999998093E+01 0.  1.
       -5    1    3    3    0  502 -0.25053054611E+03 -0.13792670420E+03  0.14123809204E+03  0.31899783527E+03  0.46999998093E+01 0. -1.
</event>
<event>
 5   0  0.1099980E-02  0.7120531E+03  0.7818609E-02  0.9696839E-01
       -2   -1    0    0    0  501  0.00000000000E+00  0.00000000000E+00  0.69638025925E+02  0.69638025971E+02  0.25500000920E-02 0. -1.
        2   -1    0    0  501    0  0.00000000000E+00  0.00000000000E+00 -0.18201965174E+04  0.18201965174E+04  0.25500000920E-02 0.  1.
    10030    2    1    2    0    0  0.00000000000E+00  0.00000000000E+00 -0.17505584915E+04  0.18898345434E+04  0.71205306632E+03 0.  0.
        5    1    3    3  502    0 -0.26540796818E+03  0.14457578336E+03 -0.13745626558E+04  0.14074047504E+04  0.46999998093E+01 0.  1.
       -5    1    3    3    0  502  0.26540796818E+03 -0.14457578336E+03 -0.37599583565E+03  0.48242979295E+03  0.46999998093E+01 0. -1.
</event>
<event>
 5   0  0.6246998E-03  0.6998538E+03  0.7818609E-02  0.9717482E-01
       -1   -1    0    0    0  501  0.00000000000E+00  0.00000000000E+00  0.63166427955E+03  0.63166427957E+03  0.50400001928E-02 0. -1.
        1   -1    0    0  501    0  0.00000000000E+00  0.00000000000E+00 -0.19385112828E+03  0.19385112834E+03  0.50400001928E-02 0.  1.
    10030    2    1    2    0    0  0.00000000000E+00  0.00000000000E+00  0.43781315128E+03  0.82551540792E+03  0.69985379421E+03 0.  0.
        4    1    3    3  502    0 -0.33343194346E+03 -0.78760859042E+02  0.13494182072E+03  0.36822688891E+03  0.12699999809E+01 0.  1.
       -4    1    3    3    0  502  0.33343194346E+03  0.78760859042E+02  0.30287133056E+03  0.45728851900E+03  0.12699999809E+01 0. -1.
</event>
<event>
 5   0  0.1079446E-02  0.7005477E+03  0.7818609E-02  0.9716296E-01
       -2   -1    0    0    0  501  0.00000000000E+00  0.00000000000E+00  0.83818035966E+02  0.83818036005E+02  0.25500000920E-02 0.  1.
        2   -1    0    0  501    0  0.00000000000E+00  0.00000000000E+00 -0.14637873495E+04  0.14637873495E+04  0.25500000920E-02 0. -1.
    10030    2    1    2    0    0  0.00000000000E+00  0.00000000000E+00 -0.13799693135E+04  0.15476053855E+04  0.70054773067E+03 0.  0.
        2    1    3    3  502    0  0.17402747098E+03  0.12383158278E+03 -0.76687853116E+02  0.22693798354E+03  0.25500000920E-02 0.  1.
       -2    1    3    3    0  502 -0.17402747098E+03 -0.12383158278E+03 -0.13032814604E+04  0.13206674020E+04  0.25500000920E-02 0. -1.
</event>
<event>
 5   0  0.1119786E-02  0.7078786E+03  0.7818609E-02  0.9703853E-01
        2   -1    0    0  501    0  0.00000000000E+00  0.00000000000E+00  0.10531632254E+04  0.10531632254E+04  0.25500000920E-02 0. -1.
       -2   -1    0    0    0  501  0.00000000000E+00  0.00000000000E+00 -0.11894929167E+03  0.11894929169E+03  0.25500000920E-02 0.  1.
    10030    2    1    2    0    0  0.00000000000E+00  0.00000000000E+00  0.93421393370E+03  0.11721125171E+04  0.70787857626E+03 0.  0.
        3    1    3    3  502    0  0.74696383805E+02  0.22778164367E+03  0.89828253972E+03  0.92971799935E+03  0.10100000352E+00 0. -1.
       -3    1    3    3    0  502 -0.74696383805E+02 -0.22778164367E+03  0.35931393983E+02  0.24239451772E+03  0.10100000352E+00 0.  1.
</event>
<event>
 5   0  0.6689415E-03  0.6990901E+03  0.7818609E-02  0.9718789E-01
        1   -1    0    0  501    0  0.00000000000E+00  0.00000000000E+00  0.61395906185E+03  0.61395906187E+03  0.50400001928E-02 0. -1.
       -1   -1    0    0    0  501  0.00000000000E+00  0.00000000000E+00 -0.19900634584E+03  0.19900634590E+03  0.50400001928E-02 0.  1.
    10030    2    1    2    0    0  0.00000000000E+00  0.00000000000E+00  0.41495271602E+03  0.81296540778E+03  0.69909012131E+03 0.  0.
        1    1    3    3  502    0 -0.34825525522E+03  0.18970418238E+02  0.18044947079E+03  0.39268767626E+03  0.50400001928E-02 0. -1.
       -1    1    3    3    0  502  0.34825525522E+03 -0.18970418238E+02  0.23450324523E+03  0.42027773151E+03  0.50400001928E-02 0.  1.
</event>
<event>
 5   0  0.1119786E-02  0.7176570E+03  0.7818609E-02  0.9687504E-01
        2   -1    0    0  501    0  0.00000000000E+00  0.00000000000E+00  0.55362375693E+03  0.55362375693E+03  0.25500000920E-02 0. -1.
       -2   -1    0    0    0  501  0.00000000000E+00  0.00000000000E+00 -0.23257293330E+03  0.23257293332E+03  0.25500000920E-02 0.  1.
    10030    2    1    2    0    0  0.00000000000E+00  0.00000000000E+00  0.32105082362E+03  0.78619669025E+03  0.71765702422E+03 0.  0.
        3    1    3    3  502    0  0.22053556600E+03  0.12909468894E+01  0.47061381414E+03  0.51972586493E+03  0.10100000352E+00 0. -1.
       -3    1    3    3    0  502 -0.22053556600E+03 -0.12909468894E+01 -0.14956299052E+03  0.26647082532E+03  0.10100000352E+00 0.  1.
</event>
<event>
 5   0  0.6246998E-03  0.7046231E+03  0.7818609E-02  0.9709359E-01
       -1   -1    0    0    0  501  0.00000000000E+00  0.00000000000E+00  0.88684208658E+03  0.88684208659E+03  0.50400001928E-02 0. -1.
        1   -1    0    0  501    0  0.00000000000E+00  0.00000000000E+00 -0.13996114754E+03  0.13996114763E+03  0.50400001928E-02 0.  1.
    10030    2    1    2    0    0  0.00000000000E+00  0.00000000000E+00  0.74688093904E+03  0.10268032342E+04  0.70462312247E+03 0.  0.
        4    1    3    3  502    0 -0.43851335066E+02  0.33821538108E+03  0.50221640511E+03  0.60707125945E+03  0.12699999809E+01 0. -1.
       -4    1    3    3    0  502  0.43851335066E+02 -0.33821538108E+03  0.24466453393E+03  0.41973197478E+03  0.12699999809E+01 0.  1.
</event>
<event>
 5   0  0.1099980E-02  0.7089790E+03  0.7818609E-02  0.9701999E-01
       -2   -1    0    0    0  501  0.00000000000E+00  0.00000000000E+00  0.71168010208E+03  0.71168010208E+03  0.25500000920E-02 0. -1.
        2   -1    0    0  501    0  0.00000000000E+00  0.00000000000E+00 -0.17657202374E+03  0.17657202376E+03  0.25500000920E-02 0.  1.
    10030    2    1    2    0    0  0.00000000000E+00  0.00000000000E+00  0.53510807834E+03  0.88825212584E+03  0.70897897257E+03 0.  0.
        5    1    3    3  502    0  0.18504157153E+03  0.49014173237E+02  0.64131407450E+03  0.66928962678E+03  0.46999998093E+01 0. -1.
       -5    1    3    3    0  502 -0.18504157153E+03 -0.49014173237E+02 -0.10620599616E+03  0.21896249905E+03  0.46999998093E+01 0.  1.
</event>
<event>
 5   0  0.6785252E-03  0.6989735E+03  0.7818609E-02  0.9718989E-01
        1   -1    0    0  501    0  0.00000000000E+00  0.00000000000E+00  0.17548012530E+04  0.17548012530E+04  0.50400001928E-02 0.  1.
       -1   -1    0    0    0  501  0.00000000000E+00  0.00000000000E+00 -0.69603885751E+02  0.69603885934E+02  0.50400001928E-02 0. -1.
    10030    2    1    2    0    0  0.00000000000E+00  0.00000000000E+00  0.16851973672E+04  0.18244051389E+04  0.69897349335E+03 0.  0.
        3    1    3    3  502    0  0.12768558070E+03  0.26431795674E+03  0.13376511630E+04  0.13694810089E+04  0.10100000352E+00 0.  1.
       -3    1    3    3    0  502 -0.12768558070E+03 -0.26431795674E+03  0.34754620430E+03  0.45492413005E+03  0.10100000352E+00 0. -1.
</event>
<event>
 5   0  0.1079446E-02  0.7132340E+03  0.7818609E-02  0.9694864E-01
        2   -1    0    0  501    0  0.00000000000E+00  0.00000000000E+00  0.11086536425E+04  0.11086536425E+04  0.25500000920E-02 0. -1.
       -2   -1    0    0    0  501  0.00000000000E+00  0.00000000000E+00 -0.11471182863E+03  0.11471182865E+03  0.25500000920E-02 0.  1.
    10030    2    1    2    0    0  0.00000000000E+00  0.00000000000E+00  0.99394181387E+03  0.12233654712E+04  0.71323400554E+03 0.  0.
        2    1    3    3  502    0 -0.17178104552E+03 -0.60071286700E+02  0.10230159950E+04  0.10390760382E+04  0.25500000920E-02 0. -1.
       -2    1    3    3    0  502  0.17178104552E+03  0.60071286700E+02 -0.29074181139E+02  0.18428943297E+03  0.25500000920E-02 0.  1.
</event>
<event>
 5   0  0.6990118E-03  0.6994120E+03  0.7818609E-02  0.9718238E-01
       -1   -1    0    0    0  501  0.00000000000E+00  0.00000000000E+00  0.18853191658E+03  0.18853191664E+03  0.50400001928E-02 0. -1.
        1   -1    0    0  501    0  0.00000000000E+00  0.00000000000E+00 -0.64866627685E+03  0.64866627687E+03  0.50400001928E-02 0.  1.
    10030    2    1    2    0    0  0.00000000000E+00  0.00000000000E+00 -0.46013436027E+03  0.83719819351E+03  0.69941202858E+03 0.  0.
        5    1    3    3  502    0  0.12212492379E+03  0.10682588106E+03  0.14070615011E+03  0.21481754247E+03  0.46999998093E+01 0. -1.
       -5    1    3    3    0  502 -0.12212492379E+03 -0.10682588106E+03 -0.60084051039E+03  0.62238065104E+03  0.46999998093E+01 0.  1.
</event>
<event>
 5   0  0.6609285E-03  0.6932172E+03  0.7818609E-02  0.9728902E-01
        1   -1    0    0  501    0  0.00000000000E+00  0.00000000000E+00  0.60833302030E+03  0.60833302032E+03  0.50400001928E-02 0. -1.
       -1   -1    0    0    0  501  0.00000000000E+00  0.00000000000E+00 -0.19748646158E+03  0.19748646164E+03  0.50400001928E-02 0.  1.
    10030    2    1    2    0    0  0.00000000000E+00  0.00000000000E+00  0.41084655872E+03  0.80581948196E+03  0.69321724062E+03 0.  0.
        2    1    3    3  502    0  0.17442614436E+03  0.32956637330E+02  0.55148313795E+03  0.57934814337E+03  0.25500000920E-02 0. -1.
       -2    1    3    3    0  502 -0.17442614436E+03 -0.32956637330E+02 -0.14063657923E+03  0.22647133859E+03  0.25500000920E-02 0.  1.
</event>
<event>
 5   0  0.6990118E-03  0.7000863E+03  0.7818609E-02  0.9717085E-01
        1   -1    0    0  501    0  0.00000000000E+00  0.00000000000E+00  0.30965440187E+03  0.30965440191E+03  0.50400001928E-02 0.  1.
       -1   -1    0    0    0  501  0.00000000000E+00  0.00000000000E+00 -0.39569988172E+03  0.39569988175E+03  0.50400001928E-02 0. -1.
    10030    2    1    2    0    0  0.00000000000E+00  0.00000000000E+00 -0.86045479847E+02  0.70535428366E+03  0.70008630959E+03 0.  0.
        5    1    3    3  502    0  0.10299408168E+03  0.16334780391E+03  0.25109483046E+03  0.31679802680E+03  0.46999998093E+01 0.  1.
       -5    1    3    3    0  502 -0.10299408168E+03 -0.16334780391E+03 -0.33714031031E+03  0.38855625685E+03  0.46999998093E+01 0. -1.
</event>
<event>
 5   0  0.1099980E-02  0.6967905E+03  0.7818609E-02  0.9722737E-01
        2   -1    0    0  501    0  0.00000000000E+00  0.00000000000E+00  0.95509492840E+03  0.95509492840E+03  0.25500000920E-02 0. -1.
       -2   -1    0    0    0  501  0.00000000000E+00  0.00000000000E+00 -0.12708607690E+03  0.12708607693E+03  0.25500000920E-02 0.  1.
    10030    2    1    2    0    0  0.00000000000E+00  0.00000000000E+00  0.82800885150E+03  0.10821810053E+04  0.69679054969E+03 0.  0.
        5    1    3    3  502    0 -0.49185147724E+02 -0.40504243730E+02  0.94591895974E+03  0.94807412206E+03  0.46999998093E+01 0. -1.
       -5    1    3    3    0  502  0.49185147724E+02  0.40504243730E+02 -0.11791010824E+03  0.13410688327E+03  0.46999998093E+01 0.  1.
</event>
<event>
 5   0  0.6990118E-03  0.7020422E+03  0.7818609E-02  0.9713746E-01
        1   -1    0    0  501    0  0.00000000000E+00  0.00000000000E+00  0.88378034845E+03  0.88378034847E+03  0.50400001928E-02 0. -1.
       -1   -1    0    0    0  501  0.00000000000E+00  0.00000000000E+00 -0.13941903107E+03  0.13941903116E+03  0.50400001928E-02 0.  1.
    10030    2    1    2    0    0  0.00000000000E+00  0.00000000000E+00  0.74436131738E+03  0.10231993796E+04  0.70204216374E+03 0.  0.
        5    1    3    3  502    0  0.38176283941E+02 -0.29944529305E+03  0.11118191837E+03  0.32172724652E+03  0.46999998093E+01 0.  1.
       -5    1    3    3    0  502 -0.38176283941E+02  0.29944529305E+03  0.63317939902E+03  0.70147213311E+03  0.46999998093E+01 0. -1.
</event>
<event>
 5   0  0.1109788E-02  0.7055387E+03  0.7818609E-02  0.9707807E-01
        2   -1    0    0  501    0  0.00000000000E+00  0.00000000000E+00  0.69557988600E+03  0.69557988601E+03  0.25500000920E-02 0. -1.
       -2   -1    0    0    0  501  0.00000000000E+00  0.00000000000E+00 -0.17891004616E+03  0.17891004618E+03  0.25500000920E-02 0.  1.
    10030    2    1    2    0    0  0.00000000000E+00  0.00000000000E+00  0.51666983984E+03  0.87448993219E+03  0.70553874316E+03 0.  0.
        1    1    3    3  502    0 -0.18813889547E+03  0.26412974910E+03  0.43046190460E+03  0.53894175908E+03  0.50400001928E-02 0.  1.
       -1    1    3    3    0  502  0.18813889547E+03 -0.26412974910E+03  0.86207935248E+02  0.33554817311E+03  0.50400001928E-02 0. -1.
</event>
<event>
 5   0  0.1099980E-02  0.6956303E+03  0.7818609E-02  0.9724734E-01
        2   -1    0    0  501    0  0.00000000000E+00  0.00000000000E+00  0.81148688974E+03  0.81148688975E+03  0.25500000920E-02 0. -1.
       -2   -1    0    0    0  501  0.00000000000E+00  0.00000000000E+00 -0.14907868153E+03  0.14907868155E+03  0.25500000920E-02 0.  1.
    10030    2    1    2    0    0  0.00000000000E+00  0.00000000000E+00  0.66240820821E+03  0.96056557130E+03  0.69563034901E+03 0.  0.
        5    1    3    3  502    0 -0.14761510513E+03 -0.23262127518E+02 -0.10244186077E+03  0.18123953949E+03  0.46999998093E+01 0.  1.
       -5    1    3    3    0  502  0.14761510513E+03  0.23262127518E+02  0.76485006898E+03  0.77932603181E+03  0.46999998093E+01 0. -1.
</event>
<event>
 5   0  0.1099980E-02  0.7053909E+03  0.7818609E-02  0.9708057E-01
       -2   -1    0    0    0  501  0.00000000000E+00  0.00000000000E+00  0.50097274555E+03  0.50097274556E+03  0.25500000920E-02 0.  1.
        2   -1    0    0  501    0  0.00000000000E+00  0.00000000000E+00 -0.24830506202E+03  0.24830506203E+03  0.25500000920E-02 0. -1.
    10030    2    1    2    0    0  0.00000000000E+00  0.00000000000E+00  0.25266768354E+03  0.74927780759E+03  0.70539086657E+03 0.  0.
        5    1    3    3  502    0  0.86645945748E+02 -0.32269511758E+03  0.64759022649E+01  0.33422101390E+03  0.46999998093E+01 0. -1.
       -5    1    3    3    0  502 -0.86645945748E+02  0.32269511758E+03  0.24619178127E+03  0.41505679369E+03  0.46999998093E+01 0.  1.
</event>
<event>
 5   0  0.6785252E-03  0.7006316E+03  0.7818609E-02  0.9716153E-01
        1   -1    0    0  501    0  0.00000000000E+00  0.00000000000E+00  0.51893944909E+03  0.51893944912E+03  0.50400001928E-02 0. -1.
       -1   -1    0    0    0  501  0.00000000000E+00  0.00000000000E+00 -0.23648455820E+03  0.23648455826E+03  0.50400001928E-02 0.  1.
    10030    2    1    2    0    0  0.00000000000E+00  0.00000000000E+00  0.28245489089E+03  0.75542400737E+03  0.70063161899E+03 0.  0.
        3    1    3    3  502    0 -0.93738631854E+02  0.24223657265E+03 -0.11222090347E+03  0.28294704382E+03  0.10100000352E+00 0.  1.
       -3    1    3    3    0  502  0.93738631854E+02 -0.24223657265E+03  0.39467579436E+03  0.47247696355E+03  0.10100000352E+00 0. -1.
</event>
<event>
 5   0  0.6990118E-03  0.7021222E+03  0.7818609E-02  0.9713610E-01
        1   -1    0    0  501    0  0.00000000000E+00  0.00000000000E+00  0.53191427471E+03  0.53191427474E+03  0.50400001928E-02 0. -1.
       -1   -1    0    0    0  501  0.00000000000E+00  0.00000000000E+00 -0.23169877056E+03  0.23169877061E+03  0.50400001928E-02 0.  1.
    10030    2    1    2    0    0  0.00000000000E+00  0.00000000000E+00  0.30021550416E+03  0.76361304535E+03  0.70212216465E+03 0.  0.
        5    1    3    3  502    0 -0.11637492179E+03  0.29554903535E+03  0.31262503774E+03  0.44570041389E+03  0.46999998093E+01 0. -1.
       -5    1    3    3    0  502  0.11637492179E+03 -0.29554903535E+03 -0.12409533584E+02  0.31791263146E+03  0.46999998093E+01 0.  1.
</event>
<event>
 5   0  0.1099980E-02  0.7007593E+03  0.7818609E-02  0.9715935E-01
        2   -1    0    0  501    0  0.00000000000E+00  0.00000000000E+00  0.63435179976E+03  0.63435179977E+03  0.25500000920E-02 0. -1.
       -2   -1    0    0    0  501  0.00000000000E+00  0.00000000000E+00 -0.19352967540E+03  0.19352967542E+03  0.25500000920E-02 0.  1.
    10030    2    1    2    0    0  0.00000000000E+00  0.00000000000E+00  0.44082212436E+03  0.82788147519E+03  0.70075929650E+03 0.  0.
        5    1    3    3  502    0 -0.15536257800E+03  0.27952546117E+03  0.38944629902E+03  0.50394694552E+03  0.46999998093E+01 0.  1.
       -5    1    3    3    0  502  0.15536257800E+03 -0.27952546117E+03  0.51375825337E+02  0.32393452966E+03  0.46999998093E+01 0. -1.
</event>
<event>
 5   0  0.6609285E-03  0.6993999E+03  0.7818609E-02  0.9718259E-01
       -1   -1    0    0    0  501  0.00000000000E+00  0.00000000000E+00  0.92126298118E+02  0.92126298256E+02  0.50400001928E-02 0. -1.
        1   -1    0    0  501    0  0.00000000000E+00  0.00000000000E+00 -0.13274172867E+04  0.13274172868E+04  0.50400001928E-02 0.  1.
    10030    2    1    2    0    0  0.00000000000E+00  0.00000000000E+00 -0.12352909886E+04  0.14195435850E+04  0.69939985928E+03 0.  0.
        2    1    3    3  502    0 -0.33508240740E+03 -0.88977698339E+01 -0.81990644520E+03  0.88577986483E+03  0.25500000920E-02 0.  1.
       -2    1    3    3    0  502  0.33508240740E+03  0.88977698339E+01 -0.41538454343E+03  0.53376372019E+03  0.25500000920E-02 0. -1.
</event>
<event>
 5   0  0.1109788E-02  0.6997740E+03  0.7818609E-02  0.9717619E-01
        2   -1    0    0  501    0  0.00000000000E+00  0.00000000000E+00  0.70247334100E+03  0.70247334100E+03  0.25500000920E-02 0. -1.
       -2   -1    0    0    0  501  0.00000000000E+00  0.00000000000E+00 -0.17427125366E+03  0.17427125367E+03  0.25500000920E-02 0.  1.
    10030    2    1    2    0    0  0.00000000000E+00  0.00000000000E+00  0.52820208734E+03  0.87674459468E+03  0.69977399153E+03 0.  0.
        1    1    3    3  502    0 -0.28436770611E+02  0.30298865066E+03  0.48042134993E+03  0.56869626853E+03  0.50400001928E-02 0. -1.
       -1    1    3    3    0  502  0.28436770611E+02 -0.30298865066E+03  0.47780737415E+02  0.30804832615E+03  0.50400001928E-02 0.  1.
</event>
<event>
 5   0  0.6990118E-03  0.6990692E+03  0.7818609E-02  0.9718825E-01
       -1   -1    0    0    0  501  0.00000000000E+00  0.00000000000E+00  0.12201264477E+04  0.12201264477E+04  0.50400001928E-02 0. -1.
        1   -1    0    0  501    0  0.00000000000E+00  0.00000000000E+00 -0.10013258851E+03  0.10013258864E+03  0.50400001928E-02 0.  1.
    10030    2    1    2    0    0  0.00000000000E+00  0.00000000000E+00  0.11199938592E+04  0.13202590364E+04  0.69906915141E+03 0.  0.
        5    1    3    3  502    0  0.27091795214E+03  0.87888617927E+02  0.94255475664E+03  0.98465857292E+03  0.46999998093E+01 0. -1.
       -5    1    3    3    0  502 -0.27091795214E+03 -0.87888617927E+02  0.17743910257E+03  0.33560046346E+03  0.46999998093E+01 0.  1.
</event>
<event>
 5   0  0.6689415E-03  0.6992244E+03  0.7818609E-02  0.9718560E-01
       -1   -1    0    0    0  501  0.00000000000E+00  0.00000000000E+00  0.37341049110E+03  0.37341049114E+03  0.50400001928E-02 0.  1.
        1   -1    0    0  501    0  0.00000000000E+00  0.00000000000E+00 -0.32733060687E+03  0.32733060691E+03  0.50400001928E-02 0. -1.
    10030    2    1    2    0    0  0.00000000000E+00  0.00000000000E+00  0.46079884230E+02  0.70074109805E+03  0.69922437798E+03 0.  0.
        1    1    3    3  502    0 -0.30607271312E+03  0.37721415260E+02  0.18809471116E+03  0.36122435034E+03  0.50400001928E-02 0.  1.
       -1    1    3    3    0  502  0.30607271312E+03 -0.37721415260E+02 -0.14201482693E+03  0.33951674771E+03  0.50400001928E-02 0. -1.
</event>
<event>
 5   0  0.6689415E-03  0.6722896E+03  0.7818609E-02  0.9765830E-01
       -1   -1    0    0    0  501  0.00000000000E+00  0.00000000000E+00  0.28839788623E+03  0.28839788627E+03  0.50400001928E-02 0.  1.
        1   -1    0    0  501    0  0.00000000000E+00  0.00000000000E+00 -0.39179663919E+03  0.39179663922E+03  0.50400001928E-02 0. -1.
    10030    2    1    2    0    0  0.00000000000E+00  0.00000000000E+00 -0.10339875296E+03  0.68019452549E+03  0.67228958820E+03 0.  0.
        1    1    3    3  502    0  0.98965525072E+02 -0.13435865828E+03 -0.34692983646E+03  0.38497627934E+03  0.50400001928E-02 0. -1.
       -1    1    3    3    0  502 -0.98965525072E+02  0.13435865828E+03  0.24353108349E+03  0.29521824615E+03  0.50400001928E-02 0.  1.
</event>
<event>
 5   0  0.6609285E-03  0.7001011E+03  0.7818609E-02  0.9717059E-01
       -1   -1    0    0    0  501  0.00000000000E+00  0.00000000000E+00  0.18518946011E+03  0.18518946018E+03  0.50400001928E-02 0. -1.
        1   -1    0    0  501    0  0.00000000000E+00  0.00000000000E+00 -0.66167588032E+03  0.66167588034E+03  0.50400001928E-02 0.  1.
    10030    2    1    2    0    0  0.00000000000E+00  0.00000000000E+00 -0.47648642021E+03  0.84686534052E+03  0.70010113294E+03 0.  0.
        2    1    3    3  502    0  0.10982252258E+03 -0.32899377352E+03 -0.18102476761E+03  0.39123887329E+03  0.25500000920E-02 0. -1.
       -2    1    3    3    0  502 -0.10982252258E+03  0.32899377352E+03 -0.29546165259E+03  0.45562646723E+03  0.25500000920E-02 0.  1.
</event>
<event>
 5   0  0.1100119E-02  0.7020311E+03  0.7818609E-02  0.9713765E-01
       -2   -1    0    0    0  501  0.00000000000E+00  0.00000000000E+00  0.98909713331E+02  0.98909713364E+02  0.25500000920E-02 0. -1.
        2   -1    0    0  501    0  0.00000000000E+00  0.00000000000E+00 -0.12457010454E+04  0.12457010454E+04  0.25500000920E-02 0.  1.
    10030    2    1    2    0    0  0.00000000000E+00  0.00000000000E+00 -0.11467913321E+04  0.13446107588E+04  0.70203114838E+03 0.  0.
        4    1    3    3  502    0 -0.80661429402E+02 -0.33577904206E+03 -0.45292115030E+03  0.56955510056E+03  0.12699999809E+01 0.  1.
       -4    1    3    3    0  502  0.80661429402E+02  0.33577904206E+03 -0.69387018180E+03  0.77505565824E+03  0.12699999809E+01 0. -1.
</event>
<event>
 5   0  0.1109788E-02  0.6987885E+03  0.7818609E-02  0.9719306E-01
       -2   -1    0    0    0  501  0.00000000000E+00  0.00000000000E+00  0.14929375822E+03  0.14929375824E+03  0.25500000920E-02 0.  1.
        2   -1    0    0  501    0  0.00000000000E+00  0.00000000000E+00 -0.81769215711E+03  0.81769215711E+03  0.25500000920E-02 0. -1.
    10030    2    1    2    0    0  0.00000000000E+00  0.00000000000E+00 -0.66839839889E+03  0.96698591536E+03  0.69878848078E+03 0.  0.
        1    1    3    3  502    0 -0.19338931408E+03  0.14104691055E+03  0.18012564780E+02  0.24003772680E+03  0.50400001928E-02 0.  1.
       -1    1    3    3    0  502  0.19338931408E+03 -0.14104691055E+03 -0.68641096367E+03  0.72694818855E+03  0.50400001928E-02 0. -1.
</event>
<event>
 5   0  0.6246998E-03  0.6998011E+03  0.7818609E-02  0.9717572E-01
        1   -1    0    0  501    0  0.00000000000E+00  0.00000000000E+00  0.25479026845E+03  0.25479026850E+03  0.50400001928E-02 0. -1.
       -1   -1    0    0    0  501  0.00000000000E+00  0.00000000000E+00 -0.48051435147E+03  0.48051435150E+03  0.50400001928E-02 0.  1.
    10030    2    1    2    0    0  0.00000000000E+00  0.00000000000E+00 -0.22572408302E+03  0.73530461999E+03  0.69980105925E+03 0.  0.
        4    1    3    3  502    0  0.32172986878E+03  0.13149926523E+03 -0.15523935470E+03  0.38066131321E+03  0.12699999809E+01 0.  1.
       -4    1    3    3    0  502 -0.32172986878E+03 -0.13149926523E+03 -0.70484728317E+02  0.35464330679E+03  0.12699999809E+01 0. -1.
</event>
<event>
 5   0  0.1099980E-02  0.6995100E+03  0.7818609E-02  0.9718071E-01
        2   -1    0    0  501    0  0.00000000000E+00  0.00000000000E+00  0.37355056781E+03  0.37355056782E+03  0.25500000920E-02 0. -1.
       -2   -1    0    0    0  501  0.00000000000E+00  0.00000000000E+00 -0.32747522619E+03  0.32747522620E+03  0.25500000920E-02 0.  1.
    10030    2    1    2    0    0  0.00000000000E+00  0.00000000000E+00  0.46075341621E+02  0.70102579402E+03  0.69950999048E+03 0.  0.
        5    1    3    3  502    0 -0.82620510405E+02 -0.21570714857E+03 -0.24011607415E+03  0.33321695897E+03  0.46999998093E+01 0.  1.
       -5    1    3    3    0  502  0.82620510405E+02  0.21570714857E+03  0.28619141577E+03  0.36780883505E+03  0.46999998093E+01 0. -1.
</event>
<event>
 5   0  0.1119786E-02  0.6976404E+03  0.7818609E-02  0.9721276E-01
        2   -1    0    0  501    0  0.00000000000E+00  0.00000000000E+00  0.11851152006E+04  0.11851152006E+04  0.25500000920E-02 0. -1.
       -2   -1    0    0    0  501  0.00000000000E+00  0.00000000000E+00 -0.10266979969E+03  0.10266979972E+03  0.25500000920E-02 0.  1.
    10030    2    1    2    0    0  0.00000000000E+00  0.00000000000E+00  0.10824454010E+04  0.12877850004E+04  0.69764042393E+03 0.  0.
        3    1    3    3  502    0 -0.82534495518E+02 -0.49012137839E+02 -0.77809816979E+02  0.12356581414E+03  0.10100000352E+00 0.  1.
       -3    1    3    3    0  502  0.82534495518E+02  0.49012137839E+02  0.11602552179E+04  0.11642191862E+04  0.10100000352E+00 0. -1.
</event>
<event>
 5   0  0.1100119E-02  0.7006144E+03  0.7818609E-02  0.9716182E-01
       -2   -1    0    0    0  501  0.00000000000E+00  0.00000000000E+00  0.35085572278E+03  0.35085572279E+03  0.25500000920E-02 0.  1.
        2   -1    0    0  501    0  0.00000000000E+00  0.00000000000E+00 -0.34975955572E+03  0.34975955573E+03  0.25500000920E-02 0. -1.
    10030    2    1    2    0    0  0.00000000000E+00  0.00000000000E+00  0.10961670655E+01  0.70061527852E+03  0.70061442100E+03 0.  0.
        4    1    3    3  502    0  0.26694559910E+03  0.51111179980E+02  0.22154885907E+03  0.35065341215E+03  0.12699999809E+01 0.  1.
       -4    1    3    3    0  502 -0.26694559910E+03 -0.51111179980E+02 -0.22045269200E+03  0.34996186637E+03  0.12699999809E+01 0. -1.
</event>
<event>
 5   0  0.1079446E-02  0.6996295E+03  0.7818609E-02  0.9717866E-01
       -2   -1    0    0    0  501  0.00000000000E+00  0.00000000000E+00  0.10566887217E+03  0.10566887220E+03  0.25500000920E-02 0. -1.
        2   -1    0    0  501    0  0.00000000000E+00  0.00000000000E+00 -0.11580549319E+04  0.11580549319E+04  0.25500000920E-02 0.  1.
    10030    2    1    2    0    0  0.00000000000E+00  0.00000000000E+00 -0.10523860598E+04  0.12637238041E+04  0.69962949791E+03 0.  0.
        2    1    3    3  502    0  0.23422670186E+03 -0.24169324744E+03 -0.35395552097E+03  0.48842838221E+03  0.25500000920E-02 0. -1.
       -2    1    3    3    0  502 -0.23422670186E+03  0.24169324744E+03 -0.69843053881E+03  0.77529542193E+03  0.25500000920E-02 0.  1.
</event>
<event>
 5   0  0.1079446E-02  0.6948298E+03  0.7818609E-02  0.9726115E-01
        2   -1    0    0  501    0  0.00000000000E+00  0.00000000000E+00  0.69976674058E+03  0.69976674059E+03  0.25500000920E-02 0. -1.
       -2   -1    0    0    0  501  0.00000000000E+00  0.00000000000E+00 -0.17248191146E+03  0.17248191148E+03  0.25500000920E-02 0.  1.
    10030    2    1    2    0    0  0.00000000000E+00  0.00000000000E+00  0.52728482912E+03  0.87224865206E+03  0.69482977772E+03 0.  0.
        2    1    3    3  502    0  0.13688002351E+03  0.21811110368E+03  0.55640492844E+03  0.61310279626E+03  0.25500000920E-02 0. -1.
       -2    1    3    3    0  502 -0.13688002351E+03 -0.21811110368E+03 -0.29120099319E+02  0.25914585580E+03  0.25500000920E-02 0.  1.
</event>
<event>
 5   0  0.1079446E-02  0.6993177E+03  0.7818609E-02  0.9718400E-01
       -2   -1    0    0    0  501  0.00000000000E+00  0.00000000000E+00  0.56887949777E+02  0.56887949834E+02  0.25500000920E-02 0.  1.
        2   -1    0    0  501    0  0.00000000000E+00  0.00000000000E+00 -0.21491598848E+04  0.21491598848E+04  0.25500000920E-02 0. -1.
    10030    2    1    2    0    0  0.00000000000E+00  0.00000000000E+00 -0.20922719351E+04  0.22060478347E+04  0.69931766646E+03 0.  0.
        2    1    3    3  502    0 -0.24315171376E+02  0.34843729619E+03 -0.10971506433E+04  0.11514075347E+04  0.25500000920E-02 0. -1.
       -2    1    3    3    0  502  0.24315171376E+02 -0.34843729619E+03 -0.99512129177E+03  0.10546403000E+04  0.25500000920E-02 0.  1.
</event>
<event>
 5   0  0.1119786E-02  0.7011368E+03  0.7818609E-02  0.9715290E-01
        2   -1    0    0  501    0  0.00000000000E+00  0.00000000000E+00  0.10231101001E+04  0.10231101001E+04  0.25500000920E-02 0.  1.
       -2   -1    0    0    0  501  0.00000000000E+00  0.00000000000E+00 -0.12012217955E+03  0.12012217957E+03  0.25500000920E-02 0. -1.
    10030    2    1    2    0    0  0.00000000000E+00  0.00000000000E+00  0.90298792057E+03  0.11432322797E+04  0.70113683447E+03 0.  0.
        3    1    3    3  502    0  0.31156218642E+03  0.80948176333E+02  0.67786684289E+03  0.75041793032E+03  0.10100000352E+00 0.  1.
       -3    1    3    3    0  502 -0.31156218642E+03 -0.80948176333E+02  0.22512107769E+03  0.39281434938E+03  0.10100000352E+00 0. -1.
</event>
<event>
 5   0  0.1100119E-02  0.6843384E+03  0.7818609E-02  0.9744397E-01
       -2   -1    0    0    0  501  0.00000000000E+00  0.00000000000E+00  0.10736606438E+03  0.10736606441E+03  0.25500000920E-02 0.  1.
        2   -1    0    0  501    0  0.00000000000E+00  0.00000000000E+00 -0.10904725619E+04  0.10904725620E+04  0.25500000920E-02 0. -1.
    10030    2    1    2    0    0  0.00000000000E+00  0.00000000000E+00 -0.98310649757E+03  0.11978386264E+04  0.68433835874E+03 0.  0.
        4    1    3    3  502    0  0.17736727445E+03  0.79477882869E+02 -0.98446615056E+03  0.10034695304E+04  0.12699999809E+01 0. -1.
       -4    1    3    3    0  502 -0.17736727445E+03 -0.79477882869E+02  0.13596529943E+01  0.19436909597E+03  0.12699999809E+01 0.  1.
</event>
<event>
 5   0  0.1109788E-02  0.7033126E+03  0.7818609E-02  0.9711584E-01
        2   -1    0    0  501    0  0.00000000000E+00  0.00000000000E+00  0.29856722788E+03  0.29856722789E+03  0.25500000920E-02 0. -1.
       -2   -1    0    0    0  501  0.00000000000E+00  0.00000000000E+00 -0.41418529297E+03  0.41418529298E+03  0.25500000920E-02 0.  1.
    10030    2    1    2    0    0  0.00000000000E+00  0.00000000000E+00 -0.11561806509E+03  0.71275252087E+03  0.70331260406E+03 0.  0.
        1    1    3    3  502    0  0.22734669344E+03 -0.26190871982E+03  0.11043421547E+01  0.34681971705E+03  0.50400001928E-02 0.  1.
       -1    1    3    3    0  502 -0.22734669344E+03  0.26190871982E+03 -0.11672240725E+03  0.36593280383E+03  0.50400001928E-02 0. -1.
</event>
<event>
 5   0  0.6246998E-03  0.7026575E+03  0.7818609E-02  0.9712698E-01
       -1   -1    0    0    0  501  0.00000000000E+00  0.00000000000E+00  0.91029421227E+03  0.91029421228E+03  0.50400001928E-02 0.  1.
        1   -1    0    0  501    0  0.00000000000E+00  0.00000000000E+00 -0.13559560345E+03  0.13559560354E+03  0.50400001928E-02 0. -1.
    10030    2    1    2    0    0  0.00000000000E+00  0.00000000000E+00  0.77469860882E+03  0.10458898158E+04  0.70265750714E+03 0.  0.
        4    1    3    3  502    0  0.18231878757E+03  0.29627709760E+03  0.31427701977E+03  0.46881970620E+03  0.12699999809E+01 0.  1.
       -4    1    3    3    0  502 -0.18231878757E+03 -0.29627709760E+03  0.46042158905E+03  0.57707010963E+03  0.12699999809E+01 0. -1.
</event>
<event>
 5   0  0.6785252E-03  0.6973305E+03  0.7818609E-02  0.9721808E-01
       -1   -1    0    0    0  501  0.00000000000E+00  0.00000000000E+00  0.15974771066E+03  0.15974771074E+03  0.50400001928E-02 0.  1.
        1   -1    0    0  501    0  0.00000000000E+00  0.00000000000E+00 -0.76099652435E+03  0.76099652437E+03  0.50400001928E-02 0. -1.
    10030    2    1    2    0    0  0.00000000000E+00  0.00000000000E+00 -0.60124881370E+03  0.92074423510E+03  0.69733048873E+03 0.  0.
        3    1    3    3  502    0 -0.16940110597E+03  0.12045407866E+03 -0.67024127907E+03  0.70173307043E+03  0.10100000352E+00 0. -1.
       -3    1    3    3    0  502  0.16940110597E+03 -0.12045407866E+03  0.68992465373E+02  0.21901116467E+03  0.10100000352E+00 0.  1.
</event>
<event>
 5   0  0.6246998E-03  0.6999437E+03  0.7818609E-02  0.9717328E-01
        1   -1    0    0  501    0  0.00000000000E+00  0.00000000000E+00  0.73841382145E+03  0.73841382147E+03  0.50400001928E-02 0. -1.
       -1   -1    0    0    0  501  0.00000000000E+00  0.00000000000E+00 -0.16586946265E+03  0.16586946272E+03  0.50400001928E-02 0.  1.
    10030    2    1    2    0    0  0.00000000000E+00  0.00000000000E+00  0.57254435881E+03  0.90428328419E+03  0.69994372293E+03 0.  0.
        4    1    3    3  502    0  0.12522291400E+03  0.92944430960E+02 -0.11849657981E+03  0.19586346715E+03  0.12699999809E+01 0.  1.
       -4    1    3    3    0  502 -0.12522291400E+03 -0.92944430960E+02  0.69104093862E+03  0.70841981704E+03  0.12699999809E+01 0. -1.
</event>
<event>
 5   0  0.1100119E-02  0.6699302E+03  0.7818609E-02  0.9770084E-01
       -2   -1    0    0    0  501  0.00000000000E+00  0.00000000000E+00  0.94966480044E+02  0.94966480079E+02  0.25500000920E-02 0.  1.
        2   -1    0    0  501    0  0.00000000000E+00  0.00000000000E+00 -0.11814866080E+04  0.11814866080E+04  0.25500000920E-02 0. -1.
    10030    2    1    2    0    0  0.00000000000E+00  0.00000000000E+00 -0.10865201280E+04  0.12764530881E+04  0.66993021847E+03 0.  0.
        4    1    3    3  502    0 -0.27362652503E+03 -0.18745429215E+03 -0.63241395305E+03  0.71411456207E+03  0.12699999809E+01 0.  1.
       -4    1    3    3    0  502  0.27362652503E+03  0.18745429215E+03 -0.45410617490E+03  0.56233852601E+03  0.12699999809E+01 0. -1.
</event>
<event>
 5   0  0.1079446E-02  0.7016403E+03  0.7818609E-02  0.9714431E-01
       -2   -1    0    0    0  501  0.00000000000E+00  0.00000000000E+00  0.46509739903E+03  0.46509739904E+03  0.25500000920E-02 0. -1.
        2   -1    0    0  501    0  0.00000000000E+00  0.00000000000E+00 -0.26462150329E+03  0.26462150331E+03  0.25500000920E-02 0.  1.
    10030    2    1    2    0    0  0.00000000000E+00  0.00000000000E+00  0.20047589573E+03  0.72971890234E+03  0.70164028652E+03 0.  0.
        2    1    3    3  502    0  0.36306954534E+02  0.31640108186E+03  0.25325480198E+03  0.40689781799E+03  0.25500000920E-02 0. -1.
       -2    1    3    3    0  502 -0.36306954534E+02 -0.31640108186E+03 -0.52778906244E+02  0.32282108435E+03  0.25500000920E-02 0.  1.
</event>
<event>
 5   0  0.1079446E-02  0.6991884E+03  0.7818609E-02  0.9718621E-01
        2   -1    0    0  501    0  0.00000000000E+00  0.00000000000E+00  0.10719423210E+04  0.10719423210E+04  0.25500000920E-02 0. -1.
       -2   -1    0    0    0  501  0.00000000000E+00  0.00000000000E+00 -0.11401369247E+03  0.11401369250E+03  0.25500000920E-02 0.  1.
    10030    2    1    2    0    0  0.00000000000E+00  0.00000000000E+00  0.95792862856E+03  0.11859560135E+04  0.69918839281E+03 0.  0.
        2    1    3    3  502    0 -0.94897475862E+02 -0.76601794431E+02  0.10346902970E+04  0.10418528575E+04  0.25500000920E-02 0. -1.
       -2    1    3    3    0  502  0.94897475862E+02  0.76601794431E+02 -0.76761668477E+02  0.14410315607E+03  0.25500000920E-02 0.  1.
</event>
<event>
 5   0  0.1109788E-02  0.6994900E+03  0.7818609E-02  0.9718105E-01
       -2   -1    0    0    0  501  0.00000000000E+00  0.00000000000E+00  0.18336319299E+03  0.18336319300E+03  0.25500000920E-02 0.  1.
        2   -1    0    0  501    0  0.00000000000E+00  0.00000000000E+00 -0.66709982893E+03  0.66709982893E+03  0.25500000920E-02 0. -1.
    10030    2    1    2    0    0  0.00000000000E+00  0.00000000000E+00 -0.48373663594E+03  0.85046302194E+03  0.69948997043E+03 0.  0.
        1    1    3    3  502    0  0.14806060145E+03 -0.27610129284E+03 -0.43088124419E+03  0.53274056747E+03  0.50400001928E-02 0. -1.
       -1    1    3    3    0  502 -0.14806060145E+03  0.27610129284E+03 -0.52855391749E+02  0.31772245446E+03  0.50400001928E-02 0.  1.
</event>
<event>
 5   0  0.1099980E-02  0.6962641E+03  0.7818609E-02  0.9723642E-01
       -2   -1    0    0    0  501  0.00000000000E+00  0.00000000000E+00  0.19052084792E+03  0.19052084794E+03  0.25500000920E-02 0.  1.
        2   -1    0    0  501    0  0.00000000000E+00  0.00000000000E+00 -0.63612951130E+03  0.63612951131E+03  0.25500000920E-02 0. -1.
    10030    2    1    2    0    0  0.00000000000E+00  0.00000000000E+00 -0.44560866339E+03  0.82665035925E+03  0.69626412773E+03 0.  0.
        5    1    3    3  502    0  0.21332455817E+03  0.24386841771E+03 -0.71714961301E+02  0.33187994508E+03  0.46999998093E+01 0.  1.
       -5    1    3    3    0  502 -0.21332455817E+03 -0.24386841771E+03 -0.37389370208E+03  0.49477041416E+03  0.46999998093E+01 0. -1.
</event>
<event>
 5   0  0.6609285E-03  0.6991152E+03  0.7818609E-02  0.9718747E-01
        1   -1    0    0  501    0  0.00000000000E+00  0.00000000000E+00  0.23945456041E+03  0.23945456047E+03  0.50400001928E-02 0. -1.
       -1   -1    0    0    0  501  0.00000000000E+00  0.00000000000E+00 -0.51028683000E+03  0.51028683003E+03  0.50400001928E-02 0.  1.
    10030    2    1    2    0    0  0.00000000000E+00  0.00000000000E+00 -0.27083226959E+03  0.74974139049E+03  0.69911517961E+03 0.  0.
        2    1    3    3  502    0  0.28193360275E+03 -0.17065587060E+03 -0.10441737213E+02  0.32972566235E+03  0.25500000920E-02 0. -1.
       -2    1    3    3    0  502 -0.28193360275E+03  0.17065587060E+03 -0.26039053237E+03  0.42001572814E+03  0.25500000920E-02 0.  1.
</event>
<event>
 5   0  0.6785252E-03  0.6803053E+03  0.7818609E-02  0.9751518E-01
        1   -1    0    0  501    0  0.00000000000E+00  0.00000000000E+00  0.15113440387E+04  0.15113440387E+04  0.50400001928E-02 0.  1.
       -1   -1    0    0    0  501  0.00000000000E+00  0.00000000000E+00 -0.76556905614E+02  0.76556905779E+02  0.50400001928E-02 0. -1.
    10030    2    1    2    0    0  0.00000000000E+00  0.00000000000E+00  0.14347871331E+04  0.15879009445E+04  0.68030529340E+03 0.  0.
        3    1    3    3  502    0  0.86322773804E+01  0.20498981765E+03  0.84131525925E+02  0.22175090847E+03  0.10100000352E+00 0. -1.
       -3    1    3    3    0  502 -0.86322773804E+01 -0.20498981765E+03  0.13506556071E+04  0.13661500360E+04  0.10100000352E+00 0.  1.
</event>
<event>
 5   0  0.6689415E-03  0.6995115E+03  0.7818609E-02  0.9718068E-01
       -1   -1    0    0    0  501  0.00000000000E+00  0.00000000000E+00  0.19797565825E+03  0.19797565832E+03  0.50400001928E-02 0. -1.
        1   -1    0    0  501    0  0.00000000000E+00  0.00000000000E+00 -0.61789968096E+03  0.61789968098E+03  0.50400001928E-02 0.  1.
    10030    2    1    2    0    0  0.00000000000E+00  0.00000000000E+00 -0.41992402271E+03  0.81587533930E+03  0.69951153273E+03 0.  0.
        1    1    3    3  502    0  0.12987318327E+03 -0.19333767497E+02 -0.58806144195E+03  0.60254219590E+03  0.50400001928E-02 0.  1.
       -1    1    3    3    0  502 -0.12987318327E+03  0.19333767497E+02  0.16813741924E+03  0.21333314340E+03  0.50400001928E-02 0. -1.
</event>
<event>
 5   0  0.6609285E-03  0.7009235E+03  0.7818609E-02  0.9715654E-01
        1   -1    0    0  501    0  0.00000000000E+00  0.00000000000E+00  0.96662359290E+03  0.96662359292E+03  0.50400001928E-02 0. -1.
       -1   -1    0    0    0  501  0.00000000000E+00  0.00000000000E+00 -0.12706439743E+03  0.12706439753E+03  0.50400001928E-02 0.  1.
    10030    2    1    2    0    0  0.00000000000E+00  0.00000000000E+00  0.83955919548E+03  0.10936879904E+04  0.70092351775E+03 0.  0.
        2    1    3    3  502    0  0.72348251337E+02  0.21454336094E+03  0.83718585197E+03  0.86726194079E+03  0.25500000920E-02 0. -1.
       -2    1    3    3    0  502 -0.72348251337E+02 -0.21454336094E+03  0.23733435034E+01  0.22642604966E+03  0.25500000920E-02 0.  1.
</event>
<event>
 5   0  0.1119786E-02  0.7019423E+03  0.7818609E-02  0.9713916E-01
        2   -1    0    0  501    0  0.00000000000E+00  0.00000000000E+00  0.21628121555E+04  0.21628121555E+04  0.25500000920E-02 0. -1.
       -2   -1    0    0    0  501  0.00000000000E+00  0.00000000000E+00 -0.56953967695E+02  0.56953967752E+02  0.25500000920E-02 0.  1.
    10030    2    1    2    0    0  0.00000000000E+00  0.00000000000E+00  0.21058581878E+04  0.22197661232E+04  0.70194225887E+03 0.  0.
        3    1    3    3  502    0  0.27171523758E+03 -0.18900681625E+03  0.14220949439E+04  0.14601050601E+04  0.10100000352E+00 0. -1.
       -3    1    3    3    0  502 -0.27171523758E+03  0.18900681625E+03  0.68376324388E+03  0.75966106311E+03  0.10100000352E+00 0.  1.
</event>
<event>
 5   0  0.6609285E-03  0.7007829E+03  0.7818609E-02  0.9715894E-01
       -1   -1    0    0    0  501  0.00000000000E+00  0.00000000000E+00  0.19070196337E+03  0.19070196344E+03  0.50400001928E-02 0. -1.
        1   -1    0    0  501    0  0.00000000000E+00  0.00000000000E+00 -0.64380136572E+03  0.64380136574E+03  0.50400001928E-02 0.  1.
    10030    2    1    2    0    0  0.00000000000E+00  0.00000000000E+00 -0.45309940235E+03  0.83450332917E+03  0.70078294642E+03 0.  0.
        2    1    3    3  502    0 -0.29967579904E+03 -0.16259484594E+03 -0.32278879999E+03  0.46950535445E+03  0.25500000920E-02 0. -1.
       -2    1    3    3    0  502  0.29967579904E+03  0.16259484594E+03 -0.13031060236E+03  0.36499797472E+03  0.25500000920E-02 0.  1.
</event>
<event>
 5   0  0.1099980E-02  0.7057136E+03  0.7818609E-02  0.9707511E-01
       -2   -1    0    0    0  501  0.00000000000E+00  0.00000000000E+00  0.22162343888E+03  0.22162343889E+03  0.25500000920E-02 0. -1.
        2   -1    0    0  501    0  0.00000000000E+00  0.00000000000E+00 -0.56179936903E+03  0.56179936904E+03  0.25500000920E-02 0.  1.
    10030    2    1    2    0    0  0.00000000000E+00  0.00000000000E+00 -0.34017593016E+03  0.78342280793E+03  0.70571356266E+03 0.  0.
        5    1    3    3  502    0  0.22954783175E+03  0.22901953523E+03 -0.15691585609E+02  0.32466978676E+03  0.46999998093E+01 0. -1.
       -5    1    3    3    0  502 -0.22954783175E+03 -0.22901953523E+03 -0.32448434455E+03  0.45875302117E+03  0.46999998093E+01 0.  1.
</event>
<event>
 5   0  0.1100119E-02  0.6995378E+03  0.7818609E-02  0.9718023E-01
       -2   -1    0    0    0  501  0.00000000000E+00  0.00000000000E+00  0.17613740240E+03  0.17613740242E+03  0.25500000920E-02 0.  1.
        2   -1    0    0  501    0  0.00000000000E+00  0.00000000000E+00 -0.69456168539E+03  0.69456168539E+03  0.25500000920E-02 0. -1.
    10030    2    1    2    0    0  0.00000000000E+00  0.00000000000E+00 -0.51842428298E+03  0.87069908781E+03  0.69953782194E+03 0.  0.
        4    1    3    3  502    0  0.29615117324E+02 -0.65347091656E+02  0.16687754128E+03  0.18165083057E+03  0.12699999809E+01 0.  1.
       -4    1    3    3    0  502 -0.29615117324E+02  0.65347091656E+02 -0.68530182427E+03  0.68904825724E+03  0.12699999809E+01 0. -1.
</event>
<event>
 5   0  0.6990118E-03  0.7000354E+03  0.7818609E-02  0.9717172E-01
        1   -1    0    0  501    0  0.00000000000E+00  0.00000000000E+00  0.23073134829E+03  0.23073134834E+03  0.50400001928E-02 0.  1.
       -1   -1    0    0    0  501  0.00000000000E+00  0.00000000000E+00 -0.53097419588E+03  0.53097419590E+03  0.50400001928E-02 0. -1.
    10030    2    1    2    0    0  0.00000000000E+00  0.00000000000E+00 -0.30024284759E+03  0.76170554424E+03  0.70003540525E+03 0.  0.
        5    1    3    3  502    0  0.21900650238E+03  0.11396044284E+03 -0.42004697217E+03  0.48724981215E+03  0.46999998093E+01 0. -1.
       -5    1    3    3    0  502 -0.21900650238E+03 -0.11396044284E+03  0.11980412458E+03  0.27445573210E+03  0.46999998093E+01 0.  1.
</event>
<event>
 5   0  0.6785252E-03  0.7049662E+03  0.7818609E-02  0.9708777E-01
       -1   -1    0    0    0  501  0.00000000000E+00  0.00000000000E+00  0.91161551637E+03  0.91161551639E+03  0.50400001928E-02 0.  1.
        1   -1    0    0  501    0  0.00000000000E+00  0.00000000000E+00 -0.13629029511E+03  0.13629029520E+03  0.50400001928E-02 0. -1.
    10030    2    1    2    0    0  0.00000000000E+00  0.00000000000E+00  0.77532522126E+03  0.10479058116E+04  0.70496623411E+03 0.  0.
        3    1    3    3  502    0 -0.34041039199E+03 -0.23871179556E+02  0.25642162061E+03  0.42685023826E+03  0.10100000352E+00 0. -1.
       -3    1    3    3    0  502  0.34041039199E+03  0.23871179556E+02  0.51890360065E+03  0.62105557333E+03  0.10100000352E+00 0.  1.
</event>
<event>
 5   0  0.6246998E-03  0.6957966E+03  0.7818609E-02  0.9724448E-01
       -1   -1    0    0    0  501  0.00000000000E+00  0.00000000000E+00  0.32390045412E+03  0.32390045416E+03  0.50400001928E-02 0. -1.
        1   -1    0    0  501    0  0.00000000000E+00  0.00000000000E+00 -0.37367410182E+03  0.37367410185E+03  0.50400001928E-02 0.  1.
    10030    2    1    2    0    0  0.00000000000E+00  0.00000000000E+00 -0.49773647700E+02  0.69757455601E+03  0.69579655445E+03 0.  0.
        4    1    3    3  502    0  0.16910384051E+03 -0.27272584262E+03 -0.15960319780E+03  0.35839962020E+03  0.12699999809E+01 0.  1.
       -4    1    3    3    0  502 -0.16910384051E+03  0.27272584262E+03  0.10982955010E+03  0.33917493581E+03  0.12699999809E+01 0. -1.
</event>
<event>
 5   0  0.6990118E-03  0.7039766E+03  0.7818609E-02  0.9710456E-01
        1   -1    0    0  501    0  0.00000000000E+00  0.00000000000E+00  0.45350619496E+03  0.45350619499E+03  0.50400001928E-02 0.  1.
       -1   -1    0    0    0  501  0.00000000000E+00  0.00000000000E+00 -0.27319530226E+03  0.27319530231E+03  0.50400001928E-02 0. -1.
    10030    2    1    2    0    0  0.00000000000E+00  0.00000000000E+00  0.18031089270E+03  0.72670149730E+03  0.70397659631E+03 0.  0.
        5    1    3    3  502    0 -0.10067645992E+02  0.13204083368E+03 -0.24646548993E+03  0.27982756651E+03  0.46999998093E+01 0. -1.
       -5    1    3    3    0  502  0.10067645992E+02 -0.13204083368E+03  0.42677638263E+03  0.44687393079E+03  0.46999998093E+01 0.  1.
</event>
<event>
 5   0  0.1079446E-02  0.7008312E+03  0.7818609E-02  0.9715812E-01
       -2   -1    0    0    0  501  0.00000000000E+00  0.00000000000E+00  0.11738845118E+04  0.11738845118E+04  0.25500000920E-02 0. -1.
        2   -1    0    0  501    0  0.00000000000E+00  0.00000000000E+00 -0.10460235186E+03  0.10460235189E+03  0.25500000920E-02 0.  1.
    10030    2    1    2    0    0  0.00000000000E+00  0.00000000000E+00  0.10692821599E+04  0.12784868636E+04  0.70083116586E+03 0.  0.
        2    1    3    3  502    0 -0.42085449369E+01 -0.25677890623E+03  0.96955380313E+03  0.10029893797E+04  0.25500000920E-02 0. -1.
       -2    1    3    3    0  502  0.42085449369E+01  0.25677890623E+03  0.99728356768E+02  0.27549748399E+03  0.25500000920E-02 0.  1.
</event>
<event>
 5   0  0.6609285E-03  0.6936913E+03  0.7818609E-02  0.9728082E-01
        1   -1    0    0  501    0  0.00000000000E+00  0.00000000000E+00  0.16006338426E+03  0.16006338434E+03  0.50400001928E-02 0.  1.
       -1   -1    0    0    0  501  0.00000000000E+00  0.00000000000E+00 -0.75158914211E+03  0.75158914213E+03  0.50400001928E-02 0. -1.
    10030    2    1    2    0    0  0.00000000000E+00  0.00000000000E+00 -0.59152575785E+03  0.91165252647E+03  0.69369129072E+03 0.  0.
        2    1    3    3  502    0  0.71069377707E+02 -0.16088188069E+03  0.97112015191E+02  0.20090938127E+03  0.25500000920E-02 0.  1.
       -2    1    3    3    0  502 -0.71069377707E+02  0.16088188069E+03 -0.68863777304E+03  0.71074314520E+03  0.25500000920E-02 0. -1.
</event>
<event>
 5   0  0.1099980E-02  0.7009157E+03  0.7818609E-02  0.9715667E-01
        2   -1    0    0  501    0  0.00000000000E+00  0.00000000000E+00  0.81488650387E+03  0.81488650388E+03  0.25500000920E-02 0.  1.
       -2   -1    0    0    0  501  0.00000000000E+00  0.00000000000E+00 -0.15072125191E+03  0.15072125193E+03  0.25500000920E-02 0. -1.
    10030    2    1    2    0    0  0.00000000000E+00  0.00000000000E+00  0.66416525196E+03  0.96560775581E+03  0.70091572686E+03 0.  0.
        5    1    3    3  502    0  0.13373126206E+03  0.17954578898E+03  0.70347764573E+03  0.73825715630E+03  0.46999998093E+01 0.  1.
       -5    1    3    3    0  502 -0.13373126206E+03 -0.17954578898E+03 -0.39312393766E+02  0.22735059951E+03  0.46999998093E+01 0. -1.
</event>
<event>
 5   0  0.6689415E-03  0.6980531E+03  0.7818609E-02  0.9720567E-01
       -1   -1    0    0    0  501  0.00000000000E+00  0.00000000000E+00  0.12842708429E+03  0.12842708439E+03  0.50400001928E-02 0. -1.
        1   -1    0    0  501    0  0.00000000000E+00  0.00000000000E+00 -0.94855016493E+03  0.94855016495E+03  0.50400001928E-02 0.  1.
    10030    2    1    2    0    0  0.00000000000E+00  0.00000000000E+00 -0.82012308065E+03  0.10769772493E+04  0.69805309839E+03 0.  0.
        1    1    3    3  502    0  0.12571498922E+03  0.32315312648E+03 -0.34859316569E+03  0.49168017742E+03  0.50400001928E-02 0.  1.
       -1    1    3    3    0  502 -0.12571498922E+03 -0.32315312648E+03 -0.47152991495E+03  0.58529707191E+03  0.50400001928E-02 0. -1.
</event>
<event>
 5   0  0.1119786E-02  0.6851944E+03  0.7818609E-02  0.9742892E-01
        2   -1    0    0  501    0  0.00000000000E+00  0.00000000000E+00  0.17018975458E+04  0.17018975458E+04  0.25500000920E-02 0.  1.
       -2   -1    0    0    0  501  0.00000000000E+00  0.00000000000E+00 -0.68965862940E+02  0.68965862987E+02  0.25500000920E-02 0. -1.
    10030    2    1    2    0    0  0.00000000000E+00  0.00000000000E+00  0.16329316828E+04  0.17708634088E+04  0.68519437512E+03 0.  0.
        3    1    3    3  502    0 -0.29853533928E+02 -0.21173172289E+03  0.12466161393E+03  0.24751178588E+03  0.10100000352E+00 0. -1.
       -3    1    3    3    0  502  0.29853533928E+02  0.21173172289E+03  0.15082700689E+04  0.15233516229E+04  0.10100000352E+00 0.  1.
</event>
<event>
 5   0  0.1099980E-02  0.7001514E+03  0.7818609E-02  0.9716973E-01
       -2   -1    0    0    0  501  0.00000000000E+00  0.00000000000E+00  0.72257101338E+02  0.72257101383E+02  0.25500000920E-02 0. -1.
        2   -1    0    0  501    0  0.00000000000E+00  0.00000000000E+00 -0.16960683676E+04  0.16960683676E+04  0.25500000920E-02 0.  1.
    10030    2    1    2    0    0  0.00000000000E+00  0.00000000000E+00 -0.16238112663E+04  0.17683254690E+04  0.70015136637E+03 0.  0.
        5    1    3    3  502    0 -0.31191195148E+03  0.37178803583E+02 -0.42178266251E+03  0.52592207912E+03  0.46999998093E+01 0. -1.
       -5    1    3    3    0  502  0.31191195148E+03 -0.37178803583E+02 -0.12020286038E+04  0.12424033899E+04  0.46999998093E+01 0.  1.
</event>
<event>
 5   0  0.1099980E-02  0.6934212E+03  0.7818609E-02  0.9728549E-01
        2   -1    0    0  501    0  0.00000000000E+00  0.00000000000E+00  0.33886569893E+03  0.33886569894E+03  0.25500000920E-02 0. -1.
       -2   -1    0    0    0  501  0.00000000000E+00  0.00000000000E+00 -0.35473706804E+03  0.35473706805E+03  0.25500000920E-02 0.  1.
    10030    2    1    2    0    0  0.00000000000E+00  0.00000000000E+00 -0.15871369107E+02  0.69360276699E+03  0.69342115487E+03 0.  0.
        5    1    3    3  502    0  0.34117035441E+03  0.28833714727E+02  0.46461834512E+02  0.34555663197E+03  0.46999998093E+01 0.  1.
       -5    1    3    3    0  502 -0.34117035441E+03 -0.28833714727E+02 -0.62333203620E+02  0.34804613502E+03  0.46999998093E+01 0. -1.
</event>
<event>
 5   0  0.1119786E-02  0.6988878E+03  0.7818609E-02  0.9719136E-01
        2   -1    0    0  501    0  0.00000000000E+00  0.00000000000E+00  0.14256446722E+04  0.14256446722E+04  0.25500000920E-02 0. -1.
       -2   -1    0    0    0  501  0.00000000000E+00  0.00000000000E+00 -0.85653203061E+02  0.85653203099E+02  0.25500000920E-02 0.  1.
    10030    2    1    2    0    0  0.00000000000E+00  0.00000000000E+00  0.13399914691E+04  0.15112978753E+04  0.69888778107E+03 0.  0.
        3    1    3    3  502    0 -0.10149673444E+03 -0.14412364944E+03  0.17536289030E+02  0.17714611218E+03  0.10100000352E+00 0.  1.
       -3    1    3    3    0  502  0.10149673444E+03  0.14412364944E+03  0.13224551801E+04  0.13341517631E+04  0.10100000352E+00 0. -1.
</event>
<event>
 5   0  0.6689415E-03  0.7007621E+03  0.7818609E-02  0.9715930E-01
       -1   -1    0    0    0  501  0.00000000000E+00  0.00000000000E+00  0.17521239222E+03  0.17521239229E+03  0.50400001928E-02 0. -1.
        1   -1    0    0  501    0  0.00000000000E+00  0.00000000000E+00 -0.70067471909E+03  0.70067471910E+03  0.50400001928E-02 0.  1.
    10030    2    1    2    0    0  0.00000000000E+00  0.00000000000E+00 -0.52546232687E+03  0.87588711140E+03  0.70076213864E+03 0.  0.
        1    1    3    3  502    0 -0.15532125302E+03  0.31304838516E+03 -0.29442339399E+03  0.45695636339E+03  0.50400001928E-02 0. -1.
       -1    1    3    3    0  502  0.15532125302E+03 -0.31304838516E+03 -0.23103893288E+03  0.41893074800E+03  0.50400001928E-02 0.  1.
</event>
<event>
 5   0  0.6609285E-03  0.6999839E+03  0.7818609E-02  0.9717260E-01
        1   -1    0    0  501    0  0.00000000000E+00  0.00000000000E+00  0.27706084002E+03  0.27706084006E+03  0.50400001928E-02 0. -1.
       -1   -1    0    0    0  501  0.00000000000E+00  0.00000000000E+00 -0.44212083817E+03  0.44212083820E+03  0.50400001928E-02 0.  1.
    10030    2    1    2    0    0  0.00000000000E+00  0.00000000000E+00 -0.16505999815E+03  0.71918167826E+03  0.69998391650E+03 0.  0.
        2    1    3    3  502    0 -0.56063935694E+02  0.49170849686E+00  0.27241700869E+03  0.27812664974E+03  0.25500000920E-02 0. -1.
       -2    1    3    3    0  502  0.56063935694E+02 -0.49170849686E+00 -0.43747700685E+03  0.44105502853E+03  0.25500000920E-02 0.  1.
</event>
<event>
 5   0  0.6990118E-03  0.6998099E+03  0.7818609E-02  0.9717557E-01
       -1   -1    0    0    0  501  0.00000000000E+00  0.00000000000E+00  0.12353741713E+03  0.12353741724E+03  0.50400001928E-02 0.  1.
        1   -1    0    0  501    0  0.00000000000E+00  0.00000000000E+00 -0.99106394824E+03  0.99106394825E+03  0.50400001928E-02 0. -1.
    10030    2    1    2    0    0  0.00000000000E+00  0.00000000000E+00 -0.86752653110E+03  0.11146013655E+04  0.69980991832E+03 0.  0.
        5    1    3    3  502    0 -0.16039114675E+03 -0.36876999550E+02  0.57988039138E+02  0.17455639700E+03  0.46999998093E+01 0.  1.
       -5    1    3    3    0  502  0.16039114675E+03  0.36876999550E+02 -0.92551457024E+03  0.94004496849E+03  0.46999998093E+01 0. -1.
</event>
<event>
 5   0  0.1079446E-02  0.7171534E+03  0.7818609E-02  0.9688339E-01
       -2   -1    0    0    0  501  0.00000000000E+00  0.00000000000E+00  0.14391483160E+03  0.14391483162E+03  0.25500000920E-02 0. -1.
        2   -1    0    0  501    0  0.00000000000E+00  0.00000000000E+00 -0.89342605018E+03  0.89342605018E+03  0.25500000920E-02 0.  1.
    10030    2    1    2    0    0  0.00000000000E+00  0.00000000000E+00 -0.74951121858E+03  0.10373408818E+04  0.71715342729E+03 0.  0.
        2    1    3    3  502    0  0.89135567653E+02  0.93366217583E+02  0.10914179516E+03  0.16903943760E+03  0.25500000920E-02 0. -1.
       -2    1    3    3    0  502 -0.89135567653E+02 -0.93366217583E+02 -0.85865301373E+03  0.86830144420E+03  0.25500000920E-02 0.  1.
</event>
<event>
 5   0  0.6785252E-03  0.7045774E+03  0.7818609E-02  0.9709436E-01
       -1   -1    0    0    0  501  0.00000000000E+00  0.00000000000E+00  0.10900652904E+03  0.10900652916E+03  0.50400001928E-02 0. -1.
        1   -1    0    0  501    0  0.00000000000E+00  0.00000000000E+00 -0.11385311093E+04  0.11385311093E+04  0.50400001928E-02 0.  1.
    10030    2    1    2    0    0  0.00000000000E+00  0.00000000000E+00 -0.10295245803E+04  0.12475376385E+04  0.70457738968E+03 0.  0.
        3    1    3    3  502    0 -0.44143661477E+02  0.28082161906E+03 -0.88319503336E+03  0.92781621118E+03  0.10100000352E+00 0.  1.
       -3    1    3    3    0  502  0.44143661477E+02 -0.28082161906E+03 -0.14632954693E+03  0.31972142731E+03  0.10100000352E+00 0. -1.
</event>
<event>
 5   0  0.6246998E-03  0.6945536E+03  0.7818609E-02  0.9726592E-01
       -1   -1    0    0    0  501  0.00000000000E+00  0.00000000000E+00  0.38623643533E+03  0.38623643536E+03  0.50400001928E-02 0.  1.
        1   -1    0    0  501    0  0.00000000000E+00  0.00000000000E+00 -0.31224702187E+03  0.31224702191E+03  0.50400001928E-02 0. -1.
    10030    2    1    2    0    0  0.00000000000E+00  0.00000000000E+00  0.73989413462E+02  0.69848345727E+03  0.69455360252E+03 0.  0.
        4    1    3    3  502    0 -0.18094180211E+03  0.45363582395E+02 -0.25758205845E+03  0.31803760798E+03  0.12699999809E+01 0. -1.
       -4    1    3    3    0  502  0.18094180211E+03 -0.45363582395E+02  0.33157147191E+03  0.38044584929E+03  0.12699999809E+01 0.  1.
</event>
<event>
 5   0  0.1100119E-02  0.7004979E+03  0.7818609E-02  0.9716381E-01
       -2   -1    0    0    0  501  0.00000000000E+00  0.00000000000E+00  0.68243953462E+02  0.68243953510E+02  0.25500000920E-02 0.  1.
        2   -1    0    0  501    0  0.00000000000E+00  0.00000000000E+00 -0.17975853127E+04  0.17975853127E+04  0.25500000920E-02 0. -1.
    10030    2    1    2    0    0  0.00000000000E+00  0.00000000000E+00 -0.17293413593E+04  0.18658292662E+04  0.70049790427E+03 0.  0.
        4    1    3    3  502    0  0.23103534352E+03 -0.16585222525E+03 -0.32017672534E+03  0.42825114002E+03  0.12699999809E+01 0.  1.
       -4    1    3    3    0  502 -0.23103534352E+03  0.16585222525E+03 -0.14091646339E+04  0.14375781262E+04  0.12699999809E+01 0. -1.
</event>
<event>
 5   0  0.4440500E-03  0.6981438E+03  0.7818609E-02  0.9720412E-01
        3   -1    0    0  501    0  0.00000000000E+00  0.00000000000E+00  0.19915166758E+03  0.19915169319E+03  0.10100000352E+00 0.  1.
       -3   -1    0    0    0  501  0.00000000000E+00  0.00000000000E+00 -0.61185120656E+03  0.61185121490E+03  0.10100000352E+00 0. -1.
    10030    2    1    2    0    0  0.00000000000E+00  0.00000000000E+00 -0.41269953898E+03  0.81100290809E+03  0.69814383006E+03 0.  0.
        4    1    3    3  502    0  0.28644634918E+03  0.13454993345E+03 -0.35249275644E+02  0.31843259865E+03  0.12699999809E+01 0.  1.
       -4    1    3    3    0  502 -0.28644634918E+03 -0.13454993345E+03 -0.37745026334E+03  0.49257030944E+03  0.12699999809E+01 0. -1.
</event>
<event>
 5   0  0.6246998E-03  0.7033708E+03  0.7818609E-02  0.9711485E-01
       -1   -1    0    0    0  501  0.00000000000E+00  0.00000000000E+00  0.13483083185E+03  0.13483083195E+03  0.50400001928E-02 0. -1.
        1   -1    0    0  501    0  0.00000000000E+00  0.00000000000E+00 -0.91731702828E+03  0.91731702830E+03  0.50400001928E-02 0.  1.
    10030    2    1    2    0    0  0.00000000000E+00  0.00000000000E+00 -0.78248619643E+03  0.10521478602E+04  0.70337079284E+03 0.  0.
        4    1    3    3  502    0 -0.19535484937E+02 -0.46307703796E+01 -0.91645566072E+03  0.91667642610E+03  0.12699999809E+01 0.  1.
       -4    1    3    3    0  502  0.19535484937E+02  0.46307703796E+01  0.13396946429E+03  0.13547143414E+03  0.12699999809E+01 0. -1.
</event>
<event>
 5   0  0.4440500E-03  0.7005849E+03  0.7818609E-02  0.9716232E-01
       -3   -1    0    0    0  501  0.00000000000E+00  0.00000000000E+00  0.48640909860E+03  0.48640910909E+03  0.10100000352E+00 0.  1.
        3   -1    0    0  501    0  0.00000000000E+00  0.00000000000E+00 -0.25226662766E+03  0.25226664788E+03  0.10100000352E+00 0. -1.
    10030    2    1    2    0    0  0.00000000000E+00  0.00000000000E+00  0.23414247094E+03  0.73867575697E+03  0.70058488225E+03 0.  0.
        3    1    3    3  502    0  0.34424114811E+03  0.48058123057E+02  0.16294824507E+03  0.38387978850E+03  0.10100000352E+00 0.  1.
       -3    1    3    3    0  502 -0.34424114811E+03 -0.48058123057E+02  0.71194225869E+02  0.35479596847E+03  0.10100000352E+00 0. -1.
</event>
<event>
 5   0  0.6246998E-03  0.7008786E+03  0.7818609E-02  0.9715731E-01
        1   -1    0    0  501    0  0.00000000000E+00  0.00000000000E+00  0.62863947025E+03  0.62863947027E+03  0.50400001928E-02 0.  1.
       -1   -1    0    0    0  501  0.00000000000E+00  0.00000000000E+00 -0.19535472278E+03  0.19535472285E+03  0.50400001928E-02 0. -1.
    10030    2    1    2    0    0  0.00000000000E+00  0.00000000000E+00  0.43328474746E+03  0.82399419312E+03  0.70087856145E+03 0.  0.
        4    1    3    3  502    0 -0.90047380980E+02 -0.48059311597E+02  0.61077378965E+03  0.61924507529E+03  0.12699999809E+01 0.  1.
       -4    1    3    3    0  502  0.90047380980E+02  0.48059311597E+02 -0.17748904219E+03  0.20474911782E+03  0.12699999809E+01 0. -1.
</event>
<event>
 5   0  0.6689415E-03  0.6866557E+03  0.7818609E-02  0.9740329E-01
       -1   -1    0    0    0  501  0.00000000000E+00  0.00000000000E+00  0.34586925864E+03  0.34586925867E+03  0.50400001928E-02 0. -1.
        1   -1    0    0  501    0  0.00000000000E+00  0.00000000000E+00 -0.34080508478E+03  0.34080508482E+03  0.50400001928E-02 0.  1.
    10030    2    1    2    0    0  0.00000000000E+00  0.00000000000E+00  0.50641738590E+01  0.68667434349E+03  0.68665566928E+03 0.  0.
        1    1    3    3  502    0  0.13322110286E+03 -0.17185948500E+03  0.26822795964E+03  0.34529665968E+03  0.50400001928E-02 0. -1.
       -1    1    3    3    0  502 -0.13322110286E+03  0.17185948500E+03 -0.26316378578E+03  0.34137768381E+03  0.50400001928E-02 0.  1.
</event>
<event>
 5   0  0.1109788E-02  0.7054361E+03  0.7818609E-02  0.9707981E-01
       -2   -1    0    0    0  501  0.00000000000E+00  0.00000000000E+00  0.89711955066E+03  0.89711955066E+03  0.25500000920E-02 0. -1.
        2   -1    0    0  501    0  0.00000000000E+00  0.00000000000E+00 -0.13867719929E+03  0.13867719931E+03  0.25500000920E-02 0.  1.
    10030    2    1    2    0    0  0.00000000000E+00  0.00000000000E+00  0.75844235137E+03  0.10357967500E+04  0.70543611114E+03 0.  0.
        1    1    3    3  502    0  0.11131584480E+03  0.15258034401E+02 -0.11169864647E+03  0.15843172841E+03  0.50400001928E-02 0.  1.
       -1    1    3    3    0  502 -0.11131584480E+03 -0.15258034401E+02  0.87014099784E+03  0.87736502157E+03  0.50400001928E-02 0. -1.
</event>
<event>
 5   0  0.6785252E-03  0.7006708E+03  0.7818609E-02  0.9716086E-01
       -1   -1    0    0    0  501  0.00000000000E+00  0.00000000000E+00  0.36284905811E+03  0.36284905814E+03  0.50400001928E-02 0.  1.
        1   -1    0    0  501    0  0.00000000000E+00  0.00000000000E+00 -0.33825326292E+03  0.33825326295E+03  0.50400001928E-02 0. -1.
    10030    2    1    2    0    0  0.00000000000E+00  0.00000000000E+00  0.24595795191E+02  0.70110232109E+03  0.70067075828E+03 0.  0.
        3    1    3    3  502    0  0.48449827412E+02  0.31771547278E+03  0.15182682037E+03  0.35544605920E+03  0.10100000352E+00 0. -1.
       -3    1    3    3    0  502 -0.48449827412E+02 -0.31771547278E+03 -0.12723102517E+03  0.34565626189E+03  0.10100000352E+00 0.  1.
</event>
<event>
 5   0  0.1079446E-02  0.6988289E+03  0.7818609E-02  0.9719237E-01
       -2   -1    0    0    0  501  0.00000000000E+00  0.00000000000E+00  0.30154386540E+03  0.30154386541E+03  0.25500000920E-02 0. -1.
        2   -1    0    0  501    0  0.00000000000E+00  0.00000000000E+00 -0.40488454289E+03  0.40488454290E+03  0.25500000920E-02 0.  1.
    10030    2    1    2    0    0  0.00000000000E+00  0.00000000000E+00 -0.10334067749E+03  0.70642840831E+03  0.69882887780E+03 0.  0.
        2    1    3    3  502    0 -0.14514605376E+03 -0.21931324978E+03 -0.28422594255E+03  0.38723386328E+03  0.25500000920E-02 0.  1.
       -2    1    3    3    0  502  0.14514605376E+03  0.21931324978E+03  0.18088526506E+03  0.31919454502E+03  0.25500000920E-02 0. -1.
</event>
<event>
 5   0  0.1119786E-02  0.7028142E+03  0.7818609E-02  0.9712432E-01
        2   -1    0    0  501    0  0.00000000000E+00  0.00000000000E+00  0.76075694569E+03  0.76075694570E+03  0.25500000920E-02 0.  1.
       -2   -1    0    0    0  501  0.00000000000E+00  0.00000000000E+00 -0.16232117846E+03  0.16232117848E+03  0.25500000920E-02 0. -1.
    10030    2    1    2    0    0  0.00000000000E+00  0.00000000000E+00  0.59843576723E+03  0.92307812418E+03  0.70281423991E+03 0.  0.
        3    1    3    3  502    0 -0.33258824259E+03 -0.41236249966E+02  0.16039683213E+03  0.37154073986E+03  0.10100000352E+00 0.  1.
       -3    1    3    3    0  502  0.33258824259E+03  0.41236249966E+02  0.43803893511E+03  0.55153738431E+03  0.10100000352E+00 0. -1.
</event>
<event>
 5   0  0.6990118E-03  0.7004425E+03  0.7818609E-02  0.9716476E-01
       -1   -1    0    0    0  501  0.00000000000E+00  0.00000000000E+00  0.27468559334E+03  0.27468559339E+03  0.50400001928E-02 0. -1.
        1   -1    0    0  501    0  0.00000000000E+00  0.00000000000E+00 -0.44652847584E+03  0.44652847586E+03  0.50400001928E-02 0.  1.
    10030    2    1    2    0    0  0.00000000000E+00  0.00000000000E+00 -0.17184288250E+03  0.72121406925E+03  0.70044254398E+03 0.  0.
        5    1    3    3  502    0  0.82357585332E+02 -0.10195946497E+03  0.24844594690E+03  0.28093768506E+03  0.46999998093E+01 0. -1.
       -5    1    3    3    0  502 -0.82357585332E+02  0.10195946497E+03 -0.42028882940E+03  0.44027638419E+03  0.46999998093E+01 0.  1.
</event>
<event>
 5   0  0.6990118E-03  0.6698340E+03  0.7818609E-02  0.9770258E-01
        1   -1    0    0  501    0  0.00000000000E+00  0.00000000000E+00  0.33933192939E+03  0.33933192943E+03  0.50400001928E-02 0.  1.
       -1   -1    0    0    0  501  0.00000000000E+00  0.00000000000E+00 -0.33055949603E+03  0.33055949607E+03  0.50400001928E-02 0. -1.
    10030    2    1    2    0    0  0.00000000000E+00  0.00000000000E+00  0.87724333607E+01  0.66989142549E+03  0.66983398418E+03 0.  0.
        5    1    3    3  502    0  0.33282732969E+03 -0.31860633213E+02  0.23313226217E+02  0.33519356773E+03  0.46999998093E+01 0. -1.
       -5    1    3    3    0  502 -0.33282732969E+03  0.31860633213E+02 -0.14540792856E+02  0.33469785776E+03  0.46999998093E+01 0.  1.
</event>
<event>
 5   0  0.1100119E-02  0.7001633E+03  0.7818609E-02  0.9716953E-01
       -2   -1    0    0    0  501  0.00000000000E+00  0.00000000000E+00  0.12428462132E+03  0.12428462135E+03  0.25500000920E-02 0. -1.
        2   -1    0    0  501    0  0.00000000000E+00  0.00000000000E+00 -0.98610081323E+03  0.98610081323E+03  0.25500000920E-02 0.  1.
    10030    2    1    2    0    0  0.00000000000E+00  0.00000000000E+00 -0.86181619190E+03  0.11103854346E+04  0.70016331288E+03 0.  0.
        4    1    3    3  502    0  0.15422937485E+03 -0.23306495204E+02 -0.92794299586E+03  0.94096211893E+03  0.12699999809E+01 0.  1.
       -4    1    3    3    0  502 -0.15422937485E+03  0.23306495204E+02  0.66126803959E+02  0.16942331565E+03  0.12699999809E+01 0. -1.
</event>
<event>
 5   0  0.1100119E-02  0.7057880E+03  0.7818609E-02  0.9707385E-01
       -2   -1    0    0    0  501  0.00000000000E+00  0.00000000000E+00  0.11689421011E+03  0.11689421014E+03  0.25500000920E-02 0.  1.
        2   -1    0    0  501    0  0.00000000000E+00  0.00000000000E+00 -0.10653578538E+04  0.10653578538E+04  0.25500000920E-02 0. -1.
    10030    2    1    2    0    0  0.00000000000E+00  0.00000000000E+00 -0.94846364366E+03  0.11822520639E+04  0.70578797049E+03 0.  0.
        4    1    3    3  502    0  0.49594468346E+02  0.66476724060E+02 -0.10487963123E+04  0.10520713302E+04  0.12699999809E+01 0. -1.
       -4    1    3    3    0  502 -0.49594468346E+02 -0.66476724060E+02  0.10033266867E+03  0.13018073373E+03  0.12699999809E+01 0.  1.
</event>
<event>
 5   0  0.1079446E-02  0.7006429E+03  0.7818609E-02  0.9716133E-01
        2   -1    0    0  501    0  0.00000000000E+00  0.00000000000E+00  0.44877808990E+03  0.44877808991E+03  0.25500000920E-02 0. -1.
       -2   -1    0    0    0  501  0.00000000000E+00  0.00000000000E+00 -0.27346504189E+03  0.27346504190E+03  0.25500000920E-02 0.  1.
    10030    2    1    2    0    0  0.00000000000E+00  0.00000000000E+00  0.17531304802E+03  0.72224313181E+03  0.70064290237E+03 0.  0.
        2    1    3    3  502    0 -0.34329790969E+03 -0.33095741587E+02  0.24310111833E+02  0.34574523055E+03  0.25500000920E-02 0.  1.
       -2    1    3    3    0  502  0.34329790969E+03  0.33095741587E+02  0.15100293618E+03  0.37649790126E+03  0.25500000920E-02 0. -1.
</event>
<event>
 5   0  0.6785252E-03  0.6870658E+03  0.7818609E-02  0.9739611E-01
        1   -1    0    0  501    0  0.00000000000E+00  0.00000000000E+00  0.31621453668E+03  0.31621453672E+03  0.50400001928E-02 0.  1.
       -1   -1    0    0    0  501  0.00000000000E+00  0.00000000000E+00 -0.37321134177E+03  0.37321134180E+03  0.50400001928E-02 0. -1.
    10030    2    1    2    0    0  0.00000000000E+00  0.00000000000E+00 -0.56996805089E+02  0.68942587852E+03  0.68706579465E+03 0.  0.
        3    1    3    3  502    0 -0.73608640269E+02 -0.31903995886E+03  0.75830440593E+02  0.33608777603E+03  0.10100000352E+00 0.  1.
       -3    1    3    3    0  502  0.73608640269E+02  0.31903995886E+03 -0.13282724568E+03  0.35333810249E+03  0.10100000352E+00 0. -1.
</event>
<event>
 5   0  0.1119786E-02  0.7003250E+03  0.7818609E-02  0.9716677E-01
       -2   -1    0    0    0  501  0.00000000000E+00  0.00000000000E+00  0.89856202991E+02  0.89856203027E+02  0.25500000920E-02 0. -1.
        2   -1    0    0  501    0  0.00000000000E+00  0.00000000000E+00 -0.13645555218E+04  0.13645555218E+04  0.25500000920E-02 0.  1.
    10030    2    1    2    0    0  0.00000000000E+00  0.00000000000E+00 -0.12746993188E+04  0.14544117248E+04  0.70032500451E+03 0.  0.
        3    1    3    3  502    0 -0.66014025271E+02 -0.18548097238E+03 -0.12387259818E+04  0.12542739377E+04  0.10100000352E+00 0.  1.
       -3    1    3    3    0  502  0.66014025271E+02  0.18548097238E+03 -0.35973336987E+02  0.20013778709E+03  0.10100000352E+00 0. -1.
</event>
<event>
 5   0  0.6990118E-03  0.6966253E+03  0.7818609E-02  0.9723021E-01
       -1   -1    0    0    0  501  0.00000000000E+00  0.00000000000E+00  0.19851749713E+03  0.19851749720E+03  0.50400001928E-02 0. -1.
        1   -1    0    0  501    0  0.00000000000E+00  0.00000000000E+00 -0.61113854614E+03  0.61113854616E+03  0.50400001928E-02 0.  1.
    10030    2    1    2    0    0  0.00000000000E+00  0.00000000000E+00 -0.41262104901E+03  0.80965604336E+03  0.69662527837E+03 0.  0.
        5    1    3    3  502    0  0.17365461291E+03  0.28453054615E+03 -0.89008853550E+02  0.34504814488E+03  0.46999998093E+01 0. -1.
       -5    1    3    3    0  502 -0.17365461291E+03 -0.28453054615E+03 -0.32361219546E+03  0.46460789847E+03  0.46999998093E+01 0.  1.
</event>
<event>
 5   0  0.6785252E-03  0.7051124E+03  0.7818609E-02  0.9708529E-01
        1   -1    0    0  501    0  0.00000000000E+00  0.00000000000E+00  0.65085220243E+03  0.65085220245E+03  0.50400001928E-02 0. -1.
       -1   -1    0    0    0  501  0.00000000000E+00  0.00000000000E+00 -0.19097402727E+03  0.19097402734E+03  0.50400001928E-02 0.  1.
    10030    2    1    2    0    0  0.00000000000E+00  0.00000000000E+00  0.45987817516E+03  0.84182622979E+03  0.70511237769E+03 0.  0.
        3    1    3    3  502    0  0.29304298282E+03 -0.17309797591E+03  0.12013528237E+03  0.36092879535E+03  0.10100000352E+00 0.  1.
       -3    1    3    3    0  502 -0.29304298282E+03  0.17309797591E+03  0.33974289279E+03  0.48089743444E+03  0.10100000352E+00 0. -1.
</event>
<event>
 5   0  0.6990118E-03  0.7001473E+03  0.7818609E-02  0.9716980E-01
        1   -1    0    0  501    0  0.00000000000E+00  0.00000000000E+00  0.98389855005E+03  0.98389855006E+03  0.50400001928E-02 0.  1.
       -1   -1    0    0    0  501  0.00000000000E+00  0.00000000000E+00 -0.12455710489E+03  0.12455710500E+03  0.50400001928E-02 0. -1.
    10030    2    1    2    0    0  0.00000000000E+00  0.00000000000E+00  0.85934144515E+03  0.11084556551E+04  0.70014728441E+03 0.  0.
        5    1    3    3  502    0 -0.24895326537E+03  0.24486124249E+03  0.39106239321E+03  0.52429633013E+03  0.46999998093E+01 0. -1.
       -5    1    3    3    0  502  0.24895326537E+03 -0.24486124249E+03  0.46827905195E+03  0.58415932493E+03  0.46999998093E+01 0.  1.
</event>
<event>
 5   0  0.1100119E-02  0.6977532E+03  0.7818609E-02  0.9721082E-01
       -2   -1    0    0    0  501  0.00000000000E+00  0.00000000000E+00  0.24080335399E+03  0.24080335400E+03  0.25500000920E-02 0. -1.
        2   -1    0    0  501    0  0.00000000000E+00  0.00000000000E+00 -0.50545336235E+03  0.50545336236E+03  0.25500000920E-02 0.  1.
    10030    2    1    2    0    0  0.00000000000E+00  0.00000000000E+00 -0.26465000837E+03  0.74625671636E+03  0.69775315104E+03 0.  0.
        4    1    3    3  502    0  0.21501917384E+03 -0.27246122830E+03 -0.94589406057E+02  0.35974593074E+03  0.12699999809E+01 0.  1.
       -4    1    3    3    0  502 -0.21501917384E+03  0.27246122830E+03 -0.17006060231E+03  0.38651078562E+03  0.12699999809E+01 0. -1.
</event>
<event>
 5   0  0.6609285E-03  0.7007682E+03  0.7818609E-02  0.9715919E-01
       -1   -1    0    0    0  501  0.00000000000E+00  0.00000000000E+00  0.31212486194E+03  0.31212486198E+03  0.50400001928E-02 0.  1.
        1   -1    0    0  501    0  0.00000000000E+00  0.00000000000E+00 -0.39333302923E+03  0.39333302926E+03  0.50400001928E-02 0. -1.
    10030    2    1    2    0    0  0.00000000000E+00  0.00000000000E+00 -0.81208167283E+02  0.70545789124E+03  0.70076819982E+03 0.  0.
        2    1    3    3  502    0 -0.27474237937E+03  0.11414625937E+03  0.14571904643E+03  0.33128052169E+03  0.25500000920E-02 0.  1.
       -2    1    3    3    0  502  0.27474237937E+03 -0.11414625937E+03 -0.22692721372E+03  0.37417736955E+03  0.25500000920E-02 0. -1.
</event>
<event>
 5   0  0.6785252E-03  0.7018537E+03  0.7818609E-02  0.9714067E-01
       -1   -1    0    0    0  501  0.00000000000E+00  0.00000000000E+00  0.10919443980E+03  0.10919443991E+03  0.50400001928E-02 0. -1.
        1   -1    0    0  501    0  0.00000000000E+00  0.00000000000E+00 -0.11278015451E+04  0.11278015451E+04  0.50400001928E-02 0.  1.
    10030    2    1    2    0    0  0.00000000000E+00  0.00000000000E+00 -0.10186071053E+04  0.12369959851E+04  0.70185371126E+03 0.  0.
        3    1    3    3  502    0  0.16379954219E+03 -0.27736657080E+03 -0.75470583537E+03  0.82057505005E+03  0.10100000352E+00 0.  1.
       -3    1    3    3    0  502 -0.16379954219E+03  0.27736657080E+03 -0.26390126997E+03  0.41642093501E+03  0.10100000352E+00 0. -1.
</event>
<event>
 5   0  0.1079446E-02  0.6960465E+03  0.7818609E-02  0.9724017E-01
        2   -1    0    0  501    0  0.00000000000E+00  0.00000000000E+00  0.59005164675E+03  0.59005164675E+03  0.25500000920E-02 0. -1.
       -2   -1    0    0    0  501  0.00000000000E+00  0.00000000000E+00 -0.20527048649E+03  0.20527048651E+03  0.25500000920E-02 0.  1.
    10030    2    1    2    0    0  0.00000000000E+00  0.00000000000E+00  0.38478116025E+03  0.79532213326E+03  0.69604651739E+03 0.  0.
        2    1    3    3  502    0 -0.11038207504E+03 -0.20494466814E+03 -0.10322486432E+03  0.25464071180E+03  0.25500000920E-02 0.  1.
       -2    1    3    3    0  502  0.11038207504E+03  0.20494466814E+03  0.48800602457E+03  0.54068142146E+03  0.25500000920E-02 0. -1.
</event>
<event>
 5   0  0.6785252E-03  0.6990652E+03  0.7818609E-02  0.9718832E-01
        1   -1    0    0  501    0  0.00000000000E+00  0.00000000000E+00  0.23912394171E+04  0.23912394171E+04  0.50400001928E-02 0. -1.
       -1   -1    0    0    0  501  0.00000000000E+00  0.00000000000E+00 -0.51091928630E+02  0.51091928879E+02  0.50400001928E-02 0.  1.
    10030    2    1    2    0    0  0.00000000000E+00  0.00000000000E+00  0.23401474884E+04  0.24423313460E+04  0.69906518707E+03 0.  0.
        3    1    3    3  502    0 -0.14091418792E+03  0.24692454694E+03  0.45968561812E+03  0.54049923029E+03  0.10100000352E+00 0.  1.
       -3    1    3    3    0  502  0.14091418792E+03 -0.24692454694E+03  0.18804618703E+04  0.19018321157E+04  0.10100000352E+00 0. -1.
</event>
<event>
 5   0  0.1100119E-02  0.6960744E+03  0.7818609E-02  0.9723969E-01
        2   -1    0    0  501    0  0.00000000000E+00  0.00000000000E+00  0.16128433609E+04  0.16128433609E+04  0.25500000920E-02 0.  1.
       -2   -1    0    0    0  501  0.00000000000E+00  0.00000000000E+00 -0.75103312428E+02  0.75103312471E+02  0.25500000920E-02 0. -1.
    10030    2    1    2    0    0  0.00000000000E+00  0.00000000000E+00  0.15377400484E+04  0.16879466733E+04  0.69607436058E+03 0.  0.
        4    1    3    3  502    0 -0.29097467615E+03  0.16416310339E+03  0.10053802633E+04  0.10594370549E+04  0.12699999809E+01 0.  1.
       -4    1    3    3    0  502  0.29097467615E+03 -0.16416310339E+03  0.53235978514E+03  0.62850961838E+03  0.12699999809E+01 0. -1.
</event>
<event>
 5   0  0.1109788E-02  0.6993503E+03  0.7818609E-02  0.9718344E-01
        2   -1    0    0  501    0  0.00000000000E+00  0.00000000000E+00  0.14814979233E+04  0.14814979233E+04  0.25500000920E-02 0. -1.
       -2   -1    0    0    0  501  0.00000000000E+00  0.00000000000E+00 -0.82533162227E+02  0.82533162266E+02  0.25500000920E-02 0.  1.
    10030    2    1    2    0    0  0.00000000000E+00  0.00000000000E+00  0.13989647611E+04  0.15640310856E+04  0.69935029414E+03 0.  0.
        1    1    3    3  502    0  0.28256324697E+03  0.13579644004E+03  0.35309172624E+03  0.47218262233E+03  0.50400001928E-02 0.  1.
       -1    1    3    3    0  502 -0.28256324697E+03 -0.13579644004E+03  0.10458730349E+04  0.10918484633E+04  0.50400001928E-02 0. -1.
</event>
<event>
 5   0  0.1109788E-02  0.7050085E+03  0.7818609E-02  0.9708705E-01
        2   -1    0    0  501    0  0.00000000000E+00  0.00000000000E+00  0.18922436346E+04  0.18922436346E+04  0.25500000920E-02 0. -1.
       -2   -1    0    0    0  501  0.00000000000E+00  0.00000000000E+00 -0.65667679169E+02  0.65667679219E+02  0.25500000920E-02 0.  1.
    10030    2    1    2    0    0  0.00000000000E+00  0.00000000000E+00  0.18265759555E+04  0.19579113138E+04  0.70500850479E+03 0.  0.
        1    1    3    3  502    0  0.15531935853E+03 -0.59786287323E+02  0.17762644649E+04  0.17840442687E+04  0.50400001928E-02 0. -1.
       -1    1    3    3    0  502 -0.15531935853E+03  0.59786287323E+02  0.50311490532E+02  0.17386704515E+03  0.50400001928E-02 0.  1.
</event>
<event>
 5   0  0.1119786E-02  0.7058960E+03  0.7818609E-02  0.9707202E-01
       -2   -1    0    0    0  501  0.00000000000E+00  0.00000000000E+00  0.42278108304E+03  0.42278108305E+03  0.25500000920E-02 0.  1.
        2   -1    0    0  501    0  0.00000000000E+00  0.00000000000E+00 -0.29464961296E+03  0.29464961298E+03  0.25500000920E-02 0. -1.
    10030    2    1    2    0    0  0.00000000000E+00  0.00000000000E+00  0.12813147008E+03  0.71743069602E+03  0.70589597674E+03 0.  0.
        3    1    3    3  502    0  0.20772572553E+03 -0.61874983210E+02 -0.21904263356E+03  0.30815284537E+03  0.10100000352E+00 0. -1.
       -3    1    3    3    0  502 -0.20772572553E+03  0.61874983210E+02  0.34717410364E+03  0.40927785065E+03  0.10100000352E+00 0.  1.
</event>
<event>
 5   0  0.1099980E-02  0.7015960E+03  0.7818609E-02  0.9714507E-01
        2   -1    0    0  501    0  0.00000000000E+00  0.00000000000E+00  0.14231158313E+03  0.14231158315E+03  0.25500000920E-02 0. -1.
       -2   -1    0    0    0  501  0.00000000000E+00  0.00000000000E+00 -0.86471683817E+03  0.86471683818E+03  0.25500000920E-02 0.  1.
    10030    2    1    2    0    0  0.00000000000E+00  0.00000000000E+00 -0.72240525505E+03  0.10070284213E+04  0.70159595840E+03 0.  0.
        5    1    3    3  502    0  0.18404273753E+03 -0.99822737417E+02 -0.76514508140E+03  0.79328771183E+03  0.46999998093E+01 0.  1.
       -5    1    3    3    0  502 -0.18404273753E+03  0.99822737417E+02  0.42739826353E+02  0.21374070950E+03  0.46999998093E+01 0. -1.
</event>
<event>
 5   0  0.6785252E-03  0.6977304E+03  0.7818609E-02  0.9721121E-01
        1   -1    0    0  501    0  0.00000000000E+00  0.00000000000E+00  0.97982584843E+02  0.97982584972E+02  0.50400001928E-02 0. -1.
       -1   -1    0    0    0  501  0.00000000000E+00  0.00000000000E+00 -0.12421282568E+04  0.12421282568E+04  0.50400001928E-02 0.  1.
    10030    2    1    2    0    0  0.00000000000E+00  0.00000000000E+00 -0.11441456720E+04  0.13401108418E+04  0.69773042761E+03 0.  0.
        3    1    3    3  502    0 -0.60207123611E+02 -0.23499385909E+03 -0.90524423992E+02  0.25892410680E+03  0.10100000352E+00 0. -1.
       -3    1    3    3    0  502  0.60207123611E+02  0.23499385909E+03 -0.10536212480E+04  0.10811867350E+04  0.10100000352E+00 0.  1.
</event>
<event>
 5   0  0.6246998E-03  0.7000307E+03  0.7818609E-02  0.9717180E-01
        1   -1    0    0  501    0  0.00000000000E+00  0.00000000000E+00  0.48238339413E+03  0.48238339416E+03  0.50400001928E-02 0.  1.
       -1   -1    0    0    0  501  0.00000000000E+00  0.00000000000E+00 -0.25396965318E+03  0.25396965323E+03  0.50400001928E-02 0. -1.
    10030    2    1    2    0    0  0.00000000000E+00  0.00000000000E+00  0.22841374095E+03  0.73635304739E+03  0.70003069457E+03 0.  0.
        4    1    3    3  502    0  0.31952312247E+03  0.54519648636E+02 -0.24712743474E+02  0.32508422058E+03  0.12699999809E+01 0.  1.
       -4    1    3    3    0  502 -0.31952312247E+03 -0.54519648636E+02  0.25312648443E+03  0.41126882680E+03  0.12699999809E+01 0. -1.
</event>
<event>
 5   0  0.1100119E-02  0.6954843E+03  0.7818609E-02  0.9724986E-01
        2   -1    0    0  501    0  0.00000000000E+00  0.00000000000E+00  0.12274658661E+03  0.12274658664E+03  0.25500000920E-02 0. -1.
       -2   -1    0    0    0  501  0.00000000000E+00  0.00000000000E+00 -0.98515647496E+03  0.98515647496E+03  0.25500000920E-02 0.  1.
    10030    2    1    2    0    0  0.00000000000E+00  0.00000000000E+00 -0.86240988835E+03  0.11079030616E+04  0.69548427616E+03 0.  0.
        4    1    3    3  502    0 -0.29392113583E+03 -0.15853506861E+03 -0.27675850390E+03  0.43372789217E+03  0.12699999809E+01 0. -1.
       -4    1    3    3    0  502  0.29392113583E+03  0.15853506861E+03 -0.58565138445E+03  0.67417516943E+03  0.12699999809E+01 0.  1.
</event>
<event>
 5   0  0.6689415E-03  0.7000893E+03  0.7818609E-02  0.9717080E-01
       -1   -1    0    0    0  501  0.00000000000E+00  0.00000000000E+00  0.13302347915E+03  0.13302347925E+03  0.50400001928E-02 0. -1.
        1   -1    0    0  501    0  0.00000000000E+00  0.00000000000E+00 -0.92112501921E+03  0.92112501922E+03  0.50400001928E-02 0.  1.
    10030    2    1    2    0    0  0.00000000000E+00  0.00000000000E+00 -0.78810154006E+03  0.10541484985E+04  0.70008929387E+03 0.  0.
        1    1    3    3  502    0 -0.17547851401E+03  0.25944726548E+03 -0.62937764800E+03  0.70300911535E+03  0.50400001928E-02 0.  1.
       -1    1    3    3    0  502  0.17547851401E+03 -0.25944726548E+03 -0.15872389206E+03  0.35113938312E+03  0.50400001928E-02 0. -1.
</event>
<event>
 5   0  0.6609285E-03  0.7010155E+03  0.7818609E-02  0.9715497E-01
       -1   -1    0    0    0  501  0.00000000000E+00  0.00000000000E+00  0.44998761444E+03  0.44998761447E+03  0.50400001928E-02 0.  1.
        1   -1    0    0  501    0  0.00000000000E+00  0.00000000000E+00 -0.27302014999E+03  0.27302015003E+03  0.50400001928E-02 0. -1.
    10030    2    1    2    0    0  0.00000000000E+00  0.00000000000E+00  0.17696746445E+03  0.72300776450E+03  0.70101550914E+03 0.  0.
        2    1    3    3  502    0  0.16088270537E+03  0.18932006922E+03  0.34348584872E+03  0.42391964070E+03  0.25500000920E-02 0.  1.
       -2    1    3    3    0  502 -0.16088270537E+03 -0.18932006922E+03 -0.16651838427E+03  0.29908812380E+03  0.25500000920E-02 0. -1.
</event>
<event>
 5   0  0.6785252E-03  0.6994284E+03  0.7818609E-02  0.9718210E-01
       -1   -1    0    0    0  501  0.00000000000E+00  0.00000000000E+00  0.28944277579E+03  0.28944277584E+03  0.50400001928E-02 0.  1.
        1   -1    0    0  501    0  0.00000000000E+00  0.00000000000E+00 -0.42253612992E+03  0.42253612995E+03  0.50400001928E-02 0. -1.
    10030    2    1    2    0    0  0.00000000000E+00  0.00000000000E+00 -0.13309335412E+03  0.71197890579E+03  0.69942842477E+03 0.  0.
        3    1    3    3  502    0 -0.29576064727E+03 -0.99328895965E+02 -0.22736709302E+03  0.38605232189E+03  0.10100000352E+00 0. -1.
       -3    1    3    3    0  502  0.29576064727E+03  0.99328895965E+02  0.94273738895E+02  0.32592658390E+03  0.10100000352E+00 0.  1.
</event>
<event>
 5   0  0.6689415E-03  0.6975659E+03  0.7818609E-02  0.9721404E-01
       -1   -1    0    0    0  501  0.00000000000E+00  0.00000000000E+00  0.57299431021E+03  0.57299431024E+03  0.50400001928E-02 0.  1.
        1   -1    0    0  501    0  0.00000000000E+00  0.00000000000E+00 -0.21230497822E+03  0.21230497828E+03  0.50400001928E-02 0. -1.
    10030    2    1    2    0    0  0.00000000000E+00  0.00000000000E+00  0.36068933199E+03  0.78529928852E+03  0.69756589534E+03 0.  0.
        1    1    3    3  502    0  0.33419625033E+03 -0.75933822018E+02  0.10741708758E+03  0.35915388038E+03  0.50400001928E-02 0. -1.
       -1    1    3    3    0  502 -0.33419625033E+03  0.75933822018E+02  0.25327224441E+03  0.42614540814E+03  0.50400001928E-02 0.  1.
</event>
<event>
 5   0  0.6990118E-03  0.7017426E+03  0.7818609E-02  0.9714257E-01
        1   -1    0    0  501    0  0.00000000000E+00  0.00000000000E+00  0.69354489064E+03  0.69354489066E+03  0.50400001928E-02 0. -1.
       -1   -1    0    0    0  501  0.00000000000E+00  0.00000000000E+00 -0.17750931964E+03  0.17750931971E+03  0.50400001928E-02 0.  1.
    10030    2    1    2    0    0  0.00000000000E+00  0.00000000000E+00  0.51603557100E+03  0.87105421036E+03  0.70174263576E+03 0.  0.
        5    1    3    3  502    0  0.34190568605E+03 -0.13623874722E+02  0.35419428915E+03  0.49250461173E+03  0.46999998093E+01 0. -1.
       -5    1    3    3    0  502 -0.34190568605E+03  0.13623874722E+02  0.16184128185E+03  0.37854959863E+03  0.46999998093E+01 0.  1.
</event>
<event>
 5   0  0.4440500E-03  0.7000155E+03  0.7818609E-02  0.9717206E-01
       -4   -1    0    0    0  501  0.00000000000E+00  0.00000000000E+00  0.23526799248E+04  0.23526802675E+04  0.12699999809E+01 0.  1.
        4   -1    0    0  501    0  0.00000000000E+00  0.00000000000E+00 -0.52062496240E+02  0.52077983973E+02  0.12699999809E+01 0. -1.
    10030    2    1    2    0    0  0.00000000000E+00  0.00000000000E+00  0.23006174285E+04  0.24047582515E+04  0.70001549684E+03 0.  0.
        5    1    3    3  502    0  0.30379773340E+02 -0.34864629562E+03  0.11588375676E+04  0.12105386273E+04  0.46999998093E+01 0. -1.
       -5    1    3    3    0  502 -0.30379773340E+02  0.34864629562E+03  0.11417798609E+04  0.11942196242E+04  0.46999998093E+01 0.  1.
</event>
<event>
 5   0  0.6990118E-03  0.6994062E+03  0.7818609E-02  0.9718248E-01
        1   -1    0    0  501    0  0.00000000000E+00  0.00000000000E+00  0.54309875615E+03  0.54309875617E+03  0.50400001928E-02 0. -1.
       -1   -1    0    0    0  501  0.00000000000E+00  0.00000000000E+00 -0.22517498362E+03  0.22517498368E+03  0.50400001928E-02 0.  1.
    10030    2    1    2    0    0  0.00000000000E+00  0.00000000000E+00  0.31792377253E+03  0.76827373985E+03  0.69940618685E+03 0.  0.
        5    1    3    3  502    0  0.10483372355E+03  0.60888329868E+02  0.51923967101E+03  0.53322549100E+03  0.46999998093E+01 0. -1.
       -5    1    3    3    0  502 -0.10483372355E+03 -0.60888329868E+02 -0.20131589848E+03  0.23504824885E+03  0.46999998093E+01 0.  1.
</event>
<event>
 5   0  0.4440500E-03  0.7000337E+03  0.7818609E-02  0.9717175E-01
        4   -1    0    0  501    0  0.00000000000E+00  0.00000000000E+00  0.19366497598E+03  0.19366914009E+03  0.12699999809E+01 0.  1.
       -4   -1    0    0    0  501  0.00000000000E+00  0.00000000000E+00 -0.63258486249E+03  0.63258613734E+03  0.12699999809E+01 0. -1.
    10030    2    1    2    0    0  0.00000000000E+00  0.00000000000E+00 -0.43891988650E+03  0.82625527742E+03  0.70003365398E+03 0.  0.
        4    1    3    3  502    0 -0.28458116824E+03 -0.29561093105E+02  0.18511525104E+02  0.28671342662E+03  0.12699999809E+01 0.  1.
       -4    1    3    3    0  502  0.28458116824E+03  0.29561093105E+02 -0.45743141161E+03  0.53954185080E+03  0.12699999809E+01 0. -1.
</event>
<event>
 5   0  0.1099980E-02  0.7016932E+03  0.7818609E-02  0.9714341E-01
        2   -1    0    0  501    0  0.00000000000E+00  0.00000000000E+00  0.59902086389E+03  0.59902086389E+03  0.25500000920E-02 0. -1.
       -2   -1    0    0    0  501  0.00000000000E+00  0.00000000000E+00 -0.20549088156E+03  0.20549088157E+03  0.25500000920E-02 0.  1.
    10030    2    1    2    0    0  0.00000000000E+00  0.00000000000E+00  0.39352998233E+03  0.80451174546E+03  0.70169316770E+03 0.  0.
        5    1    3    3  502    0 -0.57509254852E+02  0.30764960717E+03  0.15064012008E+02  0.31337614721E+03  0.46999998093E+01 0. -1.
       -5    1    3    3    0  502  0.57509254852E+02 -0.30764960717E+03  0.37846597032E+03  0.49113559825E+03  0.46999998093E+01 0.  1.
</event>
<event>
 5   0  0.6689415E-03  0.6990920E+03  0.7818609E-02  0.9718786E-01
        1   -1    0    0  501    0  0.00000000000E+00  0.00000000000E+00  0.10298707457E+04  0.10298707457E+04  0.50400001928E-02 0. -1.
       -1   -1    0    0    0  501  0.00000000000E+00  0.00000000000E+00 -0.11863858178E+03  0.11863858189E+03  0.50400001928E-02 0.  1.
    10030    2    1    2    0    0  0.00000000000E+00  0.00000000000E+00  0.91123216389E+03  0.11485093276E+04  0.69909199611E+03 0.  0.
        1    1    3    3  502    0 -0.14731552207E+03  0.28154016053E+03  0.21632381077E+03  0.38439916255E+03  0.50400001928E-02 0.  1.
       -1    1    3    3    0  502  0.14731552207E+03 -0.28154016053E+03  0.69490835313E+03  0.76411016503E+03  0.50400001928E-02 0. -1.
</event>
<event>
 5   0  0.1099980E-02  0.6952453E+03  0.7818609E-02  0.9725398E-01
       -2   -1    0    0    0  501  0.00000000000E+00  0.00000000000E+00  0.46859036864E+03  0.46859036865E+03  0.25500000920E-02 0. -1.
        2   -1    0    0  501    0  0.00000000000E+00  0.00000000000E+00 -0.25788307078E+03  0.25788307079E+03  0.25500000920E-02 0.  1.
    10030    2    1    2    0    0  0.00000000000E+00  0.00000000000E+00  0.21070729786E+03  0.72647343944E+03  0.69524534723E+03 0.  0.
        5    1    3    3  502    0  0.22303848801E+03 -0.13929716177E+03  0.34287303377E+03  0.43212714992E+03  0.46999998093E+01 0. -1.
       -5    1    3    3    0  502 -0.22303848801E+03  0.13929716177E+03 -0.13216573591E+03  0.29434628953E+03  0.46999998093E+01 0.  1.
</event>
<event>
 5   0  0.6785252E-03  0.6979129E+03  0.7818609E-02  0.9720808E-01
        1   -1    0    0  501    0  0.00000000000E+00  0.00000000000E+00  0.12358419523E+03  0.12358419534E+03  0.50400001928E-02 0. -1.
       -1   -1    0    0    0  501  0.00000000000E+00  0.00000000000E+00 -0.98532505266E+03  0.98532505267E+03  0.50400001928E-02 0.  1.
    10030    2    1    2    0    0  0.00000000000E+00  0.00000000000E+00 -0.86174085743E+03  0.11089092480E+04  0.69791289926E+03 0.  0.
        3    1    3    3  502    0 -0.90651205917E+02 -0.31548032071E+03 -0.24270143279E+03  0.40822722786E+03  0.10100000352E+00 0.  1.
       -3    1    3    3    0  502  0.90651205917E+02  0.31548032071E+03 -0.61903942464E+03  0.70068202014E+03  0.10100000352E+00 0. -1.
</event>
<event>
 5   0  0.1100119E-02  0.7049633E+03  0.7818609E-02  0.9708782E-01
       -2   -1    0    0    0  501  0.00000000000E+00  0.00000000000E+00  0.69005178567E+02  0.69005178614E+02  0.25500000920E-02 0.  1.
        2   -1    0    0  501    0  0.00000000000E+00  0.00000000000E+00 -0.18004924540E+04  0.18004924540E+04  0.25500000920E-02 0. -1.
    10030    2    1    2    0    0  0.00000000000E+00  0.00000000000E+00 -0.17314872754E+04  0.18694976326E+04  0.70496327093E+03 0.  0.
        4    1    3    3  502    0  0.21277699330E+03 -0.10020903796E+03 -0.15619681444E+04  0.15795765246E+04  0.12699999809E+01 0. -1.
       -4    1    3    3    0  502 -0.21277699330E+03  0.10020903796E+03 -0.16951913105E+03  0.28992110799E+03  0.12699999809E+01 0.  1.
</event>
<event>
 5   0  0.6246998E-03  0.6970538E+03  0.7818609E-02  0.9722284E-01
       -1   -1    0    0    0  501  0.00000000000E+00  0.00000000000E+00  0.41920454582E+03  0.41920454585E+03  0.50400001928E-02 0.  1.
        1   -1    0    0  501    0  0.00000000000E+00  0.00000000000E+00 -0.28976549893E+03  0.28976549898E+03  0.50400001928E-02 0. -1.
    10030    2    1    2    0    0  0.00000000000E+00  0.00000000000E+00  0.12943904689E+03  0.70897004483E+03  0.69705384125E+03 0.  0.
        4    1    3    3  502    0 -0.31664908688E+02  0.17499558447E+03  0.36958227260E+03  0.41014484044E+03  0.12699999809E+01 0.  1.
       -4    1    3    3    0  502  0.31664908688E+02 -0.17499558447E+03 -0.24014322570E+03  0.29882520439E+03  0.12699999809E+01 0. -1.
</event>
<event>
 5   0  0.1100119E-02  0.6877267E+03  0.7818609E-02  0.9738454E-01
        2   -1    0    0  501    0  0.00000000000E+00  0.00000000000E+00  0.21837017791E+04  0.21837017791E+04  0.25500000920E-02 0.  1.
       -2   -1    0    0    0  501  0.00000000000E+00  0.00000000000E+00 -0.54147506468E+02  0.54147506528E+02  0.25500000920E-02 0. -1.
    10030    2    1    2    0    0  0.00000000000E+00  0.00000000000E+00  0.21295542727E+04  0.22378492857E+04  0.68772670816E+03 0.  0.
        4    1    3    3  502    0 -0.15139557539E+03 -0.30849835899E+03  0.10251191858E+04  0.10811858378E+04  0.12699999809E+01 0.  1.
       -4    1    3    3    0  502  0.15139557539E+03  0.30849835899E+03  0.11044350868E+04  0.11566634479E+04  0.12699999809E+01 0. -1.
</event>
<event>
 5   0  0.1079446E-02  0.6962350E+03  0.7818609E-02  0.9723693E-01
       -2   -1    0    0    0  501  0.00000000000E+00  0.00000000000E+00  0.21497434454E+03  0.21497434456E+03  0.25500000920E-02 0. -1.
        2   -1    0    0  501    0  0.00000000000E+00  0.00000000000E+00 -0.56372213879E+03  0.56372213880E+03  0.25500000920E-02 0.  1.
    10030    2    1    2    0    0  0.00000000000E+00  0.00000000000E+00 -0.34874779425E+03  0.77869648336E+03  0.69623501004E+03 0.  0.
        2    1    3    3  502    0 -0.22463520768E+03 -0.26572020583E+03 -0.16224551005E+03  0.38391640998E+03  0.25500000920E-02 0. -1.
       -2    1    3    3    0  502  0.22463520768E+03  0.26572020583E+03 -0.18650228420E+03  0.39478007337E+03  0.25500000920E-02 0.  1.
</event>
<event>
 5   0  0.6689415E-03  0.7026826E+03  0.7818609E-02  0.9712655E-01
       -1   -1    0    0    0  501  0.00000000000E+00  0.00000000000E+00  0.30011579532E+03  0.30011579536E+03  0.50400001928E-02 0.  1.
        1   -1    0    0  501    0  0.00000000000E+00  0.00000000000E+00 -0.41131031689E+03  0.41131031692E+03  0.50400001928E-02 0. -1.
    10030    2    1    2    0    0  0.00000000000E+00  0.00000000000E+00 -0.11119452157E+03  0.71142611228E+03  0.70268263933E+03 0.  0.
        1    1    3    3  502    0 -0.31920848144E+03  0.14137910563E+03 -0.15626699505E+02  0.34946573493E+03  0.50400001928E-02 0.  1.
       -1    1    3    3    0  502  0.31920848144E+03 -0.14137910563E+03 -0.95567822068E+02  0.36196037735E+03  0.50400001928E-02 0. -1.
</event>
<event>
 5   0  0.6990118E-03  0.6916121E+03  0.7818609E-02  0.9731685E-01
       -1   -1    0    0    0  501  0.00000000000E+00  0.00000000000E+00  0.30452114800E+03  0.30452114804E+03  0.50400001928E-02 0. -1.
        1   -1    0    0  501    0  0.00000000000E+00  0.00000000000E+00 -0.39268809081E+03  0.39268809084E+03  0.50400001928E-02 0.  1.
    10030    2    1    2    0    0  0.00000000000E+00  0.00000000000E+00 -0.88166942810E+02  0.69720923889E+03  0.69161211165E+03 0.  0.
        5    1    3    3  502    0  0.20441651091E+03 -0.26433379531E+03 -0.13369194432E+03  0.35993623220E+03  0.46999998093E+01 0.  1.
       -5    1    3    3    0  502 -0.20441651091E+03  0.26433379531E+03  0.45525001513E+02  0.33727300669E+03  0.46999998093E+01 0. -1.
</event>
<event>
 5   0  0.6689415E-03  0.6952544E+03  0.7818609E-02  0.9725382E-01
       -1   -1    0    0    0  501  0.00000000000E+00  0.00000000000E+00  0.17147337199E+03  0.17147337207E+03  0.50400001928E-02 0. -1.
        1   -1    0    0  501    0  0.00000000000E+00  0.00000000000E+00 -0.70474307522E+03  0.70474307524E+03  0.50400001928E-02 0.  1.
    10030    2    1    2    0    0  0.00000000000E+00  0.00000000000E+00 -0.53326970323E+03  0.87621644730E+03  0.69525440390E+03 0.  0.
        1    1    3    3  502    0  0.23848907289E+03 -0.12631296699E+03 -0.54278518534E+03  0.60617469509E+03  0.50400001928E-02 0.  1.
       -1    1    3    3    0  502 -0.23848907289E+03  0.12631296699E+03  0.95154821107E+01  0.27004175222E+03  0.50400001928E-02 0. -1.
</event>
<event>
 5   0  0.1099980E-02  0.6954320E+03  0.7818609E-02  0.9725076E-01
       -2   -1    0    0    0  501  0.00000000000E+00  0.00000000000E+00  0.44681720968E+03  0.44681720969E+03  0.25500000920E-02 0. -1.
        2   -1    0    0  501    0  0.00000000000E+00  0.00000000000E+00 -0.27059481981E+03  0.27059481982E+03  0.25500000920E-02 0.  1.
    10030    2    1    2    0    0  0.00000000000E+00  0.00000000000E+00  0.17622238988E+03  0.71741202951E+03  0.69543201637E+03 0.  0.
        5    1    3    3  502    0 -0.21366549024E+03  0.25393283107E+03 -0.18845571834E+02  0.33243355726E+03  0.46999998093E+01 0.  1.
       -5    1    3    3    0  502  0.21366549024E+03 -0.25393283107E+03  0.19506796171E+03  0.38497847225E+03  0.46999998093E+01 0. -1.
</event>
<event>
 5   0  0.1119786E-02  0.6998369E+03  0.7818609E-02  0.9717511E-01
        2   -1    0    0  501    0  0.00000000000E+00  0.00000000000E+00  0.38794688557E+03  0.38794688558E+03  0.25500000920E-02 0.  1.
       -2   -1    0    0    0  501  0.00000000000E+00  0.00000000000E+00 -0.31561774330E+03  0.31561774331E+03  0.25500000920E-02 0. -1.
    10030    2    1    2    0    0  0.00000000000E+00  0.00000000000E+00  0.72329142263E+02  0.70356462889E+03  0.69983689686E+03 0.  0.
        3    1    3    3  502    0  0.13136449217E+03 -0.20373652595E+03 -0.21752398419E+03  0.32570215797E+03  0.10100000352E+00 0. -1.
       -3    1    3    3    0  502 -0.13136449217E+03  0.20373652595E+03  0.28985312646E+03  0.37786247092E+03  0.10100000352E+00 0.  1.
</event>
<event>
 5   0  0.1119786E-02  0.7002920E+03  0.7818609E-02  0.9716733E-01
        2   -1    0    0  501    0  0.00000000000E+00  0.00000000000E+00  0.84959119841E+03  0.84959119841E+03  0.25500000920E-02 0.  1.
       -2   -1    0    0    0  501  0.00000000000E+00  0.00000000000E+00 -0.14430731658E+03  0.14430731660E+03  0.25500000920E-02 0. -1.
    10030    2    1    2    0    0  0.00000000000E+00  0.00000000000E+00  0.70528388182E+03  0.99389851501E+03  0.70029201351E+03 0.  0.
        3    1    3    3  502    0 -0.62557874644E+02 -0.32359805704E+03  0.18487433916E+03  0.37789908929E+03  0.10100000352E+00 0.  1.
       -3    1    3    3    0  502  0.62557874644E+02  0.32359805704E+03  0.52040954266E+03  0.61599942573E+03  0.10100000352E+00 0. -1.
</event>
<event>
 5   0  0.6609285E-03  0.7018754E+03  0.7818609E-02  0.9714030E-01
       -1   -1    0    0    0  501  0.00000000000E+00  0.00000000000E+00  0.43125618342E+03  0.43125618345E+03  0.50400001928E-02 0. -1.
        1   -1    0    0  501    0  0.00000000000E+00  0.00000000000E+00 -0.28557800941E+03  0.28557800946E+03  0.50400001928E-02 0.  1.
    10030    2    1    2    0    0  0.00000000000E+00  0.00000000000E+00  0.14567817401E+03  0.71683419290E+03  0.70187543748E+03 0.  0.
        2    1    3    3  502    0  0.10884227016E+03  0.12567984614E+03  0.38848121043E+03  0.42256326670E+03  0.25500000920E-02 0. -1.
       -2    1    3    3    0  502 -0.10884227016E+03 -0.12567984614E+03 -0.24280303643E+03  0.29427092620E+03  0.25500000920E-02 0.  1.
</event>
<event>
 5   0  0.1100119E-02  0.6870931E+03  0.7818609E-02  0.9739563E-01
        2   -1    0    0  501    0  0.00000000000E+00  0.00000000000E+00  0.94658720812E+03  0.94658720813E+03  0.25500000920E-02 0. -1.
       -2   -1    0    0    0  501  0.00000000000E+00  0.00000000000E+00 -0.12468395517E+03  0.12468395519E+03  0.25500000920E-02 0.  1.
    10030    2    1    2    0    0  0.00000000000E+00  0.00000000000E+00  0.82190325296E+03  0.10712711633E+04  0.68709311461E+03 0.  0.
        4    1    3    3  502    0  0.18942265588E+03  0.23765345719E+03  0.66071769253E+03  0.72726170695E+03  0.12699999809E+01 0. -1.
       -4    1    3    3    0  502 -0.18942265588E+03 -0.23765345719E+03  0.16118556043E+03  0.34400945637E+03  0.12699999809E+01 0.  1.
</event>
<event>
 5   0  0.6689415E-03  0.7002966E+03  0.7818609E-02  0.9716725E-01
       -1   -1    0    0    0  501  0.00000000000E+00  0.00000000000E+00  0.10907578935E+03  0.10907578947E+03  0.50400001928E-02 0. -1.
        1   -1    0    0  501    0  0.00000000000E+00  0.00000000000E+00 -0.11240240924E+04  0.11240240924E+04  0.50400001928E-02 0.  1.
    10030    2    1    2    0    0  0.00000000000E+00  0.00000000000E+00 -0.10149483031E+04  0.12330998819E+04  0.70029655206E+03 0.  0.
        1    1    3    3  502    0 -0.17421236341E+03 -0.23078189434E+03 -0.15976761910E+03  0.33035726488E+03  0.50400001928E-02 0. -1.
       -1    1    3    3    0  502  0.17421236341E+03  0.23078189434E+03 -0.85518068396E+03  0.90274261701E+03  0.50400001928E-02 0.  1.
</event>
<event>
 5   0  0.1119786E-02  0.6990884E+03  0.7818609E-02  0.9718792E-01
       -2   -1    0    0    0  501  0.00000000000E+00  0.00000000000E+00  0.43233495994E+03  0.43233495995E+03  0.25500000920E-02 0.  1.
        2   -1    0    0  501    0  0.00000000000E+00  0.00000000000E+00 -0.28260756801E+03  0.28260756802E+03  0.25500000920E-02 0. -1.
    10030    2    1    2    0    0  0.00000000000E+00  0.00000000000E+00  0.14972739193E+03  0.71494252796E+03  0.69908835378E+03 0.  0.
        3    1    3    3  502    0 -0.14095990502E+03  0.30053558151E+03  0.18684483162E+03  0.38092299993E+03  0.10100000352E+00 0.  1.
       -3    1    3    3    0  502  0.14095990502E+03 -0.30053558151E+03 -0.37117439688E+02  0.33401952803E+03  0.10100000352E+00 0. -1.
</event>
<event>
 5   0  0.6689415E-03  0.7133272E+03  0.7818609E-02  0.9694708E-01
        1   -1    0    0  501    0  0.00000000000E+00  0.00000000000E+00  0.30467374912E+03  0.30467374916E+03  0.50400001928E-02 0. -1.
       -1   -1    0    0    0  501  0.00000000000E+00  0.00000000000E+00 -0.41752507890E+03  0.41752507893E+03  0.50400001928E-02 0.  1.
    10030    2    1    2    0    0  0.00000000000E+00  0.00000000000E+00 -0.11285132978E+03  0.72219882809E+03  0.71332722131E+03 0.  0.
        1    1    3    3  502    0  0.15844722545E+03 -0.31421154764E+03  0.23873468645E+01  0.35190924878E+03  0.50400001928E-02 0.  1.
       -1    1    3    3    0  502 -0.15844722545E+03  0.31421154764E+03 -0.11523867665E+03  0.37028957931E+03  0.50400001928E-02 0. -1.
</event>
<event>
 5   0  0.4440500E-03  0.6990860E+03  0.7818609E-02  0.9718797E-01
       -3   -1    0    0    0  501  0.00000000000E+00  0.00000000000E+00  0.50984984705E+03  0.50984985705E+03  0.10100000352E+00 0. -1.
        3   -1    0    0  501    0  0.00000000000E+00  0.00000000000E+00 -0.23963975885E+03  0.23963978013E+03  0.10100000352E+00 0.  1.
    10030    2    1    2    0    0  0.00000000000E+00  0.00000000000E+00  0.27021008820E+03  0.74948963718E+03  0.69908599219E+03 0.  0.
        5    1    3    3  502    0 -0.31419432581E+02 -0.15270152870E+03 -0.20026380681E+03  0.25383581293E+03  0.46999998093E+01 0.  1.
       -5    1    3    3    0  502  0.31419432581E+02  0.15270152870E+03  0.47047389501E+03  0.49565382425E+03  0.46999998093E+01 0. -1.
</event>
<event>
 5   0  0.1099980E-02  0.6984255E+03  0.7818609E-02  0.9719929E-01
        2   -1    0    0  501    0  0.00000000000E+00  0.00000000000E+00  0.26080088636E+03  0.26080088637E+03  0.25500000920E-02 0. -1.
       -2   -1    0    0    0  501  0.00000000000E+00  0.00000000000E+00 -0.46759641801E+03  0.46759641802E+03  0.25500000920E-02 0.  1.
    10030    2    1    2    0    0  0.00000000000E+00  0.00000000000E+00 -0.20679553166E+03  0.72839730439E+03  0.69842554445E+03 0.  0.
        5    1    3    3  502    0  0.70715120858E+02  0.40287465583E+02 -0.45753366477E+03  0.46473955351E+03  0.46999998093E+01 0.  1.
       -5    1    3    3    0  502 -0.70715120858E+02 -0.40287465583E+02  0.25073813312E+03  0.26365775088E+03  0.46999998093E+01 0. -1.
</event>
<event>
 5   0  0.6990118E-03  0.6972964E+03  0.7818609E-02  0.9721867E-01
        1   -1    0    0  501    0  0.00000000000E+00  0.00000000000E+00  0.56008280394E+03  0.56008280396E+03  0.50400001928E-02 0. -1.
       -1   -1    0    0    0  501  0.00000000000E+00  0.00000000000E+00 -0.21703140873E+03  0.21703140879E+03  0.50400001928E-02 0.  1.
    10030    2    1    2    0    0  0.00000000000E+00  0.00000000000E+00  0.34305139521E+03  0.77711421275E+03  0.69729637881E+03 0.  0.
        5    1    3    3  502    0 -0.13035514323E+03  0.82370365950E+02 -0.17692347764E+03  0.23473676213E+03  0.46999998093E+01 0.  1.
       -5    1    3    3    0  502  0.13035514323E+03 -0.82370365950E+02  0.51997487285E+03  0.54237745063E+03  0.46999998093E+01 0. -1.
</event>
<event>
 5   0  0.6609285E-03  0.6720929E+03  0.7818609E-02  0.9766184E-01
        1   -1    0    0  501    0  0.00000000000E+00  0.00000000000E+00  0.99933681703E+02  0.99933681830E+02  0.50400001928E-02 0. -1.
       -1   -1    0    0    0  501  0.00000000000E+00  0.00000000000E+00 -0.11300214743E+04  0.11300214743E+04  0.50400001928E-02 0.  1.
    10030    2    1    2    0    0  0.00000000000E+00  0.00000000000E+00 -0.10300877926E+04  0.12299551561E+04  0.67209286981E+03 0.  0.
        2    1    3    3  502    0  0.17877074750E+03  0.10935325256E+03 -0.99579057647E+03  0.10176030593E+04  0.25500000920E-02 0.  1.
       -2    1    3    3    0  502 -0.17877074750E+03 -0.10935325256E+03 -0.34297216114E+02  0.21235209687E+03  0.25500000920E-02 0. -1.
</event>
<event>
 5   0  0.1079446E-02  0.7023276E+03  0.7818609E-02  0.9713260E-01
       -2   -1    0    0    0  501  0.00000000000E+00  0.00000000000E+00  0.18024263667E+03  0.18024263669E+03  0.25500000920E-02 0.  1.
        2   -1    0    0  501    0  0.00000000000E+00  0.00000000000E+00 -0.68416666681E+03  0.68416666681E+03  0.25500000920E-02 0. -1.
    10030    2    1    2    0    0  0.00000000000E+00  0.00000000000E+00 -0.50392403014E+03  0.86440930350E+03  0.70232757018E+03 0.  0.
        2    1    3    3  502    0  0.84229255635E+02  0.22838341274E+03 -0.56347883312E+03  0.61380937277E+03  0.25500000920E-02 0. -1.
       -2    1    3    3    0  502 -0.84229255635E+02 -0.22838341274E+03  0.59554802983E+02  0.25059993073E+03  0.25500000920E-02 0.  1.
</event>
<event>
 5   0  0.1119786E-02  0.7109606E+03  0.7818609E-02  0.9698670E-01
       -2   -1    0    0    0  501  0.00000000000E+00  0.00000000000E+00  0.12407648549E+03  0.12407648552E+03  0.25500000920E-02 0.  1.
        2   -1    0    0  501    0  0.00000000000E+00  0.00000000000E+00 -0.10184542928E+04  0.10184542928E+04  0.25500000920E-02 0. -1.
    10030    2    1    2    0    0  0.00000000000E+00  0.00000000000E+00 -0.89437780733E+03  0.11425307784E+04  0.71096055954E+03 0.  0.
        3    1    3    3  502    0 -0.73899337317E+02 -0.10460156750E+03 -0.98009036571E+03  0.98842285239E+03  0.10100000352E+00 0. -1.
       -3    1    3    3    0  502  0.73899337317E+02  0.10460156750E+03  0.85712558371E+02  0.15410792596E+03  0.10100000352E+00 0.  1.
</event>
<event>
 5   0  0.6785252E-03  0.7010940E+03  0.7818609E-02  0.9715363E-01
       -1   -1    0    0    0  501  0.00000000000E+00  0.00000000000E+00  0.28104883923E+03  0.28104883927E+03  0.50400001928E-02 0.  1.
        1   -1    0    0  501    0  0.00000000000E+00  0.00000000000E+00 -0.43723082173E+03  0.43723082176E+03  0.50400001928E-02 0. -1.
    10030    2    1    2    0    0  0.00000000000E+00  0.00000000000E+00 -0.15618198250E+03  0.71827966104E+03  0.70109404490E+03 0.  0.
        3    1    3    3  502    0 -0.34912717275E+03  0.18704841624E+02 -0.52100843959E+02  0.35348855992E+03  0.10100000352E+00 0.  1.
       -3    1    3    3    0  502  0.34912717275E+03 -0.18704841624E+02 -0.10408113854E+03  0.36479110112E+03  0.10100000352E+00 0. -1.
</event>
<event>
 5   0  0.1099980E-02  0.6983469E+03  0.7818609E-02  0.9720063E-01
        2   -1    0    0  501    0  0.00000000000E+00  0.00000000000E+00  0.15054337667E+04  0.15054337667E+04  0.25500000920E-02 0.  1.
       -2   -1    0    0    0  501  0.00000000000E+00  0.00000000000E+00 -0.80988019220E+02  0.80988019260E+02  0.25500000920E-02 0. -1.
    10030    2    1    2    0    0  0.00000000000E+00  0.00000000000E+00  0.14244457475E+04  0.15864217860E+04  0.69834690195E+03 0.  0.
        5    1    3    3  502    0  0.92660280759E+02 -0.15370580213E+02  0.14761222943E+04  0.14791150395E+04  0.46999998093E+01 0.  1.
       -5    1    3    3    0  502 -0.92660280759E+02  0.15370580213E+02 -0.51676546753E+02  0.10730674652E+03  0.46999998093E+01 0. -1.
</event>
<event>
 5   0  0.1100119E-02  0.6990702E+03  0.7818609E-02  0.9718824E-01
       -2   -1    0    0    0  501  0.00000000000E+00  0.00000000000E+00  0.63137798897E+03  0.63137798897E+03  0.25500000920E-02 0.  1.
        2   -1    0    0  501    0  0.00000000000E+00  0.00000000000E+00 -0.19350496174E+03  0.19350496176E+03  0.25500000920E-02 0. -1.
    10030    2    1    2    0    0  0.00000000000E+00  0.00000000000E+00  0.43787302723E+03  0.82488295073E+03  0.69907016417E+03 0.  0.
        4    1    3    3  502    0 -0.27842044456E+03 -0.11264329615E+03  0.42990641219E+03  0.52443073161E+03  0.12699999809E+01 0.  1.
       -4    1    3    3    0  502  0.27842044456E+03  0.11264329615E+03  0.79666150333E+01  0.30045221912E+03  0.12699999809E+01 0. -1.
</event>
<event>
 5   0  0.1079446E-02  0.7014701E+03  0.7818609E-02  0.9714721E-01
        2   -1    0    0  501    0  0.00000000000E+00  0.00000000000E+00  0.81058752190E+03  0.81058752190E+03  0.25500000920E-02 0. -1.
       -2   -1    0    0    0  501  0.00000000000E+00  0.00000000000E+00 -0.15176040566E+03  0.15176040568E+03  0.25500000920E-02 0.  1.
    10030    2    1    2    0    0  0.00000000000E+00  0.00000000000E+00  0.65882711624E+03  0.96234792759E+03  0.70147014522E+03 0.  0.
        2    1    3    3  502    0 -0.22128061848E+03 -0.41114563647E+02 -0.39624296717E+02  0.22852921991E+03  0.25500000920E-02 0.  1.
       -2    1    3    3    0  502  0.22128061848E+03  0.41114563647E+02  0.69845141296E+03  0.73381870767E+03  0.25500000920E-02 0. -1.
</event>
<event>
 5   0  0.4440500E-03  0.6990562E+03  0.7818609E-02  0.9718848E-01
        4   -1    0    0  501    0  0.00000000000E+00  0.00000000000E+00  0.13192669664E+03  0.13193280936E+03  0.12699999809E+01 0. -1.
       -4   -1    0    0    0  501  0.00000000000E+00  0.00000000000E+00 -0.92601563641E+03  0.92601650729E+03  0.12699999809E+01 0.  1.
    10030    2    1    2    0    0  0.00000000000E+00  0.00000000000E+00 -0.79408893977E+03  0.10579493167E+04  0.69905615822E+03 0.  0.
        1    1    3    3  502    0  0.17763917253E+03  0.60886378291E+02  0.49104920700E+02  0.19409822240E+03  0.50400001928E-02 0. -1.
       -1    1    3    3    0  502 -0.17763917253E+03 -0.60886378291E+02 -0.84319386047E+03  0.86385109425E+03  0.50400001928E-02 0.  1.
</event>
<event>
 5   0  0.1079446E-02  0.6977592E+03  0.7818609E-02  0.9721072E-01
       -2   -1    0    0    0  501  0.00000000000E+00  0.00000000000E+00  0.48818450972E+03  0.48818450972E+03  0.25500000920E-02 0.  1.
        2   -1    0    0  501    0  0.00000000000E+00  0.00000000000E+00 -0.24932579649E+03  0.24932579651E+03  0.25500000920E-02 0. -1.
    10030    2    1    2    0    0  0.00000000000E+00  0.00000000000E+00  0.23885871322E+03  0.73751030623E+03  0.69775924710E+03 0.  0.
        2    1    3    3  502    0 -0.25087298219E+03 -0.13587659439E+03 -0.92801319304E+02  0.30001964430E+03  0.25500000920E-02 0. -1.
       -2    1    3    3    0  502  0.25087298219E+03  0.13587659439E+03  0.33166003253E+03  0.43749066193E+03  0.25500000920E-02 0.  1.
</event>
<event>
 5   0  0.1099980E-02  0.6976355E+03  0.7818609E-02  0.9721284E-01
        2   -1    0    0  501    0  0.00000000000E+00  0.00000000000E+00  0.61091703390E+03  0.61091703391E+03  0.25500000920E-02 0.  1.
       -2   -1    0    0    0  501  0.00000000000E+00  0.00000000000E+00 -0.19916587302E+03  0.19916587303E+03  0.25500000920E-02 0. -1.
    10030    2    1    2    0    0  0.00000000000E+00  0.00000000000E+00  0.41175116088E+03  0.81008290694E+03  0.69763550485E+03 0.  0.
        5    1    3    3  502    0  0.21975533723E+03 -0.17675787070E+03 -0.32424591411E+02  0.28391758879E+03  0.46999998093E+01 0. -1.
       -5    1    3    3    0  502 -0.21975533723E+03  0.17675787070E+03  0.44417575230E+03  0.52616531815E+03  0.46999998093E+01 0.  1.
</event>
<event>
 5   0  0.1100119E-02  0.7006500E+03  0.7818609E-02  0.9716121E-01
       -2   -1    0    0    0  501  0.00000000000E+00  0.00000000000E+00  0.11742038986E+03  0.11742038989E+03  0.25500000920E-02 0. -1.
        2   -1    0    0  501    0  0.00000000000E+00  0.00000000000E+00 -0.10451983789E+04  0.10451983789E+04  0.25500000920E-02 0.  1.
    10030    2    1    2    0    0  0.00000000000E+00  0.00000000000E+00 -0.92777798903E+03  0.11626187688E+04  0.70064998723E+03 0.  0.
        4    1    3    3  502    0 -0.19649976602E+03 -0.28987965374E+03 -0.44871561431E+03  0.56920091982E+03  0.12699999809E+01 0. -1.
       -4    1    3    3    0  502  0.19649976602E+03  0.28987965374E+03 -0.47906237472E+03  0.59341784897E+03  0.12699999809E+01 0.  1.
</event>
<event>
 5   0  0.1079446E-02  0.7022504E+03  0.7818609E-02  0.9713391E-01
        2   -1    0    0  501    0  0.00000000000E+00  0.00000000000E+00  0.51164431924E+03  0.51164431925E+03  0.25500000920E-02 0.  1.
       -2   -1    0    0    0  501  0.00000000000E+00  0.00000000000E+00 -0.24096604621E+03  0.24096604623E+03  0.25500000920E-02 0. -1.
    10030    2    1    2    0    0  0.00000000000E+00  0.00000000000E+00  0.27067827303E+03  0.75261036547E+03  0.70225040742E+03 0.  0.
        2    1    3    3  502    0 -0.33382627104E+03  0.17112837479E+02  0.25054735735E+03  0.41774011864E+03  0.25500000920E-02 0. -1.
       -2    1    3    3    0  502  0.33382627104E+03 -0.17112837479E+02  0.20130915677E+02  0.33487024683E+03  0.25500000920E-02 0.  1.
</event>
<event>
 5   0  0.1099980E-02  0.6956437E+03  0.7818609E-02  0.9724711E-01
        2   -1    0    0  501    0  0.00000000000E+00  0.00000000000E+00  0.10884227079E+04  0.10884227079E+04  0.25500000920E-02 0. -1.
       -2   -1    0    0    0  501  0.00000000000E+00  0.00000000000E+00 -0.11115171107E+03  0.11115171110E+03  0.25500000920E-02 0.  1.
    10030    2    1    2    0    0  0.00000000000E+00  0.00000000000E+00  0.97727099684E+03  0.11995744190E+04  0.69564372022E+03 0.  0.
        5    1    3    3  502    0 -0.28842348549E+03  0.12590328168E+03  0.74393084510E+03  0.80777158628E+03  0.46999998093E+01 0. -1.
       -5    1    3    3    0  502  0.28842348549E+03 -0.12590328168E+03  0.23334015175E+03  0.39180283273E+03  0.46999998093E+01 0.  1.
</event>
<event>
 5   0  0.6246998E-03  0.7016369E+03  0.7818609E-02  0.9714437E-01
       -1   -1    0    0    0  501  0.00000000000E+00  0.00000000000E+00  0.46414149142E+03  0.46414149145E+03  0.50400001928E-02 0.  1.
        1   -1    0    0  501    0  0.00000000000E+00  0.00000000000E+00 -0.26516393827E+03  0.26516393831E+03  0.50400001928E-02 0. -1.
    10030    2    1    2    0    0  0.00000000000E+00  0.00000000000E+00  0.19897755316E+03  0.72930542976E+03  0.70163690269E+03 0.  0.
        4    1    3    3  502    0 -0.22827790714E+03 -0.25141956692E+03  0.19099070807E+03  0.38961733148E+03  0.12699999809E+01 0. -1.
       -4    1    3    3    0  502  0.22827790714E+03  0.25141956692E+03  0.79868450843E+01  0.33968809828E+03  0.12699999809E+01 0.  1.
</event>
<event>
 5   0  0.1119786E-02  0.6958119E+03  0.7818609E-02  0.9724421E-01
       -2   -1    0    0    0  501  0.00000000000E+00  0.00000000000E+00  0.20589207648E+03  0.20589207650E+03  0.25500000920E-02 0.  1.
        2   -1    0    0  501    0  0.00000000000E+00  0.00000000000E+00 -0.58787370696E+03  0.58787370697E+03  0.25500000920E-02 0. -1.
    10030    2    1    2    0    0  0.00000000000E+00  0.00000000000E+00 -0.38198163048E+03  0.79376578347E+03  0.69581186608E+03 0.  0.
        3    1    3    3  502    0 -0.15237996930E+03  0.24022776084E+03  0.37476535256E+02  0.28693820418E+03  0.10100000352E+00 0.  1.
       -3    1    3    3    0  502  0.15237996930E+03 -0.24022776084E+03 -0.41945816573E+03  0.50682757929E+03  0.10100000352E+00 0. -1.
</event>
<event>
 5   0  0.6246998E-03  0.6980500E+03  0.7818609E-02  0.9720573E-01
        1   -1    0    0  501    0  0.00000000000E+00  0.00000000000E+00  0.11828998946E+04  0.11828998946E+04  0.50400001928E-02 0. -1.
       -1   -1    0    0    0  501  0.00000000000E+00  0.00000000000E+00 -0.10298289450E+03  0.10298289462E+03  0.50400001928E-02 0.  1.
    10030    2    1    2    0    0  0.00000000000E+00  0.00000000000E+00  0.10799170001E+04  0.12858827892E+04  0.69805001292E+03 0.  0.
        4    1    3    3  502    0 -0.65304703958E+02 -0.44426205178E+02  0.11662164866E+04  0.11688887452E+04  0.12699999809E+01 0. -1.
       -4    1    3    3    0  502  0.65304703958E+02  0.44426205178E+02 -0.86299486526E+02  0.11699404404E+03  0.12699999809E+01 0.  1.
</event>
<event>
 5   0  0.1079446E-02  0.6984619E+03  0.7818609E-02  0.9719866E-01
       -2   -1    0    0    0  501  0.00000000000E+00  0.00000000000E+00  0.23799500979E+03  0.23799500980E+03  0.25500000920E-02 0.  1.
        2   -1    0    0  501    0  0.00000000000E+00  0.00000000000E+00 -0.51245713131E+03  0.51245713132E+03  0.25500000920E-02 0. -1.
    10030    2    1    2    0    0  0.00000000000E+00  0.00000000000E+00 -0.27446212152E+03  0.75045214112E+03  0.69846185290E+03 0.  0.
        2    1    3    3  502    0 -0.27640332773E+03 -0.63704171844E+02  0.81661833468E+02  0.29517058821E+03  0.25500000920E-02 0.  1.
       -2    1    3    3    0  502  0.27640332773E+03  0.63704171844E+02 -0.35612395499E+03  0.45528155291E+03  0.25500000920E-02 0. -1.
</event>
<event>
 5   0  0.1099980E-02  0.7201147E+03  0.7818609E-02  0.9683439E-01
        2   -1    0    0  501    0  0.00000000000E+00  0.00000000000E+00  0.35580093438E+03  0.35580093439E+03  0.25500000920E-02 0. -1.
       -2   -1    0    0    0  501  0.00000000000E+00  0.00000000000E+00 -0.36436464549E+03  0.36436464550E+03  0.25500000920E-02 0.  1.
    10030    2    1    2    0    0  0.00000000000E+00  0.00000000000E+00 -0.85637111114E+01  0.72016557989E+03  0.72011466122E+03 0.  0.
        5    1    3    3  502    0  0.33409736471E+03  0.13243684410E+02 -0.13779315694E+03  0.36167041402E+03  0.46999998093E+01 0. -1.
       -5    1    3    3    0  502 -0.33409736471E+03 -0.13243684410E+02  0.12922944583E+03  0.35849516587E+03  0.46999998093E+01 0.  1.
</event>
<event>
 5   0  0.6689415E-03  0.7132370E+03  0.7818609E-02  0.9694859E-01
        1   -1    0    0  501    0  0.00000000000E+00  0.00000000000E+00  0.21984068515E+03  0.21984068521E+03  0.50400001928E-02 0. -1.
       -1   -1    0    0    0  501  0.00000000000E+00  0.00000000000E+00 -0.57849508563E+03  0.57849508565E+03  0.50400001928E-02 0.  1.
    10030    2    1    2    0    0  0.00000000000E+00  0.00000000000E+00 -0.35865440047E+03  0.79833577086E+03  0.71323700413E+03 0.  0.
        1    1    3    3  502    0  0.62771143016E+02 -0.19228700369E+02  0.21301858337E+03  0.22290553200E+03  0.50400001928E-02 0. -1.
       -1    1    3    3    0  502 -0.62771143016E+02  0.19228700369E+02 -0.57167298384E+03  0.57543023886E+03  0.50400001928E-02 0.  1.
</event>
<event>
 5   0  0.6246998E-03  0.7007727E+03  0.7818609E-02  0.9715912E-01
       -1   -1    0    0    0  501  0.00000000000E+00  0.00000000000E+00  0.23038118252E+03  0.23038118258E+03  0.50400001928E-02 0.  1.
        1   -1    0    0  501    0  0.00000000000E+00  0.00000000000E+00 -0.53290194077E+03  0.53290194079E+03  0.50400001928E-02 0. -1.
    10030    2    1    2    0    0  0.00000000000E+00  0.00000000000E+00 -0.30252075824E+03  0.76328312337E+03  0.70077265732E+03 0.  0.
        4    1    3    3  502    0 -0.54489493331E+02 -0.25630625987E+03 -0.40461865175E+03  0.48205795293E+03  0.12699999809E+01 0. -1.
       -4    1    3    3    0  502  0.54489493331E+02  0.25630625987E+03  0.10209789351E+03  0.28122517044E+03  0.12699999809E+01 0.  1.
</event>
<event>
 5   0  0.6785252E-03  0.6987133E+03  0.7818609E-02  0.9719435E-01
        1   -1    0    0  501    0  0.00000000000E+00  0.00000000000E+00  0.12795293311E+03  0.12795293320E+03  0.50400001928E-02 0.  1.
       -1   -1    0    0    0  501  0.00000000000E+00  0.00000000000E+00 -0.95386683905E+03  0.95386683906E+03  0.50400001928E-02 0. -1.
    10030    2    1    2    0    0  0.00000000000E+00  0.00000000000E+00 -0.82591390594E+03  0.10818197723E+04  0.69871327427E+03 0.  0.
        3    1    3    3  502    0  0.19406085120E+03  0.66097229989E+02  0.25028326246E+02  0.20653059119E+03  0.10100000352E+00 0.  1.
       -3    1    3    3    0  502 -0.19406085120E+03 -0.66097229989E+02 -0.85094223219E+03  0.87528918107E+03  0.10100000352E+00 0. -1.
</event>
<event>
 5   0  0.6990118E-03  0.6999132E+03  0.7818609E-02  0.9717381E-01
        1   -1    0    0  501    0  0.00000000000E+00  0.00000000000E+00  0.10175096767E+04  0.10175096767E+04  0.50400001928E-02 0. -1.
       -1   -1    0    0    0  501  0.00000000000E+00  0.00000000000E+00 -0.12036213181E+03  0.12036213191E+03  0.50400001928E-02 0.  1.
    10030    2    1    2    0    0  0.00000000000E+00  0.00000000000E+00  0.89714754487E+03  0.11378718086E+04  0.69991323430E+03 0.  0.
        5    1    3    3  502    0  0.22124518293E+03  0.25451401139E+03  0.60039257985E+03  0.68863644465E+03  0.46999998093E+01 0. -1.
       -5    1    3    3    0  502 -0.22124518293E+03 -0.25451401139E+03  0.29675496502E+03  0.44923536395E+03  0.46999998093E+01 0.  1.
</event>
<event>
 5   0  0.6990118E-03  0.6985525E+03  0.7818609E-02  0.9719711E-01
       -1   -1    0    0    0  501  0.00000000000E+00  0.00000000000E+00  0.23645246740E+03  0.23645246745E+03  0.50400001928E-02 0.  1.
        1   -1    0    0  501    0  0.00000000000E+00  0.00000000000E+00 -0.51593414277E+03  0.51593414279E+03  0.50400001928E-02 0. -1.
    10030    2    1    2    0    0  0.00000000000E+00  0.00000000000E+00 -0.27948167537E+03  0.75238661024E+03  0.69855250655E+03 0.  0.
        5    1    3    3  502    0  0.12452594932E+03 -0.31059773889E+03 -0.24741581685E+03  0.41619027365E+03  0.46999998093E+01 0. -1.
       -5    1    3    3    0  502 -0.12452594932E+03  0.31059773889E+03 -0.32065858515E+02  0.33619633659E+03  0.46999998093E+01 0.  1.
</event>
<event>
 5   0  0.6689415E-03  0.7042442E+03  0.7818609E-02  0.9710001E-01
       -1   -1    0    0    0  501  0.00000000000E+00  0.00000000000E+00  0.37168257604E+03  0.37168257607E+03  0.50400001928E-02 0.  1.
        1   -1    0    0  501    0  0.00000000000E+00  0.00000000000E+00 -0.33359105047E+03  0.33359105050E+03  0.50400001928E-02 0. -1.
    10030    2    1    2    0    0  0.00000000000E+00  0.00000000000E+00  0.38091525575E+02  0.70527362658E+03  0.70424422186E+03 0.  0.
        1    1    3    3  502    0 -0.87440206085E+02 -0.28456816710E+03 -0.16928536250E+03  0.34246513012E+03  0.50400001928E-02 0. -1.
       -1    1    3    3    0  502  0.87440206085E+02  0.28456816710E+03  0.20737688808E+03  0.36280849646E+03  0.50400001928E-02 0.  1.
</event>
<event>
 5   0  0.1099980E-02  0.7004960E+03  0.7818609E-02  0.9716384E-01
       -2   -1    0    0    0  501  0.00000000000E+00  0.00000000000E+00  0.10747568450E+03  0.10747568453E+03  0.25500000920E-02 0. -1.
        2   -1    0    0  501    0  0.00000000000E+00  0.00000000000E+00 -0.11414085152E+04  0.11414085152E+04  0.25500000920E-02 0.  1.
    10030    2    1    2    0    0  0.00000000000E+00  0.00000000000E+00 -0.10339328307E+04  0.12488841997E+04  0.70049599995E+03 0.  0.
        5    1    3    3  502    0 -0.26244832254E+03 -0.10847899866E+03 -0.15156876834E+03  0.32193477086E+03  0.46999998093E+01 0. -1.
       -5    1    3    3    0  502  0.26244832254E+03  0.10847899866E+03 -0.88236406232E+03  0.92694942884E+03  0.46999998093E+01 0.  1.
</event>
<event>
 5   0  0.4440500E-03  0.7030780E+03  0.7818609E-02  0.9711983E-01
       -3   -1    0    0    0  501  0.00000000000E+00  0.00000000000E+00  0.61618321660E+03  0.61618322488E+03  0.10100000352E+00 0. -1.
        3   -1    0    0  501    0  0.00000000000E+00  0.00000000000E+00 -0.20055664903E+03  0.20055667446E+03  0.10100000352E+00 0.  1.
    10030    2    1    2    0    0  0.00000000000E+00  0.00000000000E+00  0.41562656758E+03  0.81673989934E+03  0.70307796118E+03 0.  0.
        1    1    3    3  502    0 -0.10425355122E+03  0.95163137173E+02  0.58181625966E+03  0.59869440088E+03  0.50400001928E-02 0. -1.
       -1    1    3    3    0  502  0.10425355122E+03 -0.95163137173E+02 -0.16618969208E+03  0.21804549846E+03  0.50400001928E-02 0.  1.
</event>
<event>
 5   0  0.6990118E-03  0.7002516E+03  0.7818609E-02  0.9716802E-01
       -1   -1    0    0    0  501  0.00000000000E+00  0.00000000000E+00  0.10383543287E+04  0.10383543287E+04  0.50400001928E-02 0.  1.
        1   -1    0    0  501    0  0.00000000000E+00  0.00000000000E+00 -0.11805997884E+03  0.11805997895E+03  0.50400001928E-02 0. -1.
    10030    2    1    2    0    0  0.00000000000E+00  0.00000000000E+00  0.92029434981E+03  0.11564143076E+04  0.70025164087E+03 0.  0.
        5    1    3    3  502    0 -0.27643978397E+01 -0.12112236945E+03  0.10025792328E+04  0.10098838935E+04  0.46999998093E+01 0.  1.
       -5    1    3    3    0  502  0.27643978397E+01  0.12112236945E+03 -0.82284883031E+02  0.14653041408E+03  0.46999998093E+01 0. -1.
</event>
<event>
 5   0  0.1099980E-02  0.6993060E+03  0.7818609E-02  0.9718420E-01
        2   -1    0    0  501    0  0.00000000000E+00  0.00000000000E+00  0.10264108524E+04  0.10264108524E+04  0.25500000920E-02 0.  1.
       -2   -1    0    0    0  501  0.00000000000E+00  0.00000000000E+00 -0.11911139085E+03  0.11911139088E+03  0.25500000920E-02 0. -1.
    10030    2    1    2    0    0  0.00000000000E+00  0.00000000000E+00  0.90729946153E+03  0.11455222433E+04  0.69930601094E+03 0.  0.
        5    1    3    3  502    0 -0.27363968116E+01 -0.34365348388E+02  0.10235681420E+04  0.10241593120E+04  0.46999998093E+01 0.  1.
       -5    1    3    3    0  502  0.27363968116E+01  0.34365348388E+02 -0.11626868046E+03  0.12136293129E+03  0.46999998093E+01 0. -1.
</event>
<event>
 5   0  0.6246998E-03  0.6990882E+03  0.7818609E-02  0.9718793E-01
        1   -1    0    0  501    0  0.00000000000E+00  0.00000000000E+00  0.21587630358E+04  0.21587630358E+04  0.50400001928E-02 0. -1.
       -1   -1    0    0    0  501  0.00000000000E+00  0.00000000000E+00 -0.56597724098E+02  0.56597724322E+02  0.50400001928E-02 0.  1.
    10030    2    1    2    0    0  0.00000000000E+00  0.00000000000E+00  0.21021653117E+04  0.22153607601E+04  0.69908819172E+03 0.  0.
        4    1    3    3  502    0 -0.11544807629E+03  0.31080317930E+03  0.70030946116E+03  0.77483019358E+03  0.12699999809E+01 0.  1.
       -4    1    3    3    0  502  0.11544807629E+03 -0.31080317930E+03  0.14018558506E+04  0.14405305666E+04  0.12699999809E+01 0. -1.
</event>
<event>
 5   0  0.6990118E-03  0.6966827E+03  0.7818609E-02  0.9722922E-01
       -1   -1    0    0    0  501  0.00000000000E+00  0.00000000000E+00  0.41337591121E+03  0.41337591124E+03  0.50400001928E-02 0.  1.
        1   -1    0    0  501    0  0.00000000000E+00  0.00000000000E+00 -0.29353837601E+03  0.29353837605E+03  0.50400001928E-02 0. -1.
    10030    2    1    2    0    0  0.00000000000E+00  0.00000000000E+00  0.11983753520E+03  0.70691428729E+03  0.69668269301E+03 0.  0.
        5    1    3    3  502    0  0.51195819807E+02  0.43508974539E+02  0.40670631703E+03  0.41224526819E+03  0.46999998093E+01 0.  1.
       -5    1    3    3    0  502 -0.51195819807E+02 -0.43508974539E+02 -0.28686878184E+03  0.29466901911E+03  0.46999998093E+01 0. -1.
</event>
<event>
 5   0  0.1119786E-02  0.6994774E+03  0.7818609E-02  0.9718126E-01
       -2   -1    0    0    0  501  0.00000000000E+00  0.00000000000E+00  0.33236415863E+03  0.33236415864E+03  0.25500000920E-02 0.  1.
        2   -1    0    0  501    0  0.00000000000E+00  0.00000000000E+00 -0.36802147251E+03  0.36802147252E+03  0.25500000920E-02 0. -1.
    10030    2    1    2    0    0  0.00000000000E+00  0.00000000000E+00 -0.35657313874E+02  0.70038563116E+03  0.69947736797E+03 0.  0.
        3    1    3    3  502    0  0.15376656466E+03  0.26423201425E+03 -0.18791512325E+03  0.35885208305E+03  0.10100000352E+00 0.  1.
       -3    1    3    3    0  502 -0.15376656466E+03 -0.26423201425E+03  0.15225780938E+03  0.34153354811E+03  0.10100000352E+00 0. -1.
</event>
<event>
 5   0  0.1099980E-02  0.6989291E+03  0.7818609E-02  0.9719065E-01
        2   -1    0    0  501    0  0.00000000000E+00  0.00000000000E+00  0.47362929338E+03  0.47362929339E+03  0.25500000920E-02 0.  1.
       -2   -1    0    0    0  501  0.00000000000E+00  0.00000000000E+00 -0.25785035910E+03  0.25785035911E+03  0.25500000920E-02 0. -1.
    10030    2    1    2    0    0  0.00000000000E+00  0.00000000000E+00  0.21577893428E+03  0.73147965250E+03  0.69892913342E+03 0.  0.
        5    1    3    3  502    0  0.60797574612E+02 -0.11300396052E+03  0.44804493064E+03  0.46608217091E+03  0.46999998093E+01 0.  1.
       -5    1    3    3    0  502 -0.60797574612E+02  0.11300396052E+03 -0.23226599636E+03  0.26539748159E+03  0.46999998093E+01 0. -1.
</event>
<event>
 5   0  0.6990118E-03  0.7031106E+03  0.7818609E-02  0.9711927E-01
       -1   -1    0    0    0  501  0.00000000000E+00  0.00000000000E+00  0.34412732966E+03  0.34412732969E+03  0.50400001928E-02 0. -1.
        1   -1    0    0  501    0  0.00000000000E+00  0.00000000000E+00 -0.35914359683E+03  0.35914359686E+03  0.50400001928E-02 0.  1.
    10030    2    1    2    0    0  0.00000000000E+00  0.00000000000E+00 -0.15016267169E+02  0.70327092656E+03  0.70311059433E+03 0.  0.
        5    1    3    3  502    0 -0.30580462416E+02 -0.16320272590E+03  0.30239915779E+03  0.34501831118E+03  0.46999998093E+01 0. -1.
       -5    1    3    3    0  502  0.30580462416E+02  0.16320272590E+03 -0.31741542496E+03  0.35825261537E+03  0.46999998093E+01 0.  1.
</event>
<event>
 5   0  0.1100119E-02  0.7000758E+03  0.7818609E-02  0.9717103E-01
        2   -1    0    0  501    0  0.00000000000E+00  0.00000000000E+00  0.13634031573E+04  0.13634031573E+04  0.25500000920E-02 0.  1.
       -2   -1    0    0    0  501  0.00000000000E+00  0.00000000000E+00 -0.89868147955E+02  0.89868147991E+02  0.25500000920E-02 0. -1.
    10030    2    1    2    0    0  0.00000000000E+00  0.00000000000E+00  0.12735350093E+04  0.14532713053E+04  0.70007575786E+03 0.  0.
        4    1    3    3  502    0  0.28287509015E+03 -0.20610325360E+03  0.62577593237E+03  0.71700348549E+03  0.12699999809E+01 0.  1.
       -4    1    3    3    0  502 -0.28287509015E+03  0.20610325360E+03  0.64775907694E+03  0.73626781977E+03  0.12699999809E+01 0. -1.
</event>
<event>
 5   0  0.6689415E-03  0.6992651E+03  0.7818609E-02  0.9718490E-01
        1   -1    0    0  501    0  0.00000000000E+00  0.00000000000E+00  0.36453542622E+03  0.36453542626E+03  0.50400001928E-02 0.  1.
       -1   -1    0    0    0  501  0.00000000000E+00  0.00000000000E+00 -0.33533888597E+03  0.33533888601E+03  0.50400001928E-02 0. -1.
    10030    2    1    2    0    0  0.00000000000E+00  0.00000000000E+00  0.29196540251E+02  0.69987431227E+03  0.69926505348E+03 0.  0.
        1    1    3    3  502    0  0.48272339806E+02 -0.96399458405E+01 -0.33185322941E+03  0.33548429657E+03  0.50400001928E-02 0. -1.
       -1    1    3    3    0  502 -0.48272339806E+02  0.96399458405E+01  0.36104976966E+03  0.36439001570E+03  0.50400001928E-02 0.  1.
</event>
<event>
 5   0  0.6609285E-03  0.7048187E+03  0.7818609E-02  0.9709027E-01
       -1   -1    0    0    0  501  0.00000000000E+00  0.00000000000E+00  0.58893866200E+03  0.58893866202E+03  0.50400001928E-02 0.  1.
        1   -1    0    0  501    0  0.00000000000E+00  0.00000000000E+00 -0.21087487355E+03  0.21087487361E+03  0.50400001928E-02 0. -1.
    10030    2    1    2    0    0  0.00000000000E+00  0.00000000000E+00  0.37806378845E+03  0.79981353563E+03  0.70481874523E+03 0.  0.
        2    1    3    3  502    0 -0.14061753286E+03  0.19530528504E+03 -0.10310466710E+03  0.26181676283E+03  0.25500000920E-02 0. -1.
       -2    1    3    3    0  502  0.14061753286E+03 -0.19530528504E+03  0.48116845556E+03  0.53799677280E+03  0.25500000920E-02 0.  1.
</event>
<event>
 5   0  0.6246998E-03  0.6873791E+03  0.7818609E-02  0.9739062E-01
       -1   -1    0    0    0  501  0.00000000000E+00  0.00000000000E+00  0.14105367886E+03  0.14105367895E+03  0.50400001928E-02 0. -1.
        1   -1    0    0  501    0  0.00000000000E+00  0.00000000000E+00 -0.83742955305E+03  0.83742955306E+03  0.50400001928E-02 0.  1.
    10030    2    1    2    0    0  0.00000000000E+00  0.00000000000E+00 -0.69637587419E+03  0.97848323201E+03  0.68737913641E+03 0.  0.
        4    1    3    3  502    0  0.90338819432E+02  0.12945636749E+03  0.86389310677E+02  0.17995771525E+03  0.12699999809E+01 0. -1.
       -4    1    3    3    0  502 -0.90338819432E+02 -0.12945636749E+03 -0.78276518486E+03  0.79852551676E+03  0.12699999809E+01 0.  1.
</event>
<event>
 5   0  0.6246998E-03  0.6998209E+03  0.7818609E-02  0.9717539E-01
        1   -1    0    0  501    0  0.00000000000E+00  0.00000000000E+00  0.26210877218E+03  0.26210877223E+03  0.50400001928E-02 0. -1.
       -1   -1    0    0    0  501  0.00000000000E+00  0.00000000000E+00 -0.46712410120E+03  0.46712410123E+03  0.50400001928E-02 0.  1.
    10030    2    1    2    0    0  0.00000000000E+00  0.00000000000E+00 -0.20501532903E+03  0.72923287346E+03  0.69982090466E+03 0.  0.
        4    1    3    3  502    0  0.14701775606E+03  0.10771766809E+03  0.20874030743E+03  0.27711269451E+03  0.12699999809E+01 0. -1.
       -4    1    3    3    0  502 -0.14701775606E+03 -0.10771766809E+03 -0.41375563645E+03  0.45212017895E+03  0.12699999809E+01 0.  1.
</event>
<event>
 5   0  0.6689415E-03  0.6966963E+03  0.7818609E-02  0.9722899E-01
        1   -1    0    0  501    0  0.00000000000E+00  0.00000000000E+00  0.11368470606E+04  0.11368470606E+04  0.50400001928E-02 0. -1.
       -1   -1    0    0    0  501  0.00000000000E+00  0.00000000000E+00 -0.10673945944E+03  0.10673945956E+03  0.50400001928E-02 0.  1.
    10030    2    1    2    0    0  0.00000000000E+00  0.00000000000E+00  0.10301076011E+04  0.12435865201E+04  0.69669632061E+03 0.  0.
        1    1    3    3  502    0  0.21157343106E+03  0.24584437106E+03  0.28825872808E+03  0.43393071550E+03  0.50400001928E-02 0.  1.
       -1    1    3    3    0  502 -0.21157343106E+03 -0.24584437106E+03  0.74184887304E+03  0.80965580463E+03  0.50400001928E-02 0. -1.
</event>
<event>
 5   0  0.6990118E-03  0.6913263E+03  0.7818609E-02  0.9732181E-01
        1   -1    0    0  501    0  0.00000000000E+00  0.00000000000E+00  0.25353457728E+03  0.25353457733E+03  0.50400001928E-02 0.  1.
       -1   -1    0    0    0  501  0.00000000000E+00  0.00000000000E+00 -0.47126911054E+03  0.47126911056E+03  0.50400001928E-02 0. -1.
    10030    2    1    2    0    0  0.00000000000E+00  0.00000000000E+00 -0.21773453325E+03  0.72480368789E+03  0.69132630430E+03 0.  0.
        5    1    3    3  502    0 -0.87577122527E+02 -0.19786571369E+03  0.17370284430E+03  0.27751641602E+03  0.46999998093E+01 0.  1.
       -5    1    3    3    0  502  0.87577122527E+02  0.19786571369E+03 -0.39143737755E+03  0.44728727188E+03  0.46999998093E+01 0. -1.
</event>
<event>
 5   0  0.1100119E-02  0.6992544E+03  0.7818609E-02  0.9718508E-01
        2   -1    0    0  501    0  0.00000000000E+00  0.00000000000E+00  0.87917679305E+03  0.87917679306E+03  0.25500000920E-02 0.  1.
       -2   -1    0    0    0  501  0.00000000000E+00  0.00000000000E+00 -0.13903822222E+03  0.13903822224E+03  0.25500000920E-02 0. -1.
    10030    2    1    2    0    0  0.00000000000E+00  0.00000000000E+00  0.74013857083E+03  0.10182150153E+04  0.69925439816E+03 0.  0.
        4    1    3    3  502    0  0.33481953683E+03  0.27009903482E+02  0.51127701926E+03  0.61175114258E+03  0.12699999809E+01 0.  1.
       -4    1    3    3    0  502 -0.33481953683E+03 -0.27009903482E+02  0.22886155158E+03  0.40646387272E+03  0.12699999809E+01 0. -1.
</event>
<event>
 5   0  0.6990118E-03  0.7019946E+03  0.7818609E-02  0.9713827E-01
        1   -1    0    0  501    0  0.00000000000E+00  0.00000000000E+00  0.27766518373E+03  0.27766518378E+03  0.50400001928E-02 0.  1.
       -1   -1    0    0    0  501  0.00000000000E+00  0.00000000000E+00 -0.44369665971E+03  0.44369665974E+03  0.50400001928E-02 0. -1.
    10030    2    1    2    0    0  0.00000000000E+00  0.00000000000E+00 -0.16603147598E+03  0.72136184352E+03  0.70199462837E+03 0.  0.
        5    1    3    3  502    0 -0.27093487574E+03 -0.22111221715E+03 -0.52520316894E+02  0.35366197583E+03  0.46999998093E+01 0.  1.
       -5    1    3    3    0  502  0.27093487574E+03  0.22111221715E+03 -0.11351115909E+03  0.36769986769E+03  0.46999998093E+01 0. -1.
</event>
<event>
 5   0  0.1100119E-02  0.6965420E+03  0.7818609E-02  0.9723164E-01
       -2   -1    0    0    0  501  0.00000000000E+00  0.00000000000E+00  0.67077047286E+02  0.67077047334E+02  0.25500000920E-02 0. -1.
        2   -1    0    0  501    0  0.00000000000E+00  0.00000000000E+00 -0.18082592839E+04  0.18082592839E+04  0.25500000920E-02 0.  1.
    10030    2    1    2    0    0  0.00000000000E+00  0.00000000000E+00 -0.17411822366E+04  0.18753363312E+04  0.69654201176E+03 0.  0.
        4    1    3    3  502    0 -0.34244046363E+02 -0.30940116688E+03 -0.45012412452E+03  0.54727970650E+03  0.12699999809E+01 0. -1.
       -4    1    3    3    0  502  0.34244046363E+02  0.30940116688E+03 -0.12910581121E+04  0.13280566247E+04  0.12699999809E+01 0.  1.
</event>
<event>
 5   0  0.6689415E-03  0.6976514E+03  0.7818609E-02  0.9721257E-01
       -1   -1    0    0    0  501  0.00000000000E+00  0.00000000000E+00  0.11506294793E+04  0.11506294793E+04  0.50400001928E-02 0. -1.
        1   -1    0    0  501    0  0.00000000000E+00  0.00000000000E+00 -0.10575025265E+03  0.10575025277E+03  0.50400001928E-02 0.  1.
    10030    2    1    2    0    0  0.00000000000E+00  0.00000000000E+00  0.10448792267E+04  0.12563797321E+04  0.69765136919E+03 0.  0.
        1    1    3    3  502    0 -0.27032689032E+03 -0.84401612271E+02  0.88921241686E+03  0.93321968587E+03  0.50400001928E-02 0. -1.
       -1    1    3    3    0  502  0.27032689032E+03  0.84401612271E+02  0.15566680982E+03  0.32316004625E+03  0.50400001928E-02 0.  1.
</event>
<event>
 5   0  0.4440500E-03  0.6986209E+03  0.7818609E-02  0.9719594E-01
        3   -1    0    0  501    0  0.00000000000E+00  0.00000000000E+00  0.42189402596E+03  0.42189403805E+03  0.10100000352E+00 0. -1.
       -3   -1    0    0    0  501  0.00000000000E+00  0.00000000000E+00 -0.28921426381E+03  0.28921428144E+03  0.10100000352E+00 0.  1.
    10030    2    1    2    0    0  0.00000000000E+00  0.00000000000E+00  0.13267976215E+03  0.71110831949E+03  0.69862087198E+03 0.  0.
        4    1    3    3  502    0 -0.24208908944E+03 -0.24681493900E+03  0.11714625949E+03  0.36503369756E+03  0.12699999809E+01 0. -1.
       -4    1    3    3    0  502  0.24208908944E+03  0.24681493900E+03  0.15533502667E+02  0.34607462194E+03  0.12699999809E+01 0.  1.
</event>
<event>
 5   0  0.1109788E-02  0.7026453E+03  0.7818609E-02  0.9712719E-01
        2   -1    0    0  501    0  0.00000000000E+00  0.00000000000E+00  0.35025798890E+03  0.35025798891E+03  0.25500000920E-02 0.  1.
       -2   -1    0    0    0  501  0.00000000000E+00  0.00000000000E+00 -0.35239054184E+03  0.35239054185E+03  0.25500000920E-02 0. -1.
    10030    2    1    2    0    0  0.00000000000E+00  0.00000000000E+00 -0.21325529326E+01  0.70264853076E+03  0.70264529458E+03 0.  0.
        1    1    3    3  502    0 -0.79107421060E+02 -0.76155577954E+02  0.33265662091E+03  0.35031140943E+03  0.50400001928E-02 0.  1.
       -1    1    3    3    0  502  0.79107421060E+02  0.76155577954E+02 -0.33478917384E+03  0.35233712133E+03  0.50400001928E-02 0. -1.
</event>
<event>
 5   0  0.6689415E-03  0.6998162E+03  0.7818609E-02  0.9717546E-01
        1   -1    0    0  501    0  0.00000000000E+00  0.00000000000E+00  0.36092368322E+03  0.36092368325E+03  0.50400001928E-02 0. -1.
       -1   -1    0    0    0  501  0.00000000000E+00  0.00000000000E+00 -0.33922876286E+03  0.33922876289E+03  0.50400001928E-02 0.  1.
    10030    2    1    2    0    0  0.00000000000E+00  0.00000000000E+00  0.21694920362E+02  0.70015244615E+03  0.69981624608E+03 0.  0.
        1    1    3    3  502    0 -0.11970707889E+03  0.19449304303E+03 -0.25438056882E+03  0.34185786863E+03  0.50400001928E-02 0.  1.
       -1    1    3    3    0  502  0.11970707889E+03 -0.19449304303E+03  0.27607548918E+03  0.35829457752E+03  0.50400001928E-02 0. -1.
</event>
<event>
 5   0  0.1079446E-02  0.6966802E+03  0.7818609E-02  0.9722926E-01
        2   -1    0    0  501    0  0.00000000000E+00  0.00000000000E+00  0.12439965067E+04  0.12439965067E+04  0.25500000920E-02 0.  1.
       -2   -1    0    0    0  501  0.00000000000E+00  0.00000000000E+00 -0.97541121237E+02  0.97541121270E+02  0.25500000920E-02 0. -1.
    10030    2    1    2    0    0  0.00000000000E+00  0.00000000000E+00  0.11464553855E+04  0.13415376280E+04  0.69668016796E+03 0.  0.
        2    1    3    3  502    0  0.16169720609E+03  0.30622545973E+02  0.11644167928E+04  0.11759890281E+04  0.25500000920E-02 0.  1.
       -2    1    3    3    0  502 -0.16169720609E+03 -0.30622545973E+02 -0.17961407307E+02  0.16554859993E+03  0.25500000920E-02 0. -1.
</event>
<event>
 5   0  0.6689415E-03  0.6997276E+03  0.7818609E-02  0.9717698E-01
       -1   -1    0    0    0  501  0.00000000000E+00  0.00000000000E+00  0.76240497888E+02  0.76240498055E+02  0.50400001928E-02 0. -1.
        1   -1    0    0  501    0  0.00000000000E+00  0.00000000000E+00 -0.16055073040E+04  0.16055073040E+04  0.50400001928E-02 0.  1.
    10030    2    1    2    0    0  0.00000000000E+00  0.00000000000E+00 -0.15292668061E+04  0.16817478021E+04  0.69972759376E+03 0.  0.
        1    1    3    3  502    0 -0.25721602530E+03 -0.92864955136E+02 -0.24015244805E+03  0.36394667452E+03  0.50400001928E-02 0. -1.
       -1    1    3    3    0  502  0.25721602530E+03  0.92864955136E+02 -0.12891143581E+04  0.13178011276E+04  0.50400001928E-02 0.  1.
</event>
<event>
 5   0  0.6785252E-03  0.6985577E+03  0.7818609E-02  0.9719702E-01
       -1   -1    0    0    0  501  0.00000000000E+00  0.00000000000E+00  0.17059464682E+03  0.17059464689E+03  0.50400001928E-02 0. -1.
        1   -1    0    0  501    0  0.00000000000E+00  0.00000000000E+00 -0.71512035290E+03  0.71512035292E+03  0.50400001928E-02 0.  1.
    10030    2    1    2    0    0  0.00000000000E+00  0.00000000000E+00 -0.54452570609E+03  0.88571499981E+03  0.69855766856E+03 0.  0.
        3    1    3    3  502    0 -0.66062855928E+02 -0.34051971106E+03 -0.32419680691E+03  0.47478579841E+03  0.10100000352E+00 0.  1.
       -3    1    3    3    0  502  0.66062855928E+02  0.34051971106E+03 -0.22032889917E+03  0.41092920140E+03  0.10100000352E+00 0. -1.
</event>
<event>
 5   0  0.6689415E-03  0.7010036E+03  0.7818609E-02  0.9715517E-01
       -1   -1    0    0    0  501  0.00000000000E+00  0.00000000000E+00  0.16912115118E+03  0.16912115125E+03  0.50400001928E-02 0. -1.
        1   -1    0    0  501    0  0.00000000000E+00  0.00000000000E+00 -0.72641132860E+03  0.72641132862E+03  0.50400001928E-02 0.  1.
    10030    2    1    2    0    0  0.00000000000E+00  0.00000000000E+00 -0.55729017742E+03  0.89553247987E+03  0.70100362384E+03 0.  0.
        1    1    3    3  502    0  0.11404560783E+03  0.90011821450E+02 -0.68613168716E+03  0.70134529357E+03  0.50400001928E-02 0.  1.
       -1    1    3    3    0  502 -0.11404560783E+03 -0.90011821450E+02  0.12884150973E+03  0.19418718630E+03  0.50400001928E-02 0. -1.
</event>
<event>
 5   0  0.1099980E-02  0.6982810E+03  0.7818609E-02  0.9720176E-01
       -2   -1    0    0    0  501  0.00000000000E+00  0.00000000000E+00  0.46571844931E+03  0.46571844932E+03  0.25500000920E-02 0.  1.
        2   -1    0    0  501    0  0.00000000000E+00  0.00000000000E+00 -0.26174420059E+03  0.26174420060E+03  0.25500000920E-02 0. -1.
    10030    2    1    2    0    0  0.00000000000E+00  0.00000000000E+00  0.20397424872E+03  0.72746264992E+03  0.69828104148E+03 0.  0.
        5    1    3    3  502    0 -0.15854118148E+03  0.13334873481E+03  0.39472810909E+03  0.44581337060E+03  0.46999998093E+01 0.  1.
       -5    1    3    3    0  502  0.15854118148E+03 -0.13334873481E+03 -0.19075386037E+03  0.28164927932E+03  0.46999998093E+01 0. -1.
</event>
<event>
 5   0  0.1119786E-02  0.6990531E+03  0.7818609E-02  0.9718853E-01
        2   -1    0    0  501    0  0.00000000000E+00  0.00000000000E+00  0.10604579267E+04  0.10604579267E+04  0.25500000920E-02 0. -1.
       -2   -1    0    0    0  501  0.00000000000E+00  0.00000000000E+00 -0.11520382855E+03  0.11520382858E+03  0.25500000920E-02 0.  1.
    10030    2    1    2    0    0  0.00000000000E+00  0.00000000000E+00  0.94525409816E+03  0.11756617553E+04  0.69905311156E+03 0.  0.
        3    1    3    3  502    0 -0.92430557694E+01 -0.10575904308E+03  0.10326874222E+04  0.10381299203E+04  0.10100000352E+00 0. -1.
       -3    1    3    3    0  502  0.92430557694E+01  0.10575904308E+03 -0.87433324059E+02  0.13753183497E+03  0.10100000352E+00 0.  1.
</event>
<event>
 5   0  0.1109788E-02  0.7015440E+03  0.7818609E-02  0.9714595E-01
        2   -1    0    0  501    0  0.00000000000E+00  0.00000000000E+00  0.14427930950E+04  0.14427930950E+04  0.25500000920E-02 0. -1.
       -2   -1    0    0    0  501  0.00000000000E+00  0.00000000000E+00 -0.85279725611E+02  0.85279725649E+02  0.25500000920E-02 0.  1.
    10030    2    1    2    0    0  0.00000000000E+00  0.00000000000E+00  0.13575133694E+04  0.15280728207E+04  0.70154400942E+03 0.  0.
        1    1    3    3  502    0  0.97083552230E+01  0.15998376349E+03  0.13583693151E+04  0.13677924744E+04  0.50400001928E-02 0. -1.
       -1    1    3    3    0  502 -0.97083552230E+01 -0.15998376349E+03 -0.85594568638E+00  0.16028034630E+03  0.50400001928E-02 0.  1.
</event>
<event>
 5   0  0.6609285E-03  0.7018670E+03  0.7818609E-02  0.9714045E-01
       -1   -1    0    0    0  501  0.00000000000E+00  0.00000000000E+00  0.65420560150E+02  0.65420560344E+02  0.50400001928E-02 0. -1.
        1   -1    0    0  501    0  0.00000000000E+00  0.00000000000E+00 -0.18825018042E+04  0.18825018042E+04  0.50400001928E-02 0.  1.
    10030    2    1    2    0    0  0.00000000000E+00  0.00000000000E+00 -0.18170812440E+04  0.19479223645E+04  0.70186700366E+03 0.  0.
        2    1    3    3  502    0  0.84665061516E+02  0.23522782755E+02 -0.18514750382E+04  0.18535590929E+04  0.25500000920E-02 0.  1.
       -2    1    3    3    0  502 -0.84665061516E+02 -0.23522782755E+02  0.34393794133E+02  0.94363271623E+02  0.25500000920E-02 0. -1.
</event>
<event>
 5   0  0.6689415E-03  0.7066689E+03  0.7818609E-02  0.9705895E-01
        1   -1    0    0  501    0  0.00000000000E+00  0.00000000000E+00  0.22951620691E+04  0.22951620692E+04  0.50400001928E-02 0.  1.
       -1   -1    0    0    0  501  0.00000000000E+00  0.00000000000E+00 -0.54394959416E+02  0.54394959649E+02  0.50400001928E-02 0. -1.
    10030    2    1    2    0    0  0.00000000000E+00  0.00000000000E+00  0.22407671097E+04  0.23495570288E+04  0.70666894055E+03 0.  0.
        1    1    3    3  502    0 -0.52754904757E+02  0.30090623936E+03  0.17106479367E+04  0.17377122915E+04  0.50400001928E-02 0.  1.
       -1    1    3    3    0  502  0.52754904757E+02 -0.30090623936E+03  0.53011917305E+03  0.61184473726E+03  0.50400001928E-02 0. -1.
</event>
<event>
 5   0  0.1099980E-02  0.7034922E+03  0.7818609E-02  0.9711279E-01
       -2   -1    0    0    0  501  0.00000000000E+00  0.00000000000E+00  0.27982659292E+03  0.27982659294E+03  0.25500000920E-02 0. -1.
        2   -1    0    0  501    0  0.00000000000E+00  0.00000000000E+00 -0.44214998734E+03  0.44214998735E+03  0.25500000920E-02 0.  1.
    10030    2    1    2    0    0  0.00000000000E+00  0.00000000000E+00 -0.16232339442E+03  0.72197658029E+03  0.70349221609E+03 0.  0.
        5    1    3    3  502    0 -0.15117205848E+02 -0.32367689221E+03  0.59209237910E+02  0.32942842063E+03  0.46999998093E+01 0. -1.
       -5    1    3    3    0  502  0.15117205848E+02  0.32367689221E+03 -0.22153263233E+03  0.39254815966E+03  0.46999998093E+01 0.  1.
</event>
<event>
 5   0  0.6785252E-03  0.6906146E+03  0.7818609E-02  0.9733418E-01
        1   -1    0    0  501    0  0.00000000000E+00  0.00000000000E+00  0.93322037354E+03  0.93322037355E+03  0.50400001928E-02 0.  1.
       -1   -1    0    0    0  501  0.00000000000E+00  0.00000000000E+00 -0.12776954588E+03  0.12776954598E+03  0.50400001928E-02 0. -1.
    10030    2    1    2    0    0  0.00000000000E+00  0.00000000000E+00  0.80545082765E+03  0.10609899195E+04  0.69061463464E+03 0.  0.
        3    1    3    3  502    0  0.18277737078E+03 -0.16491889445E+03  0.30727647686E+02  0.24809273981E+03  0.10100000352E+00 0. -1.
       -3    1    3    3    0  502 -0.18277737078E+03  0.16491889445E+03  0.77472317997E+03  0.81289717972E+03  0.10100000352E+00 0.  1.
</event>
<event>
 5   0  0.6246998E-03  0.6931106E+03  0.7818609E-02  0.9729087E-01
        1   -1    0    0  501    0  0.00000000000E+00  0.00000000000E+00  0.13509403011E+03  0.13509403021E+03  0.50400001928E-02 0. -1.
       -1   -1    0    0    0  501  0.00000000000E+00  0.00000000000E+00 -0.88901464063E+03  0.88901464065E+03  0.50400001928E-02 0.  1.
    10030    2    1    2    0    0  0.00000000000E+00  0.00000000000E+00 -0.75392061052E+03  0.10241086709E+04  0.69311058479E+03 0.  0.
        4    1    3    3  502    0  0.15705014245E+03 -0.11200664764E+02  0.79192039634E+02  0.17624753665E+03  0.12699999809E+01 0. -1.
       -4    1    3    3    0  502 -0.15705014245E+03  0.11200664764E+02 -0.83311265016E+03  0.84786113420E+03  0.12699999809E+01 0.  1.
</event>
<event>
 5   0  0.1119786E-02  0.7029234E+03  0.7818609E-02  0.9712246E-01
       -2   -1    0    0    0  501  0.00000000000E+00  0.00000000000E+00  0.76859629881E+02  0.76859629923E+02  0.25500000920E-02 0.  1.
        2   -1    0    0  501    0  0.00000000000E+00  0.00000000000E+00 -0.16071549583E+04  0.16071549583E+04  0.25500000920E-02 0. -1.
    10030    2    1    2    0    0  0.00000000000E+00  0.00000000000E+00 -0.15302953285E+04  0.16840145883E+04  0.70292342484E+03 0.  0.
        3    1    3    3  502    0 -0.36238660208E+02  0.28777941067E+03 -0.28963847813E+03  0.40990326653E+03  0.10100000352E+00 0. -1.
       -3    1    3    3    0  502  0.36238660208E+02 -0.28777941067E+03 -0.12406568503E+04  0.12741113217E+04  0.10100000352E+00 0.  1.
</event>
<event>
 5   0  0.6990118E-03  0.6985136E+03  0.7818609E-02  0.9719777E-01
        1   -1    0    0  501    0  0.00000000000E+00  0.00000000000E+00  0.26160477692E+03  0.26160477697E+03  0.50400001928E-02 0. -1.
       -1   -1    0    0    0  501  0.00000000000E+00  0.00000000000E+00 -0.46627714930E+03  0.46627714933E+03  0.50400001928E-02 0.  1.
    10030    2    1    2    0    0  0.00000000000E+00  0.00000000000E+00 -0.20467237238E+03  0.72788192630E+03  0.69851364955E+03 0.  0.
        5    1    3    3  502    0  0.15289245750E+03  0.24742784756E+03 -0.30375440485E+03  0.42057754549E+03  0.46999998093E+01 0.  1.
       -5    1    3    3    0  502 -0.15289245750E+03 -0.24742784756E+03  0.99082032463E+02  0.30730438081E+03  0.46999998093E+01 0. -1.
</event>
<event>
 5   0  0.1099980E-02  0.6885045E+03  0.7818609E-02  0.9737095E-01
       -2   -1    0    0    0  501  0.00000000000E+00  0.00000000000E+00  0.96320133047E+02  0.96320133081E+02  0.25500000920E-02 0. -1.
        2   -1    0    0  501    0  0.00000000000E+00  0.00000000000E+00 -0.12303722244E+04  0.12303722244E+04  0.25500000920E-02 0.  1.
    10030    2    1    2    0    0  0.00000000000E+00  0.00000000000E+00 -0.11340520913E+04  0.13266923574E+04  0.68850451377E+03 0.  0.
        5    1    3    3  502    0  0.28042054125E+03 -0.17700296461E+03 -0.38914526524E+03  0.51129429578E+03  0.46999998093E+01 0. -1.
       -5    1    3    3    0  502 -0.28042054125E+03  0.17700296461E+03 -0.74490682607E+03  0.81539806166E+03  0.46999998093E+01 0.  1.
</event>
<event>
 5   0  0.1100119E-02  0.7009792E+03  0.7818609E-02  0.9715559E-01
       -2   -1    0    0    0  501  0.00000000000E+00  0.00000000000E+00  0.15211613994E+03  0.15211613996E+03  0.25500000920E-02 0.  1.
        2   -1    0    0  501    0  0.00000000000E+00  0.00000000000E+00 -0.80756041587E+03  0.80756041588E+03  0.25500000920E-02 0. -1.
    10030    2    1    2    0    0  0.00000000000E+00  0.00000000000E+00 -0.65544427594E+03  0.95967655583E+03  0.70097923861E+03 0.  0.
        4    1    3    3  502    0  0.11920675522E+02  0.86842278209E+02 -0.79230820060E+03  0.79714338825E+03  0.12699999809E+01 0. -1.
       -4    1    3    3    0  502 -0.11920675522E+02 -0.86842278209E+02  0.13686392467E+03  0.16253316758E+03  0.12699999809E+01 0.  1.
</event>
<event>
 5   0  0.1109788E-02  0.7005723E+03  0.7818609E-02  0.9716254E-01
        2   -1    0    0  501    0  0.00000000000E+00  0.00000000000E+00  0.87004241685E+03  0.87004241686E+03  0.25500000920E-02 0. -1.
       -2   -1    0    0    0  501  0.00000000000E+00  0.00000000000E+00 -0.14102803647E+03  0.14102803650E+03  0.25500000920E-02 0.  1.
    10030    2    1    2    0    0  0.00000000000E+00  0.00000000000E+00  0.72901438038E+03  0.10110704534E+04  0.70057226240E+03 0.  0.
        1    1    3    3  502    0 -0.28305871033E+03  0.45623347981E+02  0.74079492754E+02  0.29612749729E+03  0.50400001928E-02 0. -1.
       -1    1    3    3    0  502  0.28305871033E+03 -0.45623347981E+02  0.65493488762E+03  0.71494295607E+03  0.50400001928E-02 0.  1.
</event>
<event>
 5   0  0.1109788E-02  0.7006360E+03  0.7818609E-02  0.9716145E-01
       -2   -1    0    0    0  501  0.00000000000E+00  0.00000000000E+00  0.16341415853E+03  0.16341415855E+03  0.25500000920E-02 0. -1.
        2   -1    0    0  501    0  0.00000000000E+00  0.00000000000E+00 -0.75099181971E+03  0.75099181972E+03  0.25500000920E-02 0.  1.
    10030    2    1    2    0    0  0.00000000000E+00  0.00000000000E+00 -0.58757766118E+03  0.91440597826E+03  0.70063598620E+03 0.  0.
        1    1    3    3  502    0  0.25262584143E+03  0.10934513126E+03 -0.57656859750E+03  0.63891119973E+03  0.50400001928E-02 0.  1.
       -1    1    3    3    0  502 -0.25262584143E+03 -0.10934513126E+03 -0.11009063679E+02  0.27549477853E+03  0.50400001928E-02 0. -1.
</event>
<event>
 5   0  0.4440500E-03  0.7052447E+03  0.7818609E-02  0.9708305E-01
       -3   -1    0    0    0  501  0.00000000000E+00  0.00000000000E+00  0.27626612660E+03  0.27626614506E+03  0.10100000352E+00 0.  1.
        3   -1    0    0  501    0  0.00000000000E+00  0.00000000000E+00 -0.45008232298E+03  0.45008233431E+03  0.10100000352E+00 0. -1.
    10030    2    1    2    0    0  0.00000000000E+00  0.00000000000E+00 -0.17381619638E+03  0.72634847937E+03  0.70524466915E+03 0.  0.
        5    1    3    3  502    0  0.34326573817E+03  0.75990476947E+02 -0.11443813023E+03  0.36976221445E+03  0.46999998093E+01 0.  1.
       -5    1    3    3    0  502 -0.34326573817E+03 -0.75990476947E+02 -0.59378066155E+02  0.35658626492E+03  0.46999998093E+01 0. -1.
</event>
<event>
 5   0  0.6609285E-03  0.6998666E+03  0.7818609E-02  0.9717460E-01
       -1   -1    0    0    0  501  0.00000000000E+00  0.00000000000E+00  0.99817174425E+02  0.99817174553E+02  0.50400001928E-02 0.  1.
        1   -1    0    0  501    0  0.00000000000E+00  0.00000000000E+00 -0.12267760337E+04  0.12267760337E+04  0.50400001928E-02 0. -1.
    10030    2    1    2    0    0  0.00000000000E+00  0.00000000000E+00 -0.11269588593E+04  0.13265932083E+04  0.69986660851E+03 0.  0.
        2    1    3    3  502    0  0.11485050982E+03 -0.31157933154E+02 -0.11872435713E+04  0.11931926726E+04  0.25500000920E-02 0. -1.
       -2    1    3    3    0  502 -0.11485050982E+03  0.31157933154E+02  0.60284712007E+02  0.13340053566E+03  0.25500000920E-02 0.  1.
</event>
<event>
 5   0  0.1109788E-02  0.7020180E+03  0.7818609E-02  0.9713787E-01
       -2   -1    0    0    0  501  0.00000000000E+00  0.00000000000E+00  0.25403311514E+03  0.25403311515E+03  0.25500000920E-02 0. -1.
        2   -1    0    0  501    0  0.00000000000E+00  0.00000000000E+00 -0.48500501781E+03  0.48500501782E+03  0.25500000920E-02 0.  1.
    10030    2    1    2    0    0  0.00000000000E+00  0.00000000000E+00 -0.23097190267E+03  0.73903813297E+03  0.70201804974E+03 0.  0.
        1    1    3    3  502    0 -0.26379464946E+03 -0.68846575592E+02 -0.34823267653E+03  0.44225949970E+03  0.50400001928E-02 0.  1.
       -1    1    3    3    0  502  0.26379464946E+03  0.68846575592E+02  0.11726077385E+03  0.29677863327E+03  0.50400001928E-02 0. -1.
</event>
<event>
 5   0  0.6990118E-03  0.7012976E+03  0.7818609E-02  0.9715016E-01
        1   -1    0    0  501    0  0.00000000000E+00  0.00000000000E+00  0.26892905211E+03  0.26892905216E+03  0.50400001928E-02 0.  1.
       -1   -1    0    0    0  501  0.00000000000E+00  0.00000000000E+00 -0.45720086958E+03  0.45720086961E+03  0.50400001928E-02 0. -1.
    10030    2    1    2    0    0  0.00000000000E+00  0.00000000000E+00 -0.18827181747E+03  0.72612992177E+03  0.70129764440E+03 0.  0.
        5    1    3    3  502    0  0.16721037042E+03 -0.23053739321E+03  0.11761905925E+03  0.30816088451E+03  0.46999998093E+01 0.  1.
       -5    1    3    3    0  502 -0.16721037042E+03  0.23053739321E+03 -0.30589087672E+03  0.41796903726E+03  0.46999998093E+01 0. -1.
</event>
<event>
 5   0  0.6785252E-03  0.7009133E+03  0.7818609E-02  0.9715672E-01
        1   -1    0    0  501    0  0.00000000000E+00  0.00000000000E+00  0.67690039137E+03  0.67690039139E+03  0.50400001928E-02 0. -1.
       -1   -1    0    0    0  501  0.00000000000E+00  0.00000000000E+00 -0.18144452988E+03  0.18144452995E+03  0.50400001928E-02 0.  1.
    10030    2    1    2    0    0  0.00000000000E+00  0.00000000000E+00  0.49545586148E+03  0.85834492134E+03  0.70091332796E+03 0.  0.
        3    1    3    3  502    0 -0.10680532826E+03  0.90924431064E+02  0.64102626212E+03  0.65619304267E+03  0.10100000352E+00 0. -1.
       -3    1    3    3    0  502  0.10680532826E+03 -0.90924431064E+02 -0.14557040064E+03  0.20215187868E+03  0.10100000352E+00 0.  1.
</event>
<event>
 5   0  0.1100119E-02  0.6840254E+03  0.7818609E-02  0.9744948E-01
       -2   -1    0    0    0  501  0.00000000000E+00  0.00000000000E+00  0.86594528467E+02  0.86594528504E+02  0.25500000920E-02 0.  1.
        2   -1    0    0  501    0  0.00000000000E+00  0.00000000000E+00 -0.13508093246E+04  0.13508093246E+04  0.25500000920E-02 0. -1.
    10030    2    1    2    0    0  0.00000000000E+00  0.00000000000E+00 -0.12642147961E+04  0.14374038531E+04  0.68402542801E+03 0.  0.
        4    1    3    3  502    0 -0.26775291659E+03 -0.21244441761E+03 -0.65757054468E+03  0.74109708477E+03  0.12699999809E+01 0. -1.
       -4    1    3    3    0  502  0.26775291659E+03  0.21244441761E+03 -0.60664425145E+03  0.69630676834E+03  0.12699999809E+01 0.  1.
</event>
<event>
 5   0  0.6246998E-03  0.7000611E+03  0.7818609E-02  0.9717128E-01
        1   -1    0    0  501    0  0.00000000000E+00  0.00000000000E+00  0.15459951116E+03  0.15459951125E+03  0.50400001928E-02 0.  1.
       -1   -1    0    0    0  501  0.00000000000E+00  0.00000000000E+00 -0.79250828133E+03  0.79250828134E+03  0.50400001928E-02 0. -1.
    10030    2    1    2    0    0  0.00000000000E+00  0.00000000000E+00 -0.63790877016E+03  0.94710779259E+03  0.70006112000E+03 0.  0.
        4    1    3    3  502    0 -0.26242098190E+03 -0.71759205848E+02 -0.20993330724E+02  0.27286716219E+03  0.12699999809E+01 0.  1.
       -4    1    3    3    0  502  0.26242098190E+03  0.71759205848E+02 -0.61691543944E+03  0.67424063040E+03  0.12699999809E+01 0. -1.
</event>
<event>
 5   0  0.1109788E-02  0.6995137E+03  0.7818609E-02  0.9718064E-01
       -2   -1    0    0    0  501  0.00000000000E+00  0.00000000000E+00  0.20998024529E+03  0.20998024530E+03  0.25500000920E-02 0. -1.
        2   -1    0    0  501    0  0.00000000000E+00  0.00000000000E+00 -0.58257799433E+03  0.58257799434E+03  0.25500000920E-02 0.  1.
    10030    2    1    2    0    0  0.00000000000E+00  0.00000000000E+00 -0.37259774904E+03  0.79255823964E+03  0.69951374585E+03 0.  0.
        1    1    3    3  502    0  0.84770206929E+02  0.32219538259E+03 -0.65676777780E+02  0.33957221870E+03  0.50400001928E-02 0. -1.
       -1    1    3    3    0  502 -0.84770206929E+02 -0.32219538259E+03 -0.30692097126E+03  0.45298602094E+03  0.50400001928E-02 0.  1.
</event>
<event>
 5   0  0.1119786E-02  0.6930992E+03  0.7818609E-02  0.9729107E-01
       -2   -1    0    0    0  501  0.00000000000E+00  0.00000000000E+00  0.33057484267E+03  0.33057484268E+03  0.25500000920E-02 0. -1.
        2   -1    0    0  501    0  0.00000000000E+00  0.00000000000E+00 -0.36329633830E+03  0.36329633831E+03  0.25500000920E-02 0.  1.
    10030    2    1    2    0    0  0.00000000000E+00  0.00000000000E+00 -0.32721495632E+02  0.69387118100E+03  0.69309921335E+03 0.  0.
        3    1    3    3  502    0 -0.10966344340E+03  0.20857884708E+03  0.23801951529E+03  0.33493955594E+03  0.10100000352E+00 0. -1.
       -3    1    3    3    0  502  0.10966344340E+03 -0.20857884708E+03 -0.27074101092E+03  0.35893162506E+03  0.10100000352E+00 0.  1.
</event>
<event>
 5   0  0.1119786E-02  0.6989035E+03  0.7818609E-02  0.9719109E-01
        2   -1    0    0  501    0  0.00000000000E+00  0.00000000000E+00  0.80814860304E+03  0.80814860304E+03  0.25500000920E-02 0. -1.
       -2   -1    0    0    0  501  0.00000000000E+00  0.00000000000E+00 -0.15110652767E+03  0.15110652769E+03  0.25500000920E-02 0.  1.
    10030    2    1    2    0    0  0.00000000000E+00  0.00000000000E+00  0.65704207537E+03  0.95925513073E+03  0.69890351053E+03 0.  0.
        3    1    3    3  502    0 -0.31222198529E+03 -0.15000420404E+03  0.26513687649E+03  0.43621256608E+03  0.10100000352E+00 0.  1.
       -3    1    3    3    0  502  0.31222198529E+03  0.15000420404E+03  0.39190519888E+03  0.52304256465E+03  0.10100000352E+00 0. -1.
</event>
<event>
 5   0  0.6609285E-03  0.7019096E+03  0.7818609E-02  0.9713972E-01
       -1   -1    0    0    0  501  0.00000000000E+00  0.00000000000E+00  0.13441243438E+03  0.13441243447E+03  0.50400001928E-02 0. -1.
        1   -1    0    0  501    0  0.00000000000E+00  0.00000000000E+00 -0.91635327278E+03  0.91635327279E+03  0.50400001928E-02 0.  1.
    10030    2    1    2    0    0  0.00000000000E+00  0.00000000000E+00 -0.78194083840E+03  0.10507657073E+04  0.70190960729E+03 0.  0.
        2    1    3    3  502    0 -0.26489281321E+03  0.19847183462E+03 -0.56561447456E+03  0.65534647742E+03  0.25500000920E-02 0.  1.
       -2    1    3    3    0  502  0.26489281321E+03 -0.19847183462E+03 -0.21632636384E+03  0.39541922984E+03  0.25500000920E-02 0. -1.
</event>
<event>
 5   0  0.1099980E-02  0.7024526E+03  0.7818609E-02  0.9713047E-01
        2   -1    0    0  501    0  0.00000000000E+00  0.00000000000E+00  0.57546354786E+03  0.57546354787E+03  0.25500000920E-02 0. -1.
       -2   -1    0    0    0  501  0.00000000000E+00  0.00000000000E+00 -0.21436614339E+03  0.21436614341E+03  0.25500000920E-02 0.  1.
    10030    2    1    2    0    0  0.00000000000E+00  0.00000000000E+00  0.36109740447E+03  0.78982969128E+03  0.70245256474E+03 0.  0.
        5    1    3    3  502    0 -0.24955635386E+03 -0.24562472254E+03  0.21088497790E+03  0.40878410191E+03  0.46999998093E+01 0.  1.
       -5    1    3    3    0  502  0.24955635386E+03  0.24562472254E+03  0.15021242657E+03  0.38104558936E+03  0.46999998093E+01 0. -1.
</event>
<event>
 5   0  0.1099980E-02  0.7024660E+03  0.7818609E-02  0.9713024E-01
       -2   -1    0    0    0  501  0.00000000000E+00  0.00000000000E+00  0.12166329499E+03  0.12166329502E+03  0.25500000920E-02 0. -1.
        2   -1    0    0  501    0  0.00000000000E+00  0.00000000000E+00 -0.10139839984E+04  0.10139839984E+04  0.25500000920E-02 0.  1.
    10030    2    1    2    0    0  0.00000000000E+00  0.00000000000E+00 -0.89232070345E+03  0.11356472935E+04  0.70246603999E+03 0.  0.
        5    1    3    3  502    0 -0.20173531746E+03  0.69855917743E+02 -0.89698928411E+03  0.92205686015E+03  0.46999998093E+01 0.  1.
       -5    1    3    3    0  502  0.20173531746E+03 -0.69855917743E+02  0.46685806581E+01  0.21359043330E+03  0.46999998093E+01 0. -1.
</event>
<event>
 5   0  0.1100119E-02  0.6980295E+03  0.7818609E-02  0.9720608E-01
        2   -1    0    0  501    0  0.00000000000E+00  0.00000000000E+00  0.15397521197E+04  0.15397521197E+04  0.25500000920E-02 0. -1.
       -2   -1    0    0    0  501  0.00000000000E+00  0.00000000000E+00 -0.79110982386E+02  0.79110982427E+02  0.25500000920E-02 0.  1.
    10030    2    1    2    0    0  0.00000000000E+00  0.00000000000E+00  0.14606411373E+04  0.16188631021E+04  0.69802952044E+03 0.  0.
        4    1    3    3  502    0  0.18495351283E+03  0.23091435239E+03  0.11597181474E+04  0.11968613263E+04  0.12699999809E+01 0. -1.
       -4    1    3    3    0  502 -0.18495351283E+03 -0.23091435239E+03  0.30092298989E+03  0.42200177582E+03  0.12699999809E+01 0.  1.
</event>
<event>
 5   0  0.1100119E-02  0.6987936E+03  0.7818609E-02  0.9719297E-01
       -2   -1    0    0    0  501  0.00000000000E+00  0.00000000000E+00  0.30505605314E+03  0.30505605315E+03  0.25500000920E-02 0. -1.
        2   -1    0    0  501    0  0.00000000000E+00  0.00000000000E+00 -0.40018262550E+03  0.40018262551E+03  0.25500000920E-02 0.  1.
    10030    2    1    2    0    0  0.00000000000E+00  0.00000000000E+00 -0.95126572361E+02  0.70523867866E+03  0.69879362412E+03 0.  0.
        4    1    3    3  502    0  0.10553887161E+03 -0.13846980293E+03  0.25815666565E+03  0.31138210717E+03  0.12699999809E+01 0. -1.
       -4    1    3    3    0  502 -0.10553887161E+03  0.13846980293E+03 -0.35328323802E+03  0.39385657149E+03  0.12699999809E+01 0.  1.
</event>
<event>
 5   0  0.6609285E-03  0.6988101E+03  0.7818609E-02  0.9719269E-01
       -1   -1    0    0    0  501  0.00000000000E+00  0.00000000000E+00  0.69230349496E+02  0.69230349680E+02  0.50400001928E-02 0.  1.
        1   -1    0    0  501    0  0.00000000000E+00  0.00000000000E+00 -0.17634448253E+04  0.17634448253E+04  0.50400001928E-02 0. -1.
    10030    2    1    2    0    0  0.00000000000E+00  0.00000000000E+00 -0.16942144758E+04  0.18326751750E+04  0.69881013658E+03 0.  0.
        2    1    3    3  502    0  0.27275163149E+03 -0.19948104118E+03 -0.10801729372E+04  0.11317949075E+04  0.25500000920E-02 0. -1.
       -2    1    3    3    0  502 -0.27275163149E+03  0.19948104118E+03 -0.61404153853E+03  0.70088026746E+03  0.25500000920E-02 0.  1.
</event>
<event>
 5   0  0.1119786E-02  0.6992914E+03  0.7818609E-02  0.9718445E-01
        2   -1    0    0  501    0  0.00000000000E+00  0.00000000000E+00  0.27505409250E+03  0.27505409252E+03  0.25500000920E-02 0.  1.
       -2   -1    0    0    0  501  0.00000000000E+00  0.00000000000E+00 -0.44446570772E+03  0.44446570772E+03  0.25500000920E-02 0. -1.
    10030    2    1    2    0    0  0.00000000000E+00  0.00000000000E+00 -0.16941161521E+03  0.71951980024E+03  0.69929138960E+03 0.  0.
        3    1    3    3  502    0 -0.22286345001E+02 -0.34448082464E+03 -0.27525027893E+02  0.34629663163E+03  0.10100000352E+00 0.  1.
       -3    1    3    3    0  502  0.22286345001E+02  0.34448082464E+03 -0.14188658732E+03  0.37322316860E+03  0.10100000352E+00 0. -1.
</event>
<event>
 5   0  0.6246998E-03  0.6925858E+03  0.7818609E-02  0.9729996E-01
        1   -1    0    0  501    0  0.00000000000E+00  0.00000000000E+00  0.10891172465E+04  0.10891172465E+04  0.50400001928E-02 0. -1.
       -1   -1    0    0    0  501  0.00000000000E+00  0.00000000000E+00 -0.11010637825E+03  0.11010637837E+03  0.50400001928E-02 0.  1.
    10030    2    1    2    0    0  0.00000000000E+00  0.00000000000E+00  0.97901086823E+03  0.11992236249E+04  0.69258575088E+03 0.  0.
        4    1    3    3  502    0  0.16617240863E+03  0.26583400939E+03  0.74419821936E+03  0.80753550543E+03  0.12699999809E+01 0. -1.
       -4    1    3    3    0  502 -0.16617240863E+03 -0.26583400939E+03  0.23481264888E+03  0.39168811944E+03  0.12699999809E+01 0.  1.
</event>
<event>
 5   0  0.1109788E-02  0.6992809E+03  0.7818609E-02  0.9718463E-01
        2   -1    0    0  501    0  0.00000000000E+00  0.00000000000E+00  0.34645282820E+03  0.34645282821E+03  0.25500000920E-02 0. -1.
       -2   -1    0    0    0  501  0.00000000000E+00  0.00000000000E+00 -0.35285739836E+03  0.35285739837E+03  0.25500000920E-02 0.  1.
    10030    2    1    2    0    0  0.00000000000E+00  0.00000000000E+00 -0.64045701572E+01  0.69931022658E+03  0.69928089812E+03 0.  0.
        1    1    3    3  502    0  0.21900834042E+03 -0.27248487784E+03  0.27797521927E+01  0.34960032734E+03  0.50400001928E-02 0.  1.
       -1    1    3    3    0  502 -0.21900834042E+03  0.27248487784E+03 -0.91843223499E+01  0.34970989924E+03  0.50400001928E-02 0. -1.
</event>
<event>
 5   0  0.1079446E-02  0.7011893E+03  0.7818609E-02  0.9715200E-01
       -2   -1    0    0    0  501  0.00000000000E+00  0.00000000000E+00  0.26715447701E+03  0.26715447702E+03  0.25500000920E-02 0.  1.
        2   -1    0    0  501    0  0.00000000000E+00  0.00000000000E+00 -0.46009564614E+03  0.46009564615E+03  0.25500000920E-02 0. -1.
    10030    2    1    2    0    0  0.00000000000E+00  0.00000000000E+00 -0.19294116913E+03  0.72725012318E+03  0.70118930890E+03 0.  0.
        2    1    3    3  502    0  0.94060415359E+02  0.21849024683E+03 -0.36359134838E+03  0.43449282885E+03  0.25500000920E-02 0. -1.
       -2    1    3    3    0  502 -0.94060415359E+02 -0.21849024683E+03  0.17065017925E+03  0.29275729433E+03  0.25500000920E-02 0.  1.
</event>
<event>
 5   0  0.6246998E-03  0.7004733E+03  0.7818609E-02  0.9716423E-01
       -1   -1    0    0    0  501  0.00000000000E+00  0.00000000000E+00  0.15327831462E+03  0.15327831470E+03  0.50400001928E-02 0.  1.
        1   -1    0    0  501    0  0.00000000000E+00  0.00000000000E+00 -0.80028094164E+03  0.80028094166E+03  0.50400001928E-02 0. -1.
    10030    2    1    2    0    0  0.00000000000E+00  0.00000000000E+00 -0.64700262702E+03  0.95355925636E+03  0.70047330857E+03 0.  0.
        4    1    3    3  502    0  0.21651879818E+03 -0.64679285924E+02  0.40760394306E+02  0.22962321885E+03  0.12699999809E+01 0.  1.
       -4    1    3    3    0  502 -0.21651879818E+03  0.64679285924E+02 -0.68776302133E+03  0.72393603751E+03  0.12699999809E+01 0. -1.
</event>
<event>
 5   0  0.6609285E-03  0.7114243E+03  0.7818609E-02  0.9697892E-01
       -1   -1    0    0    0  501  0.00000000000E+00  0.00000000000E+00  0.14628321067E+03  0.14628321076E+03  0.50400001928E-02 0.  1.
        1   -1    0    0  501    0  0.00000000000E+00  0.00000000000E+00 -0.86497366961E+03  0.86497366963E+03  0.50400001928E-02 0. -1.
    10030    2    1    2    0    0  0.00000000000E+00  0.00000000000E+00 -0.71869045894E+03  0.10112568804E+04  0.71142427731E+03 0.  0.
        2    1    3    3  502    0 -0.26476327171E+03 -0.11124881427E+02 -0.22044731848E+02  0.26591224726E+03  0.25500000920E-02 0.  1.
       -2    1    3    3    0  502  0.26476327171E+03  0.11124881427E+02 -0.69664572709E+03  0.74534463312E+03  0.25500000920E-02 0. -1.
</event>
<event>
 5   0  0.1100119E-02  0.6995648E+03  0.7818609E-02  0.9717977E-01
       -2   -1    0    0    0  501  0.00000000000E+00  0.00000000000E+00  0.27226353057E+03  0.27226353058E+03  0.25500000920E-02 0. -1.
        2   -1    0    0  501    0  0.00000000000E+00  0.00000000000E+00 -0.44937247190E+03  0.44937247190E+03  0.25500000920E-02 0.  1.
    10030    2    1    2    0    0  0.00000000000E+00  0.00000000000E+00 -0.17710894132E+03  0.72163600249E+03  0.69956482401E+03 0.  0.
        4    1    3    3  502    0 -0.24894192629E+03 -0.45688706748E+02  0.16048863493E+03  0.29969610513E+03  0.12699999809E+01 0. -1.
       -4    1    3    3    0  502  0.24894192629E+03  0.45688706748E+02 -0.33759757625E+03  0.42193989736E+03  0.12699999809E+01 0.  1.
</event>
<event>
 5   0  0.1100119E-02  0.7002730E+03  0.7818609E-02  0.9716765E-01
       -2   -1    0    0    0  501  0.00000000000E+00  0.00000000000E+00  0.93430712264E+02  0.93430712299E+02  0.25500000920E-02 0. -1.
        2   -1    0    0  501    0  0.00000000000E+00  0.00000000000E+00 -0.13121548367E+04  0.13121548367E+04  0.25500000920E-02 0.  1.
    10030    2    1    2    0    0  0.00000000000E+00  0.00000000000E+00 -0.12187241244E+04  0.14055855490E+04  0.70027297825E+03 0.  0.
        4    1    3    3  502    0 -0.12248683678E+02 -0.17707644516E+03 -0.35747936576E+01  0.17754010739E+03  0.12699999809E+01 0. -1.
       -4    1    3    3    0  502  0.12248683678E+02  0.17707644516E+03 -0.12151493307E+04  0.12280454416E+04  0.12699999809E+01 0.  1.
</event>
<event>
 5   0  0.6246998E-03  0.7003321E+03  0.7818609E-02  0.9716664E-01
       -1   -1    0    0    0  501  0.00000000000E+00  0.00000000000E+00  0.40362498214E+03  0.40362498217E+03  0.50400001928E-02 0. -1.
        1   -1    0    0  501    0  0.00000000000E+00  0.00000000000E+00 -0.30378758895E+03  0.30378758899E+03  0.50400001928E-02 0.  1.
    10030    2    1    2    0    0  0.00000000000E+00  0.00000000000E+00  0.99837393195E+02  0.70741257116E+03  0.70033209320E+03 0.  0.
        4    1    3    3  502    0  0.25842566705E+03 -0.94479422056E+02  0.26868267766E+03  0.38458052571E+03  0.12699999809E+01 0. -1.
       -4    1    3    3    0  502 -0.25842566705E+03  0.94479422056E+02 -0.16884528447E+03  0.32283204545E+03  0.12699999809E+01 0.  1.
</event>
<event>
 5   0  0.6609285E-03  0.7165276E+03  0.7818609E-02  0.9689378E-01
        1   -1    0    0  501    0  0.00000000000E+00  0.00000000000E+00  0.79004419044E+03  0.79004419046E+03  0.50400001928E-02 0. -1.
       -1   -1    0    0    0  501  0.00000000000E+00  0.00000000000E+00 -0.16246300362E+03  0.16246300369E+03  0.50400001928E-02 0.  1.
    10030    2    1    2    0    0  0.00000000000E+00  0.00000000000E+00  0.62758118682E+03  0.95250719415E+03  0.71652760509E+03 0.  0.
        2    1    3    3  502    0 -0.10633736416E+03  0.26015598184E+03  0.18437644402E+02  0.28165354008E+03  0.25500000920E-02 0.  1.
       -2    1    3    3    0  502  0.10633736416E+03 -0.26015598184E+03  0.60914354242E+03  0.67085365407E+03  0.25500000920E-02 0. -1.
</event>
<event>
 5   0  0.1099980E-02  0.6927969E+03  0.7818609E-02  0.9729630E-01
       -2   -1    0    0    0  501  0.00000000000E+00  0.00000000000E+00  0.21424214938E+03  0.21424214940E+03  0.25500000920E-02 0.  1.
        2   -1    0    0  501    0  0.00000000000E+00  0.00000000000E+00 -0.56007592912E+03  0.56007592912E+03  0.25500000920E-02 0. -1.
    10030    2    1    2    0    0  0.00000000000E+00  0.00000000000E+00 -0.34583377973E+03  0.77431807852E+03  0.69279685588E+03 0.  0.
        5    1    3    3  502    0 -0.12425495494E+03  0.25679724673E+03 -0.39246336257E+03  0.48521510767E+03  0.46999998093E+01 0. -1.
       -5    1    3    3    0  502  0.12425495494E+03 -0.25679724673E+03  0.46629582835E+02  0.28910297085E+03  0.46999998093E+01 0.  1.
</event>
<event>
 5   0  0.1099980E-02  0.7029802E+03  0.7818609E-02  0.9712149E-01
        2   -1    0    0  501    0  0.00000000000E+00  0.00000000000E+00  0.38238582950E+03  0.38238582951E+03  0.25500000920E-02 0. -1.
       -2   -1    0    0    0  501  0.00000000000E+00  0.00000000000E+00 -0.32309065584E+03  0.32309065585E+03  0.25500000920E-02 0.  1.
    10030    2    1    2    0    0  0.00000000000E+00  0.00000000000E+00  0.59295173663E+02  0.70547648536E+03  0.70298019444E+03 0.  0.
        5    1    3    3  502    0  0.31570640411E+03 -0.14962658905E+03 -0.87577308710E+01  0.34951028253E+03  0.46999998093E+01 0.  1.
       -5    1    3    3    0  502 -0.31570640411E+03  0.14962658905E+03  0.68052904534E+02  0.35596620283E+03  0.46999998093E+01 0. -1.
</event>
<event>
 5   0  0.6785252E-03  0.7015642E+03  0.7818609E-02  0.9714561E-01
       -1   -1    0    0    0  501  0.00000000000E+00  0.00000000000E+00  0.11517944812E+03  0.11517944823E+03  0.50400001928E-02 0. -1.
        1   -1    0    0  501    0  0.00000000000E+00  0.00000000000E+00 -0.10683161932E+04  0.10683161932E+04  0.50400001928E-02 0.  1.
    10030    2    1    2    0    0  0.00000000000E+00  0.00000000000E+00 -0.95313674507E+03  0.11834956414E+04  0.70156416562E+03 0.  0.
        3    1    3    3  502    0  0.19144609226E+02  0.30565313506E+03 -0.76511724960E+03  0.82413273862E+03  0.10100000352E+00 0.  1.
       -3    1    3    3    0  502 -0.19144609226E+02 -0.30565313506E+03 -0.18801949547E+03  0.35936290280E+03  0.10100000352E+00 0. -1.
</event>
<event>
 5   0  0.1079446E-02  0.7115950E+03  0.7818609E-02  0.9697606E-01
       -2   -1    0    0    0  501  0.00000000000E+00  0.00000000000E+00  0.10605601755E+03  0.10605601758E+03  0.25500000920E-02 0. -1.
        2   -1    0    0  501    0  0.00000000000E+00  0.00000000000E+00 -0.11936319234E+04  0.11936319234E+04  0.25500000920E-02 0.  1.
    10030    2    1    2    0    0  0.00000000000E+00  0.00000000000E+00 -0.10875759058E+04  0.12996879410E+04  0.71159496411E+03 0.  0.
        2    1    3    3  502    0 -0.30314855281E+03  0.12085734011E+03 -0.28493312700E+03  0.43323484232E+03  0.25500000920E-02 0.  1.
       -2    1    3    3    0  502  0.30314855281E+03 -0.12085734011E+03 -0.80264277884E+03  0.86645309865E+03  0.25500000920E-02 0. -1.
</event>
<event>
 5   0  0.6246998E-03  0.6984119E+03  0.7818609E-02  0.9719952E-01
        1   -1    0    0  501    0  0.00000000000E+00  0.00000000000E+00  0.16299599914E+04  0.16299599914E+04  0.50400001928E-02 0.  1.
       -1   -1    0    0    0  501  0.00000000000E+00  0.00000000000E+00 -0.74814587073E+02  0.74814587242E+02  0.50400001928E-02 0. -1.
    10030    2    1    2    0    0  0.00000000000E+00  0.00000000000E+00  0.15551454043E+04  0.17047745786E+04  0.69841186660E+03 0.  0.
        4    1    3    3  502    0  0.13114284793E+03 -0.31705063035E+03  0.61893811531E+03  0.70767616340E+03  0.12699999809E+01 0. -1.
       -4    1    3    3    0  502 -0.13114284793E+03  0.31705063035E+03  0.93620728899E+03  0.99709841522E+03  0.12699999809E+01 0.  1.
</event>
<event>
 5   0  0.1119786E-02  0.6884127E+03  0.7818609E-02  0.9737256E-01
       -2   -1    0    0    0  501  0.00000000000E+00  0.00000000000E+00  0.12817122242E+03  0.12817122245E+03  0.25500000920E-02 0. -1.
        2   -1    0    0  501    0  0.00000000000E+00  0.00000000000E+00 -0.92437308621E+03  0.92437308622E+03  0.25500000920E-02 0.  1.
    10030    2    1    2    0    0  0.00000000000E+00  0.00000000000E+00 -0.79620186379E+03  0.10525443087E+04  0.68841274959E+03 0.  0.
        3    1    3    3  502    0 -0.37531711786E+02 -0.14012568010E+03  0.79150406962E+02  0.16525323820E+03  0.10100000352E+00 0. -1.
       -3    1    3    3    0  502  0.37531711786E+02  0.14012568010E+03 -0.87535227075E+03  0.88729107046E+03  0.10100000352E+00 0.  1.
</event>
<event>
 5   0  0.1099980E-02  0.6979935E+03  0.7818609E-02  0.9720670E-01
       -2   -1    0    0    0  501  0.00000000000E+00  0.00000000000E+00  0.53444789050E+03  0.53444789051E+03  0.25500000920E-02 0. -1.
        2   -1    0    0  501    0  0.00000000000E+00  0.00000000000E+00 -0.22789633495E+03  0.22789633497E+03  0.25500000920E-02 0.  1.
    10030    2    1    2    0    0  0.00000000000E+00  0.00000000000E+00  0.30655155555E+03  0.76234422548E+03  0.69799345406E+03 0.  0.
        5    1    3    3  502    0  0.19202863510E+03  0.27872961635E+03  0.24602503791E+03  0.41846816486E+03  0.46999998093E+01 0. -1.
       -5    1    3    3    0  502 -0.19202863510E+03 -0.27872961635E+03  0.60526517642E+02  0.34387606062E+03  0.46999998093E+01 0.  1.
</event>
<event>
 5   0  0.1079446E-02  0.7000868E+03  0.7818609E-02  0.9717084E-01
        2   -1    0    0  501    0  0.00000000000E+00  0.00000000000E+00  0.80138963763E+03  0.80138963764E+03  0.25500000920E-02 0. -1.
       -2   -1    0    0    0  501  0.00000000000E+00  0.00000000000E+00 -0.15289740696E+03  0.15289740698E+03  0.25500000920E-02 0.  1.
    10030    2    1    2    0    0  0.00000000000E+00  0.00000000000E+00  0.64849223068E+03  0.95428704462E+03  0.70008684481E+03 0.  0.
        2    1    3    3  502    0 -0.25015071219E+02 -0.28832645147E+03  0.55842093139E+02  0.29474774940E+03  0.25500000920E-02 0.  1.
       -2    1    3    3    0  502  0.25015071219E+02  0.28832645147E+03  0.59265013754E+03  0.65953929522E+03  0.25500000920E-02 0. -1.
</event>
<event>
 5   0  0.6689415E-03  0.7004247E+03  0.7818609E-02  0.9716506E-01
        1   -1    0    0  501    0  0.00000000000E+00  0.00000000000E+00  0.14804748614E+04  0.14804748614E+04  0.50400001928E-02 0. -1.
       -1   -1    0    0    0  501  0.00000000000E+00  0.00000000000E+00 -0.82844146516E+02  0.82844146669E+02  0.50400001928E-02 0.  1.
    10030    2    1    2    0    0  0.00000000000E+00  0.00000000000E+00  0.13976307149E+04  0.15633190081E+04  0.70042466107E+03 0.  0.
        1    1    3    3  502    0  0.29264673469E+03 -0.97134541522E+02  0.10694243485E+04  0.11129895182E+04  0.50400001928E-02 0. -1.
       -1    1    3    3    0  502 -0.29264673469E+03  0.97134541522E+02  0.32820636642E+03  0.45032948989E+03  0.50400001928E-02 0.  1.
</event>
<event>
 5   0  0.1079446E-02  0.7004192E+03  0.7818609E-02  0.9716516E-01
       -2   -1    0    0    0  501  0.00000000000E+00  0.00000000000E+00  0.14197907335E+03  0.14197907337E+03  0.25500000920E-02 0. -1.
        2   -1    0    0  501    0  0.00000000000E+00  0.00000000000E+00 -0.86383697292E+03  0.86383697293E+03  0.25500000920E-02 0.  1.
    10030    2    1    2    0    0  0.00000000000E+00  0.00000000000E+00 -0.72185789958E+03  0.10058160463E+04  0.70041922575E+03 0.  0.
        2    1    3    3  502    0 -0.26067397032E+03 -0.80730876444E+02 -0.67612923118E+03  0.72912216430E+03  0.25500000920E-02 0.  1.
       -2    1    3    3    0  502  0.26067397032E+03  0.80730876444E+02 -0.45728668400E+02  0.27669388199E+03  0.25500000920E-02 0. -1.
</event>
<event>
 5   0  0.6785252E-03  0.7091865E+03  0.7818609E-02  0.9701650E-01
        1   -1    0    0  501    0  0.00000000000E+00  0.00000000000E+00  0.19724728992E+03  0.19724728999E+03  0.50400001928E-02 0.  1.
       -1   -1    0    0    0  501  0.00000000000E+00  0.00000000000E+00 -0.63745547747E+03  0.63745547749E+03  0.50400001928E-02 0. -1.
    10030    2    1    2    0    0  0.00000000000E+00  0.00000000000E+00 -0.44020818755E+03  0.83470276748E+03  0.70918647876E+03 0.  0.
        3    1    3    3  502    0  0.24227060743E+03  0.13613667060E+02 -0.52443182156E+03  0.57784870409E+03  0.10100000352E+00 0. -1.
       -3    1    3    3    0  502 -0.24227060743E+03 -0.13613667060E+02  0.84223634010E+02  0.25685406339E+03  0.10100000352E+00 0.  1.
</event>
<event>
 5   0  0.6246998E-03  0.6874731E+03  0.7818609E-02  0.9738898E-01
       -1   -1    0    0    0  501  0.00000000000E+00  0.00000000000E+00  0.28399066725E+03  0.28399066729E+03  0.50400001928E-02 0. -1.
        1   -1    0    0  501    0  0.00000000000E+00  0.00000000000E+00 -0.41605173810E+03  0.41605173813E+03  0.50400001928E-02 0.  1.
    10030    2    1    2    0    0  0.00000000000E+00  0.00000000000E+00 -0.13206107085E+03  0.70004240542E+03  0.68747308526E+03 0.  0.
        4    1    3    3  502    0  0.24012502926E+02  0.17849872740E+03  0.23209320472E+03  0.29378098060E+03  0.12699999809E+01 0. -1.
       -4    1    3    3    0  502 -0.24012502926E+02 -0.17849872740E+03 -0.36415427558E+03  0.40626142483E+03  0.12699999809E+01 0.  1.
</event>
<event>
 5   0  0.1119786E-02  0.6990986E+03  0.7818609E-02  0.9718775E-01
        2   -1    0    0  501    0  0.00000000000E+00  0.00000000000E+00  0.94860359271E+03  0.94860359271E+03  0.25500000920E-02 0. -1.
       -2   -1    0    0    0  501  0.00000000000E+00  0.00000000000E+00 -0.12880480758E+03  0.12880480761E+03  0.25500000920E-02 0.  1.
    10030    2    1    2    0    0  0.00000000000E+00  0.00000000000E+00  0.81979878512E+03  0.10774084003E+04  0.69909857173E+03 0.  0.
        3    1    3    3  502    0  0.11748113894E+03  0.46019233418E+01 -0.97418105523E+02  0.15268691231E+03  0.10100000352E+00 0.  1.
       -3    1    3    3    0  502 -0.11748113894E+03 -0.46019233418E+01  0.91721689065E+03  0.92472148801E+03  0.10100000352E+00 0. -1.
</event>
<event>
 5   0  0.6689415E-03  0.7023631E+03  0.7818609E-02  0.9713199E-01
        1   -1    0    0  501    0  0.00000000000E+00  0.00000000000E+00  0.12166543631E+04  0.12166543631E+04  0.50400001928E-02 0. -1.
       -1   -1    0    0    0  501  0.00000000000E+00  0.00000000000E+00 -0.10136690321E+03  0.10136690334E+03  0.50400001928E-02 0.  1.
    10030    2    1    2    0    0  0.00000000000E+00  0.00000000000E+00  0.11152874599E+04  0.13180212664E+04  0.70236311166E+03 0.  0.
        1    1    3    3  502    0  0.29801306815E+02  0.34593509497E+03  0.45889217403E+03  0.57544872511E+03  0.50400001928E-02 0. -1.
       -1    1    3    3    0  502 -0.29801306815E+02 -0.34593509497E+03  0.65639528583E+03  0.74257254131E+03  0.50400001928E-02 0.  1.
</event>
<event>
 5   0  0.6609285E-03  0.7018623E+03  0.7818609E-02  0.9714053E-01
       -1   -1    0    0    0  501  0.00000000000E+00  0.00000000000E+00  0.26658258167E+03  0.26658258172E+03  0.50400001928E-02 0.  1.
        1   -1    0    0  501    0  0.00000000000E+00  0.00000000000E+00 -0.46196822598E+03  0.46196822601E+03  0.50400001928E-02 0. -1.
    10030    2    1    2    0    0  0.00000000000E+00  0.00000000000E+00 -0.19538564431E+03  0.72855080773E+03  0.70186232941E+03 0.  0.
        2    1    3    3  502    0 -0.29885189065E+03 -0.95479895099E+02 -0.26090993534E+03  0.40804761643E+03  0.25500000920E-02 0. -1.
       -2    1    3    3    0  502  0.29885189065E+03  0.95479895099E+02  0.65524291030E+02  0.32050319130E+03  0.25500000920E-02 0.  1.
</event>
<event>
 5   0  0.6609285E-03  0.6955367E+03  0.7818609E-02  0.9724896E-01
        1   -1    0    0  501    0  0.00000000000E+00  0.00000000000E+00  0.53222949133E+03  0.53222949135E+03  0.50400001928E-02 0. -1.
       -1   -1    0    0    0  501  0.00000000000E+00  0.00000000000E+00 -0.22723813830E+03  0.22723813835E+03  0.50400001928E-02 0.  1.
    10030    2    1    2    0    0  0.00000000000E+00  0.00000000000E+00  0.30499135303E+03  0.75946762971E+03  0.69553673889E+03 0.  0.
        2    1    3    3  502    0  0.25064069137E+03 -0.53405835108E+02 -0.10420885204E+03  0.27664494256E+03  0.25500000920E-02 0.  1.
       -2    1    3    3    0  502 -0.25064069137E+03  0.53405835108E+02  0.40920020506E+03  0.48282268715E+03  0.25500000920E-02 0. -1.
</event>
<event>
 5   0  0.1100119E-02  0.7042183E+03  0.7818609E-02  0.9710045E-01
       -2   -1    0    0    0  501  0.00000000000E+00  0.00000000000E+00  0.41598545410E+03  0.41598545410E+03  0.25500000920E-02 0.  1.
        2   -1    0    0  501    0  0.00000000000E+00  0.00000000000E+00 -0.29804132587E+03  0.29804132588E+03  0.25500000920E-02 0. -1.
    10030    2    1    2    0    0  0.00000000000E+00  0.00000000000E+00  0.11794412823E+03  0.71402677998E+03  0.70421830788E+03 0.  0.
        4    1    3    3  502    0  0.83052683780E+02  0.23255459013E+03  0.31346572754E+03  0.39905107557E+03  0.12699999809E+01 0.  1.
       -4    1    3    3    0  502 -0.83052683780E+02 -0.23255459013E+03 -0.19552159931E+03  0.31497570441E+03  0.12699999809E+01 0. -1.
</event>
<event>
 5   0  0.6246998E-03  0.7058974E+03  0.7818609E-02  0.9707200E-01
       -1   -1    0    0    0  501  0.00000000000E+00  0.00000000000E+00  0.16291464848E+03  0.16291464856E+03  0.50400001928E-02 0.  1.
        1   -1    0    0  501    0  0.00000000000E+00  0.00000000000E+00 -0.76465064617E+03  0.76465064619E+03  0.50400001928E-02 0. -1.
    10030    2    1    2    0    0  0.00000000000E+00  0.00000000000E+00 -0.60173599769E+03  0.92756529475E+03  0.70589741826E+03 0.  0.
        4    1    3    3  502    0  0.17213509705E+03  0.19339458466E+03  0.14331042353E+02  0.25930474097E+03  0.12699999809E+01 0.  1.
       -4    1    3    3    0  502 -0.17213509705E+03 -0.19339458466E+03 -0.61606704005E+03  0.66826055378E+03  0.12699999809E+01 0. -1.
</event>
<event>
 5   0  0.6246998E-03  0.7041388E+03  0.7818609E-02  0.9710180E-01
       -1   -1    0    0    0  501  0.00000000000E+00  0.00000000000E+00  0.40936530807E+03  0.40936530810E+03  0.50400001928E-02 0. -1.
        1   -1    0    0  501    0  0.00000000000E+00  0.00000000000E+00 -0.30279281163E+03  0.30279281167E+03  0.50400001928E-02 0.  1.
    10030    2    1    2    0    0  0.00000000000E+00  0.00000000000E+00  0.10657249644E+03  0.71215811977E+03  0.70413882903E+03 0.  0.
        4    1    3    3  502    0 -0.49740290874E+02 -0.18654972855E+03 -0.24447520401E+03  0.31151988064E+03  0.12699999809E+01 0.  1.
       -4    1    3    3    0  502  0.49740290874E+02  0.18654972855E+03  0.35104770045E+03  0.40063823912E+03  0.12699999809E+01 0. -1.
</event>
<event>
 5   0  0.1099980E-02  0.6988943E+03  0.7818609E-02  0.9719125E-01
       -2   -1    0    0    0  501  0.00000000000E+00  0.00000000000E+00  0.81024303485E+02  0.81024303525E+02  0.25500000920E-02 0. -1.
        2   -1    0    0  501    0  0.00000000000E+00  0.00000000000E+00 -0.15071196081E+04  0.15071196081E+04  0.25500000920E-02 0.  1.
    10030    2    1    2    0    0  0.00000000000E+00  0.00000000000E+00 -0.14260953047E+04  0.15881439117E+04  0.69889431691E+03 0.  0.
        5    1    3    3  502    0 -0.34308666740E+03  0.21267931299E+02 -0.57058568179E+03  0.66614630263E+03  0.46999998093E+01 0.  1.
       -5    1    3    3    0  502  0.34308666740E+03 -0.21267931299E+02 -0.85550962287E+03  0.92199760903E+03  0.46999998093E+01 0. -1.
</event>
<event>
 5   0  0.1109788E-02  0.6986300E+03  0.7818609E-02  0.9719578E-01
        2   -1    0    0  501    0  0.00000000000E+00  0.00000000000E+00  0.70224251000E+03  0.70224251000E+03  0.25500000920E-02 0.  1.
       -2   -1    0    0    0  501  0.00000000000E+00  0.00000000000E+00 -0.17375899605E+03  0.17375899607E+03  0.25500000920E-02 0. -1.
    10030    2    1    2    0    0  0.00000000000E+00  0.00000000000E+00  0.52848351395E+03  0.87600150607E+03  0.69862995507E+03 0.  0.
        1    1    3    3  502    0  0.11022561453E+03  0.83545966293E+01 -0.15124934109E+03  0.18733886033E+03  0.50400001928E-02 0. -1.
       -1    1    3    3    0  502 -0.11022561453E+03 -0.83545966293E+01  0.67973285504E+03  0.68866264574E+03  0.50400001928E-02 0.  1.
</event>
<event>
 5   0  0.1109788E-02  0.7199844E+03  0.7818609E-02  0.9683654E-01
        2   -1    0    0  501    0  0.00000000000E+00  0.00000000000E+00  0.76773189555E+03  0.76773189555E+03  0.25500000920E-02 0. -1.
       -2   -1    0    0    0  501  0.00000000000E+00  0.00000000000E+00 -0.16880159731E+03  0.16880159733E+03  0.25500000920E-02 0.  1.
    10030    2    1    2    0    0  0.00000000000E+00  0.00000000000E+00  0.59893029823E+03  0.93653349289E+03  0.71998436174E+03 0.  0.
        1    1    3    3  502    0  0.11509074471E+03 -0.74931999889E+02  0.73231784677E+03  0.74508396362E+03  0.50400001928E-02 0. -1.
       -1    1    3    3    0  502 -0.11509074471E+03  0.74931999889E+02 -0.13338754853E+03  0.19144952926E+03  0.50400001928E-02 0.  1.
</event>
<event>
 5   0  0.4440500E-03  0.6996530E+03  0.7818609E-02  0.9717826E-01
       -3   -1    0    0    0  501  0.00000000000E+00  0.00000000000E+00  0.86498653316E+03  0.86498653905E+03  0.10100000352E+00 0.  1.
        3   -1    0    0  501    0  0.00000000000E+00  0.00000000000E+00 -0.14148029983E+03  0.14148033588E+03  0.10100000352E+00 0. -1.
    10030    2    1    2    0    0  0.00000000000E+00  0.00000000000E+00  0.72350623332E+03  0.10064668749E+04  0.69965298590E+03 0.  0.
        1    1    3    3  502    0  0.33417892948E+03  0.97696265222E+02  0.41071486757E+03  0.53842995795E+03  0.50400001928E-02 0.  1.
       -1    1    3    3    0  502 -0.33417892948E+03 -0.97696265222E+02  0.31279136575E+03  0.46803691698E+03  0.50400001928E-02 0. -1.
</event>
<event>
 5   0  0.6689415E-03  0.6868530E+03  0.7818609E-02  0.9739983E-01
        1   -1    0    0  501    0  0.00000000000E+00  0.00000000000E+00  0.11450671276E+04  0.11450671276E+04  0.50400001928E-02 0.  1.
       -1   -1    0    0    0  501  0.00000000000E+00  0.00000000000E+00 -0.10299987567E+03  0.10299987580E+03  0.50400001928E-02 0. -1.
    10030    2    1    2    0    0  0.00000000000E+00  0.00000000000E+00  0.10420672520E+04  0.12480670034E+04  0.68685303193E+03 0.  0.
        1    1    3    3  502    0 -0.30698691031E+03 -0.14529990042E+03  0.42858106557E+03  0.54684070254E+03  0.50400001928E-02 0. -1.
       -1    1    3    3    0  502  0.30698691031E+03  0.14529990042E+03  0.61348618639E+03  0.70122630090E+03  0.50400001928E-02 0.  1.
</event>
<event>
 5   0  0.1099980E-02  0.6976821E+03  0.7818609E-02  0.9721204E-01
       -2   -1    0    0    0  501  0.00000000000E+00  0.00000000000E+00  0.13827353172E+03  0.13827353174E+03  0.25500000920E-02 0.  1.
        2   -1    0    0  501    0  0.00000000000E+00  0.00000000000E+00 -0.88006773689E+03  0.88006773690E+03  0.25500000920E-02 0. -1.
    10030    2    1    2    0    0  0.00000000000E+00  0.00000000000E+00 -0.74179420518E+03  0.10183412686E+04  0.69768208847E+03 0.  0.
        5    1    3    3  502    0 -0.62460926686E+02  0.29763530967E+03 -0.62022864165E+03  0.69079215604E+03  0.46999998093E+01 0. -1.
       -5    1    3    3    0  502  0.62460926686E+02 -0.29763530967E+03 -0.12156556353E+03  0.32754911259E+03  0.46999998093E+01 0.  1.
</event>
<event>
 5   0  0.1079446E-02  0.6995879E+03  0.7818609E-02  0.9717937E-01
        2   -1    0    0  501    0  0.00000000000E+00  0.00000000000E+00  0.81857392133E+03  0.81857392134E+03  0.25500000920E-02 0.  1.
       -2   -1    0    0    0  501  0.00000000000E+00  0.00000000000E+00 -0.14947435284E+03  0.14947435287E+03  0.25500000920E-02 0. -1.
    10030    2    1    2    0    0  0.00000000000E+00  0.00000000000E+00  0.66909956849E+03  0.96804827420E+03  0.69958789915E+03 0.  0.
        2    1    3    3  502    0 -0.18666557310E+03  0.27894060294E+03  0.47085991320E+03  0.57823952996E+03  0.25500000920E-02 0.  1.
       -2    1    3    3    0  502  0.18666557310E+03 -0.27894060294E+03  0.19823965529E+03  0.38980874424E+03  0.25500000920E-02 0. -1.
</event>
<event>
 5   0  0.6990118E-03  0.6993170E+03  0.7818609E-02  0.9718401E-01
       -1   -1    0    0    0  501  0.00000000000E+00  0.00000000000E+00  0.22219528350E+03  0.22219528356E+03  0.50400001928E-02 0. -1.
        1   -1    0    0  501    0  0.00000000000E+00  0.00000000000E+00 -0.55024156731E+03  0.55024156733E+03  0.50400001928E-02 0.  1.
    10030    2    1    2    0    0  0.00000000000E+00  0.00000000000E+00 -0.32804628381E+03  0.77243685088E+03  0.69931704132E+03 0.  0.
        5    1    3    3  502    0  0.17413242666E+03  0.18542321686E+03  0.10092164803E+03  0.27369899599E+03  0.46999998093E+01 0. -1.
       -5    1    3    3    0  502 -0.17413242666E+03 -0.18542321686E+03 -0.42896793184E+03  0.49873785490E+03  0.46999998093E+01 0.  1.
</event>
<event>
 5   0  0.1109788E-02  0.7018645E+03  0.7818609E-02  0.9714049E-01
        2   -1    0    0  501    0  0.00000000000E+00  0.00000000000E+00  0.24564617666E+03  0.24564617668E+03  0.25500000920E-02 0.  1.
       -2   -1    0    0    0  501  0.00000000000E+00  0.00000000000E+00 -0.50134480011E+03  0.50134480012E+03  0.25500000920E-02 0. -1.
    10030    2    1    2    0    0  0.00000000000E+00  0.00000000000E+00 -0.25569862345E+03  0.74699097680E+03  0.70186446938E+03 0.  0.
        1    1    3    3  502    0  0.25433704521E+03  0.18496032940E+03 -0.29360547915E+03  0.43023462603E+03  0.50400001928E-02 0. -1.
       -1    1    3    3    0  502 -0.25433704521E+03 -0.18496032940E+03  0.37906855701E+02  0.31675635077E+03  0.50400001928E-02 0.  1.
</event>
<event>
 5   0  0.1100119E-02  0.6967538E+03  0.7818609E-02  0.9722800E-01
        2   -1    0    0  501    0  0.00000000000E+00  0.00000000000E+00  0.46008790050E+03  0.46008790051E+03  0.25500000920E-02 0. -1.
       -2   -1    0    0    0  501  0.00000000000E+00  0.00000000000E+00 -0.26378971180E+03  0.26378971181E+03  0.25500000920E-02 0.  1.
    10030    2    1    2    0    0  0.00000000000E+00  0.00000000000E+00  0.19629818870E+03  0.72387761232E+03  0.69675377195E+03 0.  0.
        4    1    3    3  502    0 -0.96888141548E+02  0.11649088228E+03  0.42406060904E+03  0.45031816604E+03  0.12699999809E+01 0. -1.
       -4    1    3    3    0  502  0.96888141548E+02 -0.11649088228E+03 -0.22776242034E+03  0.27355944628E+03  0.12699999809E+01 0.  1.
</event>
<event>
 5   0  0.1109788E-02  0.7012094E+03  0.7818609E-02  0.9715166E-01
       -2   -1    0    0    0  501  0.00000000000E+00  0.00000000000E+00  0.12192470703E+03  0.12192470706E+03  0.25500000920E-02 0.  1.
        2   -1    0    0  501    0  0.00000000000E+00  0.00000000000E+00 -0.10081932111E+04  0.10081932111E+04  0.25500000920E-02 0. -1.
    10030    2    1    2    0    0  0.00000000000E+00  0.00000000000E+00 -0.88626850402E+03  0.11301179181E+04  0.70120941780E+03 0.  0.
        1    1    3    3  502    0 -0.10133929395E+03 -0.30077285828E+03 -0.68321188875E+03  0.75333422180E+03  0.50400001928E-02 0. -1.
       -1    1    3    3    0  502  0.10133929395E+03  0.30077285828E+03 -0.20305661527E+03  0.37678369631E+03  0.50400001928E-02 0.  1.
</event>
<event>
 5   0  0.1079446E-02  0.6961688E+03  0.7818609E-02  0.9723807E-01
        2   -1    0    0  501    0  0.00000000000E+00  0.00000000000E+00  0.56034242731E+03  0.56034242732E+03  0.25500000920E-02 0. -1.
       -2   -1    0    0    0  501  0.00000000000E+00  0.00000000000E+00 -0.21622980878E+03  0.21622980880E+03  0.25500000920E-02 0.  1.
    10030    2    1    2    0    0  0.00000000000E+00  0.00000000000E+00  0.34411261853E+03  0.77657223611E+03  0.69616876091E+03 0.  0.
        2    1    3    3  502    0 -0.19644330553E+02  0.34587862016E+03  0.13431341236E+03  0.37156158622E+03  0.25500000920E-02 0. -1.
       -2    1    3    3    0  502  0.19644330553E+02 -0.34587862016E+03  0.20979920617E+03  0.40501064989E+03  0.25500000920E-02 0.  1.
</event>
<event>
 5   0  0.6609285E-03  0.6991255E+03  0.7818609E-02  0.9718729E-01
        1   -1    0    0  501    0  0.00000000000E+00  0.00000000000E+00  0.30371220019E+03  0.30371220024E+03  0.50400001928E-02 0. -1.
       -1   -1    0    0    0  501  0.00000000000E+00  0.00000000000E+00 -0.40233520924E+03  0.40233520927E+03  0.50400001928E-02 0.  1.
    10030    2    1    2    0    0  0.00000000000E+00  0.00000000000E+00 -0.98623009041E+02  0.70604740950E+03  0.69912548699E+03 0.  0.
        2    1    3    3  502    0  0.11694314973E+03  0.24757320672E+02  0.28243052139E+03  0.30668489467E+03  0.25500000920E-02 0. -1.
       -2    1    3    3    0  502 -0.11694314973E+03 -0.24757320672E+02 -0.38105353043E+03  0.39936251484E+03  0.25500000920E-02 0.  1.
</event>
<event>
 5   0  0.6609285E-03  0.6941696E+03  0.7818609E-02  0.9727255E-01
        1   -1    0    0  501    0  0.00000000000E+00  0.00000000000E+00  0.75680039139E+03  0.75680039140E+03  0.50400001928E-02 0. -1.
       -1   -1    0    0    0  501  0.00000000000E+00  0.00000000000E+00 -0.15918051004E+03  0.15918051012E+03  0.50400001928E-02 0.  1.
    10030    2    1    2    0    0  0.00000000000E+00  0.00000000000E+00  0.59761988135E+03  0.91598090152E+03  0.69416964020E+03 0.  0.
        2    1    3    3  502    0 -0.22378973753E+03 -0.19330053674E+03  0.59028568385E+02  0.30154819851E+03  0.25500000920E-02 0.  1.
       -2    1    3    3    0  502  0.22378973753E+03  0.19330053674E+03  0.53859131296E+03  0.61443270302E+03  0.25500000920E-02 0. -1.
</event>
<event>
 5   0  0.1109788E-02  0.6981152E+03  0.7818609E-02  0.9720461E-01
        2   -1    0    0  501    0  0.00000000000E+00  0.00000000000E+00  0.69354633676E+03  0.69354633677E+03  0.25500000920E-02 0.  1.
       -2   -1    0    0    0  501  0.00000000000E+00  0.00000000000E+00 -0.17567854718E+03  0.17567854720E+03  0.25500000920E-02 0. -1.
    10030    2    1    2    0    0  0.00000000000E+00  0.00000000000E+00  0.51786778958E+03  0.86922488396E+03  0.69811521357E+03 0.  0.
        1    1    3    3  502    0  0.10238575538E+03 -0.19194307450E+03  0.59881770181E+03  0.63710880294E+03  0.50400001928E-02 0.  1.
       -1    1    3    3    0  502 -0.10238575538E+03  0.19194307450E+03 -0.80949912228E+02  0.23211608102E+03  0.50400001928E-02 0. -1.
</event>
<event>
 5   0  0.6689415E-03  0.6986322E+03  0.7818609E-02  0.9719574E-01
        1   -1    0    0  501    0  0.00000000000E+00  0.00000000000E+00  0.98181823878E+03  0.98181823879E+03  0.50400001928E-02 0.  1.
       -1   -1    0    0    0  501  0.00000000000E+00  0.00000000000E+00 -0.12428138712E+03  0.12428138722E+03  0.50400001928E-02 0. -1.
    10030    2    1    2    0    0  0.00000000000E+00  0.00000000000E+00  0.85753685166E+03  0.11060996260E+04  0.69863218556E+03 0.  0.
        1    1    3    3  502    0 -0.24396158320E+03 -0.24115458525E+03  0.53317734332E+03  0.63399595229E+03  0.50400001928E-02 0.  1.
       -1    1    3    3    0  502  0.24396158320E+03  0.24115458525E+03  0.32435950834E+03  0.47210367372E+03  0.50400001928E-02 0. -1.
</event>
<event>
 5   0  0.6990118E-03  0.7007696E+03  0.7818609E-02  0.9715917E-01
        1   -1    0    0  501    0  0.00000000000E+00  0.00000000000E+00  0.77183738188E+03  0.77183738190E+03  0.50400001928E-02 0.  1.
       -1   -1    0    0    0  501  0.00000000000E+00  0.00000000000E+00 -0.15906135410E+03  0.15906135418E+03  0.50400001928E-02 0. -1.
    10030    2    1    2    0    0  0.00000000000E+00  0.00000000000E+00  0.61277602778E+03  0.93089873608E+03  0.70076957455E+03 0.  0.
        5    1    3    3  502    0  0.10964462496E+03 -0.20146046492E+03  0.65819741548E+03  0.69703241707E+03  0.46999998093E+01 0.  1.
       -5    1    3    3    0  502 -0.10964462496E+03  0.20146046492E+03 -0.45421387704E+02  0.23386631901E+03  0.46999998093E+01 0. -1.
</event>
<event>
 5   0  0.1109788E-02  0.7230389E+03  0.7818609E-02  0.9678624E-01
        2   -1    0    0  501    0  0.00000000000E+00  0.00000000000E+00  0.27732502067E+03  0.27732502069E+03  0.25500000920E-02 0.  1.
       -2   -1    0    0    0  501  0.00000000000E+00  0.00000000000E+00 -0.47127489637E+03  0.47127489638E+03  0.25500000920E-02 0. -1.
    10030    2    1    2    0    0  0.00000000000E+00  0.00000000000E+00 -0.19394987570E+03  0.74859991707E+03  0.72303892118E+03 0.  0.
        1    1    3    3  502    0 -0.34776733061E+03  0.85330141265E+02 -0.45487933973E+02  0.36096052611E+03  0.50400001928E-02 0.  1.
       -1    1    3    3    0  502  0.34776733061E+03 -0.85330141265E+02 -0.14846194172E+03  0.38763939095E+03  0.50400001928E-02 0. -1.
</event>
<event>
 5   0  0.6246998E-03  0.6998848E+03  0.7818609E-02  0.9717429E-01
        1   -1    0    0  501    0  0.00000000000E+00  0.00000000000E+00  0.81984023682E+03  0.81984023683E+03  0.50400001928E-02 0. -1.
       -1   -1    0    0    0  501  0.00000000000E+00  0.00000000000E+00 -0.14937018975E+03  0.14937018984E+03  0.50400001928E-02 0.  1.
    10030    2    1    2    0    0  0.00000000000E+00  0.00000000000E+00  0.67047004707E+03  0.96921042667E+03  0.69988482420E+03 0.  0.
        4    1    3    3  502    0 -0.27999631843E+03  0.19141845375E+03  0.21595503598E+03  0.40209097631E+03  0.12699999809E+01 0.  1.
       -4    1    3    3    0  502  0.27999631843E+03 -0.19141845375E+03  0.45451501109E+03  0.56711945036E+03  0.12699999809E+01 0. -1.
</event>
<event>
 5   0  0.1079446E-02  0.6988101E+03  0.7818609E-02  0.9719269E-01
       -2   -1    0    0    0  501  0.00000000000E+00  0.00000000000E+00  0.83362302000E+02  0.83362302039E+02  0.25500000920E-02 0. -1.
        2   -1    0    0  501    0  0.00000000000E+00  0.00000000000E+00 -0.14644973692E+04  0.14644973692E+04  0.25500000920E-02 0.  1.
    10030    2    1    2    0    0  0.00000000000E+00  0.00000000000E+00 -0.13811350672E+04  0.15478596712E+04  0.69881005144E+03 0.  0.
        2    1    3    3  502    0  0.24776984974E+03 -0.24597633802E+03 -0.72106813678E+03  0.80114512742E+03  0.25500000920E-02 0.  1.
       -2    1    3    3    0  502 -0.24776984974E+03  0.24597633802E+03 -0.66006693041E+03  0.74671454380E+03  0.25500000920E-02 0. -1.
</event>
<event>
 5   0  0.6246998E-03  0.6990120E+03  0.7818609E-02  0.9718923E-01
       -1   -1    0    0    0  501  0.00000000000E+00  0.00000000000E+00  0.22177303570E+03  0.22177303575E+03  0.50400001928E-02 0. -1.
        1   -1    0    0  501    0  0.00000000000E+00  0.00000000000E+00 -0.55080829476E+03  0.55080829479E+03  0.50400001928E-02 0.  1.
    10030    2    1    2    0    0  0.00000000000E+00  0.00000000000E+00 -0.32903525907E+03  0.77258133054E+03  0.69901195311E+03 0.  0.
        4    1    3    3  502    0  0.11104404458E+03 -0.31408169692E+03 -0.28135397978E+03  0.43605018864E+03  0.12699999809E+01 0.  1.
       -4    1    3    3    0  502 -0.11104404458E+03  0.31408169692E+03 -0.47681279290E+02  0.33653114190E+03  0.12699999809E+01 0. -1.
</event>
<event>
 5   0  0.6689415E-03  0.7006110E+03  0.7818609E-02  0.9716188E-01
       -1   -1    0    0    0  501  0.00000000000E+00  0.00000000000E+00  0.44414185473E+03  0.44414185476E+03  0.50400001928E-02 0.  1.
        1   -1    0    0  501    0  0.00000000000E+00  0.00000000000E+00 -0.27629444196E+03  0.27629444200E+03  0.50400001928E-02 0. -1.
    10030    2    1    2    0    0  0.00000000000E+00  0.00000000000E+00  0.16784741277E+03  0.72043629676E+03  0.70061095032E+03 0.  0.
        1    1    3    3  502    0  0.29080790916E+03  0.66397720383E+01 -0.11679348334E+03  0.31345501173E+03  0.50400001928E-02 0. -1.
       -1    1    3    3    0  502 -0.29080790916E+03 -0.66397720383E+01  0.28464089611E+03  0.40698128503E+03  0.50400001928E-02 0.  1.
</event>
<event>
 5   0  0.1099980E-02  0.7001936E+03  0.7818609E-02  0.9716901E-01
        2   -1    0    0  501    0  0.00000000000E+00  0.00000000000E+00  0.18404000602E+04  0.18404000602E+04  0.25500000920E-02 0.  1.
       -2   -1    0    0    0  501  0.00000000000E+00  0.00000000000E+00 -0.66598430160E+02  0.66598430209E+02  0.25500000920E-02 0. -1.
    10030    2    1    2    0    0  0.00000000000E+00  0.00000000000E+00  0.17738016301E+04  0.19069984904E+04  0.70019355874E+03 0.  0.
        5    1    3    3  502    0  0.20606812487E+03 -0.28239635904E+03  0.83713473315E+03  0.90720914190E+03  0.46999998093E+01 0. -1.
       -5    1    3    3    0  502 -0.20606812487E+03  0.28239635904E+03  0.93666689691E+03  0.99978934854E+03  0.46999998093E+01 0.  1.
</event>
<event>
 5   0  0.6785252E-03  0.7037081E+03  0.7818609E-02  0.9710912E-01
       -1   -1    0    0    0  501  0.00000000000E+00  0.00000000000E+00  0.38995469417E+02  0.38995469743E+02  0.50400001928E-02 0.  1.
        1   -1    0    0  501    0  0.00000000000E+00  0.00000000000E+00 -0.31747605129E+04  0.31747605129E+04  0.50400001928E-02 0. -1.
    10030    2    1    2    0    0  0.00000000000E+00  0.00000000000E+00 -0.31357650434E+04  0.32137559826E+04  0.70370811283E+03 0.  0.
        3    1    3    3  502    0 -0.34704907504E+03  0.41536708609E+02 -0.13833379730E+04  0.14268119415E+04  0.10100000352E+00 0. -1.
       -3    1    3    3    0  502  0.34704907504E+03 -0.41536708609E+02 -0.17524270704E+04  0.17869440411E+04  0.10100000352E+00 0.  1.
</event>
<event>
 5   0  0.4440500E-03  0.6962420E+03  0.7818609E-02  0.9723681E-01
        3   -1    0    0  501    0  0.00000000000E+00  0.00000000000E+00  0.26069126741E+03  0.26069128697E+03  0.10100000352E+00 0.  1.
       -3   -1    0    0    0  501  0.00000000000E+00  0.00000000000E+00 -0.46487252875E+03  0.46487253972E+03  0.10100000352E+00 0. -1.
    10030    2    1    2    0    0  0.00000000000E+00  0.00000000000E+00 -0.20418126134E+03  0.72556382669E+03  0.69624196880E+03 0.  0.
        3    1    3    3  502    0 -0.33027512587E+02 -0.65430406532E+02  0.25255954774E+03  0.26297963807E+03  0.10100000352E+00 0.  1.
       -3    1    3    3    0  502  0.33027512587E+02  0.65430406532E+02 -0.45674080908E+03  0.46258418862E+03  0.10100000352E+00 0. -1.
</event>
<event>
 5   0  0.6785252E-03  0.7026773E+03  0.7818609E-02  0.9712665E-01
        1   -1    0    0  501    0  0.00000000000E+00  0.00000000000E+00  0.10776298744E+04  0.10776298744E+04  0.50400001928E-02 0.  1.
       -1   -1    0    0    0  501  0.00000000000E+00  0.00000000000E+00 -0.11454661898E+03  0.11454661909E+03  0.50400001928E-02 0. -1.
    10030    2    1    2    0    0  0.00000000000E+00  0.00000000000E+00  0.96308325541E+03  0.11921764935E+04  0.70267733333E+03 0.  0.
        3    1    3    3  502    0  0.32927092104E+02  0.28014054729E+03  0.83692554638E+03  0.88318021944E+03  0.10100000352E+00 0.  1.
       -3    1    3    3    0  502 -0.32927092104E+02 -0.28014054729E+03  0.12615770903E+03  0.30899627405E+03  0.10100000352E+00 0. -1.
</event>
<event>
 5   0  0.1079446E-02  0.6988608E+03  0.7818609E-02  0.9719182E-01
       -2   -1    0    0    0  501  0.00000000000E+00  0.00000000000E+00  0.28801063049E+03  0.28801063050E+03  0.25500000920E-02 0.  1.
        2   -1    0    0  501    0  0.00000000000E+00  0.00000000000E+00 -0.42394826595E+03  0.42394826595E+03  0.25500000920E-02 0. -1.
    10030    2    1    2    0    0  0.00000000000E+00  0.00000000000E+00 -0.13593763546E+03  0.71195889645E+03  0.69886080839E+03 0.  0.
        2    1    3    3  502    0 -0.23744383012E+03 -0.22487977662E+03 -0.19336566508E+03  0.37992205363E+03  0.25500000920E-02 0. -1.
       -2    1    3    3    0  502  0.23744383012E+03  0.22487977662E+03  0.57428029624E+02  0.33203684282E+03  0.25500000920E-02 0.  1.
</event>
<event>
 5   0  0.1100119E-02  0.7051110E+03  0.7818609E-02  0.9708531E-01
        2   -1    0    0  501    0  0.00000000000E+00  0.00000000000E+00  0.76384608276E+03  0.76384608277E+03  0.25500000920E-02 0. -1.
       -2   -1    0    0    0  501  0.00000000000E+00  0.00000000000E+00 -0.16272307033E+03  0.16272307035E+03  0.25500000920E-02 0.  1.
    10030    2    1    2    0    0  0.00000000000E+00  0.00000000000E+00  0.60112301243E+03  0.92656915312E+03  0.70511099795E+03 0.  0.
        4    1    3    3  502    0  0.24034480567E+02  0.23494034298E+03 -0.43413050539E+02  0.24012689744E+03  0.12699999809E+01 0.  1.
       -4    1    3    3    0  502 -0.24034480567E+02 -0.23494034298E+03  0.64453606297E+03  0.68644225568E+03  0.12699999809E+01 0. -1.
</event>
<event>
 5   0  0.6785252E-03  0.7037969E+03  0.7818609E-02  0.9710761E-01
       -1   -1    0    0    0  501  0.00000000000E+00  0.00000000000E+00  0.27004378994E+03  0.27004378999E+03  0.50400001928E-02 0. -1.
        1   -1    0    0  501    0  0.00000000000E+00  0.00000000000E+00 -0.45856454785E+03  0.45856454788E+03  0.50400001928E-02 0.  1.
    10030    2    1    2    0    0  0.00000000000E+00  0.00000000000E+00 -0.18852075791E+03  0.72860833787E+03  0.70379686974E+03 0.  0.
        3    1    3    3  502    0 -0.12784677181E+03 -0.16277887617E+03 -0.38888191259E+03  0.44053480195E+03  0.10100000352E+00 0.  1.
       -3    1    3    3    0  502  0.12784677181E+03  0.16277887617E+03  0.20036115468E+03  0.28807353592E+03  0.10100000352E+00 0. -1.
</event>
<event>
 5   0  0.1079446E-02  0.7014034E+03  0.7818609E-02  0.9714835E-01
       -2   -1    0    0    0  501  0.00000000000E+00  0.00000000000E+00  0.22658254584E+03  0.22658254586E+03  0.25500000920E-02 0. -1.
        2   -1    0    0  501    0  0.00000000000E+00  0.00000000000E+00 -0.54281183272E+03  0.54281183273E+03  0.25500000920E-02 0.  1.
    10030    2    1    2    0    0  0.00000000000E+00  0.00000000000E+00 -0.31622928688E+03  0.76939437859E+03  0.70140341311E+03 0.  0.
        2    1    3    3  502    0 -0.23497992087E+03  0.25538789027E+03 -0.10268791600E+03  0.36191621379E+03  0.25500000920E-02 0. -1.
       -2    1    3    3    0  502  0.23497992087E+03 -0.25538789027E+03 -0.21354137088E+03  0.40747816480E+03  0.25500000920E-02 0.  1.
</event>
<event>
 5   0  0.1100119E-02  0.7032521E+03  0.7818609E-02  0.9711687E-01
       -2   -1    0    0    0  501  0.00000000000E+00  0.00000000000E+00  0.35014584998E+03  0.35014584999E+03  0.25500000920E-02 0.  1.
        2   -1    0    0  501    0  0.00000000000E+00  0.00000000000E+00 -0.35311245743E+03  0.35311245744E+03  0.25500000920E-02 0. -1.
    10030    2    1    2    0    0  0.00000000000E+00  0.00000000000E+00 -0.29666074529E+01  0.70325830742E+03  0.70325205026E+03 0.  0.
        4    1    3    3  502    0 -0.33329559541E+03  0.86067724044E+02  0.70250462211E+02  0.35132655377E+03  0.12699999809E+01 0.  1.
       -4    1    3    3    0  502  0.33329559541E+03 -0.86067724044E+02 -0.73217069664E+02  0.35193175366E+03  0.12699999809E+01 0. -1.
</event>
<event>
 5   0  0.1119786E-02  0.6924861E+03  0.7818609E-02  0.9730169E-01
       -2   -1    0    0    0  501  0.00000000000E+00  0.00000000000E+00  0.83289313065E+02  0.83289313104E+02  0.25500000920E-02 0. -1.
        2   -1    0    0  501    0  0.00000000000E+00  0.00000000000E+00 -0.14393713822E+04  0.14393713822E+04  0.25500000920E-02 0.  1.
    10030    2    1    2    0    0  0.00000000000E+00  0.00000000000E+00 -0.13560820691E+04  0.15226606953E+04  0.69248611163E+03 0.  0.
        3    1    3    3  502    0  0.22237638926E+03 -0.18354812367E+03 -0.25655829192E+03  0.38595769141E+03  0.10100000352E+00 0. -1.
       -3    1    3    3    0  502 -0.22237638926E+03  0.18354812367E+03 -0.10995237772E+04  0.11367030039E+04  0.10100000352E+00 0.  1.
</event>
<event>
 5   0  0.6785252E-03  0.6997688E+03  0.7818609E-02  0.9717628E-01
       -1   -1    0    0    0  501  0.00000000000E+00  0.00000000000E+00  0.23029759249E+03  0.23029759255E+03  0.50400001928E-02 0.  1.
        1   -1    0    0  501    0  0.00000000000E+00  0.00000000000E+00 -0.53156906908E+03  0.53156906910E+03  0.50400001928E-02 0. -1.
    10030    2    1    2    0    0  0.00000000000E+00  0.00000000000E+00 -0.30127147659E+03  0.76186666165E+03  0.69976875289E+03 0.  0.
        3    1    3    3  502    0 -0.29985644750E+03 -0.15519514189E+02 -0.34619829091E+03  0.45826631041E+03  0.10100000352E+00 0. -1.
       -3    1    3    3    0  502  0.29985644750E+03  0.15519514189E+02  0.44926814319E+02  0.30360035124E+03  0.10100000352E+00 0.  1.
</event>
<event>
 5   0  0.1079446E-02  0.6995059E+03  0.7818609E-02  0.9718078E-01
       -2   -1    0    0    0  501  0.00000000000E+00  0.00000000000E+00  0.80878235434E+02  0.80878235474E+02  0.25500000920E-02 0.  1.
        2   -1    0    0  501    0  0.00000000000E+00  0.00000000000E+00 -0.15124849862E+04  0.15124849862E+04  0.25500000920E-02 0. -1.
    10030    2    1    2    0    0  0.00000000000E+00  0.00000000000E+00 -0.14316067508E+04  0.15933632217E+04  0.69950587372E+03 0.  0.
        2    1    3    3  502    0 -0.29586815740E+03  0.16914295580E+03 -0.89486850093E+03  0.95756824301E+03  0.25500000920E-02 0.  1.
       -2    1    3    3    0  502  0.29586815740E+03 -0.16914295580E+03 -0.53673824988E+03  0.63579497871E+03  0.25500000920E-02 0. -1.
</event>
<event>
 5   0  0.6990118E-03  0.7017574E+03  0.7818609E-02  0.9714231E-01
       -1   -1    0    0    0  501  0.00000000000E+00  0.00000000000E+00  0.20515409920E+03  0.20515409926E+03  0.50400001928E-02 0.  1.
        1   -1    0    0  501    0  0.00000000000E+00  0.00000000000E+00 -0.60011413973E+03  0.60011413975E+03  0.50400001928E-02 0. -1.
    10030    2    1    2    0    0  0.00000000000E+00  0.00000000000E+00 -0.39496004053E+03  0.80526823902E+03  0.70175743897E+03 0.  0.
        5    1    3    3  502    0 -0.31033450080E+03  0.10577091809E+03 -0.34079747556E+03  0.47292705447E+03  0.46999998093E+01 0. -1.
       -5    1    3    3    0  502  0.31033450080E+03 -0.10577091809E+03 -0.54162564976E+02  0.33234118455E+03  0.46999998093E+01 0.  1.
</event>
<event>
 5   0  0.6609285E-03  0.6970368E+03  0.7818609E-02  0.9722313E-01
        1   -1    0    0  501    0  0.00000000000E+00  0.00000000000E+00  0.27221529234E+03  0.27221529239E+03  0.50400001928E-02 0. -1.
       -1   -1    0    0    0  501  0.00000000000E+00  0.00000000000E+00 -0.44620957941E+03  0.44620957944E+03  0.50400001928E-02 0.  1.
    10030    2    1    2    0    0  0.00000000000E+00  0.00000000000E+00 -0.17399428707E+03  0.71842487183E+03  0.69703678850E+03 0.  0.
        2    1    3    3  502    0 -0.29890281952E+03 -0.15863896286E+03 -0.17295803712E+03  0.38003118118E+03  0.25500000920E-02 0. -1.
       -2    1    3    3    0  502  0.29890281952E+03  0.15863896286E+03 -0.10362499501E+01  0.33839369065E+03  0.25500000920E-02 0.  1.
</event>
<event>
 5   0  0.1079446E-02  0.7005611E+03  0.7818609E-02  0.9716273E-01
       -2   -1    0    0    0  501  0.00000000000E+00  0.00000000000E+00  0.32912021719E+03  0.32912021720E+03  0.25500000920E-02 0. -1.
        2   -1    0    0  501    0  0.00000000000E+00  0.00000000000E+00 -0.37280135228E+03  0.37280135229E+03  0.25500000920E-02 0.  1.
    10030    2    1    2    0    0  0.00000000000E+00  0.00000000000E+00 -0.43681135090E+02  0.70192156949E+03  0.70056109523E+03 0.  0.
        2    1    3    3  502    0  0.26886923972E+03  0.13375492359E+03 -0.20251105614E+03  0.36220405232E+03  0.25500000920E-02 0.  1.
       -2    1    3    3    0  502 -0.26886923972E+03 -0.13375492359E+03  0.15882992105E+03  0.33971751718E+03  0.25500000920E-02 0. -1.
</event>
<event>
 5   0  0.6785252E-03  0.7000869E+03  0.7818609E-02  0.9717084E-01
       -1   -1    0    0    0  501  0.00000000000E+00  0.00000000000E+00  0.30535086981E+03  0.30535086985E+03  0.50400001928E-02 0. -1.
        1   -1    0    0  501    0  0.00000000000E+00  0.00000000000E+00 -0.40127744147E+03  0.40127744150E+03  0.50400001928E-02 0.  1.
    10030    2    1    2    0    0  0.00000000000E+00  0.00000000000E+00 -0.95926571655E+02  0.70662831135E+03  0.70008689693E+03 0.  0.
        3    1    3    3  502    0  0.15576188304E+02 -0.99304550769E+02 -0.38639669223E+03  0.39925734234E+03  0.10100000352E+00 0.  1.
       -3    1    3    3    0  502 -0.15576188304E+02  0.99304550769E+02  0.29047012057E+03  0.30737096901E+03  0.10100000352E+00 0. -1.
</event>
<event>
 5   0  0.6785252E-03  0.6986691E+03  0.7818609E-02  0.9719511E-01
        1   -1    0    0  501    0  0.00000000000E+00  0.00000000000E+00  0.14062771049E+04  0.14062771049E+04  0.50400001928E-02 0.  1.
       -1   -1    0    0    0  501  0.00000000000E+00  0.00000000000E+00 -0.86778497517E+02  0.86778497664E+02  0.50400001928E-02 0. -1.
    10030    2    1    2    0    0  0.00000000000E+00  0.00000000000E+00  0.13194986074E+04  0.14930556026E+04  0.69866906150E+03 0.  0.
        3    1    3    3  502    0  0.22426926867E+03 -0.13335597793E+03  0.16336661749E+03  0.30784603884E+03  0.10100000352E+00 0. -1.
       -3    1    3    3    0  502 -0.22426926867E+03  0.13335597793E+03  0.11561319899E+04  0.11852095638E+04  0.10100000352E+00 0.  1.
</event>
<event>
 5   0  0.6785252E-03  0.6936243E+03  0.7818609E-02  0.9728198E-01
       -1   -1    0    0    0  501  0.00000000000E+00  0.00000000000E+00  0.31941088641E+03  0.31941088644E+03  0.50400001928E-02 0.  1.
        1   -1    0    0  501    0  0.00000000000E+00  0.00000000000E+00 -0.37656402871E+03  0.37656402874E+03  0.50400001928E-02 0. -1.
    10030    2    1    2    0    0  0.00000000000E+00  0.00000000000E+00 -0.57153142303E+02  0.69597491519E+03  0.69362425051E+03 0.  0.
        3    1    3    3  502    0 -0.16259523037E+03 -0.77720360551E+02  0.26873991509E+03  0.32357196348E+03  0.10100000352E+00 0.  1.
       -3    1    3    3    0  502  0.16259523037E+03  0.77720360551E+02 -0.32589305740E+03  0.37240295171E+03  0.10100000352E+00 0. -1.
</event>
<event>
 5   0  0.4440500E-03  0.6979285E+03  0.7818609E-02  0.9720781E-01
       -4   -1    0    0    0  501  0.00000000000E+00  0.00000000000E+00  0.37619212551E+03  0.37619426922E+03  0.12699999809E+01 0. -1.
        4   -1    0    0  501    0  0.00000000000E+00  0.00000000000E+00 -0.32370276770E+03  0.32370525902E+03  0.12699999809E+01 0.  1.
    10030    2    1    2    0    0  0.00000000000E+00  0.00000000000E+00  0.52489357811E+02  0.69989952824E+03  0.69792851851E+03 0.  0.
        5    1    3    3  502    0  0.33978082417E+03  0.78778185433E+02  0.16370386760E+02  0.34920923604E+03  0.46999998093E+01 0. -1.
       -5    1    3    3    0  502 -0.33978082417E+03 -0.78778185433E+02  0.36118971051E+02  0.35069029220E+03  0.46999998093E+01 0.  1.
</event>
<event>
 5   0  0.1099980E-02  0.6928755E+03  0.7818609E-02  0.9729494E-01
        2   -1    0    0  501    0  0.00000000000E+00  0.00000000000E+00  0.77036934200E+03  0.77036934201E+03  0.25500000920E-02 0.  1.
       -2   -1    0    0    0  501  0.00000000000E+00  0.00000000000E+00 -0.15579423093E+03  0.15579423096E+03  0.25500000920E-02 0. -1.
    10030    2    1    2    0    0  0.00000000000E+00  0.00000000000E+00  0.61457511107E+03  0.92616357296E+03  0.69287545543E+03 0.  0.
        5    1    3    3  502    0  0.14282872785E+03 -0.64587924766E+02 -0.10563102954E+03  0.18908106707E+03  0.46999998093E+01 0. -1.
       -5    1    3    3    0  502 -0.14282872785E+03  0.64587924766E+02  0.72020614060E+03  0.73708250589E+03  0.46999998093E+01 0.  1.
</event>
<event>
 5   0  0.6246998E-03  0.6993301E+03  0.7818609E-02  0.9718378E-01
        1   -1    0    0  501    0  0.00000000000E+00  0.00000000000E+00  0.87875800063E+03  0.87875800065E+03  0.50400001928E-02 0.  1.
       -1   -1    0    0    0  501  0.00000000000E+00  0.00000000000E+00 -0.13913461765E+03  0.13913461774E+03  0.50400001928E-02 0. -1.
    10030    2    1    2    0    0  0.00000000000E+00  0.00000000000E+00  0.73962338299E+03  0.10178926184E+04  0.69933013227E+03 0.  0.
        4    1    3    3  502    0 -0.32589838940E+03 -0.79985256207E+02  0.22677981458E+03  0.40501617082E+03  0.12699999809E+01 0. -1.
       -4    1    3    3    0  502  0.32589838940E+03  0.79985256207E+02  0.51284356841E+03  0.61287644757E+03  0.12699999809E+01 0.  1.
</event>
<event>
 5   0  0.6785252E-03  0.6991109E+03  0.7818609E-02  0.9718754E-01
       -1   -1    0    0    0  501  0.00000000000E+00  0.00000000000E+00  0.91351541925E+02  0.91351542064E+02  0.50400001928E-02 0.  1.
        1   -1    0    0  501    0  0.00000000000E+00  0.00000000000E+00 -0.13375693883E+04  0.13375693884E+04  0.50400001928E-02 0. -1.
    10030    2    1    2    0    0  0.00000000000E+00  0.00000000000E+00 -0.12462178464E+04  0.14289209304E+04  0.69911093873E+03 0.  0.
        3    1    3    3  502    0 -0.32275492146E+03  0.74650082614E+02 -0.39509007431E+03  0.51559630641E+03  0.10100000352E+00 0.  1.
       -3    1    3    3    0  502  0.32275492146E+03 -0.74650082614E+02 -0.85112777211E+03  0.91332462401E+03  0.10100000352E+00 0. -1.
</event>
<event>
 5   0  0.4440500E-03  0.7438001E+03  0.7818609E-02  0.9645128E-01
        3   -1    0    0  501    0  0.00000000000E+00  0.00000000000E+00  0.18043906263E+03  0.18043909090E+03  0.10100000352E+00 0.  1.
       -3   -1    0    0    0  501  0.00000000000E+00  0.00000000000E+00 -0.76651704866E+03  0.76651705531E+03  0.10100000352E+00 0. -1.
    10030    2    1    2    0    0  0.00000000000E+00  0.00000000000E+00 -0.58607798603E+03  0.94695614621E+03  0.74380006530E+03 0.  0.
        5    1    3    3  502    0  0.36325430462E+03 -0.48089616895E+02 -0.21230548471E+03  0.42351152276E+03  0.46999998093E+01 0.  1.
       -5    1    3    3    0  502 -0.36325430462E+03  0.48089616895E+02 -0.37377250132E+03  0.52344462345E+03  0.46999998093E+01 0. -1.
</event>
<event>
 5   0  0.1079446E-02  0.7005745E+03  0.7818609E-02  0.9716250E-01
        2   -1    0    0  501    0  0.00000000000E+00  0.00000000000E+00  0.11544465722E+03  0.11544465725E+03  0.25500000920E-02 0.  1.
       -2   -1    0    0    0  501  0.00000000000E+00  0.00000000000E+00 -0.10628569941E+04  0.10628569941E+04  0.25500000920E-02 0. -1.
    10030    2    1    2    0    0  0.00000000000E+00  0.00000000000E+00 -0.94741233691E+03  0.11783016514E+04  0.70057451103E+03 0.  0.
        2    1    3    3  502    0 -0.17437077754E+03 -0.24663367447E+03 -0.17534966439E+03  0.34925755862E+03  0.25500000920E-02 0.  1.
       -2    1    3    3    0  502  0.17437077754E+03  0.24663367447E+03 -0.77206267251E+03  0.82904409276E+03  0.25500000920E-02 0. -1.
</event>
<event>
 5   0  0.4440500E-03  0.7004375E+03  0.7818609E-02  0.9716484E-01
       -4   -1    0    0    0  501  0.00000000000E+00  0.00000000000E+00  0.21174877957E+03  0.21175258806E+03  0.12699999809E+01 0.  1.
        4   -1    0    0  501    0  0.00000000000E+00  0.00000000000E+00 -0.57922932889E+03  0.57923072117E+03  0.12699999809E+01 0. -1.
    10030    2    1    2    0    0  0.00000000000E+00  0.00000000000E+00 -0.36748054933E+03  0.79098330923E+03  0.70043746427E+03 0.  0.
        4    1    3    3  502    0  0.10317892944E+03  0.27512693240E+03  0.31446721204E+02  0.29551857740E+03  0.12699999809E+01 0.  1.
       -4    1    3    3    0  502 -0.10317892944E+03 -0.27512693240E+03 -0.39892727053E+03  0.49546473183E+03  0.12699999809E+01 0. -1.
</event>
<event>
 5   0  0.1099980E-02  0.7031599E+03  0.7818609E-02  0.9711843E-01
        2   -1    0    0  501    0  0.00000000000E+00  0.00000000000E+00  0.82732439782E+03  0.82732439783E+03  0.25500000920E-02 0. -1.
       -2   -1    0    0    0  501  0.00000000000E+00  0.00000000000E+00 -0.14940750700E+03  0.14940750702E+03  0.25500000920E-02 0.  1.
    10030    2    1    2    0    0  0.00000000000E+00  0.00000000000E+00  0.67791689083E+03  0.97673190485E+03  0.70315994132E+03 0.  0.
        5    1    3    3  502    0 -0.31247381548E+03  0.81612949040E+02  0.14605482178E+03  0.35447801028E+03  0.46999998093E+01 0.  1.
       -5    1    3    3    0  502  0.31247381548E+03 -0.81612949040E+02  0.53186206904E+03  0.62225389456E+03  0.46999998093E+01 0. -1.
</event>
<event>
 5   0  0.6246998E-03  0.7011382E+03  0.7818609E-02  0.9715288E-01
       -1   -1    0    0    0  501  0.00000000000E+00  0.00000000000E+00  0.25371947041E+03  0.25371947046E+03  0.50400001928E-02 0.  1.
        1   -1    0    0  501    0  0.00000000000E+00  0.00000000000E+00 -0.48438811095E+03  0.48438811098E+03  0.50400001928E-02 0. -1.
    10030    2    1    2    0    0  0.00000000000E+00  0.00000000000E+00 -0.23066864054E+03  0.73810758144E+03  0.70113820325E+03 0.  0.
        4    1    3    3  502    0  0.18730166486E+03 -0.20724534294E+03 -0.33831520098E+03  0.43873834337E+03  0.12699999809E+01 0. -1.
       -4    1    3    3    0  502 -0.18730166486E+03  0.20724534294E+03  0.10764656044E+03  0.29936923807E+03  0.12699999809E+01 0.  1.
</event>
<event>
 5   0  0.1119786E-02  0.6984960E+03  0.7818609E-02  0.9719808E-01
        2   -1    0    0  501    0  0.00000000000E+00  0.00000000000E+00  0.38473900294E+03  0.38473900295E+03  0.25500000920E-02 0.  1.
       -2   -1    0    0    0  501  0.00000000000E+00  0.00000000000E+00 -0.31703092654E+03  0.31703092655E+03  0.25500000920E-02 0. -1.
    10030    2    1    2    0    0  0.00000000000E+00  0.00000000000E+00  0.67708076402E+02  0.70176992950E+03  0.69849599164E+03 0.  0.
        3    1    3    3  502    0 -0.11503693713E+03 -0.30280233254E+03  0.16504710812E+03  0.36354271771E+03  0.10100000352E+00 0.  1.
       -3    1    3    3    0  502  0.11503693713E+03  0.30280233254E+03 -0.97339031720E+02  0.33822721179E+03  0.10100000352E+00 0. -1.
</event>
<event>
 5   0  0.1099980E-02  0.6986422E+03  0.7818609E-02  0.9719557E-01
       -2   -1    0    0    0  501  0.00000000000E+00  0.00000000000E+00  0.89834338446E+02  0.89834338482E+02  0.25500000920E-02 0.  1.
        2   -1    0    0  501    0  0.00000000000E+00  0.00000000000E+00 -0.13583361510E+04  0.13583361510E+04  0.25500000920E-02 0. -1.
    10030    2    1    2    0    0  0.00000000000E+00  0.00000000000E+00 -0.12685018126E+04  0.14481704895E+04  0.69864219609E+03 0.  0.
        5    1    3    3  502    0 -0.29359712496E+03 -0.15502541567E+03 -0.40936028503E+03  0.52709589663E+03  0.46999998093E+01 0.  1.
       -5    1    3    3    0  502  0.29359712496E+03  0.15502541567E+03 -0.85914152754E+03  0.92107459287E+03  0.46999998093E+01 0. -1.
</event>
<event>
 5   0  0.6689415E-03  0.7055059E+03  0.7818609E-02  0.9707862E-01
        1   -1    0    0  501    0  0.00000000000E+00  0.00000000000E+00  0.94286403521E+03  0.94286403522E+03  0.50400001928E-02 0. -1.
       -1   -1    0    0    0  501  0.00000000000E+00  0.00000000000E+00 -0.13197517495E+03  0.13197517504E+03  0.50400001928E-02 0.  1.
    10030    2    1    2    0    0  0.00000000000E+00  0.00000000000E+00  0.81088886026E+03  0.10748392103E+04  0.70550590659E+03 0.  0.
        1    1    3    3  502    0 -0.20169447283E+03  0.94923932647E+02 -0.11069342736E+02  0.22318992749E+03  0.50400001928E-02 0.  1.
       -1    1    3    3    0  502  0.20169447283E+03 -0.94923932647E+02  0.82195820300E+03  0.85164928278E+03  0.50400001928E-02 0. -1.
</event>
<event>
 5   0  0.1079446E-02  0.6830596E+03  0.7818609E-02  0.9746649E-01
       -2   -1    0    0    0  501  0.00000000000E+00  0.00000000000E+00  0.65918429994E+03  0.65918429994E+03  0.25500000920E-02 0. -1.
        2   -1    0    0  501    0  0.00000000000E+00  0.00000000000E+00 -0.17694993819E+03  0.17694993821E+03  0.25500000920E-02 0.  1.
    10030    2    1    2    0    0  0.00000000000E+00  0.00000000000E+00  0.48223436175E+03  0.83613423815E+03  0.68305964934E+03 0.  0.
        2    1    3    3  502    0 -0.51092989099E+02  0.14833608587E+03  0.61246307518E+03  0.63223817219E+03  0.25500000920E-02 0. -1.
       -2    1    3    3    0  502  0.51092989099E+02 -0.14833608587E+03 -0.13022871343E+03  0.20389606596E+03  0.25500000920E-02 0.  1.
</event>
<event>
 5   0  0.1099980E-02  0.7057807E+03  0.7818609E-02  0.9707397E-01
        2   -1    0    0  501    0  0.00000000000E+00  0.00000000000E+00  0.46981889716E+03  0.46981889717E+03  0.25500000920E-02 0.  1.
       -2   -1    0    0    0  501  0.00000000000E+00  0.00000000000E+00 -0.26506294922E+03  0.26506294924E+03  0.25500000920E-02 0. -1.
    10030    2    1    2    0    0  0.00000000000E+00  0.00000000000E+00  0.20475594794E+03  0.73488184641E+03  0.70578065287E+03 0.  0.
        5    1    3    3  502    0  0.24983571722E+02  0.18290431179E+03  0.41549538720E+03  0.45468304665E+03  0.46999998093E+01 0.  1.
       -5    1    3    3    0  502 -0.24983571722E+02 -0.18290431179E+03 -0.21073943926E+03  0.28019879976E+03  0.46999998093E+01 0. -1.
</event>
<event>
 5   0  0.6609285E-03  0.6951207E+03  0.7818609E-02  0.9725613E-01
       -1   -1    0    0    0  501  0.00000000000E+00  0.00000000000E+00  0.82240781131E+02  0.82240781285E+02  0.50400001928E-02 0.  1.
        1   -1    0    0  501    0  0.00000000000E+00  0.00000000000E+00 -0.14688357694E+04  0.14688357695E+04  0.50400001928E-02 0. -1.
    10030    2    1    2    0    0  0.00000000000E+00  0.00000000000E+00 -0.13865949883E+04  0.15510765507E+04  0.69512071227E+03 0.  0.
        2    1    3    3  502    0 -0.15800616710E+03  0.11407981956E+03 -0.13354460284E+04  0.13495911414E+04  0.25500000920E-02 0. -1.
       -2    1    3    3    0  502  0.15800616710E+03 -0.11407981956E+03 -0.51148959870E+02  0.20148540933E+03  0.25500000920E-02 0.  1.
</event>
<event>
 5   0  0.1099980E-02  0.6974079E+03  0.7818609E-02  0.9721675E-01
       -2   -1    0    0    0  501  0.00000000000E+00  0.00000000000E+00  0.38332875261E+03  0.38332875262E+03  0.25500000920E-02 0. -1.
        2   -1    0    0  501    0  0.00000000000E+00  0.00000000000E+00 -0.31720671948E+03  0.31720671949E+03  0.25500000920E-02 0.  1.
    10030    2    1    2    0    0  0.00000000000E+00  0.00000000000E+00  0.66122033125E+02  0.70053547211E+03  0.69740793258E+03 0.  0.
        5    1    3    3  502    0 -0.77457458795E+02 -0.44975003390E+02  0.37154391844E+03  0.38221640752E+03  0.46999998093E+01 0. -1.
       -5    1    3    3    0  502  0.77457458795E+02  0.44975003390E+02 -0.30542188531E+03  0.31831906459E+03  0.46999998093E+01 0.  1.
</event>
<event>
 5   0  0.6246998E-03  0.6795085E+03  0.7818609E-02  0.9752932E-01
       -1   -1    0    0    0  501  0.00000000000E+00  0.00000000000E+00  0.66340028331E+02  0.66340028522E+02  0.50400001928E-02 0.  1.
        1   -1    0    0  501    0  0.00000000000E+00  0.00000000000E+00 -0.17400194223E+04  0.17400194223E+04  0.50400001928E-02 0. -1.
    10030    2    1    2    0    0  0.00000000000E+00  0.00000000000E+00 -0.16736793940E+04  0.18063594509E+04  0.67950846339E+03 0.  0.
        4    1    3    3  502    0  0.72021636016E+01  0.33251870587E+03 -0.10212207700E+04  0.10740177069E+04  0.12699999809E+01 0. -1.
       -4    1    3    3    0  502 -0.72021636016E+01 -0.33251870587E+03 -0.65245862402E+03  0.73234174391E+03  0.12699999809E+01 0.  1.
</event>
<event>
 5   0  0.6990118E-03  0.7001125E+03  0.7818609E-02  0.9717040E-01
        1   -1    0    0  501    0  0.00000000000E+00  0.00000000000E+00  0.90705017916E+03  0.90705017918E+03  0.50400001928E-02 0. -1.
       -1   -1    0    0    0  501  0.00000000000E+00  0.00000000000E+00 -0.13509657250E+03  0.13509657259E+03  0.50400001928E-02 0.  1.
    10030    2    1    2    0    0  0.00000000000E+00  0.00000000000E+00  0.77195360666E+03  0.10421467518E+04  0.70011247767E+03 0.  0.
        5    1    3    3  502    0  0.17933197921E+03 -0.76688274647E+01 -0.61325727107E+02  0.18974115127E+03  0.46999998093E+01 0.  1.
       -5    1    3    3    0  502 -0.17933197921E+03  0.76688274647E+01  0.83327933377E+03  0.85240560050E+03  0.46999998093E+01 0. -1.
</event>
<event>
 5   0  0.6990118E-03  0.7007033E+03  0.7818609E-02  0.9716030E-01
        1   -1    0    0  501    0  0.00000000000E+00  0.00000000000E+00  0.89566110873E+03  0.89566110874E+03  0.50400001928E-02 0. -1.
       -1   -1    0    0    0  501  0.00000000000E+00  0.00000000000E+00 -0.13704544225E+03  0.13704544235E+03  0.50400001928E-02 0.  1.
    10030    2    1    2    0    0  0.00000000000E+00  0.00000000000E+00  0.75861566647E+03  0.10327065511E+04  0.70070328331E+03 0.  0.
        5    1    3    3  502    0  0.26984026219E+03  0.21095134610E+02  0.51519425591E+02  0.27556326500E+03  0.46999998093E+01 0.  1.
       -5    1    3    3    0  502 -0.26984026219E+03 -0.21095134610E+02  0.70709624088E+03  0.75714328609E+03  0.46999998093E+01 0. -1.
</event>
<event>
 5   0  0.6990118E-03  0.6984205E+03  0.7818609E-02  0.9719937E-01
       -1   -1    0    0    0  501  0.00000000000E+00  0.00000000000E+00  0.41181991753E+03  0.41181991756E+03  0.50400001928E-02 0. -1.
        1   -1    0    0  501    0  0.00000000000E+00  0.00000000000E+00 -0.29611925097E+03  0.29611925101E+03  0.50400001928E-02 0.  1.
    10030    2    1    2    0    0  0.00000000000E+00  0.00000000000E+00  0.11570066656E+03  0.70793916857E+03  0.69842051957E+03 0.  0.
        5    1    3    3  502    0  0.93187511243E+02 -0.18703575672E+03  0.34141184856E+03  0.40031291120E+03  0.46999998093E+01 0. -1.
       -5    1    3    3    0  502 -0.93187511243E+02  0.18703575672E+03 -0.22571118200E+03  0.30762625737E+03  0.46999998093E+01 0.  1.
</event>
<event>
 5   0  0.1119786E-02  0.7006617E+03  0.7818609E-02  0.9716101E-01
        2   -1    0    0  501    0  0.00000000000E+00  0.00000000000E+00  0.10909725779E+04  0.10909725779E+04  0.25500000920E-02 0.  1.
       -2   -1    0    0    0  501  0.00000000000E+00  0.00000000000E+00 -0.11249752896E+03  0.11249752899E+03  0.25500000920E-02 0. -1.
    10030    2    1    2    0    0  0.00000000000E+00  0.00000000000E+00  0.97847504891E+03  0.12034701069E+04  0.70066174205E+03 0.  0.
        3    1    3    3  502    0  0.25934211731E+03 -0.27086032251E+02  0.89110068600E+03  0.92846778606E+03  0.10100000352E+00 0.  1.
       -3    1    3    3    0  502 -0.25934211731E+03  0.27086032251E+02  0.87374362908E+02  0.27500232080E+03  0.10100000352E+00 0. -1.
</event>
<event>
 5   0  0.6785252E-03  0.6988497E+03  0.7818609E-02  0.9719201E-01
        1   -1    0    0  501    0  0.00000000000E+00  0.00000000000E+00  0.60941471519E+03  0.60941471522E+03  0.50400001928E-02 0.  1.
       -1   -1    0    0    0  501  0.00000000000E+00  0.00000000000E+00 -0.20035242649E+03  0.20035242656E+03  0.50400001928E-02 0. -1.
    10030    2    1    2    0    0  0.00000000000E+00  0.00000000000E+00  0.40906228870E+03  0.80976714177E+03  0.69884967472E+03 0.  0.
        3    1    3    3  502    0  0.24758506743E+03 -0.77901208274E+01 -0.81036480120E+02  0.26062611709E+03  0.10100000352E+00 0. -1.
       -3    1    3    3    0  502 -0.24758506743E+03  0.77901208274E+01  0.49009876882E+03  0.54914102469E+03  0.10100000352E+00 0.  1.
</event>
<event>
 5   0  0.6990118E-03  0.6994950E+03  0.7818609E-02  0.9718096E-01
        1   -1    0    0  501    0  0.00000000000E+00  0.00000000000E+00  0.71142336561E+03  0.71142336562E+03  0.50400001928E-02 0.  1.
       -1   -1    0    0    0  501  0.00000000000E+00  0.00000000000E+00 -0.17194166077E+03  0.17194166084E+03  0.50400001928E-02 0. -1.
    10030    2    1    2    0    0  0.00000000000E+00  0.00000000000E+00  0.53948170483E+03  0.88336502647E+03  0.69949500365E+03 0.  0.
        5    1    3    3  502    0  0.25987017028E+03 -0.13104136393E+03  0.51460854602E+03  0.59122617508E+03  0.46999998093E+01 0. -1.
       -5    1    3    3    0  502 -0.25987017028E+03  0.13104136393E+03  0.24873158817E+02  0.29213885139E+03  0.46999998093E+01 0.  1.
</event>
<event>
 5   0  0.1119786E-02  0.7017851E+03  0.7818609E-02  0.9714184E-01
       -2   -1    0    0    0  501  0.00000000000E+00  0.00000000000E+00  0.27221642767E+03  0.27221642769E+03  0.25500000920E-02 0.  1.
        2   -1    0    0  501    0  0.00000000000E+00  0.00000000000E+00 -0.45230771995E+03  0.45230771996E+03  0.25500000920E-02 0. -1.
    10030    2    1    2    0    0  0.00000000000E+00  0.00000000000E+00 -0.18009129228E+03  0.72452414764E+03  0.70178512877E+03 0.  0.
        3    1    3    3  502    0  0.14540389968E+03  0.12216314172E+03 -0.39466442577E+03  0.43797961871E+03  0.10100000352E+00 0. -1.
       -3    1    3    3    0  502 -0.14540389968E+03 -0.12216314172E+03  0.21457313350E+03  0.28654452893E+03  0.10100000352E+00 0.  1.
</event>
<event>
 5   0  0.1109788E-02  0.7053163E+03  0.7818609E-02  0.9708184E-01
        2   -1    0    0  501    0  0.00000000000E+00  0.00000000000E+00  0.19875623981E+04  0.19875623981E+04  0.25500000920E-02 0. -1.
       -2   -1    0    0    0  501  0.00000000000E+00  0.00000000000E+00 -0.62573016741E+02  0.62573016793E+02  0.25500000920E-02 0.  1.
    10030    2    1    2    0    0  0.00000000000E+00  0.00000000000E+00  0.19249893814E+04  0.20501354149E+04  0.70531631278E+03 0.  0.
        1    1    3    3  502    0 -0.49787344250E+02 -0.33716560136E+03  0.12258406312E+04  0.12723382709E+04  0.50400001928E-02 0. -1.
       -1    1    3    3    0  502  0.49787344250E+02  0.33716560136E+03  0.69914875015E+03  0.77779714402E+03  0.50400001928E-02 0.  1.
</event>
<event>
 5   0  0.1100119E-02  0.7262034E+03  0.7818609E-02  0.9673441E-01
        2   -1    0    0  501    0  0.00000000000E+00  0.00000000000E+00  0.17806116682E+04  0.17806116682E+04  0.25500000920E-02 0. -1.
       -2   -1    0    0    0  501  0.00000000000E+00  0.00000000000E+00 -0.74043569416E+02  0.74043569460E+02  0.25500000920E-02 0.  1.
    10030    2    1    2    0    0  0.00000000000E+00  0.00000000000E+00  0.17065680988E+04  0.18546552377E+04  0.72620339768E+03 0.  0.
        4    1    3    3  502    0 -0.34287431035E+02 -0.22655725642E+03  0.15726401480E+04  0.15892458797E+04  0.12699999809E+01 0. -1.
       -4    1    3    3    0  502  0.34287431035E+02  0.22655725642E+03  0.13392795082E+03  0.26540935793E+03  0.12699999809E+01 0.  1.
</event>
<event>
 5   0  0.4440500E-03  0.7035641E+03  0.7818609E-02  0.9711156E-01
       -3   -1    0    0    0  501  0.00000000000E+00  0.00000000000E+00  0.13399840345E+03  0.13399844151E+03  0.10100000352E+00 0.  1.
        3   -1    0    0  501    0  0.00000000000E+00  0.00000000000E+00 -0.92352286813E+03  0.92352287366E+03  0.10100000352E+00 0. -1.
    10030    2    1    2    0    0  0.00000000000E+00  0.00000000000E+00 -0.78952446469E+03  0.10575213152E+04  0.70356410631E+03 0.  0.
        5    1    3    3  502    0 -0.23538729105E+03  0.21896836777E+03 -0.60931085844E+03  0.68893841168E+03  0.46999998093E+01 0. -1.
       -5    1    3    3    0  502  0.23538729105E+03 -0.21896836777E+03 -0.18021360624E+03  0.36858290349E+03  0.46999998093E+01 0.  1.
</event>
<event>
 5   0  0.6609285E-03  0.6986335E+03  0.7818609E-02  0.9719572E-01
       -1   -1    0    0    0  501  0.00000000000E+00  0.00000000000E+00  0.14186331910E+03  0.14186331919E+03  0.50400001928E-02 0.  1.
        1   -1    0    0  501    0  0.00000000000E+00  0.00000000000E+00 -0.86013912700E+03  0.86013912701E+03  0.50400001928E-02 0. -1.
    10030    2    1    2    0    0  0.00000000000E+00  0.00000000000E+00 -0.71827580790E+03  0.10020024462E+04  0.69863349904E+03 0.  0.
        2    1    3    3  502    0  0.77399399281E+02  0.20934704709E+03 -0.74453108797E+03  0.77726661712E+03  0.25500000920E-02 0. -1.
       -2    1    3    3    0  502 -0.77399399281E+02 -0.20934704709E+03  0.26255280067E+02  0.22473582908E+03  0.25500000920E-02 0.  1.
</event>
<event>
 5   0  0.1099980E-02  0.7033972E+03  0.7818609E-02  0.9711440E-01
        2   -1    0    0  501    0  0.00000000000E+00  0.00000000000E+00  0.93661337813E+03  0.93661337814E+03  0.25500000920E-02 0.  1.
       -2   -1    0    0    0  501  0.00000000000E+00  0.00000000000E+00 -0.13206292936E+03  0.13206292938E+03  0.25500000920E-02 0. -1.
    10030    2    1    2    0    0  0.00000000000E+00  0.00000000000E+00  0.80455044878E+03  0.10686763075E+04  0.70339720331E+03 0.  0.
        5    1    3    3  502    0  0.93776910695E+02 -0.24392009612E+03  0.44741593551E+02  0.26516979930E+03  0.46999998093E+01 0.  1.
       -5    1    3    3    0  502 -0.93776910695E+02  0.24392009612E+03  0.75980885523E+03  0.80350650822E+03  0.46999998093E+01 0. -1.
</event>
<event>
 5   0  0.6246998E-03  0.7089532E+03  0.7818609E-02  0.9702042E-01
       -1   -1    0    0    0  501  0.00000000000E+00  0.00000000000E+00  0.34773738109E+03  0.34773738113E+03  0.50400001928E-02 0. -1.
        1   -1    0    0  501    0  0.00000000000E+00  0.00000000000E+00 -0.36134646977E+03  0.36134646980E+03  0.50400001928E-02 0.  1.
    10030    2    1    2    0    0  0.00000000000E+00  0.00000000000E+00 -0.13609088672E+02  0.70908385093E+03  0.70895324272E+03 0.  0.
        4    1    3    3  502    0 -0.34845592065E+03  0.78660674557E+01  0.57772499833E+02  0.35330253083E+03  0.12699999809E+01 0. -1.
       -4    1    3    3    0  502  0.34845592065E+03 -0.78660674557E+01 -0.71381588505E+02  0.35578132010E+03  0.12699999809E+01 0.  1.
</event>
<event>
 5   0  0.1109788E-02  0.7018628E+03  0.7818609E-02  0.9714052E-01
        2   -1    0    0  501    0  0.00000000000E+00  0.00000000000E+00  0.19445213307E+04  0.19445213307E+04  0.25500000920E-02 0.  1.
       -2   -1    0    0    0  501  0.00000000000E+00  0.00000000000E+00 -0.63333245523E+02  0.63333245574E+02  0.25500000920E-02 0. -1.
    10030    2    1    2    0    0  0.00000000000E+00  0.00000000000E+00  0.18811880852E+04  0.20078545762E+04  0.70186279831E+03 0.  0.
        1    1    3    3  502    0  0.11353142872E+02 -0.10422310764E+03  0.18986743849E+04  0.19015666620E+04  0.50400001928E-02 0.  1.
       -1    1    3    3    0  502 -0.11353142872E+02  0.10422310764E+03 -0.17486299744E+02  0.10628791428E+03  0.50400001928E-02 0. -1.
</event>
<event>
 5   0  0.1099980E-02  0.7008284E+03  0.7818609E-02  0.9715817E-01
        2   -1    0    0  501    0  0.00000000000E+00  0.00000000000E+00  0.70902519469E+03  0.70902519470E+03  0.25500000920E-02 0. -1.
       -2   -1    0    0    0  501  0.00000000000E+00  0.00000000000E+00 -0.17318158427E+03  0.17318158429E+03  0.25500000920E-02 0.  1.
    10030    2    1    2    0    0  0.00000000000E+00  0.00000000000E+00  0.53584361042E+03  0.88220677899E+03  0.70082838560E+03 0.  0.
        5    1    3    3  502    0 -0.73908162398E+02  0.12668216974E+03 -0.13264201818E+03  0.19780491294E+03  0.46999998093E+01 0.  1.
       -5    1    3    3    0  502  0.73908162398E+02 -0.12668216974E+03  0.66848562860E+03  0.68440186604E+03  0.46999998093E+01 0. -1.
</event>
<event>
 5   0  0.1079446E-02  0.7000585E+03  0.7818609E-02  0.9717132E-01
        2   -1    0    0  501    0  0.00000000000E+00  0.00000000000E+00  0.21649007379E+04  0.21649007379E+04  0.25500000920E-02 0. -1.
       -2   -1    0    0    0  501  0.00000000000E+00  0.00000000000E+00 -0.56594041336E+02  0.56594041393E+02  0.25500000920E-02 0.  1.
    10030    2    1    2    0    0  0.00000000000E+00  0.00000000000E+00  0.21083066965E+04  0.22214947793E+04  0.70005851730E+03 0.  0.
        2    1    3    3  502    0 -0.30555159106E+03  0.14583204136E+03  0.13360545094E+04  0.13782853156E+04  0.25500000920E-02 0. -1.
       -2    1    3    3    0  502  0.30555159106E+03 -0.14583204136E+03  0.77225218716E+03  0.84320946370E+03  0.25500000920E-02 0.  1.
</event>
<event>
 5   0  0.6689415E-03  0.6992629E+03  0.7818609E-02  0.9718494E-01
       -1   -1    0    0    0  501  0.00000000000E+00  0.00000000000E+00  0.24449964777E+03  0.24449964782E+03  0.50400001928E-02 0. -1.
        1   -1    0    0  501    0  0.00000000000E+00  0.00000000000E+00 -0.49996859316E+03  0.49996859318E+03  0.50400001928E-02 0.  1.
    10030    2    1    2    0    0  0.00000000000E+00  0.00000000000E+00 -0.25546894539E+03  0.74446824101E+03  0.69926288319E+03 0.  0.
        1    1    3    3  502    0 -0.33233881732E+03  0.77680453300E+02 -0.46941833495E+02  0.34450961972E+03  0.50400001928E-02 0. -1.
       -1    1    3    3    0  502  0.33233881732E+03 -0.77680453300E+02 -0.20852711189E+03  0.39995862129E+03  0.50400001928E-02 0.  1.
</event>
<event>
 5   0  0.6246998E-03  0.6996974E+03  0.7818609E-02  0.9717750E-01
        1   -1    0    0  501    0  0.00000000000E+00  0.00000000000E+00  0.52394651798E+03  0.52394651800E+03  0.50400001928E-02 0.  1.
       -1   -1    0    0    0  501  0.00000000000E+00  0.00000000000E+00 -0.23360042324E+03  0.23360042329E+03  0.50400001928E-02 0. -1.
    10030    2    1    2    0    0  0.00000000000E+00  0.00000000000E+00  0.29034609474E+03  0.75754694130E+03  0.69969744428E+03 0.  0.
        4    1    3    3  502    0 -0.21236485986E+03 -0.11413632879E+03 -0.12929504052E+03  0.27357769583E+03  0.12699999809E+01 0. -1.
       -4    1    3    3    0  502  0.21236485986E+03  0.11413632879E+03  0.41964113526E+03  0.48396924547E+03  0.12699999809E+01 0.  1.
</event>
<event>
 5   0  0.1079446E-02  0.7017508E+03  0.7818609E-02  0.9714243E-01
       -2   -1    0    0    0  501  0.00000000000E+00  0.00000000000E+00  0.79812621536E+02  0.79812621577E+02  0.25500000920E-02 0.  1.
        2   -1    0    0  501    0  0.00000000000E+00  0.00000000000E+00 -0.15425321597E+04  0.15425321597E+04  0.25500000920E-02 0. -1.
    10030    2    1    2    0    0  0.00000000000E+00  0.00000000000E+00 -0.14627195382E+04  0.16223447813E+04  0.70175076916E+03 0.  0.
        2    1    3    3  502    0 -0.12161638921E+03 -0.28097011627E+03 -0.11276169637E+04  0.11684411706E+04  0.25500000920E-02 0. -1.
       -2    1    3    3    0  502  0.12161638921E+03  0.28097011627E+03 -0.33510257448E+03  0.45390361068E+03  0.25500000920E-02 0.  1.
</event>
<event>
 5   0  0.1099980E-02  0.7007187E+03  0.7818609E-02  0.9716004E-01
        2   -1    0    0  501    0  0.00000000000E+00  0.00000000000E+00  0.34180054125E+03  0.34180054126E+03  0.25500000920E-02 0. -1.
       -2   -1    0    0    0  501  0.00000000000E+00  0.00000000000E+00 -0.35913246935E+03  0.35913246936E+03  0.25500000920E-02 0.  1.
    10030    2    1    2    0    0  0.00000000000E+00  0.00000000000E+00 -0.17331928103E+02  0.70093301062E+03  0.70071869509E+03 0.  0.
        5    1    3    3  502    0  0.22207906668E+03 -0.18095516896E+03 -0.21038501737E+03  0.35545440012E+03  0.46999998093E+01 0.  1.
       -5    1    3    3    0  502 -0.22207906668E+03  0.18095516896E+03  0.19305308927E+03  0.34547861049E+03  0.46999998093E+01 0. -1.
</event>
<event>
 5   0  0.6246998E-03  0.6986689E+03  0.7818609E-02  0.9719511E-01
       -1   -1    0    0    0  501  0.00000000000E+00  0.00000000000E+00  0.10129071630E+03  0.10129071642E+03  0.50400001928E-02 0. -1.
        1   -1    0    0  501    0  0.00000000000E+00  0.00000000000E+00 -0.12047951173E+04  0.12047951173E+04  0.50400001928E-02 0.  1.
    10030    2    1    2    0    0  0.00000000000E+00  0.00000000000E+00 -0.11035044010E+04  0.13060858337E+04  0.69866890731E+03 0.  0.
        4    1    3    3  502    0  0.30990375949E+03 -0.90272739408E+02 -0.30204009595E+03  0.44206259747E+03  0.12699999809E+01 0. -1.
       -4    1    3    3    0  502 -0.30990375949E+03  0.90272739408E+02 -0.80146430502E+03  0.86402323623E+03  0.12699999809E+01 0.  1.
</event>
<event>
 5   0  0.6609285E-03  0.7018302E+03  0.7818609E-02  0.9714107E-01
       -1   -1    0    0    0  501  0.00000000000E+00  0.00000000000E+00  0.10649008484E+03  0.10649008496E+03  0.50400001928E-02 0. -1.
        1   -1    0    0  501    0  0.00000000000E+00  0.00000000000E+00 -0.11563648793E+04  0.11563648793E+04  0.50400001928E-02 0.  1.
    10030    2    1    2    0    0  0.00000000000E+00  0.00000000000E+00 -0.10498747945E+04  0.12628549643E+04  0.70183016233E+03 0.  0.
        2    1    3    3  502    0  0.28094818175E+03  0.22292857574E+02 -0.14873247150E+03  0.31866942183E+03  0.25500000920E-02 0.  1.
       -2    1    3    3    0  502 -0.28094818175E+03 -0.22292857574E+02 -0.90114232297E+03  0.94418554245E+03  0.25500000920E-02 0. -1.
</event>
<event>
 5   0  0.4440500E-03  0.6994498E+03  0.7818609E-02  0.9718174E-01
        3   -1    0    0  501    0  0.00000000000E+00  0.00000000000E+00  0.43298430660E+03  0.43298431838E+03  0.10100000352E+00 0.  1.
       -3   -1    0    0    0  501  0.00000000000E+00  0.00000000000E+00 -0.28247556458E+03  0.28247558264E+03  0.10100000352E+00 0. -1.
    10030    2    1    2    0    0  0.00000000000E+00  0.00000000000E+00  0.15050874202E+03  0.71545990101E+03  0.69944977556E+03 0.  0.
        4    1    3    3  502    0 -0.83045521298E+02  0.28914205309E+03  0.25767949380E+03  0.39610607152E+03  0.12699999809E+01 0.  1.
       -4    1    3    3    0  502  0.83045521298E+02 -0.28914205309E+03 -0.10717075178E+03  0.31935382949E+03  0.12699999809E+01 0. -1.
</event>
<event>
 5   0  0.1100119E-02  0.6996875E+03  0.7818609E-02  0.9717767E-01
       -2   -1    0    0    0  501  0.00000000000E+00  0.00000000000E+00  0.35916254913E+03  0.35916254914E+03  0.25500000920E-02 0.  1.
        2   -1    0    0  501    0  0.00000000000E+00  0.00000000000E+00 -0.34076674690E+03  0.34076674691E+03  0.25500000920E-02 0. -1.
    10030    2    1    2    0    0  0.00000000000E+00  0.00000000000E+00  0.18395802228E+02  0.69992929605E+03  0.69968751162E+03 0.  0.
        4    1    3    3  502    0 -0.31396948749E+03 -0.13801149624E+03 -0.59855137869E+02  0.34814977035E+03  0.12699999809E+01 0. -1.
       -4    1    3    3    0  502  0.31396948749E+03  0.13801149624E+03  0.78250940097E+02  0.35177952569E+03  0.12699999809E+01 0.  1.
</event>
<event>
 5   0  0.6990118E-03  0.6995625E+03  0.7818609E-02  0.9717981E-01
        1   -1    0    0  501    0  0.00000000000E+00  0.00000000000E+00  0.60082249670E+03  0.60082249672E+03  0.50400001928E-02 0.  1.
       -1   -1    0    0    0  501  0.00000000000E+00  0.00000000000E+00 -0.20363237906E+03  0.20363237912E+03  0.50400001928E-02 0. -1.
    10030    2    1    2    0    0  0.00000000000E+00  0.00000000000E+00  0.39719011764E+03  0.80445487584E+03  0.69956247592E+03 0.  0.
        5    1    3    3  502    0  0.29883943774E+03 -0.10990019227E+03  0.36500596994E+03  0.48439086480E+03  0.46999998093E+01 0.  1.
       -5    1    3    3    0  502 -0.29883943774E+03  0.10990019227E+03  0.32184147699E+02  0.32006401105E+03  0.46999998093E+01 0. -1.
</event>
<event>
 5   0  0.1100119E-02  0.6979184E+03  0.7818609E-02  0.9720799E-01
       -2   -1    0    0    0  501  0.00000000000E+00  0.00000000000E+00  0.20987167077E+03  0.20987167079E+03  0.25500000920E-02 0.  1.
        2   -1    0    0  501    0  0.00000000000E+00  0.00000000000E+00 -0.58022380894E+03  0.58022380894E+03  0.25500000920E-02 0. -1.
    10030    2    1    2    0    0  0.00000000000E+00  0.00000000000E+00 -0.37035213816E+03  0.79009547973E+03  0.69791844857E+03 0.  0.
        4    1    3    3  502    0  0.19140362651E+02 -0.12320380907E+03 -0.55414438716E+03  0.56799924892E+03  0.12699999809E+01 0. -1.
       -4    1    3    3    0  502 -0.19140362651E+02  0.12320380907E+03  0.18379224899E+03  0.22209623082E+03  0.12699999809E+01 0.  1.
</event>
<event>
 5   0  0.1100119E-02  0.6995494E+03  0.7818609E-02  0.9718003E-01
        2   -1    0    0  501    0  0.00000000000E+00  0.00000000000E+00  0.10533074060E+04  0.10533074060E+04  0.25500000920E-02 0.  1.
       -2   -1    0    0    0  501  0.00000000000E+00  0.00000000000E+00 -0.11615065796E+03  0.11615065799E+03  0.25500000920E-02 0. -1.
    10030    2    1    2    0    0  0.00000000000E+00  0.00000000000E+00  0.93715674807E+03  0.11694580640E+04  0.69954942146E+03 0.  0.
        4    1    3    3  502    0 -0.10805202006E+03  0.10941843838E+03  0.99376015321E+03  0.10055886280E+04  0.12699999809E+01 0.  1.
       -4    1    3    3    0  502  0.10805202006E+03 -0.10941843838E+03 -0.56603405147E+02  0.16386943605E+03  0.12699999809E+01 0. -1.
</event>
<event>
 5   0  0.1119786E-02  0.7001050E+03  0.7818609E-02  0.9717053E-01
       -2   -1    0    0    0  501  0.00000000000E+00  0.00000000000E+00  0.12306856770E+04  0.12306856770E+04  0.25500000920E-02 0. -1.
        2   -1    0    0  501    0  0.00000000000E+00  0.00000000000E+00 -0.99567868067E+02  0.99567868100E+02  0.25500000920E-02 0.  1.
    10030    2    1    2    0    0  0.00000000000E+00  0.00000000000E+00  0.11311178090E+04  0.13302535451E+04  0.70010498969E+03 0.  0.
        3    1    3    3  502    0 -0.91215958485E+02 -0.12190192276E+03  0.11644791267E+04  0.11743900870E+04  0.10100000352E+00 0. -1.
       -3    1    3    3    0  502  0.91215958485E+02  0.12190192276E+03 -0.33361317699E+02  0.15586345811E+03  0.10100000352E+00 0.  1.
</event>
<event>
 5   0  0.6609285E-03  0.6995287E+03  0.7818609E-02  0.9718039E-01
       -1   -1    0    0    0  501  0.00000000000E+00  0.00000000000E+00  0.95999017441E+02  0.95999017573E+02  0.50400001928E-02 0.  1.
        1   -1    0    0  501    0  0.00000000000E+00  0.00000000000E+00 -0.12743369282E+04  0.12743369282E+04  0.50400001928E-02 0. -1.
    10030    2    1    2    0    0  0.00000000000E+00  0.00000000000E+00 -0.11783379107E+04  0.13703359457E+04  0.69952867872E+03 0.  0.
        2    1    3    3  502    0  0.29673325800E+03 -0.18250939887E+03 -0.65033017941E+03  0.73775988596E+03  0.25500000920E-02 0.  1.
       -2    1    3    3    0  502 -0.29673325800E+03  0.18250939887E+03 -0.52800773130E+03  0.63257605977E+03  0.25500000920E-02 0. -1.
</event>
<event>
 5   0  0.6246998E-03  0.6976255E+03  0.7818609E-02  0.9721302E-01
       -1   -1    0    0    0  501  0.00000000000E+00  0.00000000000E+00  0.30241044629E+03  0.30241044633E+03  0.50400001928E-02 0. -1.
        1   -1    0    0  501    0  0.00000000000E+00  0.00000000000E+00 -0.40233510160E+03  0.40233510163E+03  0.50400001928E-02 0.  1.
    10030    2    1    2    0    0  0.00000000000E+00  0.00000000000E+00 -0.99924655309E+02  0.70474554796E+03  0.69762550888E+03 0.  0.
        4    1    3    3  502    0 -0.47700500138E+02  0.17526834730E+03 -0.35078398666E+03  0.39502575799E+03  0.12699999809E+01 0.  1.
       -4    1    3    3    0  502  0.47700500138E+02 -0.17526834730E+03  0.25085933135E+03  0.30971978998E+03  0.12699999809E+01 0. -1.
</event>
<event>
 5   0  0.6990118E-03  0.7086343E+03  0.7818609E-02  0.9702579E-01
       -1   -1    0    0    0  501  0.00000000000E+00  0.00000000000E+00  0.23332454519E+03  0.23332454525E+03  0.50400001928E-02 0.  1.
        1   -1    0    0  501    0  0.00000000000E+00  0.00000000000E+00 -0.53805153037E+03  0.53805153039E+03  0.50400001928E-02 0. -1.
    10030    2    1    2    0    0  0.00000000000E+00  0.00000000000E+00 -0.30472698518E+03  0.77137607564E+03  0.70863426009E+03 0.  0.
        5    1    3    3  502    0 -0.60131774085E+02 -0.26730104425E+03  0.92141040537E+02  0.28909814919E+03  0.46999998093E+01 0.  1.
       -5    1    3    3    0  502  0.60131774085E+02  0.26730104425E+03 -0.39686802571E+03  0.48227792646E+03  0.46999998093E+01 0. -1.
</event>
<event>
 5   0  0.1109788E-02  0.7058550E+03  0.7818609E-02  0.9707271E-01
       -2   -1    0    0    0  501  0.00000000000E+00  0.00000000000E+00  0.99824153412E+02  0.99824153445E+02  0.25500000920E-02 0.  1.
        2   -1    0    0  501    0  0.00000000000E+00  0.00000000000E+00 -0.12477722486E+04  0.12477722486E+04  0.25500000920E-02 0. -1.
    10030    2    1    2    0    0  0.00000000000E+00  0.00000000000E+00 -0.11479480952E+04  0.13475964021E+04  0.70585496639E+03 0.  0.
        1    1    3    3  502    0 -0.84573350535E+02 -0.34185568739E+03 -0.61833278853E+03  0.71158513195E+03  0.50400001928E-02 0. -1.
       -1    1    3    3    0  502  0.84573350535E+02  0.34185568739E+03 -0.52961530669E+03  0.63601127012E+03  0.50400001928E-02 0.  1.
</event>
<event>
 5   0  0.1099980E-02  0.7018967E+03  0.7818609E-02  0.9713994E-01
        2   -1    0    0  501    0  0.00000000000E+00  0.00000000000E+00  0.68627588345E+03  0.68627588345E+03  0.25500000920E-02 0.  1.
       -2   -1    0    0    0  501  0.00000000000E+00  0.00000000000E+00 -0.17946825382E+03  0.17946825384E+03  0.25500000920E-02 0. -1.
    10030    2    1    2    0    0  0.00000000000E+00  0.00000000000E+00  0.50680762962E+03  0.86574413730E+03  0.70189667175E+03 0.  0.
        5    1    3    3  502    0  0.37325243386E+02 -0.21161297835E+03 -0.88792617754E+02  0.23254987716E+03  0.46999998093E+01 0. -1.
       -5    1    3    3    0  502 -0.37325243386E+02  0.21161297835E+03  0.59560024738E+03  0.63319426014E+03  0.46999998093E+01 0.  1.
</event>
<event>
 5   0  0.1100119E-02  0.6957323E+03  0.7818609E-02  0.9724558E-01
       -2   -1    0    0    0  501  0.00000000000E+00  0.00000000000E+00  0.89948873304E+02  0.89948873340E+02  0.25500000920E-02 0.  1.
        2   -1    0    0  501    0  0.00000000000E+00  0.00000000000E+00 -0.13453293730E+04  0.13453293730E+04  0.25500000920E-02 0. -1.
    10030    2    1    2    0    0  0.00000000000E+00  0.00000000000E+00 -0.12553804997E+04  0.14352782464E+04  0.69573230873E+03 0.  0.
        4    1    3    3  502    0  0.32193528946E+03 -0.71396619159E+02 -0.39917966997E+03  0.51777005480E+03  0.12699999809E+01 0.  1.
       -4    1    3    3    0  502 -0.32193528946E+03  0.71396619159E+02 -0.85620082974E+03  0.91750819156E+03  0.12699999809E+01 0. -1.
</event>
<event>
 5   0  0.6990118E-03  0.7047844E+03  0.7818609E-02  0.9709085E-01
        1   -1    0    0  501    0  0.00000000000E+00  0.00000000000E+00  0.73249346296E+03  0.73249346297E+03  0.50400001928E-02 0.  1.
       -1   -1    0    0    0  501  0.00000000000E+00  0.00000000000E+00 -0.16953088014E+03  0.16953088021E+03  0.50400001928E-02 0. -1.
    10030    2    1    2    0    0  0.00000000000E+00  0.00000000000E+00  0.56296258282E+03  0.90202434318E+03  0.70478439685E+03 0.  0.
        5    1    3    3  502    0 -0.32628041937E+03  0.12751155454E+03  0.23291301302E+03  0.42070021421E+03  0.46999998093E+01 0. -1.
       -5    1    3    3    0  502  0.32628041937E+03 -0.12751155454E+03  0.33004956981E+03  0.48132412897E+03  0.46999998093E+01 0.  1.
</event>
<event>
 5   0  0.6689415E-03  0.6990114E+03  0.7818609E-02  0.9718924E-01
       -1   -1    0    0    0  501  0.00000000000E+00  0.00000000000E+00  0.42650238291E+03  0.42650238294E+03  0.50400001928E-02 0.  1.
        1   -1    0    0  501    0  0.00000000000E+00  0.00000000000E+00 -0.28640925524E+03  0.28640925528E+03  0.50400001928E-02 0. -1.
    10030    2    1    2    0    0  0.00000000000E+00  0.00000000000E+00  0.14009312767E+03  0.71291163822E+03  0.69901138724E+03 0.  0.
        1    1    3    3  502    0  0.21981661907E+03  0.91942768871E+02 -0.19073602878E+03  0.30520984825E+03  0.50400001928E-02 0. -1.
       -1    1    3    3    0  502 -0.21981661907E+03 -0.91942768871E+02  0.33082915645E+03  0.40770178998E+03  0.50400001928E-02 0.  1.
</event>
<event>
 5   0  0.4440500E-03  0.7009348E+03  0.7818609E-02  0.9715635E-01
        4   -1    0    0  501    0  0.00000000000E+00  0.00000000000E+00  0.48179965281E+03  0.48180132664E+03  0.12699999809E+01 0. -1.
       -4   -1    0    0    0  501  0.00000000000E+00  0.00000000000E+00 -0.25493091769E+03  0.25493408108E+03  0.12699999809E+01 0.  1.
    10030    2    1    2    0    0  0.00000000000E+00  0.00000000000E+00  0.22686873512E+03  0.73673540772E+03  0.70093483150E+03 0.  0.
        1    1    3    3  502    0  0.29121684958E+03 -0.17304475970E+03  0.18979769160E+02  0.33928155564E+03  0.50400001928E-02 0. -1.
       -1    1    3    3    0  502 -0.29121684958E+03  0.17304475970E+03  0.20788896596E+03  0.39745385207E+03  0.50400001928E-02 0.  1.
</event>
<event>
 5   0  0.6609285E-03  0.6854984E+03  0.7818609E-02  0.9742358E-01
        1   -1    0    0  501    0  0.00000000000E+00  0.00000000000E+00  0.36105630150E+03  0.36105630154E+03  0.50400001928E-02 0. -1.
       -1   -1    0    0    0  501  0.00000000000E+00  0.00000000000E+00 -0.32537031409E+03  0.32537031413E+03  0.50400001928E-02 0.  1.
    10030    2    1    2    0    0  0.00000000000E+00  0.00000000000E+00  0.35685987410E+02  0.68642661567E+03  0.68549836543E+03 0.  0.
        2    1    3    3  502    0  0.24344016780E+03 -0.15003756983E+03 -0.17136422507E+03  0.33337679178E+03  0.25500000920E-02 0.  1.
       -2    1    3    3    0  502 -0.24344016780E+03  0.15003756983E+03  0.20705021248E+03  0.35304982389E+03  0.25500000920E-02 0. -1.
</event>
<event>
 5   0  0.6785252E-03  0.6997781E+03  0.7818609E-02  0.9717612E-01
        1   -1    0    0  501    0  0.00000000000E+00  0.00000000000E+00  0.14300921891E+04  0.14300921891E+04  0.50400001928E-02 0.  1.
       -1   -1    0    0    0  501  0.00000000000E+00  0.00000000000E+00 -0.85604523511E+02  0.85604523659E+02  0.50400001928E-02 0. -1.
    10030    2    1    2    0    0  0.00000000000E+00  0.00000000000E+00  0.13444876656E+04  0.15156967127E+04  0.69977813781E+03 0.  0.
        3    1    3    3  502    0 -0.15867517334E+03  0.20076873665E+03  0.15541450897E+03  0.29939869080E+03  0.10100000352E+00 0. -1.
       -3    1    3    3    0  502  0.15867517334E+03 -0.20076873665E+03  0.11890731566E+04  0.12162980219E+04  0.10100000352E+00 0.  1.
</event>
<event>
 5   0  0.1109788E-02  0.7014864E+03  0.7818609E-02  0.9714694E-01
       -2   -1    0    0    0  501  0.00000000000E+00  0.00000000000E+00  0.50677175034E+02  0.50677175098E+02  0.25500000920E-02 0.  1.
        2   -1    0    0  501    0  0.00000000000E+00  0.00000000000E+00 -0.24275381553E+04  0.24275381553E+04  0.25500000920E-02 0. -1.
    10030    2    1    2    0    0  0.00000000000E+00  0.00000000000E+00 -0.23768609803E+04  0.24782153304E+04  0.70148635362E+03 0.  0.
        1    1    3    3  502    0 -0.19836679191E+03 -0.23825706787E+03 -0.17679072193E+04  0.17948848851E+04  0.50400001928E-02 0.  1.
       -1    1    3    3    0  502  0.19836679191E+03  0.23825706787E+03 -0.60895376100E+03  0.68333044537E+03  0.50400001928E-02 0. -1.
</event>
<event>
 5   0  0.6609285E-03  0.6989543E+03  0.7818609E-02  0.9719022E-01
       -1   -1    0    0    0  501  0.00000000000E+00  0.00000000000E+00  0.63917414864E+02  0.63917415063E+02  0.50400001928E-02 0.  1.
        1   -1    0    0  501    0  0.00000000000E+00  0.00000000000E+00 -0.19108139129E+04  0.19108139129E+04  0.50400001928E-02 0. -1.
    10030    2    1    2    0    0  0.00000000000E+00  0.00000000000E+00 -0.18468964980E+04  0.19747313279E+04  0.69895432125E+03 0.  0.
        2    1    3    3  502    0  0.12589236774E+03  0.39899088899E+02 -0.18376014805E+04  0.18423409094E+04  0.25500000920E-02 0. -1.
       -2    1    3    3    0  502 -0.12589236774E+03 -0.39899088899E+02 -0.92950175186E+01  0.13239041849E+03  0.25500000920E-02 0.  1.
</event>
<event>
 5   0  0.6246998E-03  0.6999571E+03  0.7818609E-02  0.9717306E-01
       -1   -1    0    0    0  501  0.00000000000E+00  0.00000000000E+00  0.15738552613E+03  0.15738552621E+03  0.50400001928E-02 0.  1.
        1   -1    0    0  501    0  0.00000000000E+00  0.00000000000E+00 -0.77824810983E+03  0.77824810985E+03  0.50400001928E-02 0. -1.
    10030    2    1    2    0    0  0.00000000000E+00  0.00000000000E+00 -0.62086258370E+03  0.93563363606E+03  0.69995710804E+03 0.  0.
        4    1    3    3  502    0  0.77327801724E+02 -0.26598024356E+03 -0.59636761098E+03  0.65755685625E+03  0.12699999809E+01 0. -1.
       -4    1    3    3    0  502 -0.77327801724E+02  0.26598024356E+03 -0.24494972721E+02  0.27807677981E+03  0.12699999809E+01 0.  1.
</event>
<event>
 5   0  0.1100119E-02  0.7003371E+03  0.7818609E-02  0.9716656E-01
       -2   -1    0    0    0  501  0.00000000000E+00  0.00000000000E+00  0.27636539015E+03  0.27636539016E+03  0.25500000920E-02 0. -1.
        2   -1    0    0  501    0  0.00000000000E+00  0.00000000000E+00 -0.44368076288E+03  0.44368076289E+03  0.25500000920E-02 0.  1.
    10030    2    1    2    0    0  0.00000000000E+00  0.00000000000E+00 -0.16731537273E+03  0.72004615305E+03  0.70033708211E+03 0.  0.
        4    1    3    3  502    0  0.26706619964E+03  0.15639070792E+03  0.84763144043E+02  0.32088753793E+03  0.12699999809E+01 0. -1.
       -4    1    3    3    0  502 -0.26706619964E+03 -0.15639070792E+03 -0.25207851677E+03  0.39915861512E+03  0.12699999809E+01 0.  1.
</event>
<event>
 5   0  0.6990118E-03  0.6910963E+03  0.7818609E-02  0.9732581E-01
        1   -1    0    0  501    0  0.00000000000E+00  0.00000000000E+00  0.25426005703E+03  0.25426005708E+03  0.50400001928E-02 0.  1.
       -1   -1    0    0    0  501  0.00000000000E+00  0.00000000000E+00 -0.46961176505E+03  0.46961176508E+03  0.50400001928E-02 0. -1.
    10030    2    1    2    0    0  0.00000000000E+00  0.00000000000E+00 -0.21535170802E+03  0.72387182216E+03  0.69109627171E+03 0.  0.
        5    1    3    3  502    0  0.21813443698E+03 -0.26792464820E+03 -0.11175604102E+03  0.36314976582E+03  0.46999998093E+01 0.  1.
       -5    1    3    3    0  502 -0.21813443698E+03  0.26792464820E+03 -0.10359566699E+03  0.36072205634E+03  0.46999998093E+01 0. -1.
</event>
<event>
 5   0  0.6990118E-03  0.7002130E+03  0.7818609E-02  0.9716868E-01
        1   -1    0    0  501    0  0.00000000000E+00  0.00000000000E+00  0.88818200775E+03  0.88818200776E+03  0.50400001928E-02 0. -1.
       -1   -1    0    0    0  501  0.00000000000E+00  0.00000000000E+00 -0.13800613835E+03  0.13800613844E+03  0.50400001928E-02 0.  1.
    10030    2    1    2    0    0  0.00000000000E+00  0.00000000000E+00  0.75017586939E+03  0.10261881462E+04  0.70021302215E+03 0.  0.
        5    1    3    3  502    0  0.92148849077E+01  0.68992712239E+02 -0.12771639486E+03  0.14552826516E+03  0.46999998093E+01 0.  1.
       -5    1    3    3    0  502 -0.92148849077E+01 -0.68992712239E+02  0.87789226425E+03  0.88065988104E+03  0.46999998093E+01 0. -1.
</event>
<event>
 5   0  0.4440500E-03  0.6979408E+03  0.7818609E-02  0.9720760E-01
        3   -1    0    0  501    0  0.00000000000E+00  0.00000000000E+00  0.20740435770E+03  0.20740438229E+03  0.10100000352E+00 0.  1.
       -3   -1    0    0    0  501  0.00000000000E+00  0.00000000000E+00 -0.58716376860E+03  0.58716377728E+03  0.10100000352E+00 0. -1.
    10030    2    1    2    0    0  0.00000000000E+00  0.00000000000E+00 -0.37975941090E+03  0.79456815957E+03  0.69794079265E+03 0.  0.
        1    1    3    3  502    0 -0.27595683514E+03  0.21206547599E+03 -0.21904697067E+03  0.41122441118E+03  0.50400001928E-02 0. -1.
       -1    1    3    3    0  502  0.27595683514E+03 -0.21206547599E+03 -0.16071244023E+03  0.38334374840E+03  0.50400001928E-02 0.  1.
</event>
<event>
 5   0  0.6609285E-03  0.7009031E+03  0.7818609E-02  0.9715689E-01
        1   -1    0    0  501    0  0.00000000000E+00  0.00000000000E+00  0.14096669970E+03  0.14096669979E+03  0.50400001928E-02 0. -1.
       -1   -1    0    0    0  501  0.00000000000E+00  0.00000000000E+00 -0.87124320399E+03  0.87124320400E+03  0.50400001928E-02 0.  1.
    10030    2    1    2    0    0  0.00000000000E+00  0.00000000000E+00 -0.73027650429E+03  0.10122099038E+04  0.70090307220E+03 0.  0.
        2    1    3    3  502    0 -0.22065710893E+03  0.33405163567E+02  0.25078774436E+02  0.22457606642E+03  0.25500000920E-02 0. -1.
       -2    1    3    3    0  502  0.22065710893E+03 -0.33405163567E+02 -0.75535527872E+03  0.78763383737E+03  0.25500000920E-02 0.  1.
</event>
<event>
 5   0  0.1109788E-02  0.6991020E+03  0.7818609E-02  0.9718769E-01
        2   -1    0    0  501    0  0.00000000000E+00  0.00000000000E+00  0.79049471530E+03  0.79049471530E+03  0.25500000920E-02 0.  1.
       -2   -1    0    0    0  501  0.00000000000E+00  0.00000000000E+00 -0.15456891374E+03  0.15456891376E+03  0.25500000920E-02 0. -1.
    10030    2    1    2    0    0  0.00000000000E+00  0.00000000000E+00  0.63592580156E+03  0.94506362906E+03  0.69910202252E+03 0.  0.
        1    1    3    3  502    0 -0.30703848495E+03  0.78206270275E+02  0.51754400722E+03  0.60682835413E+03  0.50400001928E-02 0.  1.
       -1    1    3    3    0  502  0.30703848495E+03 -0.78206270275E+02  0.11838179434E+03  0.33823527493E+03  0.50400001928E-02 0. -1.
</event>
<event>
 5   0  0.6609285E-03  0.7066990E+03  0.7818609E-02  0.9705844E-01
        1   -1    0    0  501    0  0.00000000000E+00  0.00000000000E+00  0.10771079246E+04  0.10771079246E+04  0.50400001928E-02 0.  1.
       -1   -1    0    0    0  501  0.00000000000E+00  0.00000000000E+00 -0.11591769001E+03  0.11591769012E+03  0.50400001928E-02 0. -1.
    10030    2    1    2    0    0  0.00000000000E+00  0.00000000000E+00  0.96119023462E+03  0.11930256148E+04  0.70669898143E+03 0.  0.
        2    1    3    3  502    0 -0.20938892348E+03  0.24938391733E+03  0.24900349748E+03  0.40992536060E+03  0.25500000920E-02 0. -1.
       -2    1    3    3    0  502  0.20938892348E+03 -0.24938391733E+03  0.71218673715E+03  0.78310025417E+03  0.25500000920E-02 0.  1.
</event>
<event>
 5   0  0.1109788E-02  0.6977058E+03  0.7818609E-02  0.9721164E-01
        2   -1    0    0  501    0  0.00000000000E+00  0.00000000000E+00  0.25462919030E+04  0.25462919030E+04  0.25500000920E-02 0.  1.
       -2   -1    0    0    0  501  0.00000000000E+00  0.00000000000E+00 -0.47794341848E+02  0.47794341916E+02  0.25500000920E-02 0. -1.
    10030    2    1    2    0    0  0.00000000000E+00  0.00000000000E+00  0.24984975612E+04  0.25940862449E+04  0.69770579974E+03 0.  0.
        1    1    3    3  502    0 -0.70350803714E+01 -0.34302500721E+03  0.14838880807E+04  0.15230362714E+04  0.50400001928E-02 0.  1.
       -1    1    3    3    0  502  0.70350803714E+01  0.34302500721E+03  0.10146094804E+04  0.10710499735E+04  0.50400001928E-02 0. -1.
</event>
<event>
 5   0  0.1119786E-02  0.6982201E+03  0.7818609E-02  0.9720281E-01
       -2   -1    0    0    0  501  0.00000000000E+00  0.00000000000E+00  0.61511211238E+02  0.61511211291E+02  0.25500000920E-02 0. -1.
        2   -1    0    0  501    0  0.00000000000E+00  0.00000000000E+00 -0.19813920910E+04  0.19813920910E+04  0.25500000920E-02 0.  1.
    10030    2    1    2    0    0  0.00000000000E+00  0.00000000000E+00 -0.19198808798E+04  0.20429033023E+04  0.69822010143E+03 0.  0.
        3    1    3    3  502    0 -0.23021011532E-01  0.20239705232E+03 -0.17922124427E+04  0.18036047287E+04  0.10100000352E+00 0.  1.
       -3    1    3    3    0  502  0.23021011532E-01 -0.20239705232E+03 -0.12766843707E+03  0.23929857363E+03  0.10100000352E+00 0. -1.
</event>
<event>
 5   0  0.1119786E-02  0.6998273E+03  0.7818609E-02  0.9717528E-01
        2   -1    0    0  501    0  0.00000000000E+00  0.00000000000E+00  0.84892780786E+03  0.84892780787E+03  0.25500000920E-02 0. -1.
       -2   -1    0    0    0  501  0.00000000000E+00  0.00000000000E+00 -0.14422849115E+03  0.14422849117E+03  0.25500000920E-02 0.  1.
    10030    2    1    2    0    0  0.00000000000E+00  0.00000000000E+00  0.70469931671E+03  0.99315629904E+03  0.69982734110E+03 0.  0.
        3    1    3    3  502    0  0.13241565165E+03  0.25370026028E+03  0.63809451519E+03  0.69932992742E+03  0.10100000352E+00 0. -1.
       -3    1    3    3    0  502 -0.13241565165E+03 -0.25370026028E+03  0.66604801517E+02  0.29382637162E+03  0.10100000352E+00 0.  1.
</event>
<event>
 5   0  0.6689415E-03  0.6961527E+03  0.7818609E-02  0.9723834E-01
       -1   -1    0    0    0  501  0.00000000000E+00  0.00000000000E+00  0.19694814331E+03  0.19694814338E+03  0.50400001928E-02 0. -1.
        1   -1    0    0  501    0  0.00000000000E+00  0.00000000000E+00 -0.61517276351E+03  0.61517276353E+03  0.50400001928E-02 0.  1.
    10030    2    1    2    0    0  0.00000000000E+00  0.00000000000E+00 -0.41822462019E+03  0.81212090691E+03  0.69615266609E+03 0.  0.
        1    1    3    3  502    0  0.21647494359E+03  0.56656945347E+02 -0.52014597129E+03  0.56623603041E+03  0.50400001928E-02 0.  1.
       -1    1    3    3    0  502 -0.21647494359E+03 -0.56656945347E+02  0.10192135110E+03  0.24588487650E+03  0.50400001928E-02 0. -1.
</event>
<event>
 5   0  0.6785252E-03  0.7005520E+03  0.7818609E-02  0.9716289E-01
       -1   -1    0    0    0  501  0.00000000000E+00  0.00000000000E+00  0.12049985147E+03  0.12049985157E+03  0.50400001928E-02 0.  1.
        1   -1    0    0  501    0  0.00000000000E+00  0.00000000000E+00 -0.10182026143E+04  0.10182026143E+04  0.50400001928E-02 0. -1.
    10030    2    1    2    0    0  0.00000000000E+00  0.00000000000E+00 -0.89770276281E+03  0.11387024659E+04  0.70055196482E+03 0.  0.
        3    1    3    3  502    0 -0.15527599840E+03  0.22474291625E+03 -0.92464589381E+02  0.28839161669E+03  0.10100000352E+00 0.  1.
       -3    1    3    3    0  502  0.15527599840E+03 -0.22474291625E+03 -0.80523817343E+03  0.85031084918E+03  0.10100000352E+00 0. -1.
</event>
<event>
 5   0  0.1119786E-02  0.6945505E+03  0.7818609E-02  0.9726597E-01
       -2   -1    0    0    0  501  0.00000000000E+00  0.00000000000E+00  0.22659965995E+03  0.22659965996E+03  0.25500000920E-02 0.  1.
        2   -1    0    0  501    0  0.00000000000E+00  0.00000000000E+00 -0.53221660331E+03  0.53221660331E+03  0.25500000920E-02 0. -1.
    10030    2    1    2    0    0  0.00000000000E+00  0.00000000000E+00 -0.30561694336E+03  0.75881626327E+03  0.69455050597E+03 0.  0.
        3    1    3    3  502    0  0.32167907872E+03 -0.26590363103E+02 -0.29278698110E+03  0.43578515761E+03  0.10100000352E+00 0. -1.
       -3    1    3    3    0  502 -0.32167907872E+03  0.26590363103E+02 -0.12829962264E+02  0.32303110566E+03  0.10100000352E+00 0.  1.
</event>
<event>
 5   0  0.4440500E-03  0.6971662E+03  0.7818609E-02  0.9722091E-01
       -3   -1    0    0    0  501  0.00000000000E+00  0.00000000000E+00  0.28043265992E+03  0.28043267811E+03  0.10100000352E+00 0.  1.
        3   -1    0    0  501    0  0.00000000000E+00  0.00000000000E+00 -0.43329531856E+03  0.43329533033E+03  0.10100000352E+00 0. -1.
    10030    2    1    2    0    0  0.00000000000E+00  0.00000000000E+00 -0.15286265864E+03  0.71372800844E+03  0.69716617648E+03 0.  0.
        5    1    3    3  502    0  0.33273493406E+03 -0.19463014711E+01  0.29821294658E+02  0.33410735407E+03  0.46999998093E+01 0.  1.
       -5    1    3    3    0  502 -0.33273493406E+03  0.19463014711E+01 -0.18268395329E+03  0.37962065437E+03  0.46999998093E+01 0. -1.
</event>
<event>
 5   0  0.6785252E-03  0.7065992E+03  0.7818609E-02  0.9706013E-01
        1   -1    0    0  501    0  0.00000000000E+00  0.00000000000E+00  0.93854050849E+03  0.93854050850E+03  0.50400001928E-02 0. -1.
       -1   -1    0    0    0  501  0.00000000000E+00  0.00000000000E+00 -0.13299436521E+03  0.13299436530E+03  0.50400001928E-02 0.  1.
    10030    2    1    2    0    0  0.00000000000E+00  0.00000000000E+00  0.80554614328E+03  0.10715348738E+04  0.70659917692E+03 0.  0.
        3    1    3    3  502    0  0.27112481182E+03 -0.20985063545E+02  0.74480817373E+03  0.79289864568E+03  0.10100000352E+00 0. -1.
       -3    1    3    3    0  502 -0.27112481182E+03  0.20985063545E+02  0.60737969558E+02  0.27863622812E+03  0.10100000352E+00 0.  1.
</event>
<event>
 5   0  0.1079446E-02  0.6983183E+03  0.7818609E-02  0.9720112E-01
        2   -1    0    0  501    0  0.00000000000E+00  0.00000000000E+00  0.53183664381E+03  0.53183664382E+03  0.25500000920E-02 0. -1.
       -2   -1    0    0    0  501  0.00000000000E+00  0.00000000000E+00 -0.22922849727E+03  0.22922849729E+03  0.25500000920E-02 0.  1.
    10030    2    1    2    0    0  0.00000000000E+00  0.00000000000E+00  0.30260814654E+03  0.76106514110E+03  0.69831830754E+03 0.  0.
        2    1    3    3  502    0 -0.27533178974E+03 -0.21293198990E+03  0.12117028668E+03  0.36855103465E+03  0.25500000920E-02 0.  1.
       -2    1    3    3    0  502  0.27533178974E+03  0.21293198990E+03  0.18143785986E+03  0.39251410645E+03  0.25500000920E-02 0. -1.
</event>
<event>
 5   0  0.6689415E-03  0.6992014E+03  0.7818609E-02  0.9718599E-01
        1   -1    0    0  501    0  0.00000000000E+00  0.00000000000E+00  0.57167128334E+03  0.57167128336E+03  0.50400001928E-02 0. -1.
       -1   -1    0    0    0  501  0.00000000000E+00  0.00000000000E+00 -0.21379531655E+03  0.21379531661E+03  0.50400001928E-02 0.  1.
    10030    2    1    2    0    0  0.00000000000E+00  0.00000000000E+00  0.35787596679E+03  0.78546659996E+03  0.69920138162E+03 0.  0.
        1    1    3    3  502    0 -0.34307945301E+03 -0.61271169779E+02  0.20996791280E+03  0.40687122257E+03  0.50400001928E-02 0.  1.
       -1    1    3    3    0  502  0.34307945301E+03  0.61271169779E+02  0.14790805399E+03  0.37859537739E+03  0.50400001928E-02 0. -1.
</event>
<event>
 5   0  0.6689415E-03  0.7031324E+03  0.7818609E-02  0.9711890E-01
       -1   -1    0    0    0  501  0.00000000000E+00  0.00000000000E+00  0.64663864331E+02  0.64663864527E+02  0.50400001928E-02 0.  1.
        1   -1    0    0  501    0  0.00000000000E+00  0.00000000000E+00 -0.19114042800E+04  0.19114042800E+04  0.50400001928E-02 0. -1.
    10030    2    1    2    0    0  0.00000000000E+00  0.00000000000E+00 -0.18467404157E+04  0.19760681446E+04  0.70313238368E+03 0.  0.
        1    1    3    3  502    0 -0.11072637831E+03  0.18616055528E+03 -0.17016101670E+04  0.17153405620E+04  0.50400001928E-02 0. -1.
       -1    1    3    3    0  502  0.11072637831E+03 -0.18616055528E+03 -0.14513024871E+03  0.26072758257E+03  0.50400001928E-02 0.  1.
</event>
<event>
 5   0  0.6609285E-03  0.6920819E+03  0.7818609E-02  0.9730870E-01
        1   -1    0    0  501    0  0.00000000000E+00  0.00000000000E+00  0.45870041821E+03  0.45870041823E+03  0.50400001928E-02 0. -1.
       -1   -1    0    0    0  501  0.00000000000E+00  0.00000000000E+00 -0.26105128710E+03  0.26105128715E+03  0.50400001928E-02 0.  1.
    10030    2    1    2    0    0  0.00000000000E+00  0.00000000000E+00  0.19764913110E+03  0.71975170539E+03  0.69208188705E+03 0.  0.
        2    1    3    3  502    0  0.32162337386E+03 -0.80856802569E+02 -0.39438137627E+01  0.33165489716E+03  0.25500000920E-02 0.  1.
       -2    1    3    3    0  502 -0.32162337386E+03  0.80856802569E+02  0.20159294486E+03  0.38809680823E+03  0.25500000920E-02 0. -1.
</event>
<event>
 5   0  0.1100119E-02  0.7004054E+03  0.7818609E-02  0.9716539E-01
        2   -1    0    0  501    0  0.00000000000E+00  0.00000000000E+00  0.39713637189E+03  0.39713637190E+03  0.25500000920E-02 0.  1.
       -2   -1    0    0    0  501  0.00000000000E+00  0.00000000000E+00 -0.30881569512E+03  0.30881569513E+03  0.25500000920E-02 0. -1.
    10030    2    1    2    0    0  0.00000000000E+00  0.00000000000E+00  0.88320676773E+02  0.70595206703E+03  0.70040543902E+03 0.  0.
        4    1    3    3  502    0 -0.12603353523E+02 -0.26200918044E+03  0.27801643236E+03  0.38223344270E+03  0.12699999809E+01 0.  1.
       -4    1    3    3    0  502  0.12603353523E+02  0.26200918044E+03 -0.18969575559E+03  0.32371862434E+03  0.12699999809E+01 0. -1.
</event>
<event>
 5   0  0.6785252E-03  0.6974927E+03  0.7818609E-02  0.9721530E-01
       -1   -1    0    0    0  501  0.00000000000E+00  0.00000000000E+00  0.12486210949E+03  0.12486210959E+03  0.50400001928E-02 0.  1.
        1   -1    0    0  501    0  0.00000000000E+00  0.00000000000E+00 -0.97406662297E+03  0.97406662298E+03  0.50400001928E-02 0. -1.
    10030    2    1    2    0    0  0.00000000000E+00  0.00000000000E+00 -0.84920451348E+03  0.10989287326E+04  0.69749269068E+03 0.  0.
        3    1    3    3  502    0 -0.28992458492E+03  0.18145473923E+03 -0.31725807752E+03  0.46651343527E+03  0.10100000352E+00 0.  1.
       -3    1    3    3    0  502  0.28992458492E+03 -0.18145473923E+03 -0.53194643596E+03  0.63241529730E+03  0.10100000352E+00 0. -1.
</event>
<event>
 5   0  0.6990118E-03  0.6954412E+03  0.7818609E-02  0.9725060E-01
       -1   -1    0    0    0  501  0.00000000000E+00  0.00000000000E+00  0.11727691864E+03  0.11727691875E+03  0.50400001928E-02 0. -1.
        1   -1    0    0  501    0  0.00000000000E+00  0.00000000000E+00 -0.10309754635E+04  0.10309754635E+04  0.50400001928E-02 0.  1.
    10030    2    1    2    0    0  0.00000000000E+00  0.00000000000E+00 -0.91369854483E+03  0.11482523822E+04  0.69544122864E+03 0.  0.
        5    1    3    3  502    0 -0.17851061042E+03 -0.39813139841E+02  0.31379178558E+02  0.18562830329E+03  0.46999998093E+01 0. -1.
       -5    1    3    3    0  502  0.17851061042E+03  0.39813139841E+02 -0.94507772338E+03  0.96262407895E+03  0.46999998093E+01 0.  1.
</event>
<event>
 5   0  0.6609285E-03  0.6995156E+03  0.7818609E-02  0.9718061E-01
        1   -1    0    0  501    0  0.00000000000E+00  0.00000000000E+00  0.15693498395E+04  0.15693498395E+04  0.50400001928E-02 0. -1.
       -1   -1    0    0    0  501  0.00000000000E+00  0.00000000000E+00 -0.77949815218E+02  0.77949815381E+02  0.50400001928E-02 0.  1.
    10030    2    1    2    0    0  0.00000000000E+00  0.00000000000E+00  0.14914000243E+04  0.16472996549E+04  0.69951563283E+03 0.  0.
        2    1    3    3  502    0 -0.16340158679E+02 -0.34298495531E+03  0.58905215852E+03  0.68182704979E+03  0.25500000920E-02 0.  1.
       -2    1    3    3    0  502  0.16340158679E+02  0.34298495531E+03  0.90234786578E+03  0.96547260512E+03  0.25500000920E-02 0. -1.
</event>
<event>
 5   0  0.1079446E-02  0.7006190E+03  0.7818609E-02  0.9716174E-01
        2   -1    0    0  501    0  0.00000000000E+00  0.00000000000E+00  0.16403556169E+04  0.16403556169E+04  0.25500000920E-02 0.  1.
       -2   -1    0    0    0  501  0.00000000000E+00  0.00000000000E+00 -0.74811052571E+02  0.74811052614E+02  0.25500000920E-02 0. -1.
    10030    2    1    2    0    0  0.00000000000E+00  0.00000000000E+00  0.15655445643E+04  0.17151666695E+04  0.70061895587E+03 0.  0.
        2    1    3    3  502    0  0.23336052926E+03 -0.10987794581E+03  0.13630557092E+04  0.13872458924E+04  0.25500000920E-02 0.  1.
       -2    1    3    3    0  502 -0.23336052926E+03  0.10987794581E+03  0.20248885507E+03  0.32792077706E+03  0.25500000920E-02 0. -1.
</event>
<event>
 5   0  0.4440500E-03  0.6995832E+03  0.7818609E-02  0.9717945E-01
       -3   -1    0    0    0  501  0.00000000000E+00  0.00000000000E+00  0.24074668904E+03  0.24074671023E+03  0.10100000352E+00 0. -1.
        3   -1    0    0  501    0  0.00000000000E+00  0.00000000000E+00 -0.50822780043E+03  0.50822781047E+03  0.10100000352E+00 0.  1.
    10030    2    1    2    0    0  0.00000000000E+00  0.00000000000E+00 -0.26748111139E+03  0.74897452069E+03  0.69958322428E+03 0.  0.
        2    1    3    3  502    0  0.32234500653E+03  0.13493765976E+03 -0.15031575078E+03  0.38040675625E+03  0.25500000920E-02 0. -1.
       -2    1    3    3    0  502 -0.32234500653E+03 -0.13493765976E+03 -0.11716536060E+03  0.36856776445E+03  0.25500000920E-02 0.  1.
</event>
<event>
 5   0  0.1100119E-02  0.7012731E+03  0.7818609E-02  0.9715058E-01
       -2   -1    0    0    0  501  0.00000000000E+00  0.00000000000E+00  0.14435384774E+03  0.14435384776E+03  0.25500000920E-02 0.  1.
        2   -1    0    0  501    0  0.00000000000E+00  0.00000000000E+00 -0.85169862715E+03  0.85169862715E+03  0.25500000920E-02 0. -1.
    10030    2    1    2    0    0  0.00000000000E+00  0.00000000000E+00 -0.70734477941E+03  0.99605247491E+03  0.70127305368E+03 0.  0.
        4    1    3    3  502    0  0.70152330658E+01 -0.23210546494E+03  0.19482784972E+02  0.23303079659E+03  0.12699999809E+01 0.  1.
       -4    1    3    3    0  502 -0.70152330658E+01  0.23210546494E+03 -0.72682756438E+03  0.76302167832E+03  0.12699999809E+01 0. -1.
</event>
<event>
 5   0  0.1100119E-02  0.7003361E+03  0.7818609E-02  0.9716658E-01
       -2   -1    0    0    0  501  0.00000000000E+00  0.00000000000E+00  0.12939532071E+03  0.12939532073E+03  0.25500000920E-02 0. -1.
        2   -1    0    0  501    0  0.00000000000E+00  0.00000000000E+00 -0.94762041764E+03  0.94762041765E+03  0.25500000920E-02 0.  1.
    10030    2    1    2    0    0  0.00000000000E+00  0.00000000000E+00 -0.81822509694E+03  0.10770157384E+04  0.70033605609E+03 0.  0.
        4    1    3    3  502    0  0.29298674256E+03 -0.14481568569E+03 -0.60243770385E+03  0.68537990491E+03  0.12699999809E+01 0.  1.
       -4    1    3    3    0  502 -0.29298674256E+03  0.14481568569E+03 -0.21578739309E+03  0.39163583347E+03  0.12699999809E+01 0. -1.
</event>
<event>
 5   0  0.6246998E-03  0.7024209E+03  0.7818609E-02  0.9713101E-01
        1   -1    0    0  501    0  0.00000000000E+00  0.00000000000E+00  0.85390840964E+02  0.85390841113E+02  0.50400001928E-02 0. -1.
       -1   -1    0    0    0  501  0.00000000000E+00  0.00000000000E+00 -0.14445198304E+04  0.14445198304E+04  0.50400001928E-02 0.  1.
    10030    2    1    2    0    0  0.00000000000E+00  0.00000000000E+00 -0.13591289894E+04  0.15299106715E+04  0.70242085170E+03 0.  0.
        4    1    3    3  502    0  0.10336937149E+03  0.19361527934E+03 -0.12767448773E+04  0.12954733490E+04  0.12699999809E+01 0.  1.
       -4    1    3    3    0  502 -0.10336937149E+03 -0.19361527934E+03 -0.82384112130E+02  0.23443732252E+03  0.12699999809E+01 0. -1.
</event>
<event>
 5   0  0.1079446E-02  0.6999494E+03  0.7818609E-02  0.9717319E-01
       -2   -1    0    0    0  501  0.00000000000E+00  0.00000000000E+00  0.15552007366E+03  0.15552007368E+03  0.25500000920E-02 0.  1.
        2   -1    0    0  501    0  0.00000000000E+00  0.00000000000E+00 -0.78756582542E+03  0.78756582542E+03  0.25500000920E-02 0. -1.
    10030    2    1    2    0    0  0.00000000000E+00  0.00000000000E+00 -0.63204575176E+03  0.94308589910E+03  0.69994941300E+03 0.  0.
        2    1    3    3  502    0  0.81956951169E+02  0.20350852556E+03  0.51364317526E+02  0.22532411088E+03  0.25500000920E-02 0.  1.
       -2    1    3    3    0  502 -0.81956951169E+02 -0.20350852556E+03 -0.68341006929E+03  0.71776178822E+03  0.25500000920E-02 0. -1.
</event>
<event>
 5   0  0.4440500E-03  0.7005839E+03  0.7818609E-02  0.9716234E-01
        3   -1    0    0  501    0  0.00000000000E+00  0.00000000000E+00  0.12507361200E+03  0.12507365278E+03  0.10100000352E+00 0.  1.
       -3   -1    0    0    0  501  0.00000000000E+00  0.00000000000E+00 -0.98105772746E+03  0.98105773266E+03  0.10100000352E+00 0. -1.
    10030    2    1    2    0    0  0.00000000000E+00  0.00000000000E+00 -0.85598411547E+03  0.11061313854E+04  0.70058392497E+03 0.  0.
        4    1    3    3  502    0  0.13773903529E+03  0.20031441544E+03 -0.29800573431E+02  0.24492364923E+03  0.12699999809E+01 0.  1.
       -4    1    3    3    0  502 -0.13773903529E+03 -0.20031441544E+03 -0.82618354204E+03  0.86120773621E+03  0.12699999809E+01 0. -1.
</event>
<event>
 5   0  0.1100119E-02  0.7022362E+03  0.7818609E-02  0.9713416E-01
        2   -1    0    0  501    0  0.00000000000E+00  0.00000000000E+00  0.15270662158E+03  0.15270662160E+03  0.25500000920E-02 0. -1.
       -2   -1    0    0    0  501  0.00000000000E+00  0.00000000000E+00 -0.80732536191E+03  0.80732536191E+03  0.25500000920E-02 0.  1.
    10030    2    1    2    0    0  0.00000000000E+00  0.00000000000E+00 -0.65461874032E+03  0.96003198351E+03  0.70223622392E+03 0.  0.
        4    1    3    3  502    0  0.23201557604E+03  0.95414795447E+02 -0.66314803429E+03  0.70901490746E+03  0.12699999809E+01 0.  1.
       -4    1    3    3    0  502 -0.23201557604E+03 -0.95414795447E+02  0.85292939687E+01  0.25101707605E+03  0.12699999809E+01 0. -1.
</event>
<event>
 5   0  0.1099980E-02  0.7060210E+03  0.7818609E-02  0.9706990E-01
        2   -1    0    0  501    0  0.00000000000E+00  0.00000000000E+00  0.18794065957E+03  0.18794065958E+03  0.25500000920E-02 0.  1.
       -2   -1    0    0    0  501  0.00000000000E+00  0.00000000000E+00 -0.66306263923E+03  0.66306263924E+03  0.25500000920E-02 0. -1.
    10030    2    1    2    0    0  0.00000000000E+00  0.00000000000E+00 -0.47512197966E+03  0.85100329882E+03  0.70602104717E+03 0.  0.
        5    1    3    3  502    0  0.31533489710E+03 -0.62159841833E+02 -0.41345306136E+03  0.52370360626E+03  0.46999998093E+01 0. -1.
       -5    1    3    3    0  502 -0.31533489710E+03  0.62159841833E+02 -0.61668918307E+02  0.32729969256E+03  0.46999998093E+01 0.  1.
</event>
<event>
 5   0  0.4440500E-03  0.7011592E+03  0.7818609E-02  0.9715252E-01
       -4   -1    0    0    0  501  0.00000000000E+00  0.00000000000E+00  0.17068027422E+04  0.17068032147E+04  0.12699999809E+01 0. -1.
        4   -1    0    0  501    0  0.00000000000E+00  0.00000000000E+00 -0.72003453021E+02  0.72014652308E+02  0.12699999809E+01 0.  1.
    10030    2    1    2    0    0  0.00000000000E+00  0.00000000000E+00  0.16347992892E+04  0.17788178670E+04  0.70115924587E+03 0.  0.
        2    1    3    3  502    0 -0.39829900563E+02  0.10399358401E+03 -0.25946286124E+02  0.11434288900E+03  0.25500000920E-02 0.  1.
       -2    1    3    3    0  502  0.39829900563E+02 -0.10399358401E+03  0.16607455753E+04  0.16644749780E+04  0.25500000920E-02 0. -1.
</event>
<event>
 5   0  0.1119786E-02  0.7004165E+03  0.7818609E-02  0.9716520E-01
        2   -1    0    0  501    0  0.00000000000E+00  0.00000000000E+00  0.24808404890E+03  0.24808404891E+03  0.25500000920E-02 0. -1.
       -2   -1    0    0    0  501  0.00000000000E+00  0.00000000000E+00 -0.49437210731E+03  0.49437210731E+03  0.25500000920E-02 0.  1.
    10030    2    1    2    0    0  0.00000000000E+00  0.00000000000E+00 -0.24628805841E+03  0.74245615623E+03  0.70041654478E+03 0.  0.
        3    1    3    3  502    0  0.24863489701E+03  0.18654032609E+03  0.47875214565E+02  0.31449745888E+03  0.10100000352E+00 0. -1.
       -3    1    3    3    0  502 -0.24863489701E+03 -0.18654032609E+03 -0.29416327297E+03  0.42795869735E+03  0.10100000352E+00 0.  1.
</event>
<event>
 5   0  0.6990118E-03  0.6993358E+03  0.7818609E-02  0.9718369E-01
       -1   -1    0    0    0  501  0.00000000000E+00  0.00000000000E+00  0.14392194835E+03  0.14392194844E+03  0.50400001928E-02 0.  1.
        1   -1    0    0  501    0  0.00000000000E+00  0.00000000000E+00 -0.84954137405E+03  0.84954137407E+03  0.50400001928E-02 0. -1.
    10030    2    1    2    0    0  0.00000000000E+00  0.00000000000E+00 -0.70561942570E+03  0.99346332251E+03  0.69933582722E+03 0.  0.
        5    1    3    3  502    0  0.32332518408E+03 -0.56541204274E+02 -0.52392623504E+03  0.61826925542E+03  0.46999998093E+01 0. -1.
       -5    1    3    3    0  502 -0.32332518408E+03  0.56541204274E+02 -0.18169319066E+03  0.37519406708E+03  0.46999998093E+01 0.  1.
</event>
<event>
 5   0  0.6609285E-03  0.7057228E+03  0.7818609E-02  0.9707495E-01
        1   -1    0    0  501    0  0.00000000000E+00  0.00000000000E+00  0.62768955923E+03  0.62768955925E+03  0.50400001928E-02 0. -1.
       -1   -1    0    0    0  501  0.00000000000E+00  0.00000000000E+00 -0.19836427214E+03  0.19836427221E+03  0.50400001928E-02 0.  1.
    10030    2    1    2    0    0  0.00000000000E+00  0.00000000000E+00  0.42932528709E+03  0.82605383146E+03  0.70572284244E+03 0.  0.
        2    1    3    3  502    0  0.12006259169E+02  0.12165530831E+03 -0.17278595719E+03  0.21165810003E+03  0.25500000920E-02 0.  1.
       -2    1    3    3    0  502 -0.12006259169E+02 -0.12165530831E+03  0.60211124429E+03  0.61439573143E+03  0.25500000920E-02 0. -1.
</event>
<event>
 5   0  0.1109788E-02  0.6982507E+03  0.7818609E-02  0.9720228E-01
       -2   -1    0    0    0  501  0.00000000000E+00  0.00000000000E+00  0.32942923900E+03  0.32942923901E+03  0.25500000920E-02 0. -1.
        2   -1    0    0  501    0  0.00000000000E+00  0.00000000000E+00 -0.36999906214E+03  0.36999906215E+03  0.25500000920E-02 0.  1.
    10030    2    1    2    0    0  0.00000000000E+00  0.00000000000E+00 -0.40569823144E+02  0.69942830116E+03  0.69825069847E+03 0.  0.
        1    1    3    3  502    0  0.13760146103E+03  0.29802928424E+03 -0.13936725148E+03  0.35662143394E+03  0.50400001928E-02 0.  1.
       -1    1    3    3    0  502 -0.13760146103E+03 -0.29802928424E+03  0.98797428334E+02  0.34280686721E+03  0.50400001928E-02 0. -1.
</event>
<event>
 5   0  0.6246998E-03  0.7016642E+03  0.7818609E-02  0.9714390E-01
       -1   -1    0    0    0  501  0.00000000000E+00  0.00000000000E+00  0.11355944932E+04  0.11355944932E+04  0.50400001928E-02 0.  1.
        1   -1    0    0  501    0  0.00000000000E+00  0.00000000000E+00 -0.10838654774E+03  0.10838654786E+03  0.50400001928E-02 0. -1.
    10030    2    1    2    0    0  0.00000000000E+00  0.00000000000E+00  0.10272079454E+04  0.12439810410E+04  0.70166421266E+03 0.  0.
        4    1    3    3  502    0 -0.34055293061E+03 -0.67280859786E+02  0.60363070362E+03  0.69632941335E+03  0.12699999809E+01 0. -1.
       -4    1    3    3    0  502  0.34055293061E+03  0.67280859786E+02  0.42357724180E+03  0.54765162769E+03  0.12699999809E+01 0.  1.
</event>
<event>
 5   0  0.1119786E-02  0.6980843E+03  0.7818609E-02  0.9720514E-01
        2   -1    0    0  501    0  0.00000000000E+00  0.00000000000E+00  0.88363963204E+03  0.88363963204E+03  0.25500000920E-02 0. -1.
       -2   -1    0    0    0  501  0.00000000000E+00  0.00000000000E+00 -0.13787342488E+03  0.13787342491E+03  0.25500000920E-02 0.  1.
    10030    2    1    2    0    0  0.00000000000E+00  0.00000000000E+00  0.74576620715E+03  0.10215130569E+04  0.69808429991E+03 0.  0.
        3    1    3    3  502    0 -0.72074313833E+02  0.37499756333E+02 -0.12384398071E+03  0.14811576621E+03  0.10100000352E+00 0.  1.
       -3    1    3    3    0  502  0.72074313833E+02 -0.37499756333E+02  0.86961018786E+03  0.87339729074E+03  0.10100000352E+00 0. -1.
</event>
<event>
 5   0  0.6785252E-03  0.6992055E+03  0.7818609E-02  0.9718592E-01
       -1   -1    0    0    0  501  0.00000000000E+00  0.00000000000E+00  0.39025369018E+03  0.39025369022E+03  0.50400001928E-02 0.  1.
        1   -1    0    0  501    0  0.00000000000E+00  0.00000000000E+00 -0.31318621036E+03  0.31318621040E+03  0.50400001928E-02 0. -1.
    10030    2    1    2    0    0  0.00000000000E+00  0.00000000000E+00  0.77067479823E+02  0.70343990062E+03  0.69920547576E+03 0.  0.
        3    1    3    3  502    0  0.94963194751E+02 -0.33441444372E+03  0.12820014668E+01  0.34763872376E+03  0.10100000352E+00 0.  1.
       -3    1    3    3    0  502 -0.94963194751E+02  0.33441444372E+03  0.75785478357E+02  0.35580117686E+03  0.10100000352E+00 0. -1.
</event>
<event>
 5   0  0.6785252E-03  0.7162725E+03  0.7818609E-02  0.9689802E-01
       -1   -1    0    0    0  501  0.00000000000E+00  0.00000000000E+00  0.18874485776E+03  0.18874485783E+03  0.50400001928E-02 0.  1.
        1   -1    0    0  501    0  0.00000000000E+00  0.00000000000E+00 -0.67955011044E+03  0.67955011046E+03  0.50400001928E-02 0. -1.
    10030    2    1    2    0    0  0.00000000000E+00  0.00000000000E+00 -0.49080525268E+03  0.86829496829E+03  0.71627254303E+03 0.  0.
        3    1    3    3  502    0  0.30738401713E+03  0.18368338080E+03 -0.23802283529E+03  0.42997604432E+03  0.10100000352E+00 0.  1.
       -3    1    3    3    0  502 -0.30738401713E+03 -0.18368338080E+03 -0.25278241739E+03  0.43831892397E+03  0.10100000352E+00 0. -1.
</event>
<event>
 5   0  0.6990118E-03  0.6986165E+03  0.7818609E-02  0.9719601E-01
        1   -1    0    0  501    0  0.00000000000E+00  0.00000000000E+00  0.28820906777E+03  0.28820906782E+03  0.50400001928E-02 0.  1.
       -1   -1    0    0    0  501  0.00000000000E+00  0.00000000000E+00 -0.42336027541E+03  0.42336027544E+03  0.50400001928E-02 0. -1.
    10030    2    1    2    0    0  0.00000000000E+00  0.00000000000E+00 -0.13515120763E+03  0.71156934325E+03  0.69861654814E+03 0.  0.
        5    1    3    3  502    0  0.20053571949E+03 -0.84149658903E+02  0.21080189458E+03  0.30291132141E+03  0.46999998093E+01 0.  1.
       -5    1    3    3    0  502 -0.20053571949E+03  0.84149658903E+02 -0.34595310221E+03  0.40865802184E+03  0.46999998093E+01 0. -1.
</event>
<event>
 5   0  0.1079446E-02  0.6992999E+03  0.7818609E-02  0.9718430E-01
       -2   -1    0    0    0  501  0.00000000000E+00  0.00000000000E+00  0.25445202210E+03  0.25445202211E+03  0.25500000920E-02 0.  1.
        2   -1    0    0  501    0  0.00000000000E+00  0.00000000000E+00 -0.48046420260E+03  0.48046420260E+03  0.25500000920E-02 0. -1.
    10030    2    1    2    0    0  0.00000000000E+00  0.00000000000E+00 -0.22601218050E+03  0.73491622472E+03  0.69929990106E+03 0.  0.
        2    1    3    3  502    0 -0.34367411485E+03 -0.64311270270E+02 -0.11017613760E+03  0.36658780395E+03  0.25500000920E-02 0. -1.
       -2    1    3    3    0  502  0.34367411485E+03  0.64311270270E+02 -0.11583604290E+03  0.36832842076E+03  0.25500000920E-02 0.  1.
</event>
<event>
 5   0  0.1099980E-02  0.6965178E+03  0.7818609E-02  0.9723206E-01
        2   -1    0    0  501    0  0.00000000000E+00  0.00000000000E+00  0.68596977625E+03  0.68596977625E+03  0.25500000920E-02 0. -1.
       -2   -1    0    0    0  501  0.00000000000E+00  0.00000000000E+00 -0.17680699128E+03  0.17680699129E+03  0.25500000920E-02 0.  1.
    10030    2    1    2    0    0  0.00000000000E+00  0.00000000000E+00  0.50916278497E+03  0.86277676754E+03  0.69651777365E+03 0.  0.
        5    1    3    3  502    0 -0.12411708620E+03  0.81563512343E+01  0.65747441718E+03  0.66915340274E+03  0.46999998093E+01 0. -1.
       -5    1    3    3    0  502  0.12411708620E+03 -0.81563512343E+01 -0.14831163221E+03  0.19362336481E+03  0.46999998093E+01 0.  1.
</event>
<event>
 5   0  0.6246998E-03  0.6987680E+03  0.7818609E-02  0.9719341E-01
       -1   -1    0    0    0  501  0.00000000000E+00  0.00000000000E+00  0.12261725628E+03  0.12261725638E+03  0.50400001928E-02 0. -1.
        1   -1    0    0  501    0  0.00000000000E+00  0.00000000000E+00 -0.99553010253E+03  0.99553010254E+03  0.50400001928E-02 0.  1.
    10030    2    1    2    0    0  0.00000000000E+00  0.00000000000E+00 -0.87291284625E+03  0.11181473589E+04  0.69876797231E+03 0.  0.
        4    1    3    3  502    0  0.31105188585E+03  0.86392755451E+02 -0.65024875877E+03  0.72597661468E+03  0.12699999809E+01 0.  1.
       -4    1    3    3    0  502 -0.31105188585E+03 -0.86392755451E+02 -0.22266408748E+03  0.39217074424E+03  0.12699999809E+01 0. -1.
</event>
<event>
 5   0  0.1100119E-02  0.6954836E+03  0.7818609E-02  0.9724987E-01
        2   -1    0    0  501    0  0.00000000000E+00  0.00000000000E+00  0.39206383395E+03  0.39206383395E+03  0.25500000920E-02 0.  1.
       -2   -1    0    0    0  501  0.00000000000E+00  0.00000000000E+00 -0.30843032428E+03  0.30843032429E+03  0.25500000920E-02 0. -1.
    10030    2    1    2    0    0  0.00000000000E+00  0.00000000000E+00  0.83633509670E+02  0.70049415824E+03  0.69548364596E+03 0.  0.
        4    1    3    3  502    0 -0.21737546383E+03  0.26215618280E+03  0.11264267547E+03  0.35870313867E+03  0.12699999809E+01 0. -1.
       -4    1    3    3    0  502  0.21737546383E+03 -0.26215618280E+03 -0.29009165802E+02  0.34179101957E+03  0.12699999809E+01 0.  1.
</event>
<event>
 5   0  0.6990118E-03  0.6983710E+03  0.7818609E-02  0.9720022E-01
        1   -1    0    0  501    0  0.00000000000E+00  0.00000000000E+00  0.69873860411E+03  0.69873860413E+03  0.50400001928E-02 0.  1.
       -1   -1    0    0    0  501  0.00000000000E+00  0.00000000000E+00 -0.17450088638E+03  0.17450088645E+03  0.50400001928E-02 0. -1.
    10030    2    1    2    0    0  0.00000000000E+00  0.00000000000E+00  0.52423771773E+03  0.87323949059E+03  0.69837097822E+03 0.  0.
        5    1    3    3  502    0  0.25680664073E+03  0.53871616508E+02  0.55013508103E+03  0.60952645486E+03  0.46999998093E+01 0.  1.
       -5    1    3    3    0  502 -0.25680664073E+03 -0.53871616508E+02 -0.25897363297E+02  0.26371303573E+03  0.46999998093E+01 0. -1.
</event>
<event>
 5   0  0.1079446E-02  0.7009123E+03  0.7818609E-02  0.9715673E-01
        2   -1    0    0  501    0  0.00000000000E+00  0.00000000000E+00  0.19717079626E+03  0.19717079627E+03  0.25500000920E-02 0. -1.
       -2   -1    0    0    0  501  0.00000000000E+00  0.00000000000E+00 -0.62290918031E+03  0.62290918031E+03  0.25500000920E-02 0.  1.
    10030    2    1    2    0    0  0.00000000000E+00  0.00000000000E+00 -0.42573838405E+03  0.82007997658E+03  0.70091226009E+03 0.  0.
        2    1    3    3  502    0  0.22447652835E+03  0.52023020743E+02 -0.52181464451E+03  0.57042670843E+03  0.25500000920E-02 0.  1.
       -2    1    3    3    0  502 -0.22447652835E+03 -0.52023020743E+02  0.96076260457E+02  0.24965326815E+03  0.25500000920E-02 0. -1.
</event>
<event>
 5   0  0.1119786E-02  0.6995326E+03  0.7818609E-02  0.9718032E-01
       -2   -1    0    0    0  501  0.00000000000E+00  0.00000000000E+00  0.15460638208E+03  0.15460638210E+03  0.25500000920E-02 0. -1.
        2   -1    0    0  501    0  0.00000000000E+00  0.00000000000E+00 -0.79127700367E+03  0.79127700367E+03  0.25500000920E-02 0.  1.
    10030    2    1    2    0    0  0.00000000000E+00  0.00000000000E+00 -0.63667062159E+03  0.94588338577E+03  0.69953262904E+03 0.  0.
        3    1    3    3  502    0 -0.47574262857E+02 -0.30938876992E+03 -0.52934123451E+03  0.61496900263E+03  0.10100000352E+00 0.  1.
       -3    1    3    3    0  502  0.47574262857E+02  0.30938876992E+03 -0.10732938708E+03  0.33091438315E+03  0.10100000352E+00 0. -1.
</event>
<event>
 5   0  0.6609285E-03  0.6978019E+03  0.7818609E-02  0.9720999E-01
       -1   -1    0    0    0  501  0.00000000000E+00  0.00000000000E+00  0.10918805049E+04  0.10918805049E+04  0.50400001928E-02 0. -1.
        1   -1    0    0  501    0  0.00000000000E+00  0.00000000000E+00 -0.11148826589E+03  0.11148826600E+03  0.50400001928E-02 0.  1.
    10030    2    1    2    0    0  0.00000000000E+00  0.00000000000E+00  0.98039223902E+03  0.12033687709E+04  0.69780187482E+03 0.  0.
        2    1    3    3  502    0 -0.32853546424E+03 -0.11580422903E+03  0.52406397557E+03  0.62927674454E+03  0.25500000920E-02 0. -1.
       -2    1    3    3    0  502  0.32853546424E+03  0.11580422903E+03  0.45632826344E+03  0.57409202638E+03  0.25500000920E-02 0.  1.
</event>
<event>
 5   0  0.6990118E-03  0.7014103E+03  0.7818609E-02  0.9714823E-01
       -1   -1    0    0    0  501  0.00000000000E+00  0.00000000000E+00  0.26450617376E+03  0.26450617381E+03  0.50400001928E-02 0.  1.
        1   -1    0    0  501    0  0.00000000000E+00  0.00000000000E+00 -0.46499525583E+03  0.46499525586E+03  0.50400001928E-02 0. -1.
    10030    2    1    2    0    0  0.00000000000E+00  0.00000000000E+00 -0.20048908207E+03  0.72950142967E+03  0.70141033914E+03 0.  0.
        5    1    3    3  502    0  0.67449788976E+02 -0.34111173626E+03 -0.14751058664E+03  0.37774085538E+03  0.46999998093E+01 0. -1.
       -5    1    3    3    0  502 -0.67449788976E+02  0.34111173626E+03 -0.52978495427E+02  0.35176057429E+03  0.46999998093E+01 0.  1.
</event>
<event>
 5   0  0.1119786E-02  0.6779347E+03  0.7818609E-02  0.9755729E-01
        2   -1    0    0  501    0  0.00000000000E+00  0.00000000000E+00  0.25425973377E+03  0.25425973378E+03  0.25500000920E-02 0.  1.
       -2   -1    0    0    0  501  0.00000000000E+00  0.00000000000E+00 -0.45189558321E+03  0.45189558322E+03  0.25500000920E-02 0. -1.
    10030    2    1    2    0    0  0.00000000000E+00  0.00000000000E+00 -0.19763584944E+03  0.70615531700E+03  0.67793465964E+03 0.  0.
        3    1    3    3  502    0 -0.23419602903E+03  0.18452956793E+03  0.69139120700E+02  0.30607053054E+03  0.10100000352E+00 0.  1.
       -3    1    3    3    0  502  0.23419602903E+03 -0.18452956793E+03 -0.26677497014E+03  0.40008478645E+03  0.10100000352E+00 0. -1.
</event>
<event>
 5   0  0.1119786E-02  0.6996467E+03  0.7818609E-02  0.9717837E-01
       -2   -1    0    0    0  501  0.00000000000E+00  0.00000000000E+00  0.23203746537E+03  0.23203746538E+03  0.25500000920E-02 0.  1.
        2   -1    0    0  501    0  0.00000000000E+00  0.00000000000E+00 -0.52739915212E+03  0.52739915213E+03  0.25500000920E-02 0. -1.
    10030    2    1    2    0    0  0.00000000000E+00  0.00000000000E+00 -0.29536168676E+03  0.75943661751E+03  0.69964666084E+03 0.  0.
        3    1    3    3  502    0 -0.11140239476E+03  0.33159227327E+03 -0.14385500186E+03  0.37823035443E+03  0.10100000352E+00 0.  1.
       -3    1    3    3    0  502  0.11140239476E+03 -0.33159227327E+03 -0.15150668490E+03  0.38120626309E+03  0.10100000352E+00 0. -1.
</event>
<event>
 5   0  0.1079446E-02  0.6994230E+03  0.7818609E-02  0.9718219E-01
       -2   -1    0    0    0  501  0.00000000000E+00  0.00000000000E+00  0.59379076825E+03  0.59379076825E+03  0.25500000920E-02 0. -1.
        2   -1    0    0  501    0  0.00000000000E+00  0.00000000000E+00 -0.20596168437E+03  0.20596168439E+03  0.25500000920E-02 0.  1.
    10030    2    1    2    0    0  0.00000000000E+00  0.00000000000E+00  0.38782908388E+03  0.79975245264E+03  0.69942303880E+03 0.  0.
        2    1    3    3  502    0  0.12336086965E+03  0.94103599083E+02 -0.16445090139E+03  0.22609177449E+03  0.25500000920E-02 0.  1.
       -2    1    3    3    0  502 -0.12336086965E+03 -0.94103599083E+02  0.55227998527E+03  0.57366067815E+03  0.25500000920E-02 0. -1.
</event>
<event>
 5   0  0.6689415E-03  0.7008556E+03  0.7818609E-02  0.9715770E-01
       -1   -1    0    0    0  501  0.00000000000E+00  0.00000000000E+00  0.18999693332E+03  0.18999693339E+03  0.50400001928E-02 0. -1.
        1   -1    0    0  501    0  0.00000000000E+00  0.00000000000E+00 -0.64632431158E+03  0.64632431160E+03  0.50400001928E-02 0.  1.
    10030    2    1    2    0    0  0.00000000000E+00  0.00000000000E+00 -0.45632737826E+03  0.83632124498E+03  0.70085558332E+03 0.  0.
        1    1    3    3  502    0 -0.21081978864E+02 -0.15617015420E+03 -0.60165666229E+03  0.62195201278E+03  0.50400001928E-02 0.  1.
       -1    1    3    3    0  502  0.21081978864E+02  0.15617015420E+03  0.14532928403E+03  0.21436923221E+03  0.50400001928E-02 0. -1.
</event>
<event>
 5   0  0.1100119E-02  0.6999628E+03  0.7818609E-02  0.9717296E-01
       -2   -1    0    0    0  501  0.00000000000E+00  0.00000000000E+00  0.10246911525E+04  0.10246911525E+04  0.25500000920E-02 0.  1.
        2   -1    0    0  501    0  0.00000000000E+00  0.00000000000E+00 -0.11953551570E+03  0.11953551573E+03  0.25500000920E-02 0. -1.
    10030    2    1    2    0    0  0.00000000000E+00  0.00000000000E+00  0.90515563684E+03  0.11442266683E+04  0.69996281436E+03 0.  0.
        4    1    3    3  502    0  0.42840798432E+01 -0.28189720958E+03  0.79155954351E+03  0.84026931036E+03  0.12699999809E+01 0.  1.
       -4    1    3    3    0  502 -0.42840798432E+01  0.28189720958E+03  0.11359609333E+03  0.30395735791E+03  0.12699999809E+01 0. -1.
</event>
<event>
 5   0  0.1119786E-02  0.6990111E+03  0.7818609E-02  0.9718925E-01
        2   -1    0    0  501    0  0.00000000000E+00  0.00000000000E+00  0.15046866618E+04  0.15046866618E+04  0.25500000920E-02 0.  1.
       -2   -1    0    0    0  501  0.00000000000E+00  0.00000000000E+00 -0.81182432669E+02  0.81182432709E+02  0.25500000920E-02 0. -1.
    10030    2    1    2    0    0  0.00000000000E+00  0.00000000000E+00  0.14235042291E+04  0.15858690945E+04  0.69901108329E+03 0.  0.
        3    1    3    3  502    0 -0.30246355982E+03 -0.95106937664E+01  0.31501928004E+03  0.43682011780E+03  0.10100000352E+00 0. -1.
       -3    1    3    3    0  502  0.30246355982E+03  0.95106937664E+01  0.11084849490E+04  0.11490489767E+04  0.10100000352E+00 0.  1.
</event>
<event>
 5   0  0.4440500E-03  0.6999464E+03  0.7818609E-02  0.9717324E-01
       -4   -1    0    0    0  501  0.00000000000E+00  0.00000000000E+00  0.34235426541E+03  0.34235662100E+03  0.12699999809E+01 0. -1.
        4   -1    0    0  501    0  0.00000000000E+00  0.00000000000E+00 -0.35775694373E+03  0.35775919791E+03  0.12699999809E+01 0.  1.
    10030    2    1    2    0    0  0.00000000000E+00  0.00000000000E+00 -0.15402678320E+02  0.70011581891E+03  0.69994636751E+03 0.  0.
        1    1    3    3  502    0  0.21254561523E+03  0.19654700132E+03 -0.20440821515E+03  0.35438549734E+03  0.50400001928E-02 0. -1.
       -1    1    3    3    0  502 -0.21254561523E+03 -0.19654700132E+03  0.18900553683E+03  0.34573032157E+03  0.50400001928E-02 0.  1.
</event>
<event>
 5   0  0.6246998E-03  0.6974342E+03  0.7818609E-02  0.9721630E-01
       -1   -1    0    0    0  501  0.00000000000E+00  0.00000000000E+00  0.39609392520E+03  0.39609392523E+03  0.50400001928E-02 0. -1.
        1   -1    0    0  501    0  0.00000000000E+00  0.00000000000E+00 -0.30700702872E+03  0.30700702876E+03  0.50400001928E-02 0.  1.
    10030    2    1    2    0    0  0.00000000000E+00  0.00000000000E+00  0.89086896486E+02  0.70310095399E+03  0.69743420935E+03 0.  0.
        4    1    3    3  502    0  0.28367861970E+03  0.29807862880E+02  0.24677228979E+03  0.37717402333E+03  0.12699999809E+01 0.  1.
       -4    1    3    3    0  502 -0.28367861970E+03 -0.29807862880E+02 -0.15768539331E+03  0.32592693066E+03  0.12699999809E+01 0. -1.
</event>
<event>
 5   0  0.1109788E-02  0.6973345E+03  0.7818609E-02  0.9721802E-01
        2   -1    0    0  501    0  0.00000000000E+00  0.00000000000E+00  0.33640396434E+03  0.33640396435E+03  0.25500000920E-02 0. -1.
       -2   -1    0    0    0  501  0.00000000000E+00  0.00000000000E+00 -0.36137753044E+03  0.36137753045E+03  0.25500000920E-02 0.  1.
    10030    2    1    2    0    0  0.00000000000E+00  0.00000000000E+00 -0.24973566100E+02  0.69778149480E+03  0.69733445023E+03 0.  0.
        1    1    3    3  502    0 -0.17173711597E+02 -0.33163256439E+03  0.93853353523E+02  0.34508483903E+03  0.50400001928E-02 0. -1.
       -1    1    3    3    0  502  0.17173711597E+02  0.33163256439E+03 -0.11882691962E+03  0.35269665577E+03  0.50400001928E-02 0.  1.
</event>
<event>
 5   0  0.6990118E-03  0.6699195E+03  0.7818609E-02  0.9770103E-01
       -1   -1    0    0    0  501  0.00000000000E+00  0.00000000000E+00  0.76598981695E+02  0.76598981861E+02  0.50400001928E-02 0. -1.
        1   -1    0    0  501    0  0.00000000000E+00  0.00000000000E+00 -0.14647456637E+04  0.14647456637E+04  0.50400001928E-02 0.  1.
    10030    2    1    2    0    0  0.00000000000E+00  0.00000000000E+00 -0.13881466820E+04  0.15413446456E+04  0.66991947701E+03 0.  0.
        5    1    3    3  502    0  0.85171861648E+02  0.32390927436E+03 -0.68920762434E+03  0.76629022144E+03  0.46999998093E+01 0. -1.
       -5    1    3    3    0  502 -0.85171861648E+02 -0.32390927436E+03 -0.69893905769E+03  0.77505442415E+03  0.46999998093E+01 0.  1.
</event>
<event>
 5   0  0.6246998E-03  0.7004288E+03  0.7818609E-02  0.9716499E-01
       -1   -1    0    0    0  501  0.00000000000E+00  0.00000000000E+00  0.15173405419E+03  0.15173405427E+03  0.50400001928E-02 0. -1.
        1   -1    0    0  501    0  0.00000000000E+00  0.00000000000E+00 -0.80832304181E+03  0.80832304182E+03  0.50400001928E-02 0.  1.
    10030    2    1    2    0    0  0.00000000000E+00  0.00000000000E+00 -0.65658898762E+03  0.96005709609E+03  0.70042881801E+03 0.  0.
        4    1    3    3  502    0  0.24507616724E+02  0.18218742522E+03  0.80284045142E+02  0.20059915750E+03  0.12699999809E+01 0. -1.
       -4    1    3    3    0  502 -0.24507616724E+02 -0.18218742522E+03 -0.73687303276E+03  0.75945793860E+03  0.12699999809E+01 0.  1.
</event>
<event>
 5   0  0.1119786E-02  0.6960107E+03  0.7818609E-02  0.9724079E-01
       -2   -1    0    0    0  501  0.00000000000E+00  0.00000000000E+00  0.23622666582E+03  0.23622666583E+03  0.25500000920E-02 0.  1.
        2   -1    0    0  501    0  0.00000000000E+00  0.00000000000E+00 -0.51267599201E+03  0.51267599202E+03  0.25500000920E-02 0. -1.
    10030    2    1    2    0    0  0.00000000000E+00  0.00000000000E+00 -0.27644932620E+03  0.74890265785E+03  0.69601074775E+03 0.  0.
        3    1    3    3  502    0 -0.16419481699E+03 -0.13637633095E+03 -0.43397456901E+03  0.48362421188E+03  0.10100000352E+00 0. -1.
       -3    1    3    3    0  502  0.16419481699E+03  0.13637633095E+03  0.15752524282E+03  0.26527844597E+03  0.10100000352E+00 0.  1.
</event>
<event>
 5   0  0.6246998E-03  0.6678120E+03  0.7818609E-02  0.9773919E-01
       -1   -1    0    0    0  501  0.00000000000E+00  0.00000000000E+00  0.65538678419E+02  0.65538678612E+02  0.50400001928E-02 0. -1.
        1   -1    0    0  501    0  0.00000000000E+00  0.00000000000E+00 -0.17011818607E+04  0.17011818607E+04  0.50400001928E-02 0.  1.
    10030    2    1    2    0    0  0.00000000000E+00  0.00000000000E+00 -0.16356431823E+04  0.17667205393E+04  0.66781198276E+03 0.  0.
        4    1    3    3  502    0  0.26511879326E+03  0.13280177290E+03 -0.41168821332E+03  0.50735892947E+03  0.12699999809E+01 0. -1.
       -4    1    3    3    0  502 -0.26511879326E+03 -0.13280177290E+03 -0.12239549690E+04  0.12593616099E+04  0.12699999809E+01 0.  1.
</event>
<event>
 5   0  0.6689415E-03  0.6967704E+03  0.7818609E-02  0.9722771E-01
       -1   -1    0    0    0  501  0.00000000000E+00  0.00000000000E+00  0.22040406949E+03  0.22040406955E+03  0.50400001928E-02 0. -1.
        1   -1    0    0  501    0  0.00000000000E+00  0.00000000000E+00 -0.55068066187E+03  0.55068066189E+03  0.50400001928E-02 0.  1.
    10030    2    1    2    0    0  0.00000000000E+00  0.00000000000E+00 -0.33027659238E+03  0.77108473144E+03  0.69677043249E+03 0.  0.
        1    1    3    3  502    0 -0.16890816391E+03 -0.32402422531E+02 -0.50042450616E+03  0.52915458158E+03  0.50400001928E-02 0.  1.
       -1    1    3    3    0  502  0.16890816391E+03  0.32402422531E+02  0.17014791378E+03  0.24193014986E+03  0.50400001928E-02 0. -1.
</event>
<event>
 5   0  0.6609285E-03  0.6981118E+03  0.7818609E-02  0.9720467E-01
       -1   -1    0    0    0  501  0.00000000000E+00  0.00000000000E+00  0.44486759450E+03  0.44486759453E+03  0.50400001928E-02 0. -1.
        1   -1    0    0  501    0  0.00000000000E+00  0.00000000000E+00 -0.27387928580E+03  0.27387928585E+03  0.50400001928E-02 0.  1.
    10030    2    1    2    0    0  0.00000000000E+00  0.00000000000E+00  0.17098830870E+03  0.71874688038E+03  0.69811179358E+03 0.  0.
        2    1    3    3  502    0  0.31622159976E+03  0.11281873971E+03  0.18379326855E+03  0.38275858417E+03  0.25500000920E-02 0. -1.
       -2    1    3    3    0  502 -0.31622159976E+03 -0.11281873971E+03 -0.12804959845E+02  0.33598829621E+03  0.25500000920E-02 0.  1.
</event>
<event>
 5   0  0.1109788E-02  0.6998788E+03  0.7818609E-02  0.9717439E-01
       -2   -1    0    0    0  501  0.00000000000E+00  0.00000000000E+00  0.14222236459E+03  0.14222236461E+03  0.25500000920E-02 0.  1.
        2   -1    0    0  501    0  0.00000000000E+00  0.00000000000E+00 -0.86102911299E+03  0.86102911299E+03  0.25500000920E-02 0. -1.
    10030    2    1    2    0    0  0.00000000000E+00  0.00000000000E+00 -0.71880674840E+03  0.10032514776E+04  0.69987883649E+03 0.  0.
        1    1    3    3  502    0  0.62116076403E+01 -0.28171748383E+03 -0.61966320676E+02  0.28851888965E+03  0.50400001928E-02 0.  1.
       -1    1    3    3    0  502 -0.62116076403E+01  0.28171748383E+03 -0.65684042772E+03  0.71473258795E+03  0.50400001928E-02 0. -1.
</event>
<event>
 5   0  0.6990118E-03  0.6988943E+03  0.7818609E-02  0.9719125E-01
        1   -1    0    0  501    0  0.00000000000E+00  0.00000000000E+00  0.55895296737E+03  0.55895296739E+03  0.50400001928E-02 0. -1.
       -1   -1    0    0    0  501  0.00000000000E+00  0.00000000000E+00 -0.21846793575E+03  0.21846793581E+03  0.50400001928E-02 0.  1.
    10030    2    1    2    0    0  0.00000000000E+00  0.00000000000E+00  0.34048503162E+03  0.77742090320E+03  0.69889427239E+03 0.  0.
        5    1    3    3  502    0 -0.28463869769E+03  0.93119795397E+01 -0.54952535972E+02  0.29008235450E+03  0.46999998093E+01 0.  1.
       -5    1    3    3    0  502  0.28463869769E+03 -0.93119795397E+01  0.39543756759E+03  0.48733854870E+03  0.46999998093E+01 0. -1.
</event>
<event>
 5   0  0.1119786E-02  0.6965594E+03  0.7818609E-02  0.9723134E-01
        2   -1    0    0  501    0  0.00000000000E+00  0.00000000000E+00  0.80458978282E+03  0.80458978283E+03  0.25500000920E-02 0. -1.
       -2   -1    0    0    0  501  0.00000000000E+00  0.00000000000E+00 -0.15075851404E+03  0.15075851406E+03  0.25500000920E-02 0.  1.
    10030    2    1    2    0    0  0.00000000000E+00  0.00000000000E+00  0.65383126879E+03  0.95534829689E+03  0.69655943057E+03 0.  0.
        3    1    3    3  502    0 -0.40091878497E+01  0.14834173122E+03  0.75905991563E+03  0.77342957568E+03  0.10100000352E+00 0. -1.
       -3    1    3    3    0  502  0.40091878497E+01 -0.14834173122E+03 -0.10522864684E+03  0.18191872121E+03  0.10100000352E+00 0.  1.
</event>
<event>
 5   0  0.1079446E-02  0.6978319E+03  0.7818609E-02  0.9720947E-01
       -2   -1    0    0    0  501  0.00000000000E+00  0.00000000000E+00  0.23283977415E+03  0.23283977416E+03  0.25500000920E-02 0.  1.
        2   -1    0    0  501    0  0.00000000000E+00  0.00000000000E+00 -0.52285887467E+03  0.52285887468E+03  0.25500000920E-02 0. -1.
    10030    2    1    2    0    0  0.00000000000E+00  0.00000000000E+00 -0.29001910052E+03  0.75569864884E+03  0.69783190611E+03 0.  0.
        2    1    3    3  502    0  0.22146231873E+03 -0.22570895830E+03 -0.30472609808E+03  0.43914472254E+03  0.25500000920E-02 0. -1.
       -2    1    3    3    0  502 -0.22146231873E+03  0.22570895830E+03  0.14706997560E+02  0.31655392630E+03  0.25500000920E-02 0.  1.
</event>
<event>
 5   0  0.1100119E-02  0.7008706E+03  0.7818609E-02  0.9715745E-01
       -2   -1    0    0    0  501  0.00000000000E+00  0.00000000000E+00  0.89599833054E+02  0.89599833090E+02  0.25500000920E-02 0. -1.
        2   -1    0    0  501    0  0.00000000000E+00  0.00000000000E+00 -0.13705928386E+04  0.13705928386E+04  0.25500000920E-02 0.  1.
    10030    2    1    2    0    0  0.00000000000E+00  0.00000000000E+00 -0.12809930056E+04  0.14601926717E+04  0.70087057166E+03 0.  0.
        4    1    3    3  502    0 -0.25422318219E+03 -0.22955880344E+03 -0.48631648529E+03  0.59483779921E+03  0.12699999809E+01 0. -1.
       -4    1    3    3    0  502  0.25422318219E+03  0.22955880344E+03 -0.79467652029E+03  0.86535487252E+03  0.12699999809E+01 0.  1.
</event>
<event>
 5   0  0.1119786E-02  0.7001658E+03  0.7818609E-02  0.9716949E-01
       -2   -1    0    0    0  501  0.00000000000E+00  0.00000000000E+00  0.21429004511E+03  0.21429004512E+03  0.25500000920E-02 0.  1.
        2   -1    0    0  501    0  0.00000000000E+00  0.00000000000E+00 -0.57192601953E+03  0.57192601953E+03  0.25500000920E-02 0. -1.
    10030    2    1    2    0    0  0.00000000000E+00  0.00000000000E+00 -0.35763597442E+03  0.78621606466E+03  0.70016584473E+03 0.  0.
        3    1    3    3  502    0  0.30794102886E+03 -0.13377002401E+03 -0.29018307262E+03  0.44376606722E+03  0.10100000352E+00 0. -1.
       -3    1    3    3    0  502 -0.30794102886E+03  0.13377002401E+03 -0.67452901797E+02  0.34244999743E+03  0.10100000352E+00 0.  1.
</event>
<event>
 5   0  0.6689415E-03  0.7010426E+03  0.7818609E-02  0.9715451E-01
       -1   -1    0    0    0  501  0.00000000000E+00  0.00000000000E+00  0.20926991057E+03  0.20926991063E+03  0.50400001928E-02 0.  1.
        1   -1    0    0  501    0  0.00000000000E+00  0.00000000000E+00 -0.58711341011E+03  0.58711341014E+03  0.50400001928E-02 0. -1.
    10030    2    1    2    0    0  0.00000000000E+00  0.00000000000E+00 -0.37784349954E+03  0.79638332077E+03  0.70104256893E+03 0.  0.
        1    1    3    3  502    0 -0.29017073481E+03  0.32645984397E+01 -0.41227031997E+03  0.50415923050E+03  0.50400001928E-02 0. -1.
       -1    1    3    3    0  502  0.29017073481E+03 -0.32645984397E+01  0.34426820431E+02  0.29222409027E+03  0.50400001928E-02 0.  1.
</event>
<event>
 5   0  0.6990118E-03  0.7027609E+03  0.7818609E-02  0.9712522E-01
       -1   -1    0    0    0  501  0.00000000000E+00  0.00000000000E+00  0.37435886687E+03  0.37435886690E+03  0.50400001928E-02 0. -1.
        1   -1    0    0  501    0  0.00000000000E+00  0.00000000000E+00 -0.32981249604E+03  0.32981249608E+03  0.50400001928E-02 0.  1.
    10030    2    1    2    0    0  0.00000000000E+00  0.00000000000E+00  0.44546370827E+02  0.70417136299E+03  0.70276093325E+03 0.  0.
        5    1    3    3  502    0  0.11383991838E+03 -0.12751193041E+03  0.32985395182E+03  0.37154345498E+03  0.46999998093E+01 0. -1.
       -5    1    3    3    0  502 -0.11383991838E+03  0.12751193041E+03 -0.28530758099E+03  0.33262790800E+03  0.46999998093E+01 0.  1.
</event>
<event>
 5   0  0.6990118E-03  0.7018985E+03  0.7818609E-02  0.9713991E-01
        1   -1    0    0  501    0  0.00000000000E+00  0.00000000000E+00  0.49078280215E+03  0.49078280218E+03  0.50400001928E-02 0. -1.
       -1   -1    0    0    0  501  0.00000000000E+00  0.00000000000E+00 -0.25095702775E+03  0.25095702780E+03  0.50400001928E-02 0.  1.
    10030    2    1    2    0    0  0.00000000000E+00  0.00000000000E+00  0.23982577440E+03  0.74173982998E+03  0.70189854916E+03 0.  0.
        5    1    3    3  502    0 -0.56099370408E+02 -0.17044636245E+03  0.43860019160E+03  0.47391066659E+03  0.46999998093E+01 0. -1.
       -5    1    3    3    0  502  0.56099370408E+02  0.17044636245E+03 -0.19877441720E+03  0.26782916339E+03  0.46999998093E+01 0.  1.
</event>
<event>
 5   0  0.1100119E-02  0.7213936E+03  0.7818609E-02  0.9681330E-01
       -2   -1    0    0    0  501  0.00000000000E+00  0.00000000000E+00  0.74123764428E+02  0.74123764472E+02  0.25500000920E-02 0. -1.
        2   -1    0    0  501    0  0.00000000000E+00  0.00000000000E+00 -0.17552019917E+04  0.17552019917E+04  0.25500000920E-02 0.  1.
    10030    2    1    2    0    0  0.00000000000E+00  0.00000000000E+00 -0.16810782273E+04  0.18293257562E+04  0.72139359298E+03 0.  0.
        4    1    3    3  502    0 -0.12991415617E+03  0.33646113229E+03 -0.83015010712E+03  0.90511579081E+03  0.12699999809E+01 0. -1.
       -4    1    3    3    0  502  0.12991415617E+03 -0.33646113229E+03 -0.85092812015E+03  0.92420996537E+03  0.12699999809E+01 0.  1.
</event>
<event>
 5   0  0.1079446E-02  0.6970788E+03  0.7818609E-02  0.9722241E-01
       -2   -1    0    0    0  501  0.00000000000E+00  0.00000000000E+00  0.59795338225E+03  0.59795338225E+03  0.25500000920E-02 0. -1.
        2   -1    0    0  501    0  0.00000000000E+00  0.00000000000E+00 -0.20315918086E+03  0.20315918087E+03  0.25500000920E-02 0.  1.
    10030    2    1    2    0    0  0.00000000000E+00  0.00000000000E+00  0.39479420139E+03  0.80111256312E+03  0.69707881717E+03 0.  0.
        2    1    3    3  502    0  0.31327234647E+03  0.43100846707E+02  0.36584042236E+03  0.48356639739E+03  0.25500000920E-02 0.  1.
       -2    1    3    3    0  502 -0.31327234647E+03 -0.43100846707E+02  0.28953779037E+02  0.31754616574E+03  0.25500000920E-02 0. -1.
</event>
<event>
 5   0  0.6609285E-03  0.6996522E+03  0.7818609E-02  0.9717827E-01
       -1   -1    0    0    0  501  0.00000000000E+00  0.00000000000E+00  0.13649479484E+03  0.13649479493E+03  0.50400001928E-02 0. -1.
        1   -1    0    0  501    0  0.00000000000E+00  0.00000000000E+00 -0.89657851725E+03  0.89657851727E+03  0.50400001928E-02 0.  1.
    10030    2    1    2    0    0  0.00000000000E+00  0.00000000000E+00 -0.76008372242E+03  0.10330733122E+04  0.69965220166E+03 0.  0.
        2    1    3    3  502    0 -0.12397124763E+03 -0.95249620802E+02  0.82043492433E+02  0.17655734241E+03  0.25500000920E-02 0. -1.
       -2    1    3    3    0  502  0.12397124763E+03  0.95249620802E+02 -0.84212721485E+03  0.85651596979E+03  0.25500000920E-02 0.  1.
</event>
<event>
 5   0  0.4440500E-03  0.7008807E+03  0.7818609E-02  0.9715727E-01
        4   -1    0    0  501    0  0.00000000000E+00  0.00000000000E+00  0.53597916070E+03  0.53598066533E+03  0.12699999809E+01 0.  1.
       -4   -1    0    0    0  501  0.00000000000E+00  0.00000000000E+00 -0.22912557388E+03  0.22912909354E+03  0.12699999809E+01 0. -1.
    10030    2    1    2    0    0  0.00000000000E+00  0.00000000000E+00  0.30685358682E+03  0.76510975887E+03  0.70088074547E+03 0.  0.
        2    1    3    3  502    0  0.24019170948E+03 -0.24709429849E+03  0.83862610300E+02  0.35465558936E+03  0.25500000920E-02 0. -1.
       -2    1    3    3    0  502 -0.24019170948E+03  0.24709429849E+03  0.22299097652E+03  0.41045416951E+03  0.25500000920E-02 0.  1.
</event>
<event>
 5   0  0.1109788E-02  0.6995965E+03  0.7818609E-02  0.9717922E-01
        2   -1    0    0  501    0  0.00000000000E+00  0.00000000000E+00  0.11265785732E+04  0.11265785732E+04  0.25500000920E-02 0.  1.
       -2   -1    0    0    0  501  0.00000000000E+00  0.00000000000E+00 -0.10861099868E+03  0.10861099871E+03  0.25500000920E-02 0. -1.
    10030    2    1    2    0    0  0.00000000000E+00  0.00000000000E+00  0.10179675745E+04  0.12351895719E+04  0.69959652357E+03 0.  0.
        1    1    3    3  502    0  0.12957723614E+03 -0.23740022748E+03  0.11732189855E+03  0.29481105142E+03  0.50400001928E-02 0. -1.
       -1    1    3    3    0  502 -0.12957723614E+03  0.23740022748E+03  0.90064567599E+03  0.94037852051E+03  0.50400001928E-02 0.  1.
</event>
<event>
 5   0  0.6246998E-03  0.7008753E+03  0.7818609E-02  0.9715736E-01
        1   -1    0    0  501    0  0.00000000000E+00  0.00000000000E+00  0.83311380492E+03  0.83311380494E+03  0.50400001928E-02 0. -1.
       -1   -1    0    0    0  501  0.00000000000E+00  0.00000000000E+00 -0.14740669063E+03  0.14740669072E+03  0.50400001928E-02 0.  1.
    10030    2    1    2    0    0  0.00000000000E+00  0.00000000000E+00  0.68570711429E+03  0.98052049565E+03  0.70087530689E+03 0.  0.
        4    1    3    3  502    0  0.56546229166E+02  0.34238076109E+02 -0.13860215277E+03  0.15356396563E+03  0.12699999809E+01 0.  1.
       -4    1    3    3    0  502 -0.56546229166E+02 -0.34238076109E+02  0.82430926706E+03  0.82695653002E+03  0.12699999809E+01 0. -1.
</event>
<event>
 5   0  0.6990118E-03  0.6997984E+03  0.7818609E-02  0.9717577E-01
       -1   -1    0    0    0  501  0.00000000000E+00  0.00000000000E+00  0.13925560630E+03  0.13925560640E+03  0.50400001928E-02 0. -1.
        1   -1    0    0  501    0  0.00000000000E+00  0.00000000000E+00 -0.87917067814E+03  0.87917067815E+03  0.50400001928E-02 0.  1.
    10030    2    1    2    0    0  0.00000000000E+00  0.00000000000E+00 -0.73991507183E+03  0.10184262845E+04  0.69979838777E+03 0.  0.
        5    1    3    3  502    0 -0.32514004459E+03  0.92971294634E+02 -0.23940326462E+03  0.41436182658E+03  0.46999998093E+01 0. -1.
       -5    1    3    3    0  502  0.32514004459E+03 -0.92971294634E+02 -0.50051180721E+03  0.60406445796E+03  0.46999998093E+01 0.  1.
</event>
<event>
 5   0  0.6689415E-03  0.7023859E+03  0.7818609E-02  0.9713161E-01
        1   -1    0    0  501    0  0.00000000000E+00  0.00000000000E+00  0.32479431951E+03  0.32479431955E+03  0.50400001928E-02 0.  1.
       -1   -1    0    0    0  501  0.00000000000E+00  0.00000000000E+00 -0.37973722669E+03  0.37973722672E+03  0.50400001928E-02 0. -1.
    10030    2    1    2    0    0  0.00000000000E+00  0.00000000000E+00 -0.54942907178E+02  0.70453154628E+03  0.70238591718E+03 0.  0.
        1    1    3    3  502    0 -0.12175431056E+03 -0.96815248144E+01  0.30280426515E+03  0.32650921440E+03  0.50400001928E-02 0.  1.
       -1    1    3    3    0  502  0.12175431056E+03  0.96815248144E+01 -0.35774717233E+03  0.37802233188E+03  0.50400001928E-02 0. -1.
</event>
<event>
 5   0  0.6785252E-03  0.6924933E+03  0.7818609E-02  0.9730156E-01
        1   -1    0    0  501    0  0.00000000000E+00  0.00000000000E+00  0.10900863876E+04  0.10900863876E+04  0.50400001928E-02 0.  1.
       -1   -1    0    0    0  501  0.00000000000E+00  0.00000000000E+00 -0.10997912689E+03  0.10997912701E+03  0.50400001928E-02 0. -1.
    10030    2    1    2    0    0  0.00000000000E+00  0.00000000000E+00  0.98010726068E+03  0.12000655146E+04  0.69249331902E+03 0.  0.
        3    1    3    3  502    0  0.85159223608E+02 -0.28339193131E+03  0.17848794086E+03  0.34557348759E+03  0.10100000352E+00 0. -1.
       -3    1    3    3    0  502 -0.85159223608E+02  0.28339193131E+03  0.80161931982E+03  0.85449202700E+03  0.10100000352E+00 0.  1.
</event>
<event>
 5   0  0.1109788E-02  0.7021905E+03  0.7818609E-02  0.9713493E-01
        2   -1    0    0  501    0  0.00000000000E+00  0.00000000000E+00  0.49795339283E+03  0.49795339284E+03  0.25500000920E-02 0.  1.
       -2   -1    0    0    0  501  0.00000000000E+00  0.00000000000E+00 -0.24754904930E+03  0.24754904931E+03  0.25500000920E-02 0. -1.
    10030    2    1    2    0    0  0.00000000000E+00  0.00000000000E+00  0.25040434353E+03  0.74550244215E+03  0.70219054109E+03 0.  0.
        1    1    3    3  502    0  0.33240970590E+03  0.11015722526E+02  0.24461336202E+03  0.41285984985E+03  0.50400001928E-02 0. -1.
       -1    1    3    3    0  502 -0.33240970590E+03 -0.11015722526E+02  0.57909815121E+01  0.33264259230E+03  0.50400001928E-02 0.  1.
</event>
<event>
 5   0  0.1109788E-02  0.6981781E+03  0.7818609E-02  0.9720353E-01
       -2   -1    0    0    0  501  0.00000000000E+00  0.00000000000E+00  0.40076820185E+03  0.40076820185E+03  0.25500000920E-02 0. -1.
        2   -1    0    0  501    0  0.00000000000E+00  0.00000000000E+00 -0.30407393432E+03  0.30407393433E+03  0.25500000920E-02 0.  1.
    10030    2    1    2    0    0  0.00000000000E+00  0.00000000000E+00  0.96694267528E+02  0.70484213618E+03  0.69817809731E+03 0.  0.
        1    1    3    3  502    0  0.55039370052E+02  0.11172945722E+03  0.37757388811E+03  0.39758627350E+03  0.50400001928E-02 0. -1.
       -1    1    3    3    0  502 -0.55039370052E+02 -0.11172945722E+03 -0.28087962059E+03  0.30725586268E+03  0.50400001928E-02 0.  1.
</event>
<event>
 5   0  0.6990118E-03  0.7026007E+03  0.7818609E-02  0.9712795E-01
        1   -1    0    0  501    0  0.00000000000E+00  0.00000000000E+00  0.15689087946E+04  0.15689087946E+04  0.50400001928E-02 0. -1.
       -1   -1    0    0    0  501  0.00000000000E+00  0.00000000000E+00 -0.78660998148E+02  0.78660998310E+02  0.50400001928E-02 0.  1.
    10030    2    1    2    0    0  0.00000000000E+00  0.00000000000E+00  0.14902477965E+04  0.16475697929E+04  0.70260068867E+03 0.  0.
        5    1    3    3  502    0  0.14347869523E+02  0.18059095063E+03  0.14508392506E+04  0.14621133930E+04  0.46999998093E+01 0. -1.
       -5    1    3    3    0  502 -0.14347869523E+02 -0.18059095063E+03  0.39408545882E+02  0.18545639998E+03  0.46999998093E+01 0.  1.
</event>
<event>
 5   0  0.1100119E-02  0.7024398E+03  0.7818609E-02  0.9713069E-01
        2   -1    0    0  501    0  0.00000000000E+00  0.00000000000E+00  0.17273185292E+04  0.17273185292E+04  0.25500000920E-02 0.  1.
       -2   -1    0    0    0  501  0.00000000000E+00  0.00000000000E+00 -0.71414397436E+02  0.71414397482E+02  0.25500000920E-02 0. -1.
    10030    2    1    2    0    0  0.00000000000E+00  0.00000000000E+00  0.16559041318E+04  0.17987329267E+04  0.70243978243E+03 0.  0.
        4    1    3    3  502    0 -0.34323490871E+00 -0.27478415792E+03  0.26782504997E+03  0.38371645983E+03  0.12699999809E+01 0. -1.
       -4    1    3    3    0  502  0.34323490871E+00  0.27478415792E+03  0.13880790818E+04  0.14150164668E+04  0.12699999809E+01 0.  1.
</event>
<event>
 5   0  0.6609285E-03  0.6992147E+03  0.7818609E-02  0.9718576E-01
        1   -1    0    0  501    0  0.00000000000E+00  0.00000000000E+00  0.11113381493E+04  0.11113381493E+04  0.50400001928E-02 0. -1.
       -1   -1    0    0    0  501  0.00000000000E+00  0.00000000000E+00 -0.10998030184E+03  0.10998030196E+03  0.50400001928E-02 0.  1.
    10030    2    1    2    0    0  0.00000000000E+00  0.00000000000E+00  0.10013578475E+04  0.12213184513E+04  0.69921471720E+03 0.  0.
        2    1    3    3  502    0  0.50497166373E+02 -0.28533844114E+03  0.84232434371E+03  0.89077398358E+03  0.25500000920E-02 0.  1.
       -2    1    3    3    0  502 -0.50497166373E+02  0.28533844114E+03  0.15903350375E+03  0.33054446770E+03  0.25500000920E-02 0. -1.
</event>
<event>
 5   0  0.1099980E-02  0.7020028E+03  0.7818609E-02  0.9713813E-01
       -2   -1    0    0    0  501  0.00000000000E+00  0.00000000000E+00  0.70652093920E+02  0.70652093966E+02  0.25500000920E-02 0.  1.
        2   -1    0    0  501    0  0.00000000000E+00  0.00000000000E+00 -0.17437837127E+04  0.17437837127E+04  0.25500000920E-02 0. -1.
    10030    2    1    2    0    0  0.00000000000E+00  0.00000000000E+00 -0.16731316188E+04  0.18144358067E+04  0.70200276549E+03 0.  0.
        5    1    3    3  502    0 -0.68444320200E+02 -0.24737758499E+03 -0.21786807242E+03  0.33670295737E+03  0.46999998093E+01 0.  1.
       -5    1    3    3    0  502  0.68444320200E+02  0.24737758499E+03 -0.14552635464E+04  0.14777328493E+04  0.46999998093E+01 0. -1.
</event>
<event>
 5   0  0.1099980E-02  0.7002534E+03  0.7818609E-02  0.9716799E-01
       -2   -1    0    0    0  501  0.00000000000E+00  0.00000000000E+00  0.12871662410E+03  0.12871662413E+03  0.25500000920E-02 0. -1.
        2   -1    0    0  501    0  0.00000000000E+00  0.00000000000E+00 -0.95239217069E+03  0.95239217070E+03  0.25500000920E-02 0.  1.
    10030    2    1    2    0    0  0.00000000000E+00  0.00000000000E+00 -0.82367554659E+03  0.10811087948E+04  0.70025339713E+03 0.  0.
        5    1    3    3  502    0 -0.17296957039E+03  0.30368738140E+03 -0.44355759027E+03  0.56472110266E+03  0.46999998093E+01 0. -1.
       -5    1    3    3    0  502  0.17296957039E+03 -0.30368738140E+03 -0.38011795632E+03  0.51638769216E+03  0.46999998093E+01 0.  1.
</event>
<event>
 5   0  0.1119786E-02  0.6977178E+03  0.7818609E-02  0.9721143E-01
        2   -1    0    0  501    0  0.00000000000E+00  0.00000000000E+00  0.90166008276E+03  0.90166008276E+03  0.25500000920E-02 0. -1.
       -2   -1    0    0    0  501  0.00000000000E+00  0.00000000000E+00 -0.13497607435E+03  0.13497607438E+03  0.25500000920E-02 0.  1.
    10030    2    1    2    0    0  0.00000000000E+00  0.00000000000E+00  0.76668400841E+03  0.10366361571E+04  0.69771781799E+03 0.  0.
        3    1    3    3  502    0 -0.32114593569E+03  0.11324367675E+03  0.27074110003E+03  0.43503976344E+03  0.10100000352E+00 0.  1.
       -3    1    3    3    0  502  0.32114593569E+03 -0.11324367675E+03  0.49594290838E+03  0.60159639370E+03  0.10100000352E+00 0. -1.
</event>
<event>
 5   0  0.1099980E-02  0.7010593E+03  0.7818609E-02  0.9715422E-01
       -2   -1    0    0    0  501  0.00000000000E+00  0.00000000000E+00  0.19951847200E+03  0.19951847201E+03  0.25500000920E-02 0.  1.
        2   -1    0    0  501    0  0.00000000000E+00  0.00000000000E+00 -0.61583790174E+03  0.61583790175E+03  0.25500000920E-02 0. -1.
    10030    2    1    2    0    0  0.00000000000E+00  0.00000000000E+00 -0.41631942975E+03  0.81535637376E+03  0.70105930466E+03 0.  0.
        5    1    3    3  502    0 -0.66935929160E+02 -0.34225587372E+03 -0.24893972657E+03  0.42850038409E+03  0.46999998093E+01 0. -1.
       -5    1    3    3    0  502  0.66935929160E+02  0.34225587372E+03 -0.16737970318E+03  0.38685598967E+03  0.46999998093E+01 0.  1.
</event>
<event>
 5   0  0.1079446E-02  0.7005662E+03  0.7818609E-02  0.9716264E-01
       -2   -1    0    0    0  501  0.00000000000E+00  0.00000000000E+00  0.29044879603E+03  0.29044879604E+03  0.25500000920E-02 0. -1.
        2   -1    0    0  501    0  0.00000000000E+00  0.00000000000E+00 -0.42244364192E+03  0.42244364193E+03  0.25500000920E-02 0.  1.
    10030    2    1    2    0    0  0.00000000000E+00  0.00000000000E+00 -0.13199484589E+03  0.71289243797E+03  0.70056619158E+03 0.  0.
        2    1    3    3  502    0  0.25866008860E+03  0.91343240487E+02  0.15566454975E+03  0.31540463071E+03  0.25500000920E-02 0. -1.
       -2    1    3    3    0  502 -0.25866008860E+03 -0.91343240487E+02 -0.28765939563E+03  0.39748780726E+03  0.25500000920E-02 0.  1.
</event>
<event>
 5   0  0.1099980E-02  0.6972727E+03  0.7818609E-02  0.9721908E-01
        2   -1    0    0  501    0  0.00000000000E+00  0.00000000000E+00  0.27938999378E+03  0.27938999379E+03  0.25500000920E-02 0. -1.
       -2   -1    0    0    0  501  0.00000000000E+00  0.00000000000E+00 -0.43504527083E+03  0.43504527083E+03  0.25500000920E-02 0.  1.
    10030    2    1    2    0    0  0.00000000000E+00  0.00000000000E+00 -0.15565527705E+03  0.71443526462E+03  0.69727267411E+03 0.  0.
        5    1    3    3  502    0 -0.30870791480E+03  0.15976676047E+03 -0.10492109382E+03  0.36312053142E+03  0.46999998093E+01 0. -1.
       -5    1    3    3    0  502  0.30870791480E+03 -0.15976676047E+03 -0.50734183229E+02  0.35131473320E+03  0.46999998093E+01 0.  1.
</event>
<event>
 5   0  0.1079446E-02  0.7002793E+03  0.7818609E-02  0.9716755E-01
        2   -1    0    0  501    0  0.00000000000E+00  0.00000000000E+00  0.71345134392E+03  0.71345134393E+03  0.25500000920E-02 0. -1.
       -2   -1    0    0    0  501  0.00000000000E+00  0.00000000000E+00 -0.17183761340E+03  0.17183761342E+03  0.25500000920E-02 0.  1.
    10030    2    1    2    0    0  0.00000000000E+00  0.00000000000E+00  0.54161373052E+03  0.88528895734E+03  0.70027930492E+03 0.  0.
        2    1    3    3  502    0 -0.34323318671E+02  0.29858696260E+02  0.70969919403E+03  0.71115580428E+03  0.25500000920E-02 0. -1.
       -2    1    3    3    0  502  0.34323318671E+02 -0.29858696260E+02 -0.16808546351E+03  0.17413315306E+03  0.25500000920E-02 0.  1.
</event>
<event>
 5   0  0.1100119E-02  0.7057951E+03  0.7818609E-02  0.9707373E-01
       -2   -1    0    0    0  501  0.00000000000E+00  0.00000000000E+00  0.38739401318E+03  0.38739401319E+03  0.25500000920E-02 0. -1.
        2   -1    0    0  501    0  0.00000000000E+00  0.00000000000E+00 -0.32147292992E+03  0.32147292993E+03  0.25500000920E-02 0.  1.
    10030    2    1    2    0    0  0.00000000000E+00  0.00000000000E+00  0.65921083269E+02  0.70886694312E+03  0.70579512171E+03 0.  0.
        4    1    3    3  502    0 -0.18348507390E+03  0.20804871687E+03 -0.18612650618E+03  0.33405947096E+03  0.12699999809E+01 0. -1.
       -4    1    3    3    0  502  0.18348507390E+03 -0.20804871687E+03  0.25204758945E+03  0.37480747216E+03  0.12699999809E+01 0.  1.
</event>
<event>
 5   0  0.1109788E-02  0.7004774E+03  0.7818609E-02  0.9716416E-01
        2   -1    0    0  501    0  0.00000000000E+00  0.00000000000E+00  0.80332768708E+03  0.80332768709E+03  0.25500000920E-02 0.  1.
       -2   -1    0    0    0  501  0.00000000000E+00  0.00000000000E+00 -0.15269878374E+03  0.15269878376E+03  0.25500000920E-02 0. -1.
    10030    2    1    2    0    0  0.00000000000E+00  0.00000000000E+00  0.65062890334E+03  0.95602647084E+03  0.70047743939E+03 0.  0.
        1    1    3    3  502    0 -0.26415298288E+02 -0.27941869797E+03  0.61125861337E+03  0.67261405665E+03  0.50400001928E-02 0.  1.
       -1    1    3    3    0  502  0.26415298288E+02  0.27941869797E+03  0.39370289972E+02  0.28341241419E+03  0.50400001928E-02 0. -1.
</event>
<event>
 5   0  0.6689415E-03  0.6997420E+03  0.7818609E-02  0.9717674E-01
        1   -1    0    0  501    0  0.00000000000E+00  0.00000000000E+00  0.20978102644E+03  0.20978102650E+03  0.50400001928E-02 0. -1.
       -1   -1    0    0    0  501  0.00000000000E+00  0.00000000000E+00 -0.58351184539E+03  0.58351184541E+03  0.50400001928E-02 0.  1.
    10030    2    1    2    0    0  0.00000000000E+00  0.00000000000E+00 -0.37373081894E+03  0.79329287191E+03  0.69974199217E+03 0.  0.
        1    1    3    3  502    0  0.11079454462E+03 -0.24326163216E+03  0.69053314917E+02  0.27607972241E+03  0.50400001928E-02 0. -1.
       -1    1    3    3    0  502 -0.11079454462E+03  0.24326163216E+03 -0.44278413386E+03  0.51721314951E+03  0.50400001928E-02 0.  1.
</event>
<event>
 5   0  0.6785252E-03  0.7011041E+03  0.7818609E-02  0.9715346E-01
       -1   -1    0    0    0  501  0.00000000000E+00  0.00000000000E+00  0.89010258996E+03  0.89010258997E+03  0.50400001928E-02 0. -1.
        1   -1    0    0  501    0  0.00000000000E+00  0.00000000000E+00 -0.13805906792E+03  0.13805906801E+03  0.50400001928E-02 0.  1.
    10030    2    1    2    0    0  0.00000000000E+00  0.00000000000E+00  0.75204352204E+03  0.10281616580E+04  0.70110408351E+03 0.  0.
        3    1    3    3  502    0  0.33256417963E+03  0.27492626980E+01  0.53853254637E+03  0.63294850164E+03  0.10100000352E+00 0. -1.
       -3    1    3    3    0  502 -0.33256417963E+03 -0.27492626980E+01  0.21351097566E+03  0.39521315635E+03  0.10100000352E+00 0.  1.
</event>
<event>
 5   0  0.6609285E-03  0.7012640E+03  0.7818609E-02  0.9715073E-01
        1   -1    0    0  501    0  0.00000000000E+00  0.00000000000E+00  0.19339799029E+03  0.19339799035E+03  0.50400001928E-02 0.  1.
       -1   -1    0    0    0  501  0.00000000000E+00  0.00000000000E+00 -0.63569839367E+03  0.63569839369E+03  0.50400001928E-02 0. -1.
    10030    2    1    2    0    0  0.00000000000E+00  0.00000000000E+00 -0.44230040338E+03  0.82909638404E+03  0.70126397826E+03 0.  0.
        2    1    3    3  502    0 -0.21547161053E+03 -0.26066540300E+03 -0.11171137114E+03  0.35616554818E+03  0.25500000920E-02 0.  1.
       -2    1    3    3    0  502  0.21547161053E+03  0.26066540300E+03 -0.33058903224E+03  0.47293083586E+03  0.25500000920E-02 0. -1.
</event>
<event>
 5   0  0.6990118E-03  0.7007357E+03  0.7818609E-02  0.9715975E-01
       -1   -1    0    0    0  501  0.00000000000E+00  0.00000000000E+00  0.13887766512E+03  0.13887766521E+03  0.50400001928E-02 0.  1.
        1   -1    0    0  501    0  0.00000000000E+00  0.00000000000E+00 -0.88392628387E+03  0.88392628389E+03  0.50400001928E-02 0. -1.
    10030    2    1    2    0    0  0.00000000000E+00  0.00000000000E+00 -0.74504861875E+03  0.10228039491E+04  0.70073566628E+03 0.  0.
        5    1    3    3  502    0  0.49358010858E+02 -0.63180917220E+02  0.12526092406E+03  0.14879660826E+03  0.46999998093E+01 0.  1.
       -5    1    3    3    0  502 -0.49358010858E+02  0.63180917220E+02 -0.87030954281E+03  0.87400734084E+03  0.46999998093E+01 0. -1.
</event>
<event>
 5   0  0.1109788E-02  0.7452022E+03  0.7818609E-02  0.9642907E-01
       -2   -1    0    0    0  501  0.00000000000E+00  0.00000000000E+00  0.23194390105E+03  0.23194390107E+03  0.25500000920E-02 0.  1.
        2   -1    0    0  501    0  0.00000000000E+00  0.00000000000E+00 -0.59855676991E+03  0.59855676992E+03  0.25500000920E-02 0. -1.
    10030    2    1    2    0    0  0.00000000000E+00  0.00000000000E+00 -0.36661286886E+03  0.83050067099E+03  0.74520223355E+03 0.  0.
        1    1    3    3  502    0 -0.36808199788E+02 -0.32352837537E+03 -0.38516324169E+03  0.50435719091E+03  0.50400001928E-02 0. -1.
       -1    1    3    3    0  502  0.36808199788E+02  0.32352837537E+03  0.18550372835E+02  0.32614348008E+03  0.50400001928E-02 0.  1.
</event>
<event>
 5   0  0.1100119E-02  0.6988900E+03  0.7818609E-02  0.9719132E-01
        2   -1    0    0  501    0  0.00000000000E+00  0.00000000000E+00  0.12451093119E+04  0.12451093119E+04  0.25500000920E-02 0.  1.
       -2   -1    0    0    0  501  0.00000000000E+00  0.00000000000E+00 -0.98073173126E+02  0.98073173160E+02  0.25500000920E-02 0. -1.
    10030    2    1    2    0    0  0.00000000000E+00  0.00000000000E+00  0.11470361388E+04  0.13431824851E+04  0.69889003752E+03 0.  0.
        4    1    3    3  502    0  0.23516304245E+02  0.26085869434E+03  0.10180913678E+04  0.10512430362E+04  0.12699999809E+01 0.  1.
       -4    1    3    3    0  502 -0.23516304245E+02 -0.26085869434E+03  0.12894477102E+03  0.29193944895E+03  0.12699999809E+01 0. -1.
</event>
<event>
 5   0  0.6246998E-03  0.6548347E+03  0.7818609E-02  0.9797749E-01
       -1   -1    0    0    0  501  0.00000000000E+00  0.00000000000E+00  0.11133871858E+03  0.11133871869E+03  0.50400001928E-02 0.  1.
        1   -1    0    0  501    0  0.00000000000E+00  0.00000000000E+00 -0.96284684268E+03  0.96284684270E+03  0.50400001928E-02 0. -1.
    10030    2    1    2    0    0  0.00000000000E+00  0.00000000000E+00 -0.85150812410E+03  0.10741855614E+04  0.65483473860E+03 0.  0.
        4    1    3    3  502    0 -0.25341023653E+03 -0.10641015292E+03 -0.13387191744E+03  0.30571747055E+03  0.12699999809E+01 0.  1.
       -4    1    3    3    0  502  0.25341023653E+03  0.10641015292E+03 -0.71763620666E+03  0.76846809084E+03  0.12699999809E+01 0. -1.
</event>
<event>
 5   0  0.6609285E-03  0.7039150E+03  0.7818609E-02  0.9710560E-01
        1   -1    0    0  501    0  0.00000000000E+00  0.00000000000E+00  0.12031128125E+04  0.12031128125E+04  0.50400001928E-02 0.  1.
       -1   -1    0    0    0  501  0.00000000000E+00  0.00000000000E+00 -0.10296132199E+03  0.10296132211E+03  0.50400001928E-02 0. -1.
    10030    2    1    2    0    0  0.00000000000E+00  0.00000000000E+00  0.11001514905E+04  0.13060741346E+04  0.70391501124E+03 0.  0.
        2    1    3    3  502    0  0.27495951781E+03 -0.32153925925E+02  0.95334112235E+03  0.99272146494E+03  0.25500000920E-02 0.  1.
       -2    1    3    3    0  502 -0.27495951781E+03  0.32153925925E+02  0.14681036817E+03  0.31335266968E+03  0.25500000920E-02 0. -1.
</event>
<event>
 5   0  0.6609285E-03  0.6910790E+03  0.7818609E-02  0.9732611E-01
       -1   -1    0    0    0  501  0.00000000000E+00  0.00000000000E+00  0.70700952634E+02  0.70700952814E+02  0.50400001928E-02 0. -1.
        1   -1    0    0  501    0  0.00000000000E+00  0.00000000000E+00 -0.16887683398E+04  0.16887683398E+04  0.50400001928E-02 0.  1.
    10030    2    1    2    0    0  0.00000000000E+00  0.00000000000E+00 -0.16180673871E+04  0.17594692926E+04  0.69107895516E+03 0.  0.
        2    1    3    3  502    0  0.13789464164E+03  0.30117285129E+03 -0.55857513129E+03  0.64940449325E+03  0.25500000920E-02 0.  1.
       -2    1    3    3    0  502 -0.13789464164E+03 -0.30117285129E+03 -0.10594922559E+04  0.11100647994E+04  0.25500000920E-02 0. -1.
</event>
<event>
 5   0  0.1079446E-02  0.7004069E+03  0.7818609E-02  0.9716537E-01
        2   -1    0    0  501    0  0.00000000000E+00  0.00000000000E+00  0.36185009121E+03  0.36185009122E+03  0.25500000920E-02 0.  1.
       -2   -1    0    0    0  501  0.00000000000E+00  0.00000000000E+00 -0.33893167962E+03  0.33893167963E+03  0.25500000920E-02 0. -1.
    10030    2    1    2    0    0  0.00000000000E+00  0.00000000000E+00  0.22918411595E+02  0.70078177085E+03  0.70040690799E+03 0.  0.
        2    1    3    3  502    0  0.49084117670E+02 -0.27938354046E+02  0.35726342067E+03  0.36170008846E+03  0.25500000920E-02 0.  1.
       -2    1    3    3    0  502 -0.49084117670E+02  0.27938354046E+02 -0.33434500907E+03  0.33908168239E+03  0.25500000920E-02 0. -1.
</event>
<event>
 5   0  0.6246998E-03  0.6961660E+03  0.7818609E-02  0.9723811E-01
       -1   -1    0    0    0  501  0.00000000000E+00  0.00000000000E+00  0.15281562218E+03  0.15281562226E+03  0.50400001928E-02 0.  1.
        1   -1    0    0  501    0  0.00000000000E+00  0.00000000000E+00 -0.79286242141E+03  0.79286242143E+03  0.50400001928E-02 0. -1.
    10030    2    1    2    0    0  0.00000000000E+00  0.00000000000E+00 -0.64004679923E+03  0.94567804370E+03  0.69616596952E+03 0.  0.
        4    1    3    3  502    0 -0.10321762875E+03 -0.22567506474E+03 -0.65158938314E+03  0.69724705152E+03  0.12699999809E+01 0. -1.
       -4    1    3    3    0  502  0.10321762875E+03  0.22567506474E+03  0.11542583905E+02  0.24843099218E+03  0.12699999809E+01 0.  1.
</event>
<event>
 5   0  0.6609285E-03  0.7000294E+03  0.7818609E-02  0.9717182E-01
        1   -1    0    0  501    0  0.00000000000E+00  0.00000000000E+00  0.25171882643E+03  0.25171882648E+03  0.50400001928E-02 0.  1.
       -1   -1    0    0    0  501  0.00000000000E+00  0.00000000000E+00 -0.48669504575E+03  0.48669504577E+03  0.50400001928E-02 0. -1.
    10030    2    1    2    0    0  0.00000000000E+00  0.00000000000E+00 -0.23497621932E+03  0.73841387225E+03  0.70002944445E+03 0.  0.
        2    1    3    3  502    0 -0.24079383624E+03  0.18502614103E+03  0.66107196097E+02  0.31078369619E+03  0.25500000920E-02 0.  1.
       -2    1    3    3    0  502  0.24079383624E+03 -0.18502614103E+03 -0.30108341541E+03  0.42763017606E+03  0.25500000920E-02 0. -1.
</event>
<event>
 5   0  0.6785252E-03  0.7000522E+03  0.7818609E-02  0.9717143E-01
        1   -1    0    0  501    0  0.00000000000E+00  0.00000000000E+00  0.11881390200E+04  0.11881390200E+04  0.50400001928E-02 0.  1.
       -1   -1    0    0    0  501  0.00000000000E+00  0.00000000000E+00 -0.10311778975E+03  0.10311778987E+03  0.50400001928E-02 0. -1.
    10030    2    1    2    0    0  0.00000000000E+00  0.00000000000E+00  0.10850212302E+04  0.12912568099E+04  0.70005219732E+03 0.  0.
        3    1    3    3  502    0  0.90398992900E+02  0.26223299644E+03  0.14871577989E+03  0.31472927370E+03  0.10100000352E+00 0. -1.
       -3    1    3    3    0  502 -0.90398992900E+02 -0.26223299644E+03  0.93630545035E+03  0.97652753616E+03  0.10100000352E+00 0.  1.
</event>
<event>
 5   0  0.6246998E-03  0.7020242E+03  0.7818609E-02  0.9713777E-01
        1   -1    0    0  501    0  0.00000000000E+00  0.00000000000E+00  0.26488342141E+03  0.26488342146E+03  0.50400001928E-02 0.  1.
       -1   -1    0    0    0  501  0.00000000000E+00  0.00000000000E+00 -0.46514615085E+03  0.46514615088E+03  0.50400001928E-02 0. -1.
    10030    2    1    2    0    0  0.00000000000E+00  0.00000000000E+00 -0.20026272944E+03  0.73002957234E+03  0.70202422728E+03 0.  0.
        4    1    3    3  502    0 -0.30200477317E+03  0.28222530517E+02  0.83563469964E+02  0.31462336318E+03  0.12699999809E+01 0.  1.
       -4    1    3    3    0  502  0.30200477317E+03 -0.28222530517E+02 -0.28382619940E+03  0.41540620916E+03  0.12699999809E+01 0. -1.
</event>
<event>
 5   0  0.1100119E-02  0.7004939E+03  0.7818609E-02  0.9716388E-01
       -2   -1    0    0    0  501  0.00000000000E+00  0.00000000000E+00  0.92125304391E+02  0.92125304427E+02  0.25500000920E-02 0. -1.
        2   -1    0    0  501    0  0.00000000000E+00  0.00000000000E+00 -0.13315877764E+04  0.13315877764E+04  0.25500000920E-02 0.  1.
    10030    2    1    2    0    0  0.00000000000E+00  0.00000000000E+00 -0.12394624720E+04  0.14237130808E+04  0.70049390932E+03 0.  0.
        4    1    3    3  502    0 -0.82627714592E+02  0.21995471113E+03 -0.11476338841E+04  0.11714403779E+04  0.12699999809E+01 0.  1.
       -4    1    3    3    0  502  0.82627714592E+02 -0.21995471113E+03 -0.91828587867E+02  0.25227270288E+03  0.12699999809E+01 0. -1.
</event>
<event>
 5   0  0.1079446E-02  0.7107901E+03  0.7818609E-02  0.9698956E-01
        2   -1    0    0  501    0  0.00000000000E+00  0.00000000000E+00  0.96510010731E+03  0.96510010731E+03  0.25500000920E-02 0.  1.
       -2   -1    0    0    0  501  0.00000000000E+00  0.00000000000E+00 -0.13087311173E+03  0.13087311175E+03  0.25500000920E-02 0. -1.
    10030    2    1    2    0    0  0.00000000000E+00  0.00000000000E+00  0.83422699558E+03  0.10959732191E+04  0.71079013552E+03 0.  0.
        2    1    3    3  502    0  0.13588699188E+03 -0.22282392003E+03  0.78906154409E+03  0.83110402132E+03  0.25500000920E-02 0.  1.
       -2    1    3    3    0  502 -0.13588699188E+03  0.22282392003E+03  0.45165451493E+02  0.26486919774E+03  0.25500000920E-02 0. -1.
</event>
<event>
 5   0  0.1099980E-02  0.7013338E+03  0.7818609E-02  0.9714954E-01
       -2   -1    0    0    0  501  0.00000000000E+00  0.00000000000E+00  0.15011894614E+03  0.15011894616E+03  0.25500000920E-02 0.  1.
        2   -1    0    0  501    0  0.00000000000E+00  0.00000000000E+00 -0.81913236586E+03  0.81913236586E+03  0.25500000920E-02 0. -1.
    10030    2    1    2    0    0  0.00000000000E+00  0.00000000000E+00 -0.66901341972E+03  0.96925131202E+03  0.70133383640E+03 0.  0.
        5    1    3    3  502    0  0.90867843378E+02  0.33581849425E+03 -0.39497142711E+03  0.52636065988E+03  0.46999998093E+01 0.  1.
       -5    1    3    3    0  502 -0.90867843378E+02 -0.33581849425E+03 -0.27404199261E+03  0.44289065213E+03  0.46999998093E+01 0. -1.
</event>
<event>
 5   0  0.1119786E-02  0.6987313E+03  0.7818609E-02  0.9719404E-01
       -2   -1    0    0    0  501  0.00000000000E+00  0.00000000000E+00  0.31810405095E+03  0.31810405096E+03  0.25500000920E-02 0. -1.
        2   -1    0    0  501    0  0.00000000000E+00  0.00000000000E+00 -0.38369942587E+03  0.38369942588E+03  0.25500000920E-02 0.  1.
    10030    2    1    2    0    0  0.00000000000E+00  0.00000000000E+00 -0.65595374920E+02  0.70180347685E+03  0.69873125514E+03 0.  0.
        3    1    3    3  502    0 -0.22815519479E+03  0.23119066596E+03 -0.16201955789E+03  0.36297970230E+03  0.10100000352E+00 0.  1.
       -3    1    3    3    0  502  0.22815519479E+03 -0.23119066596E+03  0.96424182972E+02  0.33882377455E+03  0.10100000352E+00 0. -1.
</event>
<event>
 5   0  0.1109788E-02  0.7046043E+03  0.7818609E-02  0.9709391E-01
       -2   -1    0    0    0  501  0.00000000000E+00  0.00000000000E+00  0.10131546921E+03  0.10131546925E+03  0.25500000920E-02 0. -1.
        2   -1    0    0  501    0  0.00000000000E+00  0.00000000000E+00 -0.12250527506E+04  0.12250527506E+04  0.25500000920E-02 0.  1.
    10030    2    1    2    0    0  0.00000000000E+00  0.00000000000E+00 -0.11237372814E+04  0.13263682199E+04  0.70460426983E+03 0.  0.
        1    1    3    3  502    0 -0.32057155368E+03 -0.14208685518E+03 -0.62603710956E+03  0.71754948123E+03  0.50400001928E-02 0.  1.
       -1    1    3    3    0  502  0.32057155368E+03  0.14208685518E+03 -0.49770017186E+03  0.60881873865E+03  0.50400001928E-02 0. -1.
</event>
<event>
 5   0  0.6785252E-03  0.6980123E+03  0.7818609E-02  0.9720637E-01
       -1   -1    0    0    0  501  0.00000000000E+00  0.00000000000E+00  0.12066166049E+03  0.12066166060E+03  0.50400001928E-02 0.  1.
        1   -1    0    0  501    0  0.00000000000E+00  0.00000000000E+00 -0.10094781320E+04  0.10094781320E+04  0.50400001928E-02 0. -1.
    10030    2    1    2    0    0  0.00000000000E+00  0.00000000000E+00 -0.88881647151E+03  0.11301397926E+04  0.69801234289E+03 0.  0.
        3    1    3    3  502    0  0.28693587359E+02 -0.33930447509E+03 -0.56829133681E+03  0.66249973771E+03  0.10100000352E+00 0. -1.
       -3    1    3    3    0  502 -0.28693587359E+02  0.33930447509E+03 -0.32052513470E+03  0.46764005490E+03  0.10100000352E+00 0.  1.
</event>
<event>
 5   0  0.6689415E-03  0.7013164E+03  0.7818609E-02  0.9714984E-01
        1   -1    0    0  501    0  0.00000000000E+00  0.00000000000E+00  0.15709487823E+03  0.15709487831E+03  0.50400001928E-02 0. -1.
       -1   -1    0    0    0  501  0.00000000000E+00  0.00000000000E+00 -0.78271908801E+03  0.78271908803E+03  0.50400001928E-02 0.  1.
    10030    2    1    2    0    0  0.00000000000E+00  0.00000000000E+00 -0.62562420978E+03  0.93981396633E+03  0.70131636189E+03 0.  0.
        1    1    3    3  502    0 -0.21032758186E+03 -0.73513314947E+02  0.50046111900E+02  0.22835610898E+03  0.50400001928E-02 0. -1.
       -1    1    3    3    0  502  0.21032758186E+03  0.73513314947E+02 -0.67567032168E+03  0.71145785736E+03  0.50400001928E-02 0.  1.
</event>
<event>
 5   0  0.1119786E-02  0.6983828E+03  0.7818609E-02  0.9720002E-01
        2   -1    0    0  501    0  0.00000000000E+00  0.00000000000E+00  0.86309905308E+03  0.86309905308E+03  0.25500000920E-02 0. -1.
       -2   -1    0    0    0  501  0.00000000000E+00  0.00000000000E+00 -0.14127536078E+03  0.14127536081E+03  0.25500000920E-02 0.  1.
    10030    2    1    2    0    0  0.00000000000E+00  0.00000000000E+00  0.72182369229E+03  0.10043744139E+04  0.69838278939E+03 0.  0.
        3    1    3    3  502    0  0.30860839843E+03  0.16118696608E+03  0.39934656277E+03  0.52980946482E+03  0.10100000352E+00 0. -1.
       -3    1    3    3    0  502 -0.30860839843E+03 -0.16118696608E+03  0.32247712952E+03  0.47456494906E+03  0.10100000352E+00 0.  1.
</event>
<event>
 5   0  0.6609285E-03  0.7027642E+03  0.7818609E-02  0.9712517E-01
       -1   -1    0    0    0  501  0.00000000000E+00  0.00000000000E+00  0.17525804816E+03  0.17525804823E+03  0.50400001928E-02 0. -1.
        1   -1    0    0  501    0  0.00000000000E+00  0.00000000000E+00 -0.70450048930E+03  0.70450048932E+03  0.50400001928E-02 0.  1.
    10030    2    1    2    0    0  0.00000000000E+00  0.00000000000E+00 -0.52924244115E+03  0.87975853755E+03  0.70276420148E+03 0.  0.
        2    1    3    3  502    0  0.32390789769E+02  0.10966085675E+02  0.17316997306E+03  0.17651418604E+03  0.25500000920E-02 0. -1.
       -2    1    3    3    0  502 -0.32390789769E+02 -0.10966085675E+02 -0.70241241421E+03  0.70324435151E+03  0.25500000920E-02 0.  1.
</event>
<event>
 5   0  0.1109788E-02  0.6998567E+03  0.7818609E-02  0.9717477E-01
        2   -1    0    0  501    0  0.00000000000E+00  0.00000000000E+00  0.27290167741E+03  0.27290167742E+03  0.25500000920E-02 0.  1.
       -2   -1    0    0    0  501  0.00000000000E+00  0.00000000000E+00 -0.44869582785E+03  0.44869582785E+03  0.25500000920E-02 0. -1.
    10030    2    1    2    0    0  0.00000000000E+00  0.00000000000E+00 -0.17579415044E+03  0.72159750527E+03  0.69985668268E+03 0.  0.
        1    1    3    3  502    0  0.88895311573E+02 -0.21347772791E+02 -0.43616462575E+03  0.44564300130E+03  0.50400001928E-02 0. -1.
       -1    1    3    3    0  502 -0.88895311573E+02  0.21347772791E+02  0.26037047531E+03  0.27595450397E+03  0.50400001928E-02 0.  1.
</event>
<event>
 5   0  0.4440500E-03  0.7000527E+03  0.7818609E-02  0.9717142E-01
        3   -1    0    0  501    0  0.00000000000E+00  0.00000000000E+00  0.33530674576E+03  0.33530676097E+03  0.10100000352E+00 0. -1.
       -3   -1    0    0    0  501  0.00000000000E+00  0.00000000000E+00 -0.36539205955E+03  0.36539207351E+03  0.10100000352E+00 0.  1.
    10030    2    1    2    0    0  0.00000000000E+00  0.00000000000E+00 -0.30085313796E+02  0.70069883448E+03  0.70005266269E+03 0.  0.
        3    1    3    3  502    0  0.14360872363E+03  0.28375131284E+03  0.13131183322E+03  0.34406551816E+03  0.10100000352E+00 0. -1.
       -3    1    3    3    0  502 -0.14360872363E+03 -0.28375131284E+03 -0.16139714702E+03  0.35663331632E+03  0.10100000352E+00 0.  1.
</event>
<event>
 5   0  0.1119786E-02  0.6992490E+03  0.7818609E-02  0.9718517E-01
        2   -1    0    0  501    0  0.00000000000E+00  0.00000000000E+00  0.41838006685E+03  0.41838006686E+03  0.25500000920E-02 0.  1.
       -2   -1    0    0    0  501  0.00000000000E+00  0.00000000000E+00 -0.29216806083E+03  0.29216806084E+03  0.25500000920E-02 0. -1.
    10030    2    1    2    0    0  0.00000000000E+00  0.00000000000E+00  0.12621200602E+03  0.71054812771E+03  0.69924900523E+03 0.  0.
        3    1    3    3  502    0 -0.73822221658E+02 -0.23454457444E+03  0.31567088128E+03  0.40013621843E+03  0.10100000352E+00 0.  1.
       -3    1    3    3    0  502  0.73822221658E+02  0.23454457444E+03 -0.18945887525E+03  0.31041190928E+03  0.10100000352E+00 0. -1.
</event>
<event>
 5   0  0.4440500E-03  0.7040210E+03  0.7818609E-02  0.9710380E-01
        3   -1    0    0  501    0  0.00000000000E+00  0.00000000000E+00  0.93612522481E+03  0.93612523026E+03  0.10100000352E+00 0.  1.
       -3   -1    0    0    0  501  0.00000000000E+00  0.00000000000E+00 -0.13236622587E+03  0.13236626441E+03  0.10100000352E+00 0. -1.
    10030    2    1    2    0    0  0.00000000000E+00  0.00000000000E+00  0.80375899894E+03  0.10684914947E+04  0.70402098392E+03 0.  0.
        4    1    3    3  502    0 -0.76862438655E+02  0.33098153472E+02 -0.11704563257E+03  0.14389098388E+03  0.12699999809E+01 0. -1.
       -4    1    3    3    0  502  0.76862438655E+02 -0.33098153472E+02  0.92080463150E+03  0.92460051078E+03  0.12699999809E+01 0.  1.
</event>
<event>
 5   0  0.6689415E-03  0.7018335E+03  0.7818609E-02  0.9714102E-01
        1   -1    0    0  501    0  0.00000000000E+00  0.00000000000E+00  0.13231011885E+04  0.13231011885E+04  0.50400001928E-02 0.  1.
       -1   -1    0    0    0  501  0.00000000000E+00  0.00000000000E+00 -0.93071152095E+02  0.93071152231E+02  0.50400001928E-02 0. -1.
    10030    2    1    2    0    0  0.00000000000E+00  0.00000000000E+00  0.12300300364E+04  0.14161723407E+04  0.70183346188E+03 0.  0.
        1    1    3    3  502    0  0.17601315338E+03  0.20685772329E+03  0.10633695216E+04  0.10975087641E+04  0.50400001928E-02 0.  1.
       -1    1    3    3    0  502 -0.17601315338E+03 -0.20685772329E+03  0.16666051483E+03  0.31866357664E+03  0.50400001928E-02 0. -1.
</event>
<event>
 5   0  0.1119786E-02  0.6902362E+03  0.7818609E-02  0.9734077E-01
        2   -1    0    0  501    0  0.00000000000E+00  0.00000000000E+00  0.72967569747E+03  0.72967569747E+03  0.25500000920E-02 0. -1.
       -2   -1    0    0    0  501  0.00000000000E+00  0.00000000000E+00 -0.16323210139E+03  0.16323210141E+03  0.25500000920E-02 0.  1.
    10030    2    1    2    0    0  0.00000000000E+00  0.00000000000E+00  0.56644359608E+03  0.89290779889E+03  0.69023618405E+03 0.  0.
        3    1    3    3  502    0  0.18493017839E+03 -0.79588114153E+02  0.64583673965E+03  0.67648986931E+03  0.10100000352E+00 0. -1.
       -3    1    3    3    0  502 -0.18493017839E+03  0.79588114153E+02 -0.79393143573E+02  0.21641792958E+03  0.10100000352E+00 0.  1.
</event>
<event>
 5   0  0.1109788E-02  0.7026489E+03  0.7818609E-02  0.9712713E-01
        2   -1    0    0  501    0  0.00000000000E+00  0.00000000000E+00  0.18157822271E+04  0.18157822271E+04  0.25500000920E-02 0. -1.
       -2   -1    0    0    0  501  0.00000000000E+00  0.00000000000E+00 -0.67975590281E+02  0.67975590329E+02  0.25500000920E-02 0.  1.
    10030    2    1    2    0    0  0.00000000000E+00  0.00000000000E+00  0.17478066369E+04  0.18837578175E+04  0.70264889884E+03 0.  0.
        1    1    3    3  502    0 -0.38282898646E+02  0.27103107668E+03  0.28345493317E+03  0.39404330221E+03  0.50400001928E-02 0.  1.
       -1    1    3    3    0  502  0.38282898646E+02 -0.27103107668E+03  0.14643517037E+04  0.14897145153E+04  0.50400001928E-02 0. -1.
</event>
<event>
 5   0  0.6609285E-03  0.7076494E+03  0.7818609E-02  0.9704239E-01
        1   -1    0    0  501    0  0.00000000000E+00  0.00000000000E+00  0.13101639515E+04  0.13101639515E+04  0.50400001928E-02 0.  1.
       -1   -1    0    0    0  501  0.00000000000E+00  0.00000000000E+00 -0.95554383249E+02  0.95554383382E+02  0.50400001928E-02 0. -1.
    10030    2    1    2    0    0  0.00000000000E+00  0.00000000000E+00  0.12146095682E+04  0.14057183348E+04  0.70764937204E+03 0.  0.
        2    1    3    3  502    0 -0.24957517816E+02 -0.63159180831E+02 -0.82486545239E+02  0.10684563618E+03  0.25500000920E-02 0. -1.
       -2    1    3    3    0  502  0.24957517816E+02  0.63159180831E+02  0.12970961134E+04  0.12988726987E+04  0.25500000920E-02 0.  1.
</event>
<event>
 5   0  0.1100119E-02  0.6926879E+03  0.7818609E-02  0.9729819E-01
       -2   -1    0    0    0  501  0.00000000000E+00  0.00000000000E+00  0.15048602186E+03  0.15048602188E+03  0.25500000920E-02 0.  1.
        2   -1    0    0  501    0  0.00000000000E+00  0.00000000000E+00 -0.79711147373E+03  0.79711147373E+03  0.25500000920E-02 0. -1.
    10030    2    1    2    0    0  0.00000000000E+00  0.00000000000E+00 -0.64662545187E+03  0.94759749561E+03  0.69268790857E+03 0.  0.
        4    1    3    3  502    0  0.29356151028E+03  0.10106582531E+03 -0.53329017433E+03  0.61708401721E+03  0.12699999809E+01 0.  1.
       -4    1    3    3    0  502 -0.29356151028E+03 -0.10106582531E+03 -0.11333527755E+03  0.33051347840E+03  0.12699999809E+01 0. -1.
</event>
<event>
 5   0  0.1079446E-02  0.7026163E+03  0.7818609E-02  0.9712768E-01
        2   -1    0    0  501    0  0.00000000000E+00  0.00000000000E+00  0.45722954912E+03  0.45722954913E+03  0.25500000920E-02 0. -1.
       -2   -1    0    0    0  501  0.00000000000E+00  0.00000000000E+00 -0.26992439142E+03  0.26992439143E+03  0.25500000920E-02 0.  1.
    10030    2    1    2    0    0  0.00000000000E+00  0.00000000000E+00  0.18730515770E+03  0.72715394056E+03  0.70261627591E+03 0.  0.
        2    1    3    3  502    0  0.48319011364E+02  0.23551918605E+03 -0.17144417360E+03  0.29529158221E+03  0.25500000920E-02 0.  1.
       -2    1    3    3    0  502 -0.48319011364E+02 -0.23551918605E+03  0.35874933130E+03  0.43186235836E+03  0.25500000920E-02 0. -1.
</event>
<event>
 5   0  0.6785252E-03  0.7069328E+03  0.7818609E-02  0.9705449E-01
        1   -1    0    0  501    0  0.00000000000E+00  0.00000000000E+00  0.26253870303E+03  0.26253870308E+03  0.50400001928E-02 0.  1.
       -1   -1    0    0    0  501  0.00000000000E+00  0.00000000000E+00 -0.47588606487E+03  0.47588606489E+03  0.50400001928E-02 0. -1.
    10030    2    1    2    0    0  0.00000000000E+00  0.00000000000E+00 -0.21334736183E+03  0.73842476797E+03  0.70693284062E+03 0.  0.
        3    1    3    3  502    0 -0.10372135303E+03  0.23931823931E+03  0.14250538828E+03  0.29721900112E+03  0.10100000352E+00 0.  1.
       -3    1    3    3    0  502  0.10372135303E+03 -0.23931823931E+03 -0.35585275011E+03  0.44120576685E+03  0.10100000352E+00 0. -1.
</event>
<event>
 5   0  0.6246998E-03  0.6828955E+03  0.7818609E-02  0.9746939E-01
       -1   -1    0    0    0  501  0.00000000000E+00  0.00000000000E+00  0.46847074097E+03  0.46847074099E+03  0.50400001928E-02 0. -1.
        1   -1    0    0  501    0  0.00000000000E+00  0.00000000000E+00 -0.24886630561E+03  0.24886630566E+03  0.50400001928E-02 0.  1.
    10030    2    1    2    0    0  0.00000000000E+00  0.00000000000E+00  0.21960443536E+03  0.71733704665E+03  0.68289554872E+03 0.  0.
        4    1    3    3  502    0 -0.56078697017E+02  0.14235838980E+03 -0.21083719481E+03  0.26050847783E+03  0.12699999809E+01 0.  1.
       -4    1    3    3    0  502  0.56078697017E+02 -0.14235838980E+03  0.43044163017E+03  0.45682856882E+03  0.12699999809E+01 0. -1.
</event>
<event>
 5   0  0.6990118E-03  0.7005735E+03  0.7818609E-02  0.9716252E-01
       -1   -1    0    0    0  501  0.00000000000E+00  0.00000000000E+00  0.35632767975E+03  0.35632767979E+03  0.50400001928E-02 0. -1.
        1   -1    0    0  501    0  0.00000000000E+00  0.00000000000E+00 -0.34434824012E+03  0.34434824016E+03  0.50400001928E-02 0.  1.
    10030    2    1    2    0    0  0.00000000000E+00  0.00000000000E+00  0.11979439630E+02  0.70067591994E+03  0.70057350636E+03 0.  0.
        5    1    3    3  502    0 -0.30622476238E+03 -0.82991201876E+02 -0.14241517409E+03  0.34780068501E+03  0.46999998093E+01 0.  1.
       -5    1    3    3    0  502  0.30622476238E+03  0.82991201876E+02  0.15439461372E+03  0.35287523493E+03  0.46999998093E+01 0. -1.
</event>
<event>
 5   0  0.6246998E-03  0.7017375E+03  0.7818609E-02  0.9714265E-01
       -1   -1    0    0    0  501  0.00000000000E+00  0.00000000000E+00  0.36066238847E+03  0.36066238850E+03  0.50400001928E-02 0.  1.
        1   -1    0    0  501    0  0.00000000000E+00  0.00000000000E+00 -0.34134107802E+03  0.34134107806E+03  0.50400001928E-02 0. -1.
    10030    2    1    2    0    0  0.00000000000E+00  0.00000000000E+00  0.19321310444E+02  0.70200346656E+03  0.70173752502E+03 0.  0.
        4    1    3    3  502    0  0.17474839405E+03  0.69429324080E+02  0.30599891815E+03  0.35915788043E+03  0.12699999809E+01 0.  1.
       -4    1    3    3    0  502 -0.17474839405E+03 -0.69429324080E+02 -0.28667760771E+03  0.34284558613E+03  0.12699999809E+01 0. -1.
</event>
<event>
 5   0  0.6689415E-03  0.7210510E+03  0.7818609E-02  0.9681894E-01
        1   -1    0    0  501    0  0.00000000000E+00  0.00000000000E+00  0.72340001630E+03  0.72340001631E+03  0.50400001928E-02 0.  1.
       -1   -1    0    0    0  501  0.00000000000E+00  0.00000000000E+00 -0.17967741552E+03  0.17967741559E+03  0.50400001928E-02 0. -1.
    10030    2    1    2    0    0  0.00000000000E+00  0.00000000000E+00  0.54372260078E+03  0.90307743191E+03  0.72105102553E+03 0.  0.
        1    1    3    3  502    0  0.34241050659E+03 -0.51861687263E+02  0.14634112232E+03  0.37596584118E+03  0.50400001928E-02 0. -1.
       -1    1    3    3    0  502 -0.34241050659E+03  0.51861687263E+02  0.39738147846E+03  0.52711159072E+03  0.50400001928E-02 0.  1.
</event>
<event>
 5   0  0.1099980E-02  0.7015577E+03  0.7818609E-02  0.9714572E-01
        2   -1    0    0  501    0  0.00000000000E+00  0.00000000000E+00  0.36197502090E+03  0.36197502091E+03  0.25500000920E-02 0.  1.
       -2   -1    0    0    0  501  0.00000000000E+00  0.00000000000E+00 -0.33992901797E+03  0.33992901798E+03  0.25500000920E-02 0. -1.
    10030    2    1    2    0    0  0.00000000000E+00  0.00000000000E+00  0.22046002936E+02  0.70190403889E+03  0.70155773359E+03 0.  0.
        5    1    3    3  502    0 -0.35894153037E+02  0.61094771156E+02 -0.33266186684E+03  0.34015727088E+03  0.46999998093E+01 0. -1.
       -5    1    3    3    0  502  0.35894153037E+02 -0.61094771156E+02  0.35470786978E+03  0.36174676801E+03  0.46999998093E+01 0.  1.
</event>
<event>
 5   0  0.6246998E-03  0.7047942E+03  0.7818609E-02  0.9709068E-01
        1   -1    0    0  501    0  0.00000000000E+00  0.00000000000E+00  0.20474782221E+03  0.20474782227E+03  0.50400001928E-02 0.  1.
       -1   -1    0    0    0  501  0.00000000000E+00  0.00000000000E+00 -0.60652032500E+03  0.60652032503E+03  0.50400001928E-02 0. -1.
    10030    2    1    2    0    0  0.00000000000E+00  0.00000000000E+00 -0.40177250280E+03  0.81126814730E+03  0.70479419891E+03 0.  0.
        4    1    3    3  502    0 -0.95648170932E+02  0.33845814181E+02  0.18756906539E+03  0.21325543119E+03  0.12699999809E+01 0.  1.
       -4    1    3    3    0  502  0.95648170932E+02 -0.33845814181E+02 -0.58934156818E+03  0.59801271611E+03  0.12699999809E+01 0. -1.
</event>
<event>
 5   0  0.1099980E-02  0.7022514E+03  0.7818609E-02  0.9713390E-01
       -2   -1    0    0    0  501  0.00000000000E+00  0.00000000000E+00  0.14647655055E+03  0.14647655057E+03  0.25500000920E-02 0.  1.
        2   -1    0    0  501    0  0.00000000000E+00  0.00000000000E+00 -0.84169970695E+03  0.84169970695E+03  0.25500000920E-02 0. -1.
    10030    2    1    2    0    0  0.00000000000E+00  0.00000000000E+00 -0.69522315639E+03  0.98817625752E+03  0.70225143556E+03 0.  0.
        5    1    3    3  502    0  0.68148260105E+02 -0.42732823051E+02  0.13329136796E+03  0.15575287571E+03  0.46999998093E+01 0.  1.
       -5    1    3    3    0  502 -0.68148260105E+02  0.42732823051E+02 -0.82851452436E+03  0.83242338181E+03  0.46999998093E+01 0. -1.
</event>
<event>
 5   0  0.1119786E-02  0.7010708E+03  0.7818609E-02  0.9715403E-01
        2   -1    0    0  501    0  0.00000000000E+00  0.00000000000E+00  0.17338365799E+04  0.17338365799E+04  0.25500000920E-02 0.  1.
       -2   -1    0    0    0  501  0.00000000000E+00  0.00000000000E+00 -0.70868882988E+02  0.70868883034E+02  0.25500000920E-02 0. -1.
    10030    2    1    2    0    0  0.00000000000E+00  0.00000000000E+00  0.16629676969E+04  0.18047054629E+04  0.70107078600E+03 0.  0.
        3    1    3    3  502    0 -0.10759203563E+02 -0.35001518319E+03  0.87207671461E+03  0.93975751941E+03  0.10100000352E+00 0.  1.
       -3    1    3    3    0  502  0.10759203563E+02  0.35001518319E+03  0.79089098232E+03  0.86494794354E+03  0.10100000352E+00 0. -1.
</event>
<event>
 5   0  0.1119786E-02  0.6966398E+03  0.7818609E-02  0.9722996E-01
        2   -1    0    0  501    0  0.00000000000E+00  0.00000000000E+00  0.10113257393E+04  0.10113257393E+04  0.25500000920E-02 0. -1.
       -2   -1    0    0    0  501  0.00000000000E+00  0.00000000000E+00 -0.11996802489E+03  0.11996802491E+03  0.25500000920E-02 0.  1.
    10030    2    1    2    0    0  0.00000000000E+00  0.00000000000E+00  0.89135771441E+03  0.11312937642E+04  0.69663979638E+03 0.  0.
        3    1    3    3  502    0  0.30448811159E+03  0.16345298345E+03  0.51640565473E+03  0.62137323593E+03  0.10100000352E+00 0. -1.
       -3    1    3    3    0  502 -0.30448811159E+03 -0.16345298345E+03  0.37495205968E+03  0.50992052828E+03  0.10100000352E+00 0.  1.
</event>
<event>
 5   0  0.6990118E-03  0.7018758E+03  0.7818609E-02  0.9714030E-01
        1   -1    0    0  501    0  0.00000000000E+00  0.00000000000E+00  0.39037095371E+03  0.39037095374E+03  0.50400001928E-02 0. -1.
       -1   -1    0    0    0  501  0.00000000000E+00  0.00000000000E+00 -0.31548819279E+03  0.31548819283E+03  0.50400001928E-02 0.  1.
    10030    2    1    2    0    0  0.00000000000E+00  0.00000000000E+00  0.74882760921E+02  0.70585914657E+03  0.70187584865E+03 0.  0.
        5    1    3    3  502    0 -0.30825337385E+03  0.40050052029E+02 -0.12630523767E+03  0.33555812047E+03  0.46999998093E+01 0.  1.
       -5    1    3    3    0  502  0.30825337385E+03 -0.40050052029E+02  0.20118799859E+03  0.37030102610E+03  0.46999998093E+01 0. -1.
</event>
<event>
 5   0  0.1099980E-02  0.6992252E+03  0.7818609E-02  0.9718558E-01
       -2   -1    0    0    0  501  0.00000000000E+00  0.00000000000E+00  0.14598235151E+03  0.14598235153E+03  0.25500000920E-02 0.  1.
        2   -1    0    0  501    0  0.00000000000E+00  0.00000000000E+00 -0.83728595919E+03  0.83728595920E+03  0.25500000920E-02 0. -1.
    10030    2    1    2    0    0  0.00000000000E+00  0.00000000000E+00 -0.69130360768E+03  0.98326831073E+03  0.69922520899E+03 0.  0.
        5    1    3    3  502    0  0.28217580828E+03  0.64389322896E+02 -0.62134987452E+03  0.68546840062E+03  0.46999998093E+01 0. -1.
       -5    1    3    3    0  502 -0.28217580828E+03 -0.64389322896E+02 -0.69953733158E+02  0.29779991011E+03  0.46999998093E+01 0.  1.
</event>
<event>
 5   0  0.1119786E-02  0.6968154E+03  0.7818609E-02  0.9722694E-01
        2   -1    0    0  501    0  0.00000000000E+00  0.00000000000E+00  0.11264873020E+04  0.11264873020E+04  0.25500000920E-02 0. -1.
       -2   -1    0    0    0  501  0.00000000000E+00  0.00000000000E+00 -0.10775792018E+03  0.10775792021E+03  0.25500000920E-02 0.  1.
    10030    2    1    2    0    0  0.00000000000E+00  0.00000000000E+00  0.10187293819E+04  0.12342452222E+04  0.69681540968E+03 0.  0.
        3    1    3    3  502    0 -0.29311830211E+03  0.18436621235E+03  0.57747623177E+03  0.67334095951E+03  0.10100000352E+00 0.  1.
       -3    1    3    3    0  502  0.29311830211E+03 -0.18436621235E+03  0.44125315009E+03  0.56090426274E+03  0.10100000352E+00 0. -1.
</event>
<event>
 5   0  0.6689415E-03  0.6995295E+03  0.7818609E-02  0.9718037E-01
        1   -1    0    0  501    0  0.00000000000E+00  0.00000000000E+00  0.33703928613E+03  0.33703928616E+03  0.50400001928E-02 0. -1.
       -1   -1    0    0    0  501  0.00000000000E+00  0.00000000000E+00 -0.36297072097E+03  0.36297072101E+03  0.50400001928E-02 0.  1.
    10030    2    1    2    0    0  0.00000000000E+00  0.00000000000E+00 -0.25931434848E+02  0.70001000717E+03  0.69952953535E+03 0.  0.
        1    1    3    3  502    0  0.18873075772E+03  0.24676960885E+03 -0.17376477279E+03  0.35596170447E+03  0.50400001928E-02 0. -1.
       -1    1    3    3    0  502 -0.18873075772E+03 -0.24676960885E+03  0.14783333794E+03  0.34404830270E+03  0.50400001928E-02 0.  1.
</event>
<event>
 5   0  0.6785252E-03  0.6953737E+03  0.7818609E-02  0.9725177E-01
       -1   -1    0    0    0  501  0.00000000000E+00  0.00000000000E+00  0.13427000392E+03  0.13427000402E+03  0.50400001928E-02 0. -1.
        1   -1    0    0  501    0  0.00000000000E+00  0.00000000000E+00 -0.90032142501E+03  0.90032142502E+03  0.50400001928E-02 0.  1.
    10030    2    1    2    0    0  0.00000000000E+00  0.00000000000E+00 -0.76605142109E+03  0.10345914290E+04  0.69537374505E+03 0.  0.
        3    1    3    3  502    0 -0.14352531686E+03  0.44409149777E+01 -0.85414339715E+03  0.86612943109E+03  0.10100000352E+00 0.  1.
       -3    1    3    3    0  502  0.14352531686E+03 -0.44409149777E+01  0.88091976064E+02  0.16846199795E+03  0.10100000352E+00 0. -1.
</event>
<event>
 5   0  0.6609285E-03  0.6851911E+03  0.7818609E-02  0.9742898E-01
        1   -1    0    0  501    0  0.00000000000E+00  0.00000000000E+00  0.21292689630E+04  0.21292689630E+04  0.50400001928E-02 0. -1.
       -1   -1    0    0    0  501  0.00000000000E+00  0.00000000000E+00 -0.55123010954E+02  0.55123011184E+02  0.50400001928E-02 0.  1.
    10030    2    1    2    0    0  0.00000000000E+00  0.00000000000E+00  0.20741459521E+04  0.21843919742E+04  0.68519111679E+03 0.  0.
        2    1    3    3  502    0  0.23372442012E+03 -0.16650790068E+03  0.16336619900E+04  0.16586752193E+04  0.25500000920E-02 0. -1.
       -2    1    3    3    0  502 -0.23372442012E+03  0.16650790068E+03  0.44048396207E+03  0.52571675491E+03  0.25500000920E-02 0.  1.
</event>
<event>
 5   0  0.4440500E-03  0.7033811E+03  0.7818609E-02  0.9711468E-01
        3   -1    0    0  501    0  0.00000000000E+00  0.00000000000E+00  0.10792236782E+03  0.10792241508E+03  0.10100000352E+00 0. -1.
       -3   -1    0    0    0  501  0.00000000000E+00  0.00000000000E+00 -0.11460663610E+04  0.11460663654E+04  0.10100000352E+00 0.  1.
    10030    2    1    2    0    0  0.00000000000E+00  0.00000000000E+00 -0.10381439932E+04  0.12539887805E+04  0.70338105682E+03 0.  0.
        4    1    3    3  502    0 -0.12913276944E+03 -0.62138792564E+02  0.53504645209E+02  0.15297340175E+03  0.12699999809E+01 0. -1.
       -4    1    3    3    0  502  0.12913276944E+03  0.62138792564E+02 -0.10916486384E+04  0.11010153787E+04  0.12699999809E+01 0.  1.
</event>
<event>
 5   0  0.1109788E-02  0.7221325E+03  0.7818609E-02  0.9680114E-01
       -2   -1    0    0    0  501  0.00000000000E+00  0.00000000000E+00  0.60097869418E+03  0.60097869418E+03  0.25500000920E-02 0.  1.
        2   -1    0    0  501    0  0.00000000000E+00  0.00000000000E+00 -0.21692755764E+03  0.21692755766E+03  0.25500000920E-02 0. -1.
    10030    2    1    2    0    0  0.00000000000E+00  0.00000000000E+00  0.38405113653E+03  0.81790625184E+03  0.72213250953E+03 0.  0.
        1    1    3    3  502    0  0.19713988360E+03  0.26175675843E+03  0.20298709201E+02  0.32831809562E+03  0.50400001928E-02 0. -1.
       -1    1    3    3    0  502 -0.19713988360E+03 -0.26175675843E+03  0.36375242733E+03  0.48958815622E+03  0.50400001928E-02 0.  1.
</event>
<event>
 5   0  0.1099980E-02  0.6984735E+03  0.7818609E-02  0.9719846E-01
        2   -1    0    0  501    0  0.00000000000E+00  0.00000000000E+00  0.68030062441E+03  0.68030062441E+03  0.25500000920E-02 0.  1.
       -2   -1    0    0    0  501  0.00000000000E+00  0.00000000000E+00 -0.17928296406E+03  0.17928296408E+03  0.25500000920E-02 0. -1.
    10030    2    1    2    0    0  0.00000000000E+00  0.00000000000E+00  0.50101766035E+03  0.85958358849E+03  0.69847351390E+03 0.  0.
        5    1    3    3  502    0 -0.23932926312E+03 -0.22836031636E+03  0.38819596632E+03  0.51004424175E+03  0.46999998093E+01 0.  1.
       -5    1    3    3    0  502  0.23932926312E+03  0.22836031636E+03  0.11282169403E+03  0.34953934674E+03  0.46999998093E+01 0. -1.
</event>
<event>
 5   0  0.1079446E-02  0.6921848E+03  0.7818609E-02  0.9730691E-01
        2   -1    0    0  501    0  0.00000000000E+00  0.00000000000E+00  0.63321233481E+03  0.63321233482E+03  0.25500000920E-02 0.  1.
       -2   -1    0    0    0  501  0.00000000000E+00  0.00000000000E+00 -0.18916236730E+03  0.18916236732E+03  0.25500000920E-02 0. -1.
    10030    2    1    2    0    0  0.00000000000E+00  0.00000000000E+00  0.44404996751E+03  0.82237470214E+03  0.69218478535E+03 0.  0.
        2    1    3    3  502    0 -0.85105160057E+02  0.82359805933E+02 -0.16433836975E+03  0.20256634884E+03  0.25500000920E-02 0. -1.
       -2    1    3    3    0  502  0.85105160057E+02 -0.82359805933E+02  0.60838833726E+03  0.61980835330E+03  0.25500000920E-02 0.  1.
</event>
<event>
 5   0  0.1119786E-02  0.6948790E+03  0.7818609E-02  0.9726030E-01
        2   -1    0    0  501    0  0.00000000000E+00  0.00000000000E+00  0.42285777362E+03  0.42285777363E+03  0.25500000920E-02 0.  1.
       -2   -1    0    0    0  501  0.00000000000E+00  0.00000000000E+00 -0.28547233204E+03  0.28547233205E+03  0.25500000920E-02 0. -1.
    10030    2    1    2    0    0  0.00000000000E+00  0.00000000000E+00  0.13738544158E+03  0.70833010568E+03  0.69487896720E+03 0.  0.
        3    1    3    3  502    0  0.43500809318E+02 -0.17639175776E+03 -0.23319515572E+03  0.29561184595E+03  0.10100000352E+00 0. -1.
       -3    1    3    3    0  502 -0.43500809318E+02  0.17639175776E+03  0.37058059729E+03  0.41271825972E+03  0.10100000352E+00 0.  1.
</event>
<event>
 5   0  0.6609285E-03  0.7010206E+03  0.7818609E-02  0.9715488E-01
       -1   -1    0    0    0  501  0.00000000000E+00  0.00000000000E+00  0.20765215421E+03  0.20765215427E+03  0.50400001928E-02 0.  1.
        1   -1    0    0  501    0  0.00000000000E+00  0.00000000000E+00 -0.59165033834E+03  0.59165033837E+03  0.50400001928E-02 0. -1.
    10030    2    1    2    0    0  0.00000000000E+00  0.00000000000E+00 -0.38399818413E+03  0.79930249264E+03  0.70102059122E+03 0.  0.
        2    1    3    3  502    0  0.33207500003E+03  0.10762600696E+03 -0.22806081414E+03  0.41697589615E+03  0.25500000920E-02 0. -1.
       -2    1    3    3    0  502 -0.33207500003E+03 -0.10762600696E+03 -0.15593737000E+03  0.38232659649E+03  0.25500000920E-02 0.  1.
</event>
<event>
 5   0  0.6689415E-03  0.6969366E+03  0.7818609E-02  0.9722485E-01
        1   -1    0    0  501    0  0.00000000000E+00  0.00000000000E+00  0.14613191766E+04  0.14613191766E+04  0.50400001928E-02 0.  1.
       -1   -1    0    0    0  501  0.00000000000E+00  0.00000000000E+00 -0.83096267036E+02  0.83096267189E+02  0.50400001928E-02 0. -1.
    10030    2    1    2    0    0  0.00000000000E+00  0.00000000000E+00  0.13782229096E+04  0.15444154438E+04  0.69693663600E+03 0.  0.
        1    1    3    3  502    0  0.28398867836E+03  0.11830210686E+03  0.10517870852E+04  0.10958563001E+04  0.50400001928E-02 0.  1.
       -1    1    3    3    0  502 -0.28398867836E+03 -0.11830210686E+03  0.32643582440E+03  0.44855914370E+03  0.50400001928E-02 0. -1.
</event>
<event>
 5   0  0.1119786E-02  0.6991940E+03  0.7818609E-02  0.9718612E-01
        2   -1    0    0  501    0  0.00000000000E+00  0.00000000000E+00  0.13185253856E+04  0.13185253856E+04  0.25500000920E-02 0.  1.
       -2   -1    0    0    0  501  0.00000000000E+00  0.00000000000E+00 -0.92692982154E+02  0.92692982189E+02  0.25500000920E-02 0. -1.
    10030    2    1    2    0    0  0.00000000000E+00  0.00000000000E+00  0.12258324035E+04  0.14112183678E+04  0.69919396469E+03 0.  0.
        3    1    3    3  502    0 -0.20705962148E+03  0.27427617897E+03  0.74242024450E+03  0.81810081215E+03  0.10100000352E+00 0.  1.
       -3    1    3    3    0  502  0.20705962148E+03 -0.27427617897E+03  0.48341215896E+03  0.59311755565E+03  0.10100000352E+00 0. -1.
</event>
<event>
 5   0  0.1099980E-02  0.6875171E+03  0.7818609E-02  0.9738821E-01
       -2   -1    0    0    0  501  0.00000000000E+00  0.00000000000E+00  0.35561903252E+03  0.35561903253E+03  0.25500000920E-02 0. -1.
        2   -1    0    0  501    0  0.00000000000E+00  0.00000000000E+00 -0.33229368202E+03  0.33229368203E+03  0.25500000920E-02 0.  1.
    10030    2    1    2    0    0  0.00000000000E+00  0.00000000000E+00  0.23325350507E+02  0.68791271456E+03  0.68751714951E+03 0.  0.
        5    1    3    3  502    0  0.62746532949E+02 -0.15749786531E+03  0.31084167084E+03  0.35410074739E+03  0.46999998093E+01 0. -1.
       -5    1    3    3    0  502 -0.62746532949E+02  0.15749786531E+03 -0.28751632033E+03  0.33381196717E+03  0.46999998093E+01 0.  1.
</event>
<event>
 5   0  0.6785252E-03  0.7010685E+03  0.7818609E-02  0.9715407E-01
       -1   -1    0    0    0  501  0.00000000000E+00  0.00000000000E+00  0.54188538869E+02  0.54188539104E+02  0.50400001928E-02 0.  1.
        1   -1    0    0  501    0  0.00000000000E+00  0.00000000000E+00 -0.22675319473E+04  0.22675319473E+04  0.50400001928E-02 0. -1.
    10030    2    1    2    0    0  0.00000000000E+00  0.00000000000E+00 -0.22133434084E+04  0.23217204864E+04  0.70106845128E+03 0.  0.
        3    1    3    3  502    0 -0.18762477372E+03  0.16399584128E+03 -0.19230989714E+04  0.19391769790E+04  0.10100000352E+00 0. -1.
       -3    1    3    3    0  502  0.18762477372E+03 -0.16399584128E+03 -0.29024443701E+03  0.38254350744E+03  0.10100000352E+00 0.  1.
</event>
<event>
 5   0  0.6609285E-03  0.6995903E+03  0.7818609E-02  0.9717933E-01
       -1   -1    0    0    0  501  0.00000000000E+00  0.00000000000E+00  0.15569404988E+03  0.15569404996E+03  0.50400001928E-02 0.  1.
        1   -1    0    0  501    0  0.00000000000E+00  0.00000000000E+00 -0.78587874513E+03  0.78587874515E+03  0.50400001928E-02 0. -1.
    10030    2    1    2    0    0  0.00000000000E+00  0.00000000000E+00 -0.63018469525E+03  0.94157279511E+03  0.69959029321E+03 0.  0.
        2    1    3    3  502    0  0.69827492947E+02 -0.18498672272E+03  0.73263723693E+02  0.21086379388E+03  0.25500000920E-02 0.  1.
       -2    1    3    3    0  502 -0.69827492947E+02  0.18498672272E+03 -0.70344841895E+03  0.73070900123E+03  0.25500000920E-02 0. -1.
</event>
<event>
 5   0  0.6609285E-03  0.7034213E+03  0.7818609E-02  0.9711399E-01
       -1   -1    0    0    0  501  0.00000000000E+00  0.00000000000E+00  0.17737949397E+03  0.17737949404E+03  0.50400001928E-02 0.  1.
        1   -1    0    0  501    0  0.00000000000E+00  0.00000000000E+00 -0.69737709591E+03  0.69737709593E+03  0.50400001928E-02 0. -1.
    10030    2    1    2    0    0  0.00000000000E+00  0.00000000000E+00 -0.51999760194E+03  0.87475658997E+03  0.70342134292E+03 0.  0.
        2    1    3    3  502    0 -0.23466765158E+03  0.25035466667E+02 -0.58429450411E+03  0.63015533706E+03  0.25500000920E-02 0. -1.
       -2    1    3    3    0  502  0.23466765158E+03 -0.25035466667E+02  0.64296902166E+02  0.24460125291E+03  0.25500000920E-02 0.  1.
</event>
<event>
 5   0  0.1100119E-02  0.7034066E+03  0.7818609E-02  0.9711424E-01
       -2   -1    0    0    0  501  0.00000000000E+00  0.00000000000E+00  0.11291693887E+03  0.11291693890E+03  0.25500000920E-02 0. -1.
        2   -1    0    0  501    0  0.00000000000E+00  0.00000000000E+00 -0.10954529550E+04  0.10954529550E+04  0.25500000920E-02 0.  1.
    10030    2    1    2    0    0  0.00000000000E+00  0.00000000000E+00 -0.98253601614E+03  0.12083698939E+04  0.70340655207E+03 0.  0.
        4    1    3    3  502    0  0.10177908438E+03  0.29069178912E+03 -0.78296874305E+03  0.84136933851E+03  0.12699999809E+01 0.  1.
       -4    1    3    3    0  502 -0.10177908438E+03 -0.29069178912E+03 -0.19956727308E+03  0.36700055540E+03  0.12699999809E+01 0. -1.
</event>
<event>
 5   0  0.4440500E-03  0.6999545E+03  0.7818609E-02  0.9717310E-01
       -3   -1    0    0    0  501  0.00000000000E+00  0.00000000000E+00  0.28344573779E+03  0.28344575578E+03  0.10100000352E+00 0. -1.
        3   -1    0    0  501    0  0.00000000000E+00  0.00000000000E+00 -0.43212530409E+03  0.43212531589E+03  0.10100000352E+00 0.  1.
    10030    2    1    2    0    0  0.00000000000E+00  0.00000000000E+00 -0.14867956630E+03  0.71557107167E+03  0.69995453080E+03 0.  0.
        3    1    3    3  502    0 -0.14813896175E+03  0.24889011370E+03 -0.27517282413E+03  0.39951412243E+03  0.10100000352E+00 0.  1.
       -3    1    3    3    0  502  0.14813896175E+03 -0.24889011370E+03  0.12649325783E+03  0.31605694924E+03  0.10100000352E+00 0. -1.
</event>
<event>
 5   0  0.6785252E-03  0.7017016E+03  0.7818609E-02  0.9714327E-01
       -1   -1    0    0    0  501  0.00000000000E+00  0.00000000000E+00  0.14014465766E+03  0.14014465776E+03  0.50400001928E-02 0.  1.
        1   -1    0    0  501    0  0.00000000000E+00  0.00000000000E+00 -0.87835167478E+03  0.87835167479E+03  0.50400001928E-02 0. -1.
    10030    2    1    2    0    0  0.00000000000E+00  0.00000000000E+00 -0.73820701711E+03  0.10184963325E+04  0.70170163125E+03 0.  0.
        3    1    3    3  502    0 -0.10812545051E+02 -0.10646385137E+03  0.11587922371E+03  0.15773226514E+03  0.10100000352E+00 0.  1.
       -3    1    3    3    0  502  0.10812545051E+02  0.10646385137E+03 -0.85408624082E+03  0.86076406740E+03  0.10100000352E+00 0. -1.
</event>
<event>
 5   0  0.1099980E-02  0.7006007E+03  0.7818609E-02  0.9716206E-01
       -2   -1    0    0    0  501  0.00000000000E+00  0.00000000000E+00  0.29939964830E+03  0.29939964831E+03  0.25500000920E-02 0. -1.
        2   -1    0    0  501    0  0.00000000000E+00  0.00000000000E+00 -0.40985459291E+03  0.40985459292E+03  0.25500000920E-02 0.  1.
    10030    2    1    2    0    0  0.00000000000E+00  0.00000000000E+00 -0.11045494461E+03  0.70925424122E+03  0.70060065937E+03 0.  0.
        5    1    3    3  502    0 -0.80672954707E+02  0.30562004957E+03  0.97555447225E+02  0.33083363735E+03  0.46999998093E+01 0. -1.
       -5    1    3    3    0  502  0.80672954707E+02 -0.30562004957E+03 -0.20801039184E+03  0.37842060387E+03  0.46999998093E+01 0.  1.
</event>
<event>
 5   0  0.6609285E-03  0.7006739E+03  0.7818609E-02  0.9716080E-01
       -1   -1    0    0    0  501  0.00000000000E+00  0.00000000000E+00  0.11419398402E+03  0.11419398413E+03  0.50400001928E-02 0.  1.
        1   -1    0    0  501    0  0.00000000000E+00  0.00000000000E+00 -0.10748024387E+04  0.10748024388E+04  0.50400001928E-02 0. -1.
    10030    2    1    2    0    0  0.00000000000E+00  0.00000000000E+00 -0.96060845473E+03  0.11889964229E+04  0.70067388301E+03 0.  0.
        2    1    3    3  502    0  0.24016810497E+03  0.20206526683E+03 -0.21618777681E+03  0.38111447828E+03  0.25500000920E-02 0.  1.
       -2    1    3    3    0  502 -0.24016810497E+03 -0.20206526683E+03 -0.74442067792E+03  0.80788194461E+03  0.25500000920E-02 0. -1.
</event>
<event>
 5   0  0.4440500E-03  0.6973069E+03  0.7818609E-02  0.9721849E-01
        3   -1    0    0  501    0  0.00000000000E+00  0.00000000000E+00  0.15577139642E+03  0.15577142916E+03  0.10100000352E+00 0. -1.
       -3   -1    0    0    0  501  0.00000000000E+00  0.00000000000E+00 -0.78036933592E+03  0.78036934246E+03  0.10100000352E+00 0.  1.
    10030    2    1    2    0    0  0.00000000000E+00  0.00000000000E+00 -0.62459793951E+03  0.93614077162E+03  0.69730693260E+03 0.  0.
        5    1    3    3  502    0  0.23326309410E+03  0.81464956675E+02  0.17884374598E+02  0.24777035958E+03  0.46999998093E+01 0. -1.
       -5    1    3    3    0  502 -0.23326309410E+03 -0.81464956675E+02 -0.64248231411E+03  0.68837041204E+03  0.46999998093E+01 0.  1.
</event>
<event>
 5   0  0.4440500E-03  0.6980840E+03  0.7818609E-02  0.9720514E-01
       -3   -1    0    0    0  501  0.00000000000E+00  0.00000000000E+00  0.43055059784E+03  0.43055060968E+03  0.10100000352E+00 0.  1.
        3   -1    0    0  501    0  0.00000000000E+00  0.00000000000E+00 -0.28296400568E+03  0.28296402371E+03  0.10100000352E+00 0. -1.
    10030    2    1    2    0    0  0.00000000000E+00  0.00000000000E+00  0.14758659216E+03  0.71351463339E+03  0.69808404213E+03 0.  0.
        1    1    3    3  502    0  0.33742420288E+02 -0.28466596064E+03 -0.12974938886E+03  0.31465562764E+03  0.50400001928E-02 0. -1.
       -1    1    3    3    0  502 -0.33742420288E+02  0.28466596064E+03  0.27733598101E+03  0.39885900574E+03  0.50400001928E-02 0.  1.
</event>
<event>
 5   0  0.1109788E-02  0.6999778E+03  0.7818609E-02  0.9717270E-01
       -2   -1    0    0    0  501  0.00000000000E+00  0.00000000000E+00  0.45033203563E+03  0.45033203564E+03  0.25500000920E-02 0.  1.
        2   -1    0    0  501    0  0.00000000000E+00  0.00000000000E+00 -0.27200428632E+03  0.27200428634E+03  0.25500000920E-02 0. -1.
    10030    2    1    2    0    0  0.00000000000E+00  0.00000000000E+00  0.17832774931E+03  0.72233632198E+03  0.69997783956E+03 0.  0.
        1    1    3    3  502    0 -0.14096687307E+02 -0.37399382303E+02  0.44796929685E+03  0.44974873133E+03  0.50400001928E-02 0.  1.
       -1    1    3    3    0  502  0.14096687307E+02  0.37399382303E+02 -0.26964154754E+03  0.27258759065E+03  0.50400001928E-02 0. -1.
</event>
<event>
 5   0  0.6785252E-03  0.7007990E+03  0.7818609E-02  0.9715867E-01
        1   -1    0    0  501    0  0.00000000000E+00  0.00000000000E+00  0.52936388731E+03  0.52936388733E+03  0.50400001928E-02 0. -1.
       -1   -1    0    0    0  501  0.00000000000E+00  0.00000000000E+00 -0.23193838073E+03  0.23193838078E+03  0.50400001928E-02 0.  1.
    10030    2    1    2    0    0  0.00000000000E+00  0.00000000000E+00  0.29742550658E+03  0.76130226811E+03  0.70079898078E+03 0.  0.
        3    1    3    3  502    0 -0.23123876841E+03  0.11324861680E+03 -0.10946761404E+03  0.27978524969E+03  0.10100000352E+00 0.  1.
       -3    1    3    3    0  502  0.23123876841E+03 -0.11324861680E+03  0.40689312062E+03  0.48151701842E+03  0.10100000352E+00 0. -1.
</event>
<event>
 5   0  0.4440500E-03  0.6973737E+03  0.7818609E-02  0.9721734E-01
        4   -1    0    0  501    0  0.00000000000E+00  0.00000000000E+00  0.61487151304E+03  0.61487282461E+03  0.12699999809E+01 0. -1.
       -4   -1    0    0    0  501  0.00000000000E+00  0.00000000000E+00 -0.19773289728E+03  0.19773697572E+03  0.12699999809E+01 0.  1.
    10030    2    1    2    0    0  0.00000000000E+00  0.00000000000E+00  0.41713861576E+03  0.81260980034E+03  0.69737368953E+03 0.  0.
        4    1    3    3  502    0  0.15524210854E+03 -0.11745967064E+03  0.54565301012E+03  0.57934075193E+03  0.12699999809E+01 0. -1.
       -4    1    3    3    0  502 -0.15524210854E+03  0.11745967064E+03 -0.12851439436E+03  0.23326904841E+03  0.12699999809E+01 0.  1.
</event>
<event>
 5   0  0.1079446E-02  0.7047028E+03  0.7818609E-02  0.9709223E-01
        2   -1    0    0  501    0  0.00000000000E+00  0.00000000000E+00  0.79851368268E+03  0.79851368269E+03  0.25500000920E-02 0. -1.
       -2   -1    0    0    0  501  0.00000000000E+00  0.00000000000E+00 -0.15547824913E+03  0.15547824915E+03  0.25500000920E-02 0.  1.
    10030    2    1    2    0    0  0.00000000000E+00  0.00000000000E+00  0.64303543355E+03  0.95399193184E+03  0.70470280062E+03 0.  0.
        2    1    3    3  502    0  0.26817138626E+03  0.90947022452E+02  0.60536750093E+03  0.66832407145E+03  0.25500000920E-02 0. -1.
       -2    1    3    3    0  502 -0.26817138626E+03 -0.90947022452E+02  0.37667932624E+02  0.28566786038E+03  0.25500000920E-02 0.  1.
</event>
<event>
 5   0  0.1079446E-02  0.6953066E+03  0.7818609E-02  0.9725292E-01
       -2   -1    0    0    0  501  0.00000000000E+00  0.00000000000E+00  0.16222689579E+03  0.16222689581E+03  0.25500000920E-02 0.  1.
        2   -1    0    0  501    0  0.00000000000E+00  0.00000000000E+00 -0.74502339773E+03  0.74502339774E+03  0.25500000920E-02 0. -1.
    10030    2    1    2    0    0  0.00000000000E+00  0.00000000000E+00 -0.58279650194E+03  0.90725029354E+03  0.69530664635E+03 0.  0.
        2    1    3    3  502    0  0.18522738236E+03  0.17894516814E+03  0.13305325348E+02  0.25789065137E+03  0.25500000920E-02 0.  1.
       -2    1    3    3    0  502 -0.18522738236E+03 -0.17894516814E+03 -0.59610182729E+03  0.64935964217E+03  0.25500000920E-02 0. -1.
</event>
<event>
 5   0  0.1100119E-02  0.6972772E+03  0.7818609E-02  0.9721900E-01
       -2   -1    0    0    0  501  0.00000000000E+00  0.00000000000E+00  0.13723380773E+03  0.13723380775E+03  0.25500000920E-02 0. -1.
        2   -1    0    0  501    0  0.00000000000E+00  0.00000000000E+00 -0.88570638313E+03  0.88570638314E+03  0.25500000920E-02 0.  1.
    10030    2    1    2    0    0  0.00000000000E+00  0.00000000000E+00 -0.74847257541E+03  0.10229401909E+04  0.69727716010E+03 0.  0.
        4    1    3    3  502    0  0.14908037358E+03  0.28785622987E+03 -0.56245983837E+03  0.64919091918E+03  0.12699999809E+01 0. -1.
       -4    1    3    3    0  502 -0.14908037358E+03 -0.28785622987E+03 -0.18601273704E+03  0.37374927171E+03  0.12699999809E+01 0.  1.
</event>
<event>
 5   0  0.1079446E-02  0.6984632E+03  0.7818609E-02  0.9719864E-01
       -2   -1    0    0    0  501  0.00000000000E+00  0.00000000000E+00  0.91255566577E+02  0.91255566613E+02  0.25500000920E-02 0. -1.
        2   -1    0    0  501    0  0.00000000000E+00  0.00000000000E+00 -0.13364960048E+04  0.13364960048E+04  0.25500000920E-02 0.  1.
    10030    2    1    2    0    0  0.00000000000E+00  0.00000000000E+00 -0.12452404383E+04  0.14277515714E+04  0.69846317061E+03 0.  0.
        2    1    3    3  502    0  0.32082680157E+03 -0.60743425671E+02 -0.87582137897E+03  0.93470994872E+03  0.25500000920E-02 0. -1.
       -2    1    3    3    0  502 -0.32082680157E+03  0.60743425671E+02 -0.36941905928E+03  0.49304162273E+03  0.25500000920E-02 0.  1.
</event>
<event>
 5   0  0.1079446E-02  0.6975254E+03  0.7818609E-02  0.9721474E-01
       -2   -1    0    0    0  501  0.00000000000E+00  0.00000000000E+00  0.57874122302E+03  0.57874122303E+03  0.25500000920E-02 0. -1.
        2   -1    0    0  501    0  0.00000000000E+00  0.00000000000E+00 -0.21017235180E+03  0.21017235181E+03  0.25500000920E-02 0.  1.
    10030    2    1    2    0    0  0.00000000000E+00  0.00000000000E+00  0.36856887122E+03  0.78891357484E+03  0.69752535132E+03 0.  0.
        2    1    3    3  502    0  0.32553378221E+03 -0.91256081499E+02  0.28115324073E+03  0.43971247486E+03  0.25500000920E-02 0. -1.
       -2    1    3    3    0  502 -0.32553378221E+03  0.91256081499E+02  0.87415630496E+02  0.34920109998E+03  0.25500000920E-02 0.  1.
</event>
<event>
 5   0  0.1119786E-02  0.7003441E+03  0.7818609E-02  0.9716644E-01
       -2   -1    0    0    0  501  0.00000000000E+00  0.00000000000E+00  0.17018565409E+03  0.17018565411E+03  0.25500000920E-02 0. -1.
        2   -1    0    0  501    0  0.00000000000E+00  0.00000000000E+00 -0.72050999303E+03  0.72050999304E+03  0.25500000920E-02 0.  1.
    10030    2    1    2    0    0  0.00000000000E+00  0.00000000000E+00 -0.55032433894E+03  0.89069564715E+03  0.70034409958E+03 0.  0.
        3    1    3    3  502    0  0.16660285811E+03  0.17285480848E+03 -0.59937107677E+03  0.64566322105E+03  0.10100000352E+00 0.  1.
       -3    1    3    3    0  502 -0.16660285811E+03 -0.17285480848E+03  0.49046737831E+02  0.24503242609E+03  0.10100000352E+00 0. -1.
</event>
<event>
 5   0  0.6609285E-03  0.7031255E+03  0.7818609E-02  0.9711902E-01
        1   -1    0    0  501    0  0.00000000000E+00  0.00000000000E+00  0.20886247431E+03  0.20886247437E+03  0.50400001928E-02 0. -1.
       -1   -1    0    0    0  501  0.00000000000E+00  0.00000000000E+00 -0.59175956789E+03  0.59175956792E+03  0.50400001928E-02 0.  1.
    10030    2    1    2    0    0  0.00000000000E+00  0.00000000000E+00 -0.38289709359E+03  0.80062204228E+03  0.70312550111E+03 0.  0.
        2    1    3    3  502    0  0.17219115460E+03 -0.16168742703E+03 -0.48794639759E+03  0.54211097084E+03  0.25500000920E-02 0.  1.
       -2    1    3    3    0  502 -0.17219115460E+03  0.16168742703E+03  0.10504930400E+03  0.25851107144E+03  0.25500000920E-02 0. -1.
</event>
<event>
 5   0  0.6246998E-03  0.6984914E+03  0.7818609E-02  0.9719816E-01
        1   -1    0    0  501    0  0.00000000000E+00  0.00000000000E+00  0.93780590139E+03  0.93780590140E+03  0.50400001928E-02 0. -1.
       -1   -1    0    0    0  501  0.00000000000E+00  0.00000000000E+00 -0.13006162848E+03  0.13006162858E+03  0.50400001928E-02 0.  1.
    10030    2    1    2    0    0  0.00000000000E+00  0.00000000000E+00  0.80774427291E+03  0.10678675300E+04  0.69849141096E+03 0.  0.
        4    1    3    3  502    0 -0.11009932747E+03  0.17846225086E+03 -0.23104865971E+02  0.21096465254E+03  0.12699999809E+01 0.  1.
       -4    1    3    3    0  502  0.11009932747E+03 -0.17846225086E+03  0.83084913888E+03  0.85690287744E+03  0.12699999809E+01 0. -1.
</event>
<event>
 5   0  0.6785252E-03  0.7010903E+03  0.7818609E-02  0.9715369E-01
       -1   -1    0    0    0  501  0.00000000000E+00  0.00000000000E+00  0.30172769170E+03  0.30172769175E+03  0.50400001928E-02 0.  1.
        1   -1    0    0  501    0  0.00000000000E+00  0.00000000000E+00 -0.40726099217E+03  0.40726099221E+03  0.50400001928E-02 0. -1.
    10030    2    1    2    0    0  0.00000000000E+00  0.00000000000E+00 -0.10553330047E+03  0.70898868395E+03  0.70109034829E+03 0.  0.
        3    1    3    3  502    0  0.24950225846E+03 -0.23395562999E+03  0.24879171613E+02  0.34293672472E+03  0.10100000352E+00 0.  1.
       -3    1    3    3    0  502 -0.24950225846E+03  0.23395562999E+03 -0.13041247208E+03  0.36605195923E+03  0.10100000352E+00 0. -1.
</event>
<event>
 5   0  0.4440500E-03  0.7000720E+03  0.7818609E-02  0.9717109E-01
        3   -1    0    0  501    0  0.00000000000E+00  0.00000000000E+00  0.28822640333E+03  0.28822642103E+03  0.10100000352E+00 0.  1.
       -3   -1    0    0    0  501  0.00000000000E+00  0.00000000000E+00 -0.42510044822E+03  0.42510046022E+03  0.10100000352E+00 0. -1.
    10030    2    1    2    0    0  0.00000000000E+00  0.00000000000E+00 -0.13687404489E+03  0.71332688124E+03  0.70007195012E+03 0.  0.
        4    1    3    3  502    0  0.12232513445E+02  0.28187437817E+03 -0.27953286161E+03  0.39716877152E+03  0.12699999809E+01 0. -1.
       -4    1    3    3    0  502 -0.12232513445E+02 -0.28187437817E+03  0.14265881672E+03  0.31615810972E+03  0.12699999809E+01 0.  1.
</event>
<event>
 5   0  0.6609285E-03  0.6992445E+03  0.7818609E-02  0.9718525E-01
       -1   -1    0    0    0  501  0.00000000000E+00  0.00000000000E+00  0.20785621048E+03  0.20785621054E+03  0.50400001928E-02 0. -1.
        1   -1    0    0  501    0  0.00000000000E+00  0.00000000000E+00 -0.58807832922E+03  0.58807832924E+03  0.50400001928E-02 0.  1.
    10030    2    1    2    0    0  0.00000000000E+00  0.00000000000E+00 -0.38022211874E+03  0.79593453977E+03  0.69924454379E+03 0.  0.
        2    1    3    3  502    0 -0.31430722849E+03  0.38353357674E+01 -0.36435305861E+03  0.48120358998E+03  0.25500000920E-02 0.  1.
       -2    1    3    3    0  502  0.31430722849E+03 -0.38353357674E+01 -0.15869060127E+02  0.31473094979E+03  0.25500000920E-02 0. -1.
</event>
<event>
 5   0  0.6689415E-03  0.7022583E+03  0.7818609E-02  0.9713378E-01
       -1   -1    0    0    0  501  0.00000000000E+00  0.00000000000E+00  0.17590235850E+03  0.17590235857E+03  0.50400001928E-02 0. -1.
        1   -1    0    0  501    0  0.00000000000E+00  0.00000000000E+00 -0.70090981772E+03  0.70090981774E+03  0.50400001928E-02 0.  1.
    10030    2    1    2    0    0  0.00000000000E+00  0.00000000000E+00 -0.52500745922E+03  0.87681217631E+03  0.70225832874E+03 0.  0.
        1    1    3    3  502    0 -0.26292133235E+03 -0.14917266623E+03 -0.39463184193E+02  0.30485644866E+03  0.50400001928E-02 0. -1.
       -1    1    3    3    0  502  0.26292133235E+03  0.14917266623E+03 -0.48554427502E+03  0.57195572765E+03  0.50400001928E-02 0.  1.
</event>
<event>
 5   0  0.1100119E-02  0.7060428E+03  0.7818609E-02  0.9706954E-01
       -2   -1    0    0    0  501  0.00000000000E+00  0.00000000000E+00  0.45088049739E+03  0.45088049740E+03  0.25500000920E-02 0.  1.
        2   -1    0    0  501    0  0.00000000000E+00  0.00000000000E+00 -0.27640166276E+03  0.27640166277E+03  0.25500000920E-02 0. -1.
    10030    2    1    2    0    0  0.00000000000E+00  0.00000000000E+00  0.17447883464E+03  0.72728216017E+03  0.70604282927E+03 0.  0.
        4    1    3    3  502    0 -0.20909631954E+03 -0.36803555683E+02  0.37776411906E+03  0.43333949175E+03  0.12699999809E+01 0.  1.
       -4    1    3    3    0  502  0.20909631954E+03  0.36803555683E+02 -0.20328528442E+03  0.29394266842E+03  0.12699999809E+01 0. -1.
</event>
<event>
 5   0  0.1100119E-02  0.7016772E+03  0.7818609E-02  0.9714368E-01
       -2   -1    0    0    0  501  0.00000000000E+00  0.00000000000E+00  0.23176042647E+03  0.23176042648E+03  0.25500000920E-02 0.  1.
        2   -1    0    0  501    0  0.00000000000E+00  0.00000000000E+00 -0.53109894109E+03  0.53109894109E+03  0.25500000920E-02 0. -1.
    10030    2    1    2    0    0  0.00000000000E+00  0.00000000000E+00 -0.29933851462E+03  0.76285936757E+03  0.70167718244E+03 0.  0.
        4    1    3    3  502    0  0.24094961283E+03 -0.12422393062E+03 -0.39179354189E+03  0.47643687224E+03  0.12699999809E+01 0. -1.
       -4    1    3    3    0  502 -0.24094961283E+03  0.12422393062E+03  0.92455027271E+02  0.28642249533E+03  0.12699999809E+01 0.  1.
</event>
<event>
 5   0  0.1079446E-02  0.7007679E+03  0.7818609E-02  0.9715920E-01
       -2   -1    0    0    0  501  0.00000000000E+00  0.00000000000E+00  0.12175793373E+03  0.12175793376E+03  0.25500000920E-02 0.  1.
        2   -1    0    0  501    0  0.00000000000E+00  0.00000000000E+00 -0.10083031275E+04  0.10083031275E+04  0.25500000920E-02 0. -1.
    10030    2    1    2    0    0  0.00000000000E+00  0.00000000000E+00 -0.88654519382E+03  0.11300610613E+04  0.70076787997E+03 0.  0.
        2    1    3    3  502    0  0.29909668196E+03  0.17532469293E+02 -0.15031658742E+03  0.33520335484E+03  0.25500000920E-02 0.  1.
       -2    1    3    3    0  502 -0.29909668196E+03 -0.17532469293E+02 -0.73622860640E+03  0.79485770646E+03  0.25500000920E-02 0. -1.
</event>
<event>
 5   0  0.6990118E-03  0.7019349E+03  0.7818609E-02  0.9713929E-01
       -1   -1    0    0    0  501  0.00000000000E+00  0.00000000000E+00  0.41811390257E+03  0.41811390260E+03  0.50400001928E-02 0. -1.
        1   -1    0    0  501    0  0.00000000000E+00  0.00000000000E+00 -0.29460432809E+03  0.29460432814E+03  0.50400001928E-02 0.  1.
    10030    2    1    2    0    0  0.00000000000E+00  0.00000000000E+00  0.12350957448E+03  0.71271823074E+03  0.70193494103E+03 0.  0.
        5    1    3    3  502    0 -0.60797647718E+02 -0.19964935181E+03  0.34822347075E+03  0.40600233155E+03  0.46999998093E+01 0. -1.
       -5    1    3    3    0  502  0.60797647718E+02  0.19964935181E+03 -0.22471389627E+03  0.30671589919E+03  0.46999998093E+01 0.  1.
</event>
<event>
 5   0  0.6246998E-03  0.7006328E+03  0.7818609E-02  0.9716151E-01
       -1   -1    0    0    0  501  0.00000000000E+00  0.00000000000E+00  0.11962200381E+03  0.11962200391E+03  0.50400001928E-02 0.  1.
        1   -1    0    0  501    0  0.00000000000E+00  0.00000000000E+00 -0.10259114104E+04  0.10259114104E+04  0.50400001928E-02 0. -1.
    10030    2    1    2    0    0  0.00000000000E+00  0.00000000000E+00 -0.90628940658E+03  0.11455334143E+04  0.70063279600E+03 0.  0.
        4    1    3    3  502    0 -0.23242314451E+03  0.22247470225E+03 -0.67972298965E+03  0.75202424615E+03  0.12699999809E+01 0. -1.
       -4    1    3    3    0  502  0.23242314451E+03 -0.22247470225E+03 -0.22656641693E+03  0.39350916816E+03  0.12699999809E+01 0.  1.
</event>
<event>
 5   0  0.6785252E-03  0.6989615E+03  0.7818609E-02  0.9719010E-01
       -1   -1    0    0    0  501  0.00000000000E+00  0.00000000000E+00  0.22758478726E+03  0.22758478732E+03  0.50400001928E-02 0. -1.
        1   -1    0    0  501    0  0.00000000000E+00  0.00000000000E+00 -0.53666506255E+03  0.53666506257E+03  0.50400001928E-02 0.  1.
    10030    2    1    2    0    0  0.00000000000E+00  0.00000000000E+00 -0.30908027528E+03  0.76424984989E+03  0.69896152719E+03 0.  0.
        3    1    3    3  502    0  0.31863466477E+03 -0.13801458739E+03 -0.19773621496E+03  0.39959441541E+03  0.10100000352E+00 0. -1.
       -3    1    3    3    0  502 -0.31863466477E+03  0.13801458739E+03 -0.11134406033E+03  0.36465543448E+03  0.10100000352E+00 0.  1.
</event>
<event>
 5   0  0.4440500E-03  0.7033518E+03  0.7818609E-02  0.9711517E-01
        3   -1    0    0  501    0  0.00000000000E+00  0.00000000000E+00  0.47317705846E+03  0.47317706923E+03  0.10100000352E+00 0.  1.
       -3   -1    0    0    0  501  0.00000000000E+00  0.00000000000E+00 -0.26137347905E+03  0.26137349857E+03  0.10100000352E+00 0. -1.
    10030    2    1    2    0    0  0.00000000000E+00  0.00000000000E+00  0.21180357940E+03  0.73455056780E+03  0.70335181837E+03 0.  0.
        2    1    3    3  502    0 -0.17080129359E+03  0.29595948743E+03  0.19082813435E+02  0.34224151395E+03  0.25500000920E-02 0. -1.
       -2    1    3    3    0  502  0.17080129359E+03 -0.29595948743E+03  0.19272076597E+03  0.39230905385E+03  0.25500000920E-02 0.  1.
</event>
<event>
 5   0  0.6246998E-03  0.6807430E+03  0.7818609E-02  0.9750743E-01
       -1   -1    0    0    0  501  0.00000000000E+00  0.00000000000E+00  0.31831229409E+03  0.31831229413E+03  0.50400001928E-02 0.  1.
        1   -1    0    0  501    0  0.00000000000E+00  0.00000000000E+00 -0.36395938480E+03  0.36395938484E+03  0.50400001928E-02 0. -1.
    10030    2    1    2    0    0  0.00000000000E+00  0.00000000000E+00 -0.45647090708E+02  0.68227167897E+03  0.68074296694E+03 0.  0.
        4    1    3    3  502    0 -0.28137436824E+03 -0.19087033632E+03 -0.38610536042E+02  0.34219206125E+03  0.12699999809E+01 0.  1.
       -4    1    3    3    0  502  0.28137436824E+03  0.19087033632E+03 -0.70365546655E+01  0.34007961772E+03  0.12699999809E+01 0. -1.
</event>
<event>
 5   0  0.6609285E-03  0.6980572E+03  0.7818609E-02  0.9720560E-01
        1   -1    0    0  501    0  0.00000000000E+00  0.00000000000E+00  0.10356455220E+04  0.10356455220E+04  0.50400001928E-02 0. -1.
       -1   -1    0    0    0  501  0.00000000000E+00  0.00000000000E+00 -0.11762804355E+03  0.11762804366E+03  0.50400001928E-02 0.  1.
    10030    2    1    2    0    0  0.00000000000E+00  0.00000000000E+00  0.91801747848E+03  0.11532735657E+04  0.69805717999E+03 0.  0.
        2    1    3    3  502    0  0.25947288685E+03 -0.52307062590E+02  0.83487489651E+03  0.87583006379E+03  0.25500000920E-02 0. -1.
       -2    1    3    3    0  502 -0.25947288685E+03  0.52307062590E+02  0.83142581975E+02  0.27744350191E+03  0.25500000920E-02 0.  1.
</event>
<event>
 5   0  0.1109788E-02  0.7022317E+03  0.7818609E-02  0.9713423E-01
        2   -1    0    0  501    0  0.00000000000E+00  0.00000000000E+00  0.40509377835E+03  0.40509377836E+03  0.25500000920E-02 0.  1.
       -2   -1    0    0    0  501  0.00000000000E+00  0.00000000000E+00 -0.30433034446E+03  0.30433034447E+03  0.25500000920E-02 0. -1.
    10030    2    1    2    0    0  0.00000000000E+00  0.00000000000E+00  0.10076343388E+03  0.70942412283E+03  0.70223166864E+03 0.  0.
        1    1    3    3  502    0  0.16766846398E+03  0.10522653349E+03  0.34334673897E+03  0.39632350466E+03  0.50400001928E-02 0.  1.
       -1    1    3    3    0  502 -0.16766846398E+03 -0.10522653349E+03 -0.24258330509E+03  0.31310061817E+03  0.50400001928E-02 0. -1.
</event>
<event>
 5   0  0.1079446E-02  0.7041410E+03  0.7818609E-02  0.9710177E-01
        2   -1    0    0  501    0  0.00000000000E+00  0.00000000000E+00  0.14111975756E+04  0.14111975756E+04  0.25500000920E-02 0. -1.
       -2   -1    0    0    0  501  0.00000000000E+00  0.00000000000E+00 -0.87835783223E+02  0.87835783260E+02  0.25500000920E-02 0.  1.
    10030    2    1    2    0    0  0.00000000000E+00  0.00000000000E+00  0.13233617924E+04  0.14990333589E+04  0.70414102101E+03 0.  0.
        2    1    3    3  502    0  0.34136445956E+03 -0.57159028909E+02  0.52442500861E+03  0.62834579533E+03  0.25500000920E-02 0. -1.
       -2    1    3    3    0  502 -0.34136445956E+03  0.57159028909E+02  0.79893678380E+03  0.87068756357E+03  0.25500000920E-02 0.  1.
</event>
<event>
 5   0  0.1119786E-02  0.7004048E+03  0.7818609E-02  0.9716540E-01
       -2   -1    0    0    0  501  0.00000000000E+00  0.00000000000E+00  0.73705825826E+02  0.73705825870E+02  0.25500000920E-02 0.  1.
        2   -1    0    0  501    0  0.00000000000E+00  0.00000000000E+00 -0.16639351381E+04  0.16639351381E+04  0.25500000920E-02 0. -1.
    10030    2    1    2    0    0  0.00000000000E+00  0.00000000000E+00 -0.15902293123E+04  0.17376409640E+04  0.70040477873E+03 0.  0.
        3    1    3    3  502    0 -0.26595490298E+03 -0.20554338743E+03 -0.10389719049E+04  0.10919902582E+04  0.10100000352E+00 0. -1.
       -3    1    3    3    0  502  0.26595490298E+03  0.20554338743E+03 -0.55125740738E+03  0.64565070582E+03  0.10100000352E+00 0.  1.
</event>
<event>
 5   0  0.1099980E-02  0.6991831E+03  0.7818609E-02  0.9718630E-01
        2   -1    0    0  501    0  0.00000000000E+00  0.00000000000E+00  0.57914579711E+03  0.57914579712E+03  0.25500000920E-02 0. -1.
       -2   -1    0    0    0  501  0.00000000000E+00  0.00000000000E+00 -0.21102502918E+03  0.21102502920E+03  0.25500000920E-02 0.  1.
    10030    2    1    2    0    0  0.00000000000E+00  0.00000000000E+00  0.36812076793E+03  0.79017082632E+03  0.69918311977E+03 0.  0.
        5    1    3    3  502    0  0.73749444980E+01 -0.43443101775E+02 -0.20783798708E+03  0.21250979217E+03  0.46999998093E+01 0.  1.
       -5    1    3    3    0  502 -0.73749444980E+01  0.43443101775E+02  0.57595875501E+03  0.57766103414E+03  0.46999998093E+01 0. -1.
</event>
<event>
 5   0  0.4440500E-03  0.7012980E+03  0.7818609E-02  0.9715015E-01
        3   -1    0    0  501    0  0.00000000000E+00  0.00000000000E+00  0.10581047727E+04  0.10581047776E+04  0.10100000352E+00 0.  1.
       -3   -1    0    0    0  501  0.00000000000E+00  0.00000000000E+00 -0.11620277167E+03  0.11620281556E+03  0.10100000352E+00 0. -1.
    10030    2    1    2    0    0  0.00000000000E+00  0.00000000000E+00  0.94190200108E+03  0.11743075931E+04  0.70129804196E+03 0.  0.
        1    1    3    3  502    0  0.19195884756E+03  0.18860731474E+03  0.94533075146E+02  0.28523222232E+03  0.50400001928E-02 0. -1.
       -1    1    3    3    0  502 -0.19195884756E+03 -0.18860731474E+03  0.84736892593E+03  0.88907537081E+03  0.50400001928E-02 0.  1.
</event>
<event>
 5   0  0.6785252E-03  0.7000520E+03  0.7818609E-02  0.9717143E-01
        1   -1    0    0  501    0  0.00000000000E+00  0.00000000000E+00  0.38689015668E+03  0.38689015672E+03  0.50400001928E-02 0.  1.
       -1   -1    0    0    0  501  0.00000000000E+00  0.00000000000E+00 -0.31667434181E+03  0.31667434185E+03  0.50400001928E-02 0. -1.
    10030    2    1    2    0    0  0.00000000000E+00  0.00000000000E+00  0.70215814877E+02  0.70356449857E+03  0.70005195735E+03 0.  0.
        3    1    3    3  502    0  0.23908737145E+02  0.28261499978E+03  0.24125978934E+03  0.37235622993E+03  0.10100000352E+00 0.  1.
       -3    1    3    3    0  502 -0.23908737145E+02 -0.28261499978E+03 -0.17104397446E+03  0.33120826864E+03  0.10100000352E+00 0. -1.
</event>
<event>
 5   0  0.6609285E-03  0.7007590E+03  0.7818609E-02  0.9715935E-01
       -1   -1    0    0    0  501  0.00000000000E+00  0.00000000000E+00  0.12997526063E+03  0.12997526073E+03  0.50400001928E-02 0. -1.
        1   -1    0    0  501    0  0.00000000000E+00  0.00000000000E+00 -0.94453213570E+03  0.94453213571E+03  0.50400001928E-02 0.  1.
    10030    2    1    2    0    0  0.00000000000E+00  0.00000000000E+00 -0.81455687507E+03  0.10745073964E+04  0.70075904725E+03 0.  0.
        2    1    3    3  502    0  0.20532862325E+03 -0.13338780553E+03 -0.22980771485E+02  0.24592735930E+03  0.25500000920E-02 0. -1.
       -2    1    3    3    0  502 -0.20532862325E+03  0.13338780553E+03 -0.79157610358E+03  0.82858003715E+03  0.25500000920E-02 0.  1.
</event>
<event>
 5   0  0.6785252E-03  0.6672932E+03  0.7818609E-02  0.9774860E-01
       -1   -1    0    0    0  501  0.00000000000E+00  0.00000000000E+00  0.36651549620E+03  0.36651549623E+03  0.50400001928E-02 0.  1.
        1   -1    0    0  501    0  0.00000000000E+00  0.00000000000E+00 -0.30372540620E+03  0.30372540625E+03  0.50400001928E-02 0. -1.
    10030    2    1    2    0    0  0.00000000000E+00  0.00000000000E+00  0.62790089993E+02  0.67024090248E+03  0.66729324285E+03 0.  0.
        3    1    3    3  502    0  0.41712483663E+02 -0.22755261864E+03 -0.21008311909E+03  0.31249808427E+03  0.10100000352E+00 0. -1.
       -3    1    3    3    0  502 -0.41712483663E+02  0.22755261864E+03  0.27287320908E+03  0.35774281821E+03  0.10100000352E+00 0.  1.
</event>
<event>
 5   0  0.1079446E-02  0.7037195E+03  0.7818609E-02  0.9710892E-01
       -2   -1    0    0    0  501  0.00000000000E+00  0.00000000000E+00  0.42807659290E+03  0.42807659290E+03  0.25500000920E-02 0. -1.
        2   -1    0    0  501    0  0.00000000000E+00  0.00000000000E+00 -0.28921291655E+03  0.28921291656E+03  0.25500000920E-02 0.  1.
    10030    2    1    2    0    0  0.00000000000E+00  0.00000000000E+00  0.13886367634E+03  0.71728950947E+03  0.70371948941E+03 0.  0.
        2    1    3    3  502    0  0.24484075022E+03 -0.18717257367E+03 -0.10362047489E+03  0.32514268887E+03  0.25500000920E-02 0.  1.
       -2    1    3    3    0  502 -0.24484075022E+03  0.18717257367E+03  0.24248415123E+03  0.39214682060E+03  0.25500000920E-02 0. -1.
</event>
<event>
 5   0  0.1109788E-02  0.7000547E+03  0.7818609E-02  0.9717139E-01
       -2   -1    0    0    0  501  0.00000000000E+00  0.00000000000E+00  0.76590427790E+03  0.76590427790E+03  0.25500000920E-02 0.  1.
        2   -1    0    0  501    0  0.00000000000E+00  0.00000000000E+00 -0.15996666449E+03  0.15996666451E+03  0.25500000920E-02 0. -1.
    10030    2    1    2    0    0  0.00000000000E+00  0.00000000000E+00  0.60593761341E+03  0.92587094241E+03  0.70005471975E+03 0.  0.
        1    1    3    3  502    0 -0.32176687443E+03 -0.93147478842E+02  0.43725212581E+03  0.55081738884E+03  0.50400001928E-02 0. -1.
       -1    1    3    3    0  502  0.32176687443E+03  0.93147478842E+02  0.16868548760E+03  0.37505355357E+03  0.50400001928E-02 0.  1.
</event>
<event>
 5   0  0.1109788E-02  0.7009823E+03  0.7818609E-02  0.9715554E-01
       -2   -1    0    0    0  501  0.00000000000E+00  0.00000000000E+00  0.20412025737E+03  0.20412025738E+03  0.25500000920E-02 0. -1.
        2   -1    0    0  501    0  0.00000000000E+00  0.00000000000E+00 -0.60182200060E+03  0.60182200061E+03  0.25500000920E-02 0.  1.
    10030    2    1    2    0    0  0.00000000000E+00  0.00000000000E+00 -0.39770174324E+03  0.80594225799E+03  0.70098234403E+03 0.  0.
        1    1    3    3  502    0  0.29291871218E+03 -0.18462190146E+03 -0.13632567674E+03  0.37211733178E+03  0.50400001928E-02 0.  1.
       -1    1    3    3    0  502 -0.29291871218E+03  0.18462190146E+03 -0.26137606649E+03  0.43382492621E+03  0.50400001928E-02 0. -1.
</event>
<event>
 5   0  0.1119786E-02  0.6992090E+03  0.7818609E-02  0.9718586E-01
       -2   -1    0    0    0  501  0.00000000000E+00  0.00000000000E+00  0.30637429605E+03  0.30637429607E+03  0.25500000920E-02 0. -1.
        2   -1    0    0  501    0  0.00000000000E+00  0.00000000000E+00 -0.39893462604E+03  0.39893462605E+03  0.25500000920E-02 0.  1.
    10030    2    1    2    0    0  0.00000000000E+00  0.00000000000E+00 -0.92560329988E+02  0.70530892212E+03  0.69920902521E+03 0.  0.
        3    1    3    3  502    0  0.29127075690E+03  0.13467693423E+03 -0.18622321415E+03  0.37101971124E+03  0.10100000352E+00 0.  1.
       -3    1    3    3    0  502 -0.29127075690E+03 -0.13467693423E+03  0.93662884158E+02  0.33428921088E+03  0.10100000352E+00 0. -1.
</event>
<event>
 5   0  0.6609285E-03  0.6999935E+03  0.7818609E-02  0.9717243E-01
       -1   -1    0    0    0  501  0.00000000000E+00  0.00000000000E+00  0.96454006420E+02  0.96454006551E+02  0.50400001928E-02 0.  1.
        1   -1    0    0  501    0  0.00000000000E+00  0.00000000000E+00 -0.12700118962E+04  0.12700118962E+04  0.50400001928E-02 0. -1.
    10030    2    1    2    0    0  0.00000000000E+00  0.00000000000E+00 -0.11735578898E+04  0.13664659027E+04  0.69999353050E+03 0.  0.
        2    1    3    3  502    0  0.64070732775E+02  0.86485793493E+02  0.63344417675E+02  0.12488941721E+03  0.25500000920E-02 0.  1.
       -2    1    3    3    0  502 -0.64070732775E+02 -0.86485793493E+02 -0.12369023074E+04  0.12415764855E+04  0.25500000920E-02 0. -1.
</event>
<event>
 5   0  0.1109788E-02  0.7037837E+03  0.7818609E-02  0.9710783E-01
       -2   -1    0    0    0  501  0.00000000000E+00  0.00000000000E+00  0.90748752330E+02  0.90748752366E+02  0.25500000920E-02 0.  1.
        2   -1    0    0  501    0  0.00000000000E+00  0.00000000000E+00 -0.13645131442E+04  0.13645131442E+04  0.25500000920E-02 0. -1.
    10030    2    1    2    0    0  0.00000000000E+00  0.00000000000E+00 -0.12737643919E+04  0.14552618966E+04  0.70378367530E+03 0.  0.
        1    1    3    3  502    0  0.33260547533E+03  0.83826962553E+02 -0.47440104369E+03  0.58541413730E+03  0.50400001928E-02 0.  1.
       -1    1    3    3    0  502 -0.33260547533E+03 -0.83826962553E+02 -0.79936334822E+03  0.86984775931E+03  0.50400001928E-02 0. -1.
</event>
<event>
 5   0  0.6609285E-03  0.7013047E+03  0.7818609E-02  0.9715004E-01
       -1   -1    0    0    0  501  0.00000000000E+00  0.00000000000E+00  0.22097459979E+03  0.22097459984E+03  0.50400001928E-02 0. -1.
        1   -1    0    0  501    0  0.00000000000E+00  0.00000000000E+00 -0.55643074180E+03  0.55643074182E+03  0.50400001928E-02 0.  1.
    10030    2    1    2    0    0  0.00000000000E+00  0.00000000000E+00 -0.33545614201E+03  0.77740534167E+03  0.70130467134E+03 0.  0.
        2    1    3    3  502    0 -0.12566573968E+03  0.99226652931E+02 -0.51354016182E+03  0.53792314004E+03  0.25500000920E-02 0.  1.
       -2    1    3    3    0  502  0.12566573968E+03 -0.99226652931E+02  0.17808401980E+03  0.23948220163E+03  0.25500000920E-02 0. -1.
</event>
<event>
 5   0  0.1099980E-02  0.7006288E+03  0.7818609E-02  0.9716157E-01
        2   -1    0    0  501    0  0.00000000000E+00  0.00000000000E+00  0.26491579182E+03  0.26491579183E+03  0.25500000920E-02 0.  1.
       -2   -1    0    0    0  501  0.00000000000E+00  0.00000000000E+00 -0.46324221290E+03  0.46324221291E+03  0.25500000920E-02 0. -1.
    10030    2    1    2    0    0  0.00000000000E+00  0.00000000000E+00 -0.19832642108E+03  0.72815800475E+03  0.70062879656E+03 0.  0.
        5    1    3    3  502    0  0.23145780995E+00 -0.20719781843E+03 -0.39269121449E+03  0.44402642880E+03  0.46999998093E+01 0. -1.
       -5    1    3    3    0  502 -0.23145780995E+00  0.20719781843E+03  0.19436479341E+03  0.28413157595E+03  0.46999998093E+01 0.  1.
</event>
<event>
 5   0  0.1119786E-02  0.7008267E+03  0.7818609E-02  0.9715819E-01
       -2   -1    0    0    0  501  0.00000000000E+00  0.00000000000E+00  0.13092214267E+03  0.13092214269E+03  0.25500000920E-02 0.  1.
        2   -1    0    0  501    0  0.00000000000E+00  0.00000000000E+00 -0.93788201833E+03  0.93788201834E+03  0.25500000920E-02 0. -1.
    10030    2    1    2    0    0  0.00000000000E+00  0.00000000000E+00 -0.80695987567E+03  0.10688041610E+04  0.70082672159E+03 0.  0.
        3    1    3    3  502    0 -0.53110521821E+02  0.24029466868E+03 -0.78391261658E+03  0.82163328557E+03  0.10100000352E+00 0. -1.
       -3    1    3    3    0  502  0.53110521821E+02 -0.24029466868E+03 -0.23047259089E+02  0.24717087546E+03  0.10100000352E+00 0.  1.
</event>
<event>
 5   0  0.6609285E-03  0.6974813E+03  0.7818609E-02  0.9721549E-01
       -1   -1    0    0    0  501  0.00000000000E+00  0.00000000000E+00  0.23777698529E+03  0.23777698534E+03  0.50400001928E-02 0.  1.
        1   -1    0    0  501    0  0.00000000000E+00  0.00000000000E+00 -0.51148782616E+03  0.51148782619E+03  0.50400001928E-02 0. -1.
    10030    2    1    2    0    0  0.00000000000E+00  0.00000000000E+00 -0.27371084087E+03  0.74926481153E+03  0.69748127816E+03 0.  0.
        2    1    3    3  502    0 -0.79228860466E+02 -0.30952158300E+03  0.13305281532E+02  0.31977781848E+03  0.25500000920E-02 0.  1.
       -2    1    3    3    0  502  0.79228860466E+02  0.30952158300E+03 -0.28701612240E+03  0.42948699305E+03  0.25500000920E-02 0. -1.
</event>
<event>
 5   0  0.6609285E-03  0.6984985E+03  0.7818609E-02  0.9719803E-01
       -1   -1    0    0    0  501  0.00000000000E+00  0.00000000000E+00  0.32853555606E+03  0.32853555610E+03  0.50400001928E-02 0.  1.
        1   -1    0    0  501    0  0.00000000000E+00  0.00000000000E+00 -0.37126889869E+03  0.37126889873E+03  0.50400001928E-02 0. -1.
    10030    2    1    2    0    0  0.00000000000E+00  0.00000000000E+00 -0.42733342632E+02  0.69980445483E+03  0.69849848706E+03 0.  0.
        2    1    3    3  502    0 -0.34163323326E+03 -0.29112997381E+02 -0.87930348534E+02  0.35396691778E+03  0.25500000920E-02 0.  1.
       -2    1    3    3    0  502  0.34163323326E+03  0.29112997381E+02  0.45197005902E+02  0.34583753705E+03  0.25500000920E-02 0. -1.
</event>
<event>
 5   0  0.4440500E-03  0.7013138E+03  0.7818609E-02  0.9714988E-01
        3   -1    0    0  501    0  0.00000000000E+00  0.00000000000E+00  0.20186608149E+03  0.20186610676E+03  0.10100000352E+00 0.  1.
       -3   -1    0    0    0  501  0.00000000000E+00  0.00000000000E+00 -0.60911792028E+03  0.60911792865E+03  0.10100000352E+00 0. -1.
    10030    2    1    2    0    0  0.00000000000E+00  0.00000000000E+00 -0.40725183879E+03  0.81098403541E+03  0.70131379959E+03 0.  0.
        4    1    3    3  502    0  0.14410741638E+03 -0.81430174354E+02  0.15384430418E+03  0.22598120182E+03  0.12699999809E+01 0.  1.
       -4    1    3    3    0  502 -0.14410741638E+03  0.81430174354E+02 -0.56109614296E+03  0.58500283358E+03  0.12699999809E+01 0. -1.
</event>
<event>
 5   0  0.6990118E-03  0.7051957E+03  0.7818609E-02  0.9708388E-01
       -1   -1    0    0    0  501  0.00000000000E+00  0.00000000000E+00  0.65134053426E+02  0.65134053621E+02  0.50400001928E-02 0. -1.
        1   -1    0    0  501    0  0.00000000000E+00  0.00000000000E+00 -0.19087597633E+04  0.19087597633E+04  0.50400001928E-02 0.  1.
    10030    2    1    2    0    0  0.00000000000E+00  0.00000000000E+00 -0.18436257099E+04  0.19738938169E+04  0.70519574758E+03 0.  0.
        5    1    3    3  502    0 -0.14666077275E+03  0.28719816435E+03 -0.13207273196E+04  0.13595348141E+04  0.46999998093E+01 0.  1.
       -5    1    3    3    0  502  0.14666077275E+03 -0.28719816435E+03 -0.52289839025E+03  0.61435900286E+03  0.46999998093E+01 0. -1.
</event>
<event>
 5   0  0.1079446E-02  0.7006501E+03  0.7818609E-02  0.9716121E-01
        2   -1    0    0  501    0  0.00000000000E+00  0.00000000000E+00  0.11366134744E+04  0.11366134744E+04  0.25500000920E-02 0. -1.
       -2   -1    0    0    0  501  0.00000000000E+00  0.00000000000E+00 -0.10797657751E+03  0.10797657754E+03  0.25500000920E-02 0.  1.
    10030    2    1    2    0    0  0.00000000000E+00  0.00000000000E+00  0.10286368969E+04  0.12445900519E+04  0.70065007795E+03 0.  0.
        2    1    3    3  502    0 -0.82527868347E+02 -0.19420729021E+03  0.17578149425E+02  0.21174586647E+03  0.25500000920E-02 0.  1.
       -2    1    3    3    0  502  0.82527868347E+02  0.19420729021E+03  0.10110587474E+04  0.10328441854E+04  0.25500000920E-02 0. -1.
</event>
<event>
 5   0  0.1079446E-02  0.7133129E+03  0.7818609E-02  0.9694732E-01
       -2   -1    0    0    0  501  0.00000000000E+00  0.00000000000E+00  0.14649530556E+03  0.14649530558E+03  0.25500000920E-02 0.  1.
        2   -1    0    0  501    0  0.00000000000E+00  0.00000000000E+00 -0.86831341048E+03  0.86831341048E+03  0.25500000920E-02 0. -1.
    10030    2    1    2    0    0  0.00000000000E+00  0.00000000000E+00 -0.72181810492E+03  0.10148087161E+04  0.71331294226E+03 0.  0.
        2    1    3    3  502    0  0.34771904608E+03  0.78789648868E+02 -0.37421649972E+03  0.51686974417E+03  0.25500000920E-02 0. -1.
       -2    1    3    3    0  502 -0.34771904608E+03 -0.78789648868E+02 -0.34760160520E+03  0.49793897188E+03  0.25500000920E-02 0.  1.
</event>
<event>
 5   0  0.6785252E-03  0.7024737E+03  0.7818609E-02  0.9713011E-01
       -1   -1    0    0    0  501  0.00000000000E+00  0.00000000000E+00  0.82971388695E+02  0.82971388848E+02  0.50400001928E-02 0.  1.
        1   -1    0    0  501    0  0.00000000000E+00  0.00000000000E+00 -0.14868658888E+04  0.14868658889E+04  0.50400001928E-02 0. -1.
    10030    2    1    2    0    0  0.00000000000E+00  0.00000000000E+00 -0.14038945001E+04  0.15698372777E+04  0.70247370834E+03 0.  0.
        3    1    3    3  502    0 -0.55088404264E+02  0.20490068239E+03 -0.13274645708E+04  0.13443144047E+04  0.10100000352E+00 0. -1.
       -3    1    3    3    0  502  0.55088404264E+02 -0.20490068239E+03 -0.76429929384E+02  0.22552287297E+03  0.10100000352E+00 0.  1.
</event>
<event>
 5   0  0.1100119E-02  0.6901547E+03  0.7818609E-02  0.9734219E-01
        2   -1    0    0  501    0  0.00000000000E+00  0.00000000000E+00  0.11589138204E+04  0.11589138204E+04  0.25500000920E-02 0.  1.
       -2   -1    0    0    0  501  0.00000000000E+00  0.00000000000E+00 -0.10274997055E+03  0.10274997058E+03  0.25500000920E-02 0. -1.
    10030    2    1    2    0    0  0.00000000000E+00  0.00000000000E+00  0.10561638499E+04  0.12616637910E+04  0.69015465204E+03 0.  0.
        4    1    3    3  502    0 -0.33287335094E+03 -0.65423632499E+02  0.41258161200E+03  0.53414428661E+03  0.12699999809E+01 0.  1.
       -4    1    3    3    0  502  0.33287335094E+03  0.65423632499E+02  0.64358223786E+03  0.72751950437E+03  0.12699999809E+01 0. -1.
</event>
<event>
 5   0  0.6689415E-03  0.6991050E+03  0.7818609E-02  0.9718764E-01
       -1   -1    0    0    0  501  0.00000000000E+00  0.00000000000E+00  0.24221617057E+03  0.24221617062E+03  0.50400001928E-02 0. -1.
        1   -1    0    0  501    0  0.00000000000E+00  0.00000000000E+00 -0.50445419874E+03  0.50445419877E+03  0.50400001928E-02 0.  1.
    10030    2    1    2    0    0  0.00000000000E+00  0.00000000000E+00 -0.26223802818E+03  0.74667036939E+03  0.69910504010E+03 0.  0.
        1    1    3    3  502    0 -0.19999079036E+03  0.32829973421E+02 -0.43529945864E+03  0.48016636919E+03  0.50400001928E-02 0.  1.
       -1    1    3    3    0  502  0.19999079036E+03 -0.32829973421E+02  0.17306143046E+03  0.26650400020E+03  0.50400001928E-02 0. -1.
</event>
<event>
 5   0  0.1079446E-02  0.6899809E+03  0.7818609E-02  0.9734521E-01
        2   -1    0    0  501    0  0.00000000000E+00  0.00000000000E+00  0.90131401650E+03  0.90131401650E+03  0.25500000920E-02 0.  1.
       -2   -1    0    0    0  501  0.00000000000E+00  0.00000000000E+00 -0.13204989936E+03  0.13204989939E+03  0.25500000920E-02 0. -1.
    10030    2    1    2    0    0  0.00000000000E+00  0.00000000000E+00  0.76926411714E+03  0.10333639159E+04  0.68998094231E+03 0.  0.
        2    1    3    3  502    0 -0.76223644229E+02 -0.95018159623E+02  0.86803382020E+03  0.87653933604E+03  0.25500000920E-02 0.  1.
       -2    1    3    3    0  502  0.76223644229E+02  0.95018159623E+02 -0.98769703065E+02  0.15682457986E+03  0.25500000920E-02 0. -1.
</event>
<event>
 5   0  0.6785252E-03  0.7007483E+03  0.7818609E-02  0.9715953E-01
        1   -1    0    0  501    0  0.00000000000E+00  0.00000000000E+00  0.74785917172E+03  0.74785917174E+03  0.50400001928E-02 0.  1.
       -1   -1    0    0    0  501  0.00000000000E+00  0.00000000000E+00 -0.16415129902E+03  0.16415129910E+03  0.50400001928E-02 0. -1.
    10030    2    1    2    0    0  0.00000000000E+00  0.00000000000E+00  0.58370787269E+03  0.91201047084E+03  0.70074832734E+03 0.  0.
        3    1    3    3  502    0  0.14823501650E+03  0.13318696162E+03  0.66691905613E+03  0.69605561882E+03  0.10100000352E+00 0.  1.
       -3    1    3    3    0  502 -0.14823501650E+03 -0.13318696162E+03 -0.83211183432E+02  0.21595485202E+03  0.10100000352E+00 0. -1.
</event>
<event>
 5   0  0.4440500E-03  0.7002696E+03  0.7818609E-02  0.9716771E-01
       -3   -1    0    0    0  501  0.00000000000E+00  0.00000000000E+00  0.79188170444E+03  0.79188171088E+03  0.10100000352E+00 0.  1.
        3   -1    0    0  501    0  0.00000000000E+00  0.00000000000E+00 -0.15481398031E+03  0.15481401325E+03  0.10100000352E+00 0. -1.
    10030    2    1    2    0    0  0.00000000000E+00  0.00000000000E+00  0.63706772413E+03  0.94669572413E+03  0.70026959734E+03 0.  0.
        1    1    3    3  502    0  0.89100739115E+02  0.45443261654E+01 -0.13918978919E+03  0.16532812843E+03  0.50400001928E-02 0. -1.
       -1    1    3    3    0  502 -0.89100739115E+02 -0.45443261654E+01  0.77625751331E+03  0.78136759570E+03  0.50400001928E-02 0.  1.
</event>
<event>
 5   0  0.1109788E-02  0.6986791E+03  0.7818609E-02  0.9719494E-01
        2   -1    0    0  501    0  0.00000000000E+00  0.00000000000E+00  0.13445695469E+04  0.13445695469E+04  0.25500000920E-02 0.  1.
       -2   -1    0    0    0  501  0.00000000000E+00  0.00000000000E+00 -0.90763711012E+02  0.90763711047E+02  0.25500000920E-02 0. -1.
    10030    2    1    2    0    0  0.00000000000E+00  0.00000000000E+00  0.12538058359E+04  0.14353332580E+04  0.69867910179E+03 0.  0.
        1    1    3    3  502    0 -0.25042048783E+03  0.80388217339E+02  0.15455619988E+03  0.30505787181E+03  0.50400001928E-02 0. -1.
       -1    1    3    3    0  502  0.25042048783E+03 -0.80388217339E+02  0.10992496360E+04  0.11302753862E+04  0.50400001928E-02 0.  1.
</event>
<event>
 5   0  0.1099980E-02  0.7017404E+03  0.7818609E-02  0.9714261E-01
       -2   -1    0    0    0  501  0.00000000000E+00  0.00000000000E+00  0.96847817543E+02  0.96847817577E+02  0.25500000920E-02 0. -1.
        2   -1    0    0  501    0  0.00000000000E+00  0.00000000000E+00 -0.12711685214E+04  0.12711685215E+04  0.25500000920E-02 0.  1.
    10030    2    1    2    0    0  0.00000000000E+00  0.00000000000E+00 -0.11743207039E+04  0.13680163390E+04  0.70174039945E+03 0.  0.
        5    1    3    3  502    0 -0.34491214312E+03  0.59033521553E+02 -0.53790164761E+03  0.64172394037E+03  0.46999998093E+01 0. -1.
       -5    1    3    3    0  502  0.34491214312E+03 -0.59033521553E+02 -0.63641905629E+03  0.72629239866E+03  0.46999998093E+01 0.  1.
</event>
<event>
 5   0  0.6689415E-03  0.7023379E+03  0.7818609E-02  0.9713242E-01
       -1   -1    0    0    0  501  0.00000000000E+00  0.00000000000E+00  0.24219921620E+03  0.24219921626E+03  0.50400001928E-02 0. -1.
        1   -1    0    0  501    0  0.00000000000E+00  0.00000000000E+00 -0.50916609114E+03  0.50916609116E+03  0.50400001928E-02 0.  1.
    10030    2    1    2    0    0  0.00000000000E+00  0.00000000000E+00 -0.26696687493E+03  0.75136530742E+03  0.70233789082E+03 0.  0.
        1    1    3    3  502    0  0.52271489351E+02 -0.17200600427E+03  0.18923867842E+03  0.26101657331E+03  0.50400001928E-02 0. -1.
       -1    1    3    3    0  502 -0.52271489351E+02  0.17200600427E+03 -0.45620555336E+03  0.49034873411E+03  0.50400001928E-02 0.  1.
</event>
<event>
 5   0  0.6609285E-03  0.6989082E+03  0.7818609E-02  0.9719101E-01
       -1   -1    0    0    0  501  0.00000000000E+00  0.00000000000E+00  0.15242449299E+03  0.15242449307E+03  0.50400001928E-02 0.  1.
        1   -1    0    0  501    0  0.00000000000E+00  0.00000000000E+00 -0.80117160638E+03  0.80117160640E+03  0.50400001928E-02 0. -1.
    10030    2    1    2    0    0  0.00000000000E+00  0.00000000000E+00 -0.64874711340E+03  0.95359609947E+03  0.69890822272E+03 0.  0.
        2    1    3    3  502    0  0.11791348316E+03 -0.13075367322E+03 -0.73623065585E+03  0.75699120945E+03  0.25500000920E-02 0. -1.
       -2    1    3    3    0  502 -0.11791348316E+03  0.13075367322E+03  0.87483542453E+02  0.19660489002E+03  0.25500000920E-02 0.  1.
</event>
<event>
 5   0  0.6246998E-03  0.7000900E+03  0.7818609E-02  0.9717078E-01
       -1   -1    0    0    0  501  0.00000000000E+00  0.00000000000E+00  0.67763926754E+03  0.67763926756E+03  0.50400001928E-02 0. -1.
        1   -1    0    0  501    0  0.00000000000E+00  0.00000000000E+00 -0.18082115231E+03  0.18082115238E+03  0.50400001928E-02 0.  1.
    10030    2    1    2    0    0  0.00000000000E+00  0.00000000000E+00  0.49681811524E+03  0.85846041994E+03  0.70009003205E+03 0.  0.
        4    1    3    3  502    0 -0.25261273372E+03  0.16743915336E+03  0.46319209718E+03  0.55353192781E+03  0.12699999809E+01 0. -1.
       -4    1    3    3    0  502  0.25261273372E+03 -0.16743915336E+03  0.33626018055E+02  0.30492849212E+03  0.12699999809E+01 0.  1.
</event>
<event>
 5   0  0.1079446E-02  0.7131645E+03  0.7818609E-02  0.9694980E-01
        2   -1    0    0  501    0  0.00000000000E+00  0.00000000000E+00  0.50313434697E+03  0.50313434697E+03  0.25500000920E-02 0.  1.
       -2   -1    0    0    0  501  0.00000000000E+00  0.00000000000E+00 -0.25271758467E+03  0.25271758469E+03  0.25500000920E-02 0. -1.
    10030    2    1    2    0    0  0.00000000000E+00  0.00000000000E+00  0.25041676229E+03  0.75585193166E+03  0.71316448857E+03 0.  0.
        2    1    3    3  502    0 -0.27286807711E+03 -0.13480045247E+03 -0.71716092402E+02  0.31268410163E+03  0.25500000920E-02 0. -1.
       -2    1    3    3    0  502  0.27286807711E+03  0.13480045247E+03  0.32213285469E+03  0.44316783003E+03  0.25500000920E-02 0.  1.
</event>
<event>
 5   0  0.1079446E-02  0.7023771E+03  0.7818609E-02  0.9713176E-01
        2   -1    0    0  501    0  0.00000000000E+00  0.00000000000E+00  0.56695239153E+03  0.56695239153E+03  0.25500000920E-02 0.  1.
       -2   -1    0    0    0  501  0.00000000000E+00  0.00000000000E+00 -0.21753751165E+03  0.21753751167E+03  0.25500000920E-02 0. -1.
    10030    2    1    2    0    0  0.00000000000E+00  0.00000000000E+00  0.34941487987E+03  0.78448990320E+03  0.70237714225E+03 0.  0.
        2    1    3    3  502    0  0.13983076335E+03 -0.47791008790E+02 -0.18112303588E+03  0.23375666201E+03  0.25500000920E-02 0. -1.
       -2    1    3    3    0  502 -0.13983076335E+03  0.47791008790E+02  0.53053791575E+03  0.55073324120E+03  0.25500000920E-02 0.  1.
</event>
<event>
 5   0  0.1100119E-02  0.7001070E+03  0.7818609E-02  0.9717049E-01
        2   -1    0    0  501    0  0.00000000000E+00  0.00000000000E+00  0.51074480461E+03  0.51074480461E+03  0.25500000920E-02 0.  1.
       -2   -1    0    0    0  501  0.00000000000E+00  0.00000000000E+00 -0.23991914069E+03  0.23991914070E+03  0.25500000920E-02 0. -1.
    10030    2    1    2    0    0  0.00000000000E+00  0.00000000000E+00  0.27082566392E+03  0.75066394532E+03  0.70010700508E+03 0.  0.
        4    1    3    3  502    0 -0.94274914804E+02  0.26881624662E+03  0.35353880241E+03  0.45402778739E+03  0.12699999809E+01 0.  1.
       -4    1    3    3    0  502  0.94274914804E+02 -0.26881624662E+03 -0.82713138496E+02  0.29663615793E+03  0.12699999809E+01 0. -1.
</event>
<event>
 5   0  0.4440500E-03  0.6981067E+03  0.7818609E-02  0.9720475E-01
       -3   -1    0    0    0  501  0.00000000000E+00  0.00000000000E+00  0.43951032696E+03  0.43951033856E+03  0.10100000352E+00 0. -1.
        3   -1    0    0  501    0  0.00000000000E+00  0.00000000000E+00 -0.27721356852E+03  0.27721358691E+03  0.10100000352E+00 0.  1.
    10030    2    1    2    0    0  0.00000000000E+00  0.00000000000E+00  0.16229675844E+03  0.71672392548E+03  0.69810668780E+03 0.  0.
        3    1    3    3  502    0 -0.29728908207E+02  0.25164649910E+03 -0.16531284645E+03  0.30255266632E+03  0.10100000352E+00 0.  1.
       -3    1    3    3    0  502  0.29728908207E+02 -0.25164649910E+03  0.32760960490E+03  0.41417125916E+03  0.10100000352E+00 0. -1.
</event>
<event>
 5   0  0.1099980E-02  0.7083189E+03  0.7818609E-02  0.9703111E-01
       -2   -1    0    0    0  501  0.00000000000E+00  0.00000000000E+00  0.39084183066E+03  0.39084183067E+03  0.25500000920E-02 0.  1.
        2   -1    0    0  501    0  0.00000000000E+00  0.00000000000E+00 -0.32091988772E+03  0.32091988773E+03  0.25500000920E-02 0. -1.
    10030    2    1    2    0    0  0.00000000000E+00  0.00000000000E+00  0.69921942943E+02  0.71176171840E+03  0.70831890111E+03 0.  0.
        5    1    3    3  502    0  0.12061830505E+03 -0.20613676496E+03  0.29770017566E+03  0.38169179447E+03  0.46999998093E+01 0.  1.
       -5    1    3    3    0  502 -0.12061830505E+03  0.20613676496E+03 -0.22777823272E+03  0.33006992392E+03  0.46999998093E+01 0. -1.
</event>
<event>
 5   0  0.1079446E-02  0.6999485E+03  0.7818609E-02  0.9717320E-01
        2   -1    0    0  501    0  0.00000000000E+00  0.00000000000E+00  0.69925999623E+03  0.69925999624E+03  0.25500000920E-02 0.  1.
       -2   -1    0    0    0  501  0.00000000000E+00  0.00000000000E+00 -0.17515942218E+03  0.17515942219E+03  0.25500000920E-02 0. -1.
    10030    2    1    2    0    0  0.00000000000E+00  0.00000000000E+00  0.52410057406E+03  0.87441941843E+03  0.69994850354E+03 0.  0.
        2    1    3    3  502    0 -0.69539984011E+02  0.34286840590E+03  0.27373097495E+03  0.44421076056E+03  0.25500000920E-02 0.  1.
       -2    1    3    3    0  502  0.69539984011E+02 -0.34286840590E+03  0.25036959911E+03  0.43020865787E+03  0.25500000920E-02 0. -1.
</event>
<event>
 5   0  0.1109788E-02  0.6968267E+03  0.7818609E-02  0.9722674E-01
       -2   -1    0    0    0  501  0.00000000000E+00  0.00000000000E+00  0.29946521926E+03  0.29946521927E+03  0.25500000920E-02 0. -1.
        2   -1    0    0  501    0  0.00000000000E+00  0.00000000000E+00 -0.40536209202E+03  0.40536209203E+03  0.25500000920E-02 0.  1.
    10030    2    1    2    0    0  0.00000000000E+00  0.00000000000E+00 -0.10589687276E+03  0.70482731130E+03  0.69682665785E+03 0.  0.
        1    1    3    3  502    0 -0.24459961607E+03 -0.14278348133E+03  0.15229947321E+03  0.32157615628E+03  0.50400001928E-02 0. -1.
       -1    1    3    3    0  502  0.24459961607E+03  0.14278348133E+03 -0.25819634597E+03  0.38325115502E+03  0.50400001928E-02 0.  1.
</event>
<event>
 5   0  0.1100119E-02  0.6953023E+03  0.7818609E-02  0.9725300E-01
        2   -1    0    0  501    0  0.00000000000E+00  0.00000000000E+00  0.11870093597E+04  0.11870093597E+04  0.25500000920E-02 0.  1.
       -2   -1    0    0    0  501  0.00000000000E+00  0.00000000000E+00 -0.10182001613E+03  0.10182001616E+03  0.25500000920E-02 0. -1.
    10030    2    1    2    0    0  0.00000000000E+00  0.00000000000E+00  0.10851893435E+04  0.12888293758E+04  0.69530227143E+03 0.  0.
        4    1    3    3  502    0  0.10828021130E+03  0.21905370047E+03  0.10009708485E+04  0.10303656537E+04  0.12699999809E+01 0.  1.
       -4    1    3    3    0  502 -0.10828021130E+03 -0.21905370047E+03  0.84218495010E+02  0.25846372211E+03  0.12699999809E+01 0. -1.
</event>
<event>
 5   0  0.1100119E-02  0.6981518E+03  0.7818609E-02  0.9720398E-01
        2   -1    0    0  501    0  0.00000000000E+00  0.00000000000E+00  0.60325005396E+03  0.60325005397E+03  0.25500000920E-02 0.  1.
       -2   -1    0    0    0  501  0.00000000000E+00  0.00000000000E+00 -0.20199582810E+03  0.20199582811E+03  0.25500000920E-02 0. -1.
    10030    2    1    2    0    0  0.00000000000E+00  0.00000000000E+00  0.40125422587E+03  0.80524588208E+03  0.69815182936E+03 0.  0.
        4    1    3    3  502    0  0.90273715344E+02 -0.62694876687E+02  0.58276948259E+03  0.59304458009E+03  0.12699999809E+01 0.  1.
       -4    1    3    3    0  502 -0.90273715344E+02  0.62694876687E+02 -0.18151525672E+03  0.21220130199E+03  0.12699999809E+01 0. -1.
</event>
<event>
 5   0  0.1099980E-02  0.7003736E+03  0.7818609E-02  0.9716593E-01
       -2   -1    0    0    0  501  0.00000000000E+00  0.00000000000E+00  0.13824750653E+03  0.13824750655E+03  0.25500000920E-02 0. -1.
        2   -1    0    0  501    0  0.00000000000E+00  0.00000000000E+00 -0.88703808511E+03  0.88703808511E+03  0.25500000920E-02 0.  1.
    10030    2    1    2    0    0  0.00000000000E+00  0.00000000000E+00 -0.74879057858E+03  0.10252855917E+04  0.70037362451E+03 0.  0.
        5    1    3    3  502    0 -0.12531602606E+03  0.25148521137E+03 -0.68511881040E+02  0.28924883019E+03  0.46999998093E+01 0. -1.
       -5    1    3    3    0  502  0.12531602606E+03 -0.25148521137E+03 -0.68027869754E+03  0.73603676148E+03  0.46999998093E+01 0.  1.
</event>
<event>
 5   0  0.6609285E-03  0.6976915E+03  0.7818609E-02  0.9721188E-01
       -1   -1    0    0    0  501  0.00000000000E+00  0.00000000000E+00  0.21384195223E+03  0.21384195229E+03  0.50400001928E-02 0.  1.
        1   -1    0    0  501    0  0.00000000000E+00  0.00000000000E+00 -0.56908091800E+03  0.56908091803E+03  0.50400001928E-02 0. -1.
    10030    2    1    2    0    0  0.00000000000E+00  0.00000000000E+00 -0.35523896577E+03  0.78292287032E+03  0.69769154937E+03 0.  0.
        2    1    3    3  502    0  0.10380695122E+03  0.27508670701E+03 -0.38828963625E+03  0.48704971114E+03  0.25500000920E-02 0. -1.
       -2    1    3    3    0  502 -0.10380695122E+03 -0.27508670701E+03  0.33050670480E+02  0.29587315918E+03  0.25500000920E-02 0.  1.
</event>
<event>
 5   0  0.1099980E-02  0.6885466E+03  0.7818609E-02  0.9737022E-01
       -2   -1    0    0    0  501  0.00000000000E+00  0.00000000000E+00  0.57389727988E+02  0.57389728045E+02  0.25500000920E-02 0. -1.
        2   -1    0    0  501    0  0.00000000000E+00  0.00000000000E+00 -0.20652492555E+04  0.20652492555E+04  0.25500000920E-02 0.  1.
    10030    2    1    2    0    0  0.00000000000E+00  0.00000000000E+00 -0.20078595275E+04  0.21226389836E+04  0.68854656506E+03 0.  0.
        5    1    3    3  502    0  0.17948054551E+03  0.16584024000E+03 -0.17513741041E+04  0.17683465706E+04  0.46999998093E+01 0.  1.
       -5    1    3    3    0  502 -0.17948054551E+03 -0.16584024000E+03 -0.25648542343E+03  0.35429241292E+03  0.46999998093E+01 0. -1.
</event>
<event>
 5   0  0.1119786E-02  0.7052992E+03  0.7818609E-02  0.9708212E-01
        2   -1    0    0  501    0  0.00000000000E+00  0.00000000000E+00  0.20566522669E+03  0.20566522671E+03  0.25500000920E-02 0.  1.
       -2   -1    0    0    0  501  0.00000000000E+00  0.00000000000E+00 -0.60468048493E+03  0.60468048494E+03  0.25500000920E-02 0. -1.
    10030    2    1    2    0    0  0.00000000000E+00  0.00000000000E+00 -0.39901525824E+03  0.81034571164E+03  0.70529922449E+03 0.  0.
        3    1    3    3  502    0  0.98478741280E+02 -0.33803982299E+03 -0.22227733729E+03  0.41638468906E+03  0.10100000352E+00 0.  1.
       -3    1    3    3    0  502 -0.98478741280E+02  0.33803982299E+03 -0.17673792095E+03  0.39396102258E+03  0.10100000352E+00 0. -1.
</event>
<event>
 5   0  0.1099980E-02  0.6700626E+03  0.7818609E-02  0.9769845E-01
        2   -1    0    0  501    0  0.00000000000E+00  0.00000000000E+00  0.71940482500E+03  0.71940482501E+03  0.25500000920E-02 0.  1.
       -2   -1    0    0    0  501  0.00000000000E+00  0.00000000000E+00 -0.15602615916E+03  0.15602615918E+03  0.25500000920E-02 0. -1.
    10030    2    1    2    0    0  0.00000000000E+00  0.00000000000E+00  0.56337866585E+03  0.87543098418E+03  0.67006259927E+03 0.  0.
        5    1    3    3  502    0  0.23469298689E+03  0.18745139723E+03  0.47549558719E+03  0.56243841250E+03  0.46999998093E+01 0.  1.
       -5    1    3    3    0  502 -0.23469298689E+03 -0.18745139723E+03  0.87883078660E+02  0.31299257169E+03  0.46999998093E+01 0. -1.
</event>
<event>
 5   0  0.6246998E-03  0.7041037E+03  0.7818609E-02  0.9710240E-01
       -1   -1    0    0    0  501  0.00000000000E+00  0.00000000000E+00  0.23569294725E+03  0.23569294730E+03  0.50400001928E-02 0.  1.
        1   -1    0    0  501    0  0.00000000000E+00  0.00000000000E+00 -0.52585585370E+03  0.52585585373E+03  0.50400001928E-02 0. -1.
    10030    2    1    2    0    0  0.00000000000E+00  0.00000000000E+00 -0.29016290645E+03  0.76154880103E+03  0.70410373104E+03 0.  0.
        4    1    3    3  502    0 -0.23682955318E+03  0.17918472368E+03 -0.34956559601E+03  0.45868629941E+03  0.12699999809E+01 0. -1.
       -4    1    3    3    0  502  0.23682955318E+03 -0.17918472368E+03  0.59402689552E+02  0.30286250161E+03  0.12699999809E+01 0.  1.
</event>
<event>
 5   0  0.6990118E-03  0.7011835E+03  0.7818609E-02  0.9715210E-01
       -1   -1    0    0    0  501  0.00000000000E+00  0.00000000000E+00  0.14820113167E+03  0.14820113176E+03  0.50400001928E-02 0. -1.
        1   -1    0    0  501    0  0.00000000000E+00  0.00000000000E+00 -0.82937685500E+03  0.82937685501E+03  0.50400001928E-02 0.  1.
    10030    2    1    2    0    0  0.00000000000E+00  0.00000000000E+00 -0.68117572333E+03  0.97757798677E+03  0.70118353815E+03 0.  0.
        5    1    3    3  502    0 -0.42690642745E+02 -0.67660182943E+02  0.13525981436E+03  0.15721863348E+03  0.46999998093E+01 0. -1.
       -5    1    3    3    0  502  0.42690642745E+02  0.67660182943E+02 -0.81643553769E+03  0.82035935329E+03  0.46999998093E+01 0.  1.
</event>
<event>
 5   0  0.6785252E-03  0.7007545E+03  0.7818609E-02  0.9715943E-01
        1   -1    0    0  501    0  0.00000000000E+00  0.00000000000E+00  0.22001915332E+03  0.22001915338E+03  0.50400001928E-02 0. -1.
       -1   -1    0    0    0  501  0.00000000000E+00  0.00000000000E+00 -0.55797064759E+03  0.55797064761E+03  0.50400001928E-02 0.  1.
    10030    2    1    2    0    0  0.00000000000E+00  0.00000000000E+00 -0.33795149427E+03  0.77798980099E+03  0.70075453474E+03 0.  0.
        3    1    3    3  502    0  0.17987937671E+02  0.13552320378E+03  0.18918612320E+03  0.23341273333E+03  0.10100000352E+00 0. -1.
       -3    1    3    3    0  502 -0.17987937671E+02 -0.13552320378E+03 -0.52713761747E+03  0.54457706766E+03  0.10100000352E+00 0.  1.
</event>
<event>
 5   0  0.4440500E-03  0.6978255E+03  0.7818609E-02  0.9720958E-01
        3   -1    0    0  501    0  0.00000000000E+00  0.00000000000E+00  0.86573860746E+03  0.86573861336E+03  0.10100000352E+00 0.  1.
       -3   -1    0    0    0  501  0.00000000000E+00  0.00000000000E+00 -0.14061991554E+03  0.14061995181E+03  0.10100000352E+00 0. -1.
    10030    2    1    2    0    0  0.00000000000E+00  0.00000000000E+00  0.72511869193E+03  0.10063585652E+04  0.69782551135E+03 0.  0.
        5    1    3    3  502    0  0.69074758704E+02  0.56940586080E+01 -0.13054596256E+03  0.14787860877E+03  0.46999998093E+01 0. -1.
       -5    1    3    3    0  502 -0.69074758704E+02 -0.56940586080E+01  0.85566465449E+03  0.85847995639E+03  0.46999998093E+01 0.  1.
</event>
<event>
 5   0  0.4440500E-03  0.7003184E+03  0.7818609E-02  0.9716688E-01
        3   -1    0    0  501    0  0.00000000000E+00  0.00000000000E+00  0.17213915431E+03  0.17213918394E+03  0.10100000352E+00 0. -1.
       -3   -1    0    0    0  501  0.00000000000E+00  0.00000000000E+00 -0.71228090871E+03  0.71228091587E+03  0.10100000352E+00 0.  1.
    10030    2    1    2    0    0  0.00000000000E+00  0.00000000000E+00 -0.54014175439E+03  0.88442009981E+03  0.70031835483E+03 0.  0.
        4    1    3    3  502    0 -0.28469706823E+03  0.17964493413E+03 -0.14838036864E+03  0.36789002394E+03  0.12699999809E+01 0. -1.
       -4    1    3    3    0  502  0.28469706823E+03 -0.17964493413E+03 -0.39176138575E+03  0.51653007587E+03  0.12699999809E+01 0.  1.
</event>
<event>
 5   0  0.1109788E-02  0.6988740E+03  0.7818609E-02  0.9719160E-01
        2   -1    0    0  501    0  0.00000000000E+00  0.00000000000E+00  0.67930491341E+03  0.67930491342E+03  0.25500000920E-02 0.  1.
       -2   -1    0    0    0  501  0.00000000000E+00  0.00000000000E+00 -0.17975172556E+03  0.17975172558E+03  0.25500000920E-02 0. -1.
    10030    2    1    2    0    0  0.00000000000E+00  0.00000000000E+00  0.49955318785E+03  0.85905663900E+03  0.69887403837E+03 0.  0.
        1    1    3    3  502    0 -0.10703736781E+03 -0.15183778797E+03 -0.11402228414E+03  0.21797429498E+03  0.50400001928E-02 0. -1.
       -1    1    3    3    0  502  0.10703736781E+03  0.15183778797E+03  0.61357547199E+03  0.64108234402E+03  0.50400001928E-02 0.  1.
</event>
<event>
 5   0  0.1109788E-02  0.7000960E+03  0.7818609E-02  0.9717068E-01
       -2   -1    0    0    0  501  0.00000000000E+00  0.00000000000E+00  0.25814181390E+03  0.25814181391E+03  0.25500000920E-02 0. -1.
        2   -1    0    0  501    0  0.00000000000E+00  0.00000000000E+00 -0.47467546843E+03  0.47467546844E+03  0.25500000920E-02 0.  1.
    10030    2    1    2    0    0  0.00000000000E+00  0.00000000000E+00 -0.21653365453E+03  0.73281728235E+03  0.70009595469E+03 0.  0.
        1    1    3    3  502    0 -0.89017843263E+02 -0.19062896101E+03  0.18457683350E+03  0.27987887503E+03  0.50400001928E-02 0. -1.
       -1    1    3    3    0  502  0.89017843263E+02  0.19062896101E+03 -0.40111048803E+03  0.45293840732E+03  0.50400001928E-02 0.  1.
</event>
<event>
 5   0  0.6246998E-03  0.7090980E+03  0.7818609E-02  0.9701799E-01
        1   -1    0    0  501    0  0.00000000000E+00  0.00000000000E+00  0.56602927758E+03  0.56602927760E+03  0.50400001928E-02 0.  1.
       -1   -1    0    0    0  501  0.00000000000E+00  0.00000000000E+00 -0.22208216796E+03  0.22208216801E+03  0.50400001928E-02 0. -1.
    10030    2    1    2    0    0  0.00000000000E+00  0.00000000000E+00  0.34394710962E+03  0.78811144562E+03  0.70909804435E+03 0.  0.
        4    1    3    3  502    0 -0.17027884982E+02  0.22327597774E+03  0.47748748350E+03  0.52738792260E+03  0.12699999809E+01 0.  1.
       -4    1    3    3    0  502  0.17027884982E+02 -0.22327597774E+03 -0.13354037387E+03  0.26072352302E+03  0.12699999809E+01 0. -1.
</event>
<event>
 5   0  0.1079446E-02  0.7032792E+03  0.7818609E-02  0.9711641E-01
       -2   -1    0    0    0  501  0.00000000000E+00  0.00000000000E+00  0.65688493044E+02  0.65688493093E+02  0.25500000920E-02 0.  1.
        2   -1    0    0  501    0  0.00000000000E+00  0.00000000000E+00 -0.18823755111E+04  0.18823755111E+04  0.25500000920E-02 0. -1.
    10030    2    1    2    0    0  0.00000000000E+00  0.00000000000E+00 -0.18166870180E+04  0.19480640042E+04  0.70327920690E+03 0.  0.
        2    1    3    3  502    0 -0.71876691283E+02  0.33651207851E+03 -0.70775900229E+03  0.78697486813E+03  0.25500000920E-02 0.  1.
       -2    1    3    3    0  502  0.71876691283E+02 -0.33651207851E+03 -0.11089280157E+04  0.11610891360E+04  0.25500000920E-02 0. -1.
</event>
<event>
 5   0  0.6990118E-03  0.7010179E+03  0.7818609E-02  0.9715493E-01
       -1   -1    0    0    0  501  0.00000000000E+00  0.00000000000E+00  0.30952837598E+03  0.30952837602E+03  0.50400001928E-02 0.  1.
        1   -1    0    0  501    0  0.00000000000E+00  0.00000000000E+00 -0.39691525272E+03  0.39691525275E+03  0.50400001928E-02 0. -1.
    10030    2    1    2    0    0  0.00000000000E+00  0.00000000000E+00 -0.87386876739E+02  0.70644362878E+03  0.70101792731E+03 0.  0.
        5    1    3    3  502    0 -0.28179002952E+03 -0.44354152252E+02  0.16150358717E+03  0.32783900046E+03  0.46999998093E+01 0.  1.
       -5    1    3    3    0  502  0.28179002952E+03  0.44354152252E+02 -0.24889046391E+03  0.37860462831E+03  0.46999998093E+01 0. -1.
</event>
<event>
 5   0  0.1099980E-02  0.7000957E+03  0.7818609E-02  0.9717069E-01
        2   -1    0    0  501    0  0.00000000000E+00  0.00000000000E+00  0.98826789728E+03  0.98826789729E+03  0.25500000920E-02 0. -1.
       -2   -1    0    0    0  501  0.00000000000E+00  0.00000000000E+00 -0.12398813266E+03  0.12398813268E+03  0.25500000920E-02 0.  1.
    10030    2    1    2    0    0  0.00000000000E+00  0.00000000000E+00  0.86427976463E+03  0.11122560300E+04  0.70009568250E+03 0.  0.
        5    1    3    3  502    0 -0.32941692200E+03  0.11755855946E+03  0.45320931490E+03  0.57250004062E+03  0.46999998093E+01 0.  1.
       -5    1    3    3    0  502  0.32941692200E+03 -0.11755855946E+03  0.41107044973E+03  0.53975598935E+03  0.46999998093E+01 0. -1.
</event>
<event>
 5   0  0.1099980E-02  0.7025170E+03  0.7818609E-02  0.9712937E-01
       -2   -1    0    0    0  501  0.00000000000E+00  0.00000000000E+00  0.76355720563E+02  0.76355720605E+02  0.25500000920E-02 0.  1.
        2   -1    0    0  501    0  0.00000000000E+00  0.00000000000E+00 -0.16158913060E+04  0.16158913060E+04  0.25500000920E-02 0. -1.
    10030    2    1    2    0    0  0.00000000000E+00  0.00000000000E+00 -0.15395355854E+04  0.16922470266E+04  0.70251703199E+03 0.  0.
        5    1    3    3  502    0 -0.54246967296E+02 -0.50166102497E+02 -0.15968826089E+04  0.15985979882E+04  0.46999998093E+01 0. -1.
       -5    1    3    3    0  502  0.54246967296E+02  0.50166102497E+02  0.57347023443E+02  0.93649038418E+02  0.46999998093E+01 0.  1.
</event>
<event>
 5   0  0.6689415E-03  0.6998729E+03  0.7818609E-02  0.9717450E-01
       -1   -1    0    0    0  501  0.00000000000E+00  0.00000000000E+00  0.15992221463E+03  0.15992221471E+03  0.50400001928E-02 0.  1.
        1   -1    0    0  501    0  0.00000000000E+00  0.00000000000E+00 -0.76571925877E+03  0.76571925879E+03  0.50400001928E-02 0. -1.
    10030    2    1    2    0    0  0.00000000000E+00  0.00000000000E+00 -0.60579704415E+03  0.92564147350E+03  0.69987290186E+03 0.  0.
        1    1    3    3  502    0 -0.93327929134E+02  0.74083557192E+02 -0.73806126782E+03  0.74761815847E+03  0.50400001928E-02 0. -1.
       -1    1    3    3    0  502  0.93327929134E+02 -0.74083557192E+02  0.13226422367E+03  0.17802331502E+03  0.50400001928E-02 0.  1.
</event>
<event>
 5   0  0.6609285E-03  0.7018100E+03  0.7818609E-02  0.9714142E-01
       -1   -1    0    0    0  501  0.00000000000E+00  0.00000000000E+00  0.89631437034E+03  0.89631437035E+03  0.50400001928E-02 0. -1.
        1   -1    0    0  501    0  0.00000000000E+00  0.00000000000E+00 -0.13737847796E+03  0.13737847805E+03  0.50400001928E-02 0.  1.
    10030    2    1    2    0    0  0.00000000000E+00  0.00000000000E+00  0.75893589237E+03  0.10336928484E+04  0.70180995726E+03 0.  0.
        2    1    3    3  502    0  0.20553156760E+03  0.19889903026E+03  0.80030558197E+02  0.29699989860E+03  0.25500000920E-02 0.  1.
       -2    1    3    3    0  502 -0.20553156760E+03 -0.19889903026E+03  0.67890533418E+03  0.73669294981E+03  0.25500000920E-02 0. -1.
</event>
<event>
 5   0  0.1119786E-02  0.7006337E+03  0.7818609E-02  0.9716149E-01
       -2   -1    0    0    0  501  0.00000000000E+00  0.00000000000E+00  0.13708700242E+03  0.13708700245E+03  0.25500000920E-02 0.  1.
        2   -1    0    0  501    0  0.00000000000E+00  0.00000000000E+00 -0.89521167965E+03  0.89521167965E+03  0.25500000920E-02 0. -1.
    10030    2    1    2    0    0  0.00000000000E+00  0.00000000000E+00 -0.75812467723E+03  0.10322986821E+04  0.70063367236E+03 0.  0.
        3    1    3    3  502    0 -0.26044004226E+03  0.21892558307E+03 -0.25610406759E+03  0.42584824782E+03  0.10100000352E+00 0.  1.
       -3    1    3    3    0  502  0.26044004226E+03 -0.21892558307E+03 -0.50202060963E+03  0.60645043428E+03  0.10100000352E+00 0. -1.
</event>
<event>
 5   0  0.1109788E-02  0.7001668E+03  0.7818609E-02  0.9716947E-01
        2   -1    0    0  501    0  0.00000000000E+00  0.00000000000E+00  0.56469430146E+03  0.56469430147E+03  0.25500000920E-02 0. -1.
       -2   -1    0    0    0  501  0.00000000000E+00  0.00000000000E+00 -0.21703491335E+03  0.21703491337E+03  0.25500000920E-02 0.  1.
    10030    2    1    2    0    0  0.00000000000E+00  0.00000000000E+00  0.34765938811E+03  0.78172921484E+03  0.70016677670E+03 0.  0.
        1    1    3    3  502    0 -0.76525918659E+01  0.68112317661E+02 -0.20947049722E+03  0.22039904539E+03  0.50400001928E-02 0.  1.
       -1    1    3    3    0  502  0.76525918659E+01 -0.68112317661E+02  0.55712988533E+03  0.56133016944E+03  0.50400001928E-02 0. -1.
</event>
<event>
 5   0  0.1099980E-02  0.6993168E+03  0.7818609E-02  0.9718401E-01
        2   -1    0    0  501    0  0.00000000000E+00  0.00000000000E+00  0.25934546142E+04  0.25934546142E+04  0.25500000920E-02 0. -1.
       -2   -1    0    0    0  501  0.00000000000E+00  0.00000000000E+00 -0.47142143088E+02  0.47142143157E+02  0.25500000920E-02 0.  1.
    10030    2    1    2    0    0  0.00000000000E+00  0.00000000000E+00  0.25463124711E+04  0.26405967574E+04  0.69931683408E+03 0.  0.
        5    1    3    3  502    0 -0.43043800065E+01  0.34105996561E+03  0.98315586329E+03  0.10406526651E+04  0.46999998093E+01 0. -1.
       -5    1    3    3    0  502  0.43043800065E+01 -0.34105996561E+03  0.15631566078E+04  0.15999440923E+04  0.46999998093E+01 0.  1.
</event>
<event>
 5   0  0.1099980E-02  0.6893634E+03  0.7818609E-02  0.9735597E-01
        2   -1    0    0  501    0  0.00000000000E+00  0.00000000000E+00  0.12721310501E+04  0.12721310501E+04  0.25500000920E-02 0. -1.
       -2   -1    0    0    0  501  0.00000000000E+00  0.00000000000E+00 -0.93390898966E+02  0.93390899001E+02  0.25500000920E-02 0.  1.
    10030    2    1    2    0    0  0.00000000000E+00  0.00000000000E+00  0.11787401512E+04  0.13655219491E+04  0.68936336543E+03 0.  0.
        5    1    3    3  502    0  0.16499689891E+03  0.18235514257E+03  0.10676774765E+04  0.10956434906E+04  0.46999998093E+01 0. -1.
       -5    1    3    3    0  502 -0.16499689891E+03 -0.18235514257E+03  0.11106267465E+03  0.26987845852E+03  0.46999998093E+01 0.  1.
</event>
<event>
 5   0  0.1119786E-02  0.6982161E+03  0.7818609E-02  0.9720288E-01
        2   -1    0    0  501    0  0.00000000000E+00  0.00000000000E+00  0.66821192492E+03  0.66821192492E+03  0.25500000920E-02 0. -1.
       -2   -1    0    0    0  501  0.00000000000E+00  0.00000000000E+00 -0.18239190377E+03  0.18239190379E+03  0.25500000920E-02 0.  1.
    10030    2    1    2    0    0  0.00000000000E+00  0.00000000000E+00  0.48582002115E+03  0.85060382871E+03  0.69821614166E+03 0.  0.
        3    1    3    3  502    0  0.12693750134E+03 -0.18940838794E+03 -0.79150913373E+02  0.24135770954E+03  0.10100000352E+00 0.  1.
       -3    1    3    3    0  502 -0.12693750134E+03  0.18940838794E+03  0.56497093452E+03  0.60924611917E+03  0.10100000352E+00 0. -1.
</event>
<event>
 5   0  0.1100119E-02  0.6922711E+03  0.7818609E-02  0.9730542E-01
       -2   -1    0    0    0  501  0.00000000000E+00  0.00000000000E+00  0.82578445121E+02  0.82578445160E+02  0.25500000920E-02 0.  1.
        2   -1    0    0  501    0  0.00000000000E+00  0.00000000000E+00 -0.14508607872E+04  0.14508607872E+04  0.25500000920E-02 0. -1.
    10030    2    1    2    0    0  0.00000000000E+00  0.00000000000E+00 -0.13682823421E+04  0.15334392323E+04  0.69227112586E+03 0.  0.
        4    1    3    3  502    0  0.11995398053E+03 -0.24564885727E+03 -0.11544277001E+04  0.11863546039E+04  0.12699999809E+01 0. -1.
       -4    1    3    3    0  502 -0.11995398053E+03  0.24564885727E+03 -0.21385464199E+03  0.34708462847E+03  0.12699999809E+01 0.  1.
</event>
<event>
 5   0  0.6990118E-03  0.7003566E+03  0.7818609E-02  0.9716623E-01
        1   -1    0    0  501    0  0.00000000000E+00  0.00000000000E+00  0.34461666774E+03  0.34461666777E+03  0.50400001928E-02 0.  1.
       -1   -1    0    0    0  501  0.00000000000E+00  0.00000000000E+00 -0.35582971957E+03  0.35582971961E+03  0.50400001928E-02 0. -1.
    10030    2    1    2    0    0  0.00000000000E+00  0.00000000000E+00 -0.11213051835E+02  0.70044638738E+03  0.70035662991E+03 0.  0.
        5    1    3    3  502    0 -0.72486525404E+02  0.21027575247E+03 -0.27607153348E+03  0.35455291571E+03  0.46999998093E+01 0. -1.
       -5    1    3    3    0  502  0.72486525404E+02 -0.21027575247E+03  0.26485848165E+03  0.34589347167E+03  0.46999998093E+01 0.  1.
</event>
<event>
 5   0  0.1119786E-02  0.6991720E+03  0.7818609E-02  0.9718649E-01
        2   -1    0    0  501    0  0.00000000000E+00  0.00000000000E+00  0.91526350929E+03  0.91526350930E+03  0.25500000920E-02 0.  1.
       -2   -1    0    0    0  501  0.00000000000E+00  0.00000000000E+00 -0.13352478998E+03  0.13352479000E+03  0.25500000920E-02 0. -1.
    10030    2    1    2    0    0  0.00000000000E+00  0.00000000000E+00  0.78173871931E+03  0.10487882993E+04  0.69917198991E+03 0.  0.
        3    1    3    3  502    0 -0.86902732520E+02  0.29359146694E+03  0.13780033818E+03  0.33576327641E+03  0.10100000352E+00 0. -1.
       -3    1    3    3    0  502  0.86902732520E+02 -0.29359146694E+03  0.64393838113E+03  0.71302502289E+03  0.10100000352E+00 0.  1.
</event>
<event>
 5   0  0.1100119E-02  0.6985101E+03  0.7818609E-02  0.9719784E-01
        2   -1    0    0  501    0  0.00000000000E+00  0.00000000000E+00  0.39660376231E+03  0.39660376232E+03  0.25500000920E-02 0.  1.
       -2   -1    0    0    0  501  0.00000000000E+00  0.00000000000E+00 -0.30755907093E+03  0.30755907094E+03  0.25500000920E-02 0. -1.
    10030    2    1    2    0    0  0.00000000000E+00  0.00000000000E+00  0.89044691378E+02  0.70416283326E+03  0.69851008489E+03 0.  0.
        4    1    3    3  502    0  0.26275959437E+03  0.30674433237E+02 -0.18534475036E+03  0.32301364472E+03  0.12699999809E+01 0. -1.
       -4    1    3    3    0  502 -0.26275959437E+03 -0.30674433237E+02  0.27438944174E+03  0.38114918854E+03  0.12699999809E+01 0.  1.
</event>
<event>
 5   0  0.1109788E-02  0.7010748E+03  0.7818609E-02  0.9715396E-01
        2   -1    0    0  501    0  0.00000000000E+00  0.00000000000E+00  0.78830459843E+03  0.78830459844E+03  0.25500000920E-02 0.  1.
       -2   -1    0    0    0  501  0.00000000000E+00  0.00000000000E+00 -0.15587436655E+03  0.15587436657E+03  0.25500000920E-02 0. -1.
    10030    2    1    2    0    0  0.00000000000E+00  0.00000000000E+00  0.63243023189E+03  0.94417896500E+03  0.70107483178E+03 0.  0.
        1    1    3    3  502    0  0.24554211039E+03  0.14699256709E+03  0.58884234507E+03  0.65470073325E+03  0.50400001928E-02 0.  1.
       -1    1    3    3    0  502 -0.24554211039E+03 -0.14699256709E+03  0.43587886817E+02  0.28947823175E+03  0.50400001928E-02 0. -1.
</event>
<event>
 5   0  0.6246998E-03  0.7016858E+03  0.7818609E-02  0.9714354E-01
        1   -1    0    0  501    0  0.00000000000E+00  0.00000000000E+00  0.19326766844E+03  0.19326766850E+03  0.50400001928E-02 0. -1.
       -1   -1    0    0    0  501  0.00000000000E+00  0.00000000000E+00 -0.63689264012E+03  0.63689264014E+03  0.50400001928E-02 0.  1.
    10030    2    1    2    0    0  0.00000000000E+00  0.00000000000E+00 -0.44362497168E+03  0.83016030864E+03  0.70168584319E+03 0.  0.
        4    1    3    3  502    0 -0.35386629235E+02  0.18612982963E+03 -0.57116116362E+03  0.60176674445E+03  0.12699999809E+01 0.  1.
       -4    1    3    3    0  502  0.35386629235E+02 -0.18612982963E+03  0.12753619194E+03  0.22839356418E+03  0.12699999809E+01 0. -1.
</event>
<event>
 5   0  0.1119786E-02  0.7031227E+03  0.7818609E-02  0.9711907E-01
       -2   -1    0    0    0  501  0.00000000000E+00  0.00000000000E+00  0.11122620656E+03  0.11122620659E+03  0.25500000920E-02 0. -1.
        2   -1    0    0  501    0  0.00000000000E+00  0.00000000000E+00 -0.11112075130E+04  0.11112075130E+04  0.25500000920E-02 0.  1.
    10030    2    1    2    0    0  0.00000000000E+00  0.00000000000E+00 -0.99998130643E+03  0.12224337196E+04  0.70312273862E+03 0.  0.
        3    1    3    3  502    0 -0.29006368897E+03 -0.27938612547E+02 -0.84191142798E+03  0.89091659121E+03  0.10100000352E+00 0.  1.
       -3    1    3    3    0  502  0.29006368897E+03  0.27938612547E+02 -0.15806987846E+03  0.33151712838E+03  0.10100000352E+00 0. -1.
</event>
<event>
 5   0  0.1099980E-02  0.7003896E+03  0.7818609E-02  0.9716566E-01
        2   -1    0    0  501    0  0.00000000000E+00  0.00000000000E+00  0.27177429407E+03  0.27177429408E+03  0.25500000920E-02 0.  1.
       -2   -1    0    0    0  501  0.00000000000E+00  0.00000000000E+00 -0.45124350998E+03  0.45124350999E+03  0.25500000920E-02 0. -1.
    10030    2    1    2    0    0  0.00000000000E+00  0.00000000000E+00 -0.17946921592E+03  0.72301780407E+03  0.70038956698E+03 0.  0.
        5    1    3    3  502    0 -0.33727656766E+03 -0.93256829573E+02 -0.76596402818E+02  0.35824770520E+03  0.46999998093E+01 0. -1.
       -5    1    3    3    0  502  0.33727656766E+03  0.93256829573E+02 -0.10287281310E+03  0.36477009887E+03  0.46999998093E+01 0.  1.
</event>
<event>
 5   0  0.6689415E-03  0.6993934E+03  0.7818609E-02  0.9718270E-01
       -1   -1    0    0    0  501  0.00000000000E+00  0.00000000000E+00  0.50277166107E+03  0.50277166110E+03  0.50400001928E-02 0.  1.
        1   -1    0    0  501    0  0.00000000000E+00  0.00000000000E+00 -0.24322725746E+03  0.24322725751E+03  0.50400001928E-02 0. -1.
    10030    2    1    2    0    0  0.00000000000E+00  0.00000000000E+00  0.25954440361E+03  0.74599891861E+03  0.69939337223E+03 0.  0.
        1    1    3    3  502    0 -0.79328730162E+02  0.58804499263E+02  0.48759159995E+03  0.49749028627E+03  0.50400001928E-02 0.  1.
       -1    1    3    3    0  502  0.79328730162E+02 -0.58804499263E+02 -0.22804719634E+03  0.24850863234E+03  0.50400001928E-02 0. -1.
</event>
<event>
 5   0  0.6990118E-03  0.6991920E+03  0.7818609E-02  0.9718615E-01
       -1   -1    0    0    0  501  0.00000000000E+00  0.00000000000E+00  0.13284930546E+03  0.13284930555E+03  0.50400001928E-02 0. -1.
        1   -1    0    0  501    0  0.00000000000E+00  0.00000000000E+00 -0.91996996202E+03  0.91996996204E+03  0.50400001928E-02 0.  1.
    10030    2    1    2    0    0  0.00000000000E+00  0.00000000000E+00 -0.78712065657E+03  0.10528192676E+04  0.69919202099E+03 0.  0.
        5    1    3    3  502    0  0.16382710887E+03  0.99502581958E+02 -0.83373656781E+03  0.85549917587E+03  0.46999998093E+01 0.  1.
       -5    1    3    3    0  502 -0.16382710887E+03 -0.99502581958E+02  0.46615911238E+02  0.19732009172E+03  0.46999998093E+01 0. -1.
</event>
<event>
 5   0  0.6609285E-03  0.6996652E+03  0.7818609E-02  0.9717805E-01
        1   -1    0    0  501    0  0.00000000000E+00  0.00000000000E+00  0.44889616499E+03  0.44889616502E+03  0.50400001928E-02 0.  1.
       -1   -1    0    0    0  501  0.00000000000E+00  0.00000000000E+00 -0.27263063113E+03  0.27263063117E+03  0.50400001928E-02 0. -1.
    10030    2    1    2    0    0  0.00000000000E+00  0.00000000000E+00  0.17626553387E+03  0.72152679619E+03  0.69966519079E+03 0.  0.
        2    1    3    3  502    0  0.12408991160E+03 -0.27369942474E+03 -0.96552859211E+02  0.31564558589E+03  0.25500000920E-02 0. -1.
       -2    1    3    3    0  502 -0.12408991160E+03  0.27369942474E+03  0.27281839308E+03  0.40588121030E+03  0.25500000920E-02 0.  1.
</event>
<event>
 5   0  0.1100119E-02  0.6989461E+03  0.7818609E-02  0.9719036E-01
        2   -1    0    0  501    0  0.00000000000E+00  0.00000000000E+00  0.51742988196E+03  0.51742988197E+03  0.25500000920E-02 0. -1.
       -2   -1    0    0    0  501  0.00000000000E+00  0.00000000000E+00 -0.23603468101E+03  0.23603468103E+03  0.25500000920E-02 0.  1.
    10030    2    1    2    0    0  0.00000000000E+00  0.00000000000E+00  0.28139520095E+03  0.75346456300E+03  0.69894605556E+03 0.  0.
        4    1    3    3  502    0  0.20087905946E+03  0.26172479711E+03  0.26491362544E+03  0.42312304096E+03  0.12699999809E+01 0. -1.
       -4    1    3    3    0  502 -0.20087905946E+03 -0.26172479711E+03  0.16481575512E+02  0.33034152204E+03  0.12699999809E+01 0.  1.
</event>
<event>
 5   0  0.6785252E-03  0.7009892E+03  0.7818609E-02  0.9715542E-01
       -1   -1    0    0    0  501  0.00000000000E+00  0.00000000000E+00  0.33351898970E+03  0.33351898974E+03  0.50400001928E-02 0. -1.
        1   -1    0    0  501    0  0.00000000000E+00  0.00000000000E+00 -0.36833424554E+03  0.36833424557E+03  0.50400001928E-02 0.  1.
    10030    2    1    2    0    0  0.00000000000E+00  0.00000000000E+00 -0.34815255838E+02  0.70185323531E+03  0.70098920240E+03 0.  0.
        3    1    3    3  502    0  0.20838339137E+02  0.19787049326E+03  0.27149523301E+03  0.33659566282E+03  0.10100000352E+00 0. -1.
       -3    1    3    3    0  502 -0.20838339137E+02 -0.19787049326E+03 -0.30631048885E+03  0.36525757249E+03  0.10100000352E+00 0.  1.
</event>
<event>
 5   0  0.1099980E-02  0.6943485E+03  0.7818609E-02  0.9726946E-01
        2   -1    0    0  501    0  0.00000000000E+00  0.00000000000E+00  0.11335846361E+04  0.11335846361E+04  0.25500000920E-02 0.  1.
       -2   -1    0    0    0  501  0.00000000000E+00  0.00000000000E+00 -0.10632639396E+03  0.10632639399E+03  0.25500000920E-02 0. -1.
    10030    2    1    2    0    0  0.00000000000E+00  0.00000000000E+00  0.10272582422E+04  0.12399110301E+04  0.69434851949E+03 0.  0.
        5    1    3    3  502    0 -0.29880202640E+03 -0.16809325471E+03  0.61094477541E+03  0.70058090315E+03  0.46999998093E+01 0.  1.
       -5    1    3    3    0  502  0.29880202640E+03  0.16809325471E+03  0.41631346675E+03  0.53933012697E+03  0.46999998093E+01 0. -1.
</event>
<event>
 5   0  0.1079446E-02  0.6990590E+03  0.7818609E-02  0.9718843E-01
        2   -1    0    0  501    0  0.00000000000E+00  0.00000000000E+00  0.44846350265E+03  0.44846350266E+03  0.25500000920E-02 0.  1.
       -2   -1    0    0    0  501  0.00000000000E+00  0.00000000000E+00 -0.27242095899E+03  0.27242095900E+03  0.25500000920E-02 0. -1.
    10030    2    1    2    0    0  0.00000000000E+00  0.00000000000E+00  0.17604254367E+03  0.72088446166E+03  0.69905896023E+03 0.  0.
        2    1    3    3  502    0  0.34433363572E+03 -0.39368135366E+02  0.13477273927E+03  0.37185910508E+03  0.25500000920E-02 0.  1.
       -2    1    3    3    0  502 -0.34433363572E+03  0.39368135366E+02  0.41269804395E+02  0.34902535658E+03  0.25500000920E-02 0. -1.
</event>
<event>
 5   0  0.1099980E-02  0.7103487E+03  0.7818609E-02  0.9699696E-01
       -2   -1    0    0    0  501  0.00000000000E+00  0.00000000000E+00  0.46967533003E+03  0.46967533004E+03  0.25500000920E-02 0. -1.
        2   -1    0    0  501    0  0.00000000000E+00  0.00000000000E+00 -0.26858727594E+03  0.26858727595E+03  0.25500000920E-02 0.  1.
    10030    2    1    2    0    0  0.00000000000E+00  0.00000000000E+00  0.20108805410E+03  0.73826260599E+03  0.71034869599E+03 0.  0.
        5    1    3    3  502    0  0.26840386224E+03  0.19310752652E+03 -0.34146407265E+02  0.33244430690E+03  0.46999998093E+01 0.  1.
       -5    1    3    3    0  502 -0.26840386224E+03 -0.19310752652E+03  0.23523446136E+03  0.40581829909E+03  0.46999998093E+01 0. -1.
</event>
<event>
 5   0  0.6785252E-03  0.6986660E+03  0.7818609E-02  0.9719516E-01
       -1   -1    0    0    0  501  0.00000000000E+00  0.00000000000E+00  0.35277596449E+03  0.35277596453E+03  0.50400001928E-02 0.  1.
        1   -1    0    0  501    0  0.00000000000E+00  0.00000000000E+00 -0.34592360739E+03  0.34592360742E+03  0.50400001928E-02 0. -1.
    10030    2    1    2    0    0  0.00000000000E+00  0.00000000000E+00  0.68523571080E+01  0.69869957195E+03  0.69866596958E+03 0.  0.
        3    1    3    3  502    0  0.28488944676E+02 -0.31394276624E+03 -0.14711957368E+03  0.34787333845E+03  0.10100000352E+00 0.  1.
       -3    1    3    3    0  502 -0.28488944676E+02  0.31394276624E+03  0.15397193079E+03  0.35082623350E+03  0.10100000352E+00 0. -1.
</event>
<event>
 5   0  0.6609285E-03  0.6883666E+03  0.7818609E-02  0.9737336E-01
       -1   -1    0    0    0  501  0.00000000000E+00  0.00000000000E+00  0.24786779475E+03  0.24786779480E+03  0.50400001928E-02 0. -1.
        1   -1    0    0  501    0  0.00000000000E+00  0.00000000000E+00 -0.47792474964E+03  0.47792474966E+03  0.50400001928E-02 0.  1.
    10030    2    1    2    0    0  0.00000000000E+00  0.00000000000E+00 -0.23005695489E+03  0.72579254446E+03  0.68836662841E+03 0.  0.
        2    1    3    3  502    0 -0.18914198178E+03 -0.18381072943E+03  0.11813038155E+03  0.28899110813E+03  0.25500000920E-02 0. -1.
       -2    1    3    3    0  502  0.18914198178E+03  0.18381072943E+03 -0.34818733644E+03  0.43680143634E+03  0.25500000920E-02 0.  1.
</event>
<event>
 5   0  0.1119786E-02  0.7023551E+03  0.7818609E-02  0.9713213E-01
       -2   -1    0    0    0  501  0.00000000000E+00  0.00000000000E+00  0.64760926946E+02  0.64760926996E+02  0.25500000920E-02 0. -1.
        2   -1    0    0  501    0  0.00000000000E+00  0.00000000000E+00 -0.19043220899E+04  0.19043220899E+04  0.25500000920E-02 0.  1.
    10030    2    1    2    0    0  0.00000000000E+00  0.00000000000E+00 -0.18395611630E+04  0.19690830169E+04  0.70235507771E+03 0.  0.
        3    1    3    3  502    0  0.82236618057E+02  0.32435312131E+03 -0.62099800520E+03  0.70541217832E+03  0.10100000352E+00 0. -1.
       -3    1    3    3    0  502 -0.82236618057E+02 -0.32435312131E+03 -0.12185631577E+04  0.12636708386E+04  0.10100000352E+00 0.  1.
</event>
<event>
 5   0  0.6609285E-03  0.6995822E+03  0.7818609E-02  0.9717947E-01
        1   -1    0    0  501    0  0.00000000000E+00  0.00000000000E+00  0.80899943562E+03  0.80899943563E+03  0.50400001928E-02 0. -1.
       -1   -1    0    0    0  501  0.00000000000E+00  0.00000000000E+00 -0.15124091110E+03  0.15124091119E+03  0.50400001928E-02 0.  1.
    10030    2    1    2    0    0  0.00000000000E+00  0.00000000000E+00  0.65775852452E+03  0.96024034682E+03  0.69958219466E+03 0.  0.
        2    1    3    3  502    0  0.74752790567E+02  0.27374955006E+03  0.60959686287E+03  0.67240994273E+03  0.25500000920E-02 0. -1.
       -2    1    3    3    0  502 -0.74752790567E+02 -0.27374955006E+03  0.48161661645E+02  0.28783040409E+03  0.25500000920E-02 0.  1.
</event>
<event>
 5   0  0.1100119E-02  0.7012815E+03  0.7818609E-02  0.9715043E-01
        2   -1    0    0  501    0  0.00000000000E+00  0.00000000000E+00  0.23112005544E+03  0.23112005546E+03  0.25500000920E-02 0.  1.
       -2   -1    0    0    0  501  0.00000000000E+00  0.00000000000E+00 -0.53196998355E+03  0.53196998356E+03  0.25500000920E-02 0. -1.
    10030    2    1    2    0    0  0.00000000000E+00  0.00000000000E+00 -0.30084992811E+03  0.76309003902E+03  0.70128149013E+03 0.  0.
        4    1    3    3  502    0  0.21832660456E+03  0.13527011984E+03 -0.41017482891E+03  0.48395197566E+03  0.12699999809E+01 0. -1.
       -4    1    3    3    0  502 -0.21832660456E+03 -0.13527011984E+03  0.10932490080E+03  0.27913806335E+03  0.12699999809E+01 0.  1.
</event>
<event>
 5   0  0.6246998E-03  0.7027823E+03  0.7818609E-02  0.9712486E-01
        1   -1    0    0  501    0  0.00000000000E+00  0.00000000000E+00  0.57993781603E+03  0.57993781605E+03  0.50400001928E-02 0. -1.
       -1   -1    0    0    0  501  0.00000000000E+00  0.00000000000E+00 -0.21291204092E+03  0.21291204098E+03  0.50400001928E-02 0.  1.
    10030    2    1    2    0    0  0.00000000000E+00  0.00000000000E+00  0.36702577512E+03  0.79284985703E+03  0.70278231067E+03 0.  0.
        4    1    3    3  502    0 -0.26716727098E+03  0.53676642144E+02 -0.66761901535E+02  0.28056781175E+03  0.12699999809E+01 0.  1.
       -4    1    3    3    0  502  0.26716727098E+03 -0.53676642144E+02  0.43378767665E+03  0.51228204528E+03  0.12699999809E+01 0. -1.
</event>
<event>
 5   0  0.6689415E-03  0.7019115E+03  0.7818609E-02  0.9713969E-01
       -1   -1    0    0    0  501  0.00000000000E+00  0.00000000000E+00  0.68036626715E+02  0.68036626901E+02  0.50400001928E-02 0.  1.
        1   -1    0    0  501    0  0.00000000000E+00  0.00000000000E+00 -0.18103472627E+04  0.18103472627E+04  0.50400001928E-02 0. -1.
    10030    2    1    2    0    0  0.00000000000E+00  0.00000000000E+00 -0.17423106360E+04  0.18783838896E+04  0.70191145059E+03 0.  0.
        1    1    3    3  502    0 -0.59415523519E+02  0.27121129419E+03 -0.14456391635E+04  0.14720592249E+04  0.50400001928E-02 0. -1.
       -1    1    3    3    0  502  0.59415523519E+02 -0.27121129419E+03 -0.29667147242E+03  0.40632466465E+03  0.50400001928E-02 0.  1.
</event>
<event>
 5   0  0.6785252E-03  0.6963978E+03  0.7818609E-02  0.9723412E-01
       -1   -1    0    0    0  501  0.00000000000E+00  0.00000000000E+00  0.30956248210E+03  0.30956248214E+03  0.50400001928E-02 0.  1.
        1   -1    0    0  501    0  0.00000000000E+00  0.00000000000E+00 -0.39165754491E+03  0.39165754494E+03  0.50400001928E-02 0. -1.
    10030    2    1    2    0    0  0.00000000000E+00  0.00000000000E+00 -0.82095062813E+02  0.70122002708E+03  0.69639782240E+03 0.  0.
        3    1    3    3  502    0 -0.15678227989E+03  0.10794437483E+03 -0.33463086974E+03  0.38498116906E+03  0.10100000352E+00 0. -1.
       -3    1    3    3    0  502  0.15678227989E+03 -0.10794437483E+03  0.25253580692E+03  0.31623885803E+03  0.10100000352E+00 0.  1.
</event>
<event>
 5   0  0.6689415E-03  0.7031868E+03  0.7818609E-02  0.9711798E-01
       -1   -1    0    0    0  501  0.00000000000E+00  0.00000000000E+00  0.13399306990E+03  0.13399307000E+03  0.50400001928E-02 0. -1.
        1   -1    0    0  501    0  0.00000000000E+00  0.00000000000E+00 -0.92256957876E+03  0.92256957878E+03  0.50400001928E-02 0.  1.
    10030    2    1    2    0    0  0.00000000000E+00  0.00000000000E+00 -0.78857650886E+03  0.10565626488E+04  0.70318683182E+03 0.  0.
        1    1    3    3  502    0 -0.35192664134E+02  0.17451864588E+03 -0.84983797983E+03  0.86828559435E+03  0.50400001928E-02 0.  1.
       -1    1    3    3    0  502  0.35192664134E+02 -0.17451864588E+03  0.61261470970E+02  0.18827705442E+03  0.50400001928E-02 0. -1.
</event>
<event>
 5   0  0.1079446E-02  0.7008023E+03  0.7818609E-02  0.9715861E-01
       -2   -1    0    0    0  501  0.00000000000E+00  0.00000000000E+00  0.22989043717E+03  0.22989043718E+03  0.25500000920E-02 0. -1.
        2   -1    0    0  501    0  0.00000000000E+00  0.00000000000E+00 -0.53408477677E+03  0.53408477677E+03  0.25500000920E-02 0.  1.
    10030    2    1    2    0    0  0.00000000000E+00  0.00000000000E+00 -0.30419433960E+03  0.76397521396E+03  0.70080234824E+03 0.  0.
        2    1    3    3  502    0  0.31789537699E+02 -0.15495961385E+03 -0.49294435384E+03  0.51770376918E+03  0.25500000920E-02 0.  1.
       -2    1    3    3    0  502 -0.31789537699E+02  0.15495961385E+03  0.18875001424E+03  0.24627144478E+03  0.25500000920E-02 0. -1.
</event>
<event>
 5   0  0.6246998E-03  0.6844714E+03  0.7818609E-02  0.9744163E-01
        1   -1    0    0  501    0  0.00000000000E+00  0.00000000000E+00  0.13203575514E+04  0.13203575514E+04  0.50400001928E-02 0. -1.
       -1   -1    0    0    0  501  0.00000000000E+00  0.00000000000E+00 -0.88707244548E+02  0.88707244692E+02  0.50400001928E-02 0.  1.
    10030    2    1    2    0    0  0.00000000000E+00  0.00000000000E+00  0.12316503068E+04  0.14090647961E+04  0.68447141740E+03 0.  0.
        4    1    3    3  502    0 -0.27185235209E+03 -0.74903925285E+02  0.10150556100E+04  0.10534959912E+04  0.12699999809E+01 0. -1.
       -4    1    3    3    0  502  0.27185235209E+03  0.74903925285E+02  0.21659469686E+03  0.35556880483E+03  0.12699999809E+01 0.  1.
</event>
<event>
 5   0  0.1119786E-02  0.7007642E+03  0.7818609E-02  0.9715926E-01
       -2   -1    0    0    0  501  0.00000000000E+00  0.00000000000E+00  0.99179984352E+02  0.99179984385E+02  0.25500000920E-02 0. -1.
        2   -1    0    0  501    0  0.00000000000E+00  0.00000000000E+00 -0.12378265607E+04  0.12378265607E+04  0.25500000920E-02 0.  1.
    10030    2    1    2    0    0  0.00000000000E+00  0.00000000000E+00 -0.11386465764E+04  0.13370065451E+04  0.70076420840E+03 0.  0.
        3    1    3    3  502    0  0.98044592898E+02  0.33563704496E+03 -0.52654825041E+03  0.63207439306E+03  0.10100000352E+00 0.  1.
       -3    1    3    3    0  502 -0.98044592898E+02 -0.33563704496E+03 -0.61209832595E+03  0.70493215204E+03  0.10100000352E+00 0. -1.
</event>
<event>
 5   0  0.4440500E-03  0.6949730E+03  0.7818609E-02  0.9725868E-01
       -3   -1    0    0    0  501  0.00000000000E+00  0.00000000000E+00  0.35345220704E+03  0.35345222147E+03  0.10100000352E+00 0. -1.
        3   -1    0    0  501    0  0.00000000000E+00  0.00000000000E+00 -0.34162142971E+03  0.34162144464E+03  0.10100000352E+00 0.  1.
    10030    2    1    2    0    0  0.00000000000E+00  0.00000000000E+00  0.11830777337E+02  0.69507366611E+03  0.69497297359E+03 0.  0.
        2    1    3    3  502    0 -0.31382265138E+03 -0.14195908223E+03  0.51854831102E+02  0.34831876358E+03  0.25500000920E-02 0. -1.
       -2    1    3    3    0  502  0.31382265138E+03  0.14195908223E+03 -0.40024053765E+02  0.34675490253E+03  0.25500000920E-02 0.  1.
</event>
<event>
 5   0  0.1100119E-02  0.7002905E+03  0.7818609E-02  0.9716735E-01
       -2   -1    0    0    0  501  0.00000000000E+00  0.00000000000E+00  0.77875389492E+03  0.77875389492E+03  0.25500000920E-02 0.  1.
        2   -1    0    0  501    0  0.00000000000E+00  0.00000000000E+00 -0.15743319092E+03  0.15743319095E+03  0.25500000920E-02 0. -1.
    10030    2    1    2    0    0  0.00000000000E+00  0.00000000000E+00  0.62132070399E+03  0.93618708587E+03  0.70029054151E+03 0.  0.
        4    1    3    3  502    0 -0.34317529583E+03  0.57420345860E+02  0.36301522801E+03  0.50283998295E+03  0.12699999809E+01 0.  1.
       -4    1    3    3    0  502  0.34317529583E+03 -0.57420345860E+02  0.25830547598E+03  0.43334710292E+03  0.12699999809E+01 0. -1.
</event>
<event>
 5   0  0.6689415E-03  0.6999948E+03  0.7818609E-02  0.9717241E-01
        1   -1    0    0  501    0  0.00000000000E+00  0.00000000000E+00  0.52892532972E+03  0.52892532974E+03  0.50400001928E-02 0. -1.
       -1   -1    0    0    0  501  0.00000000000E+00  0.00000000000E+00 -0.23159822422E+03  0.23159822428E+03  0.50400001928E-02 0.  1.
    10030    2    1    2    0    0  0.00000000000E+00  0.00000000000E+00  0.29732710549E+03  0.76052355402E+03  0.69999476324E+03 0.  0.
        1    1    3    3  502    0 -0.26819970858E+03 -0.70481102693E+01  0.39285947404E+03  0.47573030796E+03  0.50400001928E-02 0. -1.
       -1    1    3    3    0  502  0.26819970858E+03  0.70481102693E+01 -0.95532368546E+02  0.28479324607E+03  0.50400001928E-02 0.  1.
</event>
<event>
 5   0  0.1099980E-02  0.7004568E+03  0.7818609E-02  0.9716451E-01
       -2   -1    0    0    0  501  0.00000000000E+00  0.00000000000E+00  0.28104021281E+03  0.28104021282E+03  0.25500000920E-02 0.  1.
        2   -1    0    0  501    0  0.00000000000E+00  0.00000000000E+00 -0.43644977760E+03  0.43644977761E+03  0.25500000920E-02 0. -1.
    10030    2    1    2    0    0  0.00000000000E+00  0.00000000000E+00 -0.15540956479E+03  0.71748999042E+03  0.70045681775E+03 0.  0.
        5    1    3    3  502    0 -0.74166659314E+02 -0.95035612413E+02  0.25908441167E+03  0.28579587707E+03  0.46999998093E+01 0.  1.
       -5    1    3    3    0  502  0.74166659314E+02  0.95035612413E+02 -0.41449397647E+03  0.43169411336E+03  0.46999998093E+01 0. -1.
</event>
<event>
 5   0  0.6990118E-03  0.6965713E+03  0.7818609E-02  0.9723114E-01
        1   -1    0    0  501    0  0.00000000000E+00  0.00000000000E+00  0.61828794091E+03  0.61828794093E+03  0.50400001928E-02 0.  1.
       -1   -1    0    0    0  501  0.00000000000E+00  0.00000000000E+00 -0.19619158010E+03  0.19619158017E+03  0.50400001928E-02 0. -1.
    10030    2    1    2    0    0  0.00000000000E+00  0.00000000000E+00  0.42209636081E+03  0.81447952109E+03  0.69657128312E+03 0.  0.
        5    1    3    3  502    0 -0.51694243556E+02  0.31914014764E+03  0.59682786286E+02  0.32879606693E+03  0.46999998093E+01 0. -1.
       -5    1    3    3    0  502  0.51694243556E+02 -0.31914014764E+03  0.36241357452E+03  0.48568345416E+03  0.46999998093E+01 0.  1.
</event>
<event>
 5   0  0.1109788E-02  0.6980715E+03  0.7818609E-02  0.9720536E-01
        2   -1    0    0  501    0  0.00000000000E+00  0.00000000000E+00  0.10852910359E+04  0.10852910359E+04  0.25500000920E-02 0.  1.
       -2   -1    0    0    0  501  0.00000000000E+00  0.00000000000E+00 -0.11225186337E+03  0.11225186340E+03  0.25500000920E-02 0. -1.
    10030    2    1    2    0    0  0.00000000000E+00  0.00000000000E+00  0.97303917250E+03  0.11975428993E+04  0.69807146081E+03 0.  0.
        1    1    3    3  502    0 -0.19326150690E+03 -0.29050896851E+03  0.50190853103E+03  0.61127542432E+03  0.50400001928E-02 0.  1.
       -1    1    3    3    0  502  0.19326150690E+03  0.29050896851E+03  0.47113064147E+03  0.58626747495E+03  0.50400001928E-02 0. -1.
</event>
<event>
 5   0  0.1119786E-02  0.6992852E+03  0.7818609E-02  0.9718455E-01
        2   -1    0    0  501    0  0.00000000000E+00  0.00000000000E+00  0.11802659732E+04  0.11802659732E+04  0.25500000920E-02 0.  1.
       -2   -1    0    0    0  501  0.00000000000E+00  0.00000000000E+00 -0.10357828920E+03  0.10357828924E+03  0.25500000920E-02 0. -1.
    10030    2    1    2    0    0  0.00000000000E+00  0.00000000000E+00  0.10766876840E+04  0.12838442624E+04  0.69928515022E+03 0.  0.
        3    1    3    3  502    0  0.25284941322E+02 -0.25504222891E+03  0.97498864982E+03  0.10081114741E+04  0.10100000352E+00 0.  1.
       -3    1    3    3    0  502 -0.25284941322E+02  0.25504222891E+03  0.10169903414E+03  0.27573278828E+03  0.10100000352E+00 0. -1.
</event>
<event>
 5   0  0.6246998E-03  0.7007943E+03  0.7818609E-02  0.9715875E-01
       -1   -1    0    0    0  501  0.00000000000E+00  0.00000000000E+00  0.11893263045E+04  0.11893263046E+04  0.50400001928E-02 0. -1.
        1   -1    0    0  501    0  0.00000000000E+00  0.00000000000E+00 -0.10323336013E+03  0.10323336025E+03  0.50400001928E-02 0.  1.
    10030    2    1    2    0    0  0.00000000000E+00  0.00000000000E+00  0.10860929444E+04  0.12925596648E+04  0.70079426594E+03 0.  0.
        4    1    3    3  502    0 -0.12988273921E+02 -0.28601001006E+03  0.17046376522E+03  0.33321153832E+03  0.12699999809E+01 0.  1.
       -4    1    3    3    0  502  0.12988273921E+02  0.28601001006E+03  0.91562917919E+03  0.95934812649E+03  0.12699999809E+01 0. -1.
</event>
<event>
 5   0  0.4440500E-03  0.7115374E+03  0.7818609E-02  0.9697703E-01
        4   -1    0    0  501    0  0.00000000000E+00  0.00000000000E+00  0.43425269371E+03  0.43425455080E+03  0.12699999809E+01 0. -1.
       -4   -1    0    0    0  501  0.00000000000E+00  0.00000000000E+00 -0.29146554698E+03  0.29146831385E+03  0.12699999809E+01 0.  1.
    10030    2    1    2    0    0  0.00000000000E+00  0.00000000000E+00  0.14278714672E+03  0.72572286465E+03  0.71153742488E+03 0.  0.
        4    1    3    3  502    0  0.17182473814E+02  0.32264206397E+03  0.22328063656E+03  0.39274545753E+03  0.12699999809E+01 0. -1.
       -4    1    3    3    0  502 -0.17182473814E+02 -0.32264206397E+03 -0.80493489837E+02  0.33297740712E+03  0.12699999809E+01 0.  1.
</event>
<event>
 5   0  0.1109788E-02  0.6895628E+03  0.7818609E-02  0.9735250E-01
       -2   -1    0    0    0  501  0.00000000000E+00  0.00000000000E+00  0.54633919661E+03  0.54633919662E+03  0.25500000920E-02 0.  1.
        2   -1    0    0  501    0  0.00000000000E+00  0.00000000000E+00 -0.21758316017E+03  0.21758316018E+03  0.25500000920E-02 0. -1.
    10030    2    1    2    0    0  0.00000000000E+00  0.00000000000E+00  0.32875603644E+03  0.76392235680E+03  0.68956278592E+03 0.  0.
        1    1    3    3  502    0  0.17241802345E+03  0.11978002315E+03 -0.13860845703E+03  0.25157013563E+03  0.50400001928E-02 0. -1.
       -1    1    3    3    0  502 -0.17241802345E+03 -0.11978002315E+03  0.46736449347E+03  0.51235222117E+03  0.50400001928E-02 0.  1.
</event>
<event>
 5   0  0.1119786E-02  0.6978643E+03  0.7818609E-02  0.9720892E-01
       -2   -1    0    0    0  501  0.00000000000E+00  0.00000000000E+00  0.21702570636E+03  0.21702570637E+03  0.25500000920E-02 0.  1.
        2   -1    0    0  501    0  0.00000000000E+00  0.00000000000E+00 -0.56101024359E+03  0.56101024360E+03  0.25500000920E-02 0. -1.
    10030    2    1    2    0    0  0.00000000000E+00  0.00000000000E+00 -0.34398453723E+03  0.77803594997E+03  0.69786429741E+03 0.  0.
        3    1    3    3  502    0  0.18333976598E+02 -0.11764527165E+03 -0.53766163501E+03  0.55068737829E+03  0.10100000352E+00 0. -1.
       -3    1    3    3    0  502 -0.18333976598E+02  0.11764527165E+03  0.19367709778E+03  0.22734857168E+03  0.10100000352E+00 0.  1.
</event>
<event>
 5   0  0.6990118E-03  0.7151023E+03  0.7818609E-02  0.9691748E-01
       -1   -1    0    0    0  501  0.00000000000E+00  0.00000000000E+00  0.76961455884E+03  0.76961455886E+03  0.50400001928E-02 0. -1.
        1   -1    0    0  501    0  0.00000000000E+00  0.00000000000E+00 -0.16611281349E+03  0.16611281357E+03  0.50400001928E-02 0.  1.
    10030    2    1    2    0    0  0.00000000000E+00  0.00000000000E+00  0.60350174535E+03  0.93572737242E+03  0.71510234153E+03 0.  0.
        5    1    3    3  502    0  0.29494698228E+03 -0.52444436164E+02  0.55708582168E+03  0.63254315580E+03  0.46999998093E+01 0. -1.
       -5    1    3    3    0  502 -0.29494698228E+03  0.52444436164E+02  0.46415923675E+02  0.30318421662E+03  0.46999998093E+01 0.  1.
</event>
<event>
 5   0  0.1119786E-02  0.6990872E+03  0.7818609E-02  0.9718794E-01
        2   -1    0    0  501    0  0.00000000000E+00  0.00000000000E+00  0.14108587716E+04  0.14108587716E+04  0.25500000920E-02 0.  1.
       -2   -1    0    0    0  501  0.00000000000E+00  0.00000000000E+00 -0.86600266267E+02  0.86600266305E+02  0.25500000920E-02 0. -1.
    10030    2    1    2    0    0  0.00000000000E+00  0.00000000000E+00  0.13242585053E+04  0.14974590379E+04  0.69908724867E+03 0.  0.
        3    1    3    3  502    0 -0.32825118455E+03 -0.94336053284E+01  0.91866157152E+03  0.97559055256E+03  0.10100000352E+00 0.  1.
       -3    1    3    3    0  502  0.32825118455E+03  0.94336053284E+01  0.40559693381E+03  0.52186848534E+03  0.10100000352E+00 0. -1.
</event>
<event>
 5   0  0.6609285E-03  0.7024838E+03  0.7818609E-02  0.9712994E-01
       -1   -1    0    0    0  501  0.00000000000E+00  0.00000000000E+00  0.67218594953E+02  0.67218595141E+02  0.50400001928E-02 0.  1.
        1   -1    0    0  501    0  0.00000000000E+00  0.00000000000E+00 -0.18353682552E+04  0.18353682552E+04  0.50400001928E-02 0. -1.
    10030    2    1    2    0    0  0.00000000000E+00  0.00000000000E+00 -0.17681496603E+04  0.19025868504E+04  0.70248380913E+03 0.  0.
        2    1    3    3  502    0 -0.33570411468E+03 -0.28099556230E+02 -0.61481264153E+03  0.70105735990E+03  0.25500000920E-02 0.  1.
       -2    1    3    3    0  502  0.33570411468E+03  0.28099556230E+02 -0.11533370187E+04  0.12015294905E+04  0.25500000920E-02 0. -1.
</event>
<event>
 5   0  0.6246998E-03  0.6998575E+03  0.7818609E-02  0.9717476E-01
        1   -1    0    0  501    0  0.00000000000E+00  0.00000000000E+00  0.85904505384E+03  0.85904505385E+03  0.50400001928E-02 0. -1.
       -1   -1    0    0    0  501  0.00000000000E+00  0.00000000000E+00 -0.14254216877E+03  0.14254216886E+03  0.50400001928E-02 0.  1.
    10030    2    1    2    0    0  0.00000000000E+00  0.00000000000E+00  0.71650288507E+03  0.10015872227E+04  0.69985754293E+03 0.  0.
        4    1    3    3  502    0  0.32676409023E+03  0.26418186777E+02  0.18311572044E+03  0.37550721861E+03  0.12699999809E+01 0.  1.
       -4    1    3    3    0  502 -0.32676409023E+03 -0.26418186777E+02  0.53338716462E+03  0.62608000411E+03  0.12699999809E+01 0. -1.
</event>
<event>
 5   0  0.1119786E-02  0.7089552E+03  0.7818609E-02  0.9702039E-01
       -2   -1    0    0    0  501  0.00000000000E+00  0.00000000000E+00  0.84804129105E+02  0.84804129143E+02  0.25500000920E-02 0. -1.
        2   -1    0    0  501    0  0.00000000000E+00  0.00000000000E+00 -0.14817009023E+04  0.14817009023E+04  0.25500000920E-02 0.  1.
    10030    2    1    2    0    0  0.00000000000E+00  0.00000000000E+00 -0.13968967732E+04  0.15665050314E+04  0.70895515978E+03 0.  0.
        3    1    3    3  502    0 -0.10798765681E+03  0.32858395702E+03 -0.52692910645E+03  0.63030393006E+03  0.10100000352E+00 0. -1.
       -3    1    3    3    0  502  0.10798765681E+03 -0.32858395702E+03 -0.86996766674E+03  0.93620110137E+03  0.10100000352E+00 0.  1.
</event>
<event>
 5   0  0.6785252E-03  0.7031203E+03  0.7818609E-02  0.9711911E-01
        1   -1    0    0  501    0  0.00000000000E+00  0.00000000000E+00  0.98456295566E+03  0.98456295568E+03  0.50400001928E-02 0.  1.
       -1   -1    0    0    0  501  0.00000000000E+00  0.00000000000E+00 -0.12553239067E+03  0.12553239077E+03  0.50400001928E-02 0. -1.
    10030    2    1    2    0    0  0.00000000000E+00  0.00000000000E+00  0.85903056499E+03  0.11100953464E+04  0.70312030736E+03 0.  0.
        3    1    3    3  502    0  0.13574808443E+03 -0.23209324061E+03  0.71923010894E+02  0.27833027945E+03  0.10100000352E+00 0. -1.
       -3    1    3    3    0  502 -0.13574808443E+03  0.23209324061E+03  0.78710755410E+03  0.83176506700E+03  0.10100000352E+00 0.  1.
</event>
<event>
 5   0  0.6246998E-03  0.6967221E+03  0.7818609E-02  0.9722854E-01
       -1   -1    0    0    0  501  0.00000000000E+00  0.00000000000E+00  0.24553003624E+03  0.24553003630E+03  0.50400001928E-02 0. -1.
        1   -1    0    0  501    0  0.00000000000E+00  0.00000000000E+00 -0.49425900845E+03  0.49425900847E+03  0.50400001928E-02 0.  1.
    10030    2    1    2    0    0  0.00000000000E+00  0.00000000000E+00 -0.24872897220E+03  0.73978904477E+03  0.69672213195E+03 0.  0.
        4    1    3    3  502    0  0.16083414123E+03  0.43567100427E+02 -0.44919634600E+03  0.47910821678E+03  0.12699999809E+01 0.  1.
       -4    1    3    3    0  502 -0.16083414123E+03 -0.43567100427E+02  0.20046737380E+03  0.26068082799E+03  0.12699999809E+01 0. -1.
</event>
<event>
 5   0  0.6609285E-03  0.7003382E+03  0.7818609E-02  0.9716654E-01
       -1   -1    0    0    0  501  0.00000000000E+00  0.00000000000E+00  0.19125744320E+03  0.19125744327E+03  0.50400001928E-02 0. -1.
        1   -1    0    0  501    0  0.00000000000E+00  0.00000000000E+00 -0.64111695728E+03  0.64111695730E+03  0.50400001928E-02 0.  1.
    10030    2    1    2    0    0  0.00000000000E+00  0.00000000000E+00 -0.44985951408E+03  0.83237440056E+03  0.70033817567E+03 0.  0.
        2    1    3    3  502    0 -0.51092551188E+02  0.83838870566E+01  0.18668286639E+03  0.19372978852E+03  0.25500000920E-02 0. -1.
       -2    1    3    3    0  502  0.51092551188E+02 -0.83838870566E+01 -0.63654238047E+03  0.63864461204E+03  0.25500000920E-02 0.  1.
</event>
<event>
 5   0  0.1079446E-02  0.7009911E+03  0.7818609E-02  0.9715539E-01
       -2   -1    0    0    0  501  0.00000000000E+00  0.00000000000E+00  0.13470627692E+03  0.13470627695E+03  0.25500000920E-02 0. -1.
        2   -1    0    0  501    0  0.00000000000E+00  0.00000000000E+00 -0.91196299372E+03  0.91196299372E+03  0.25500000920E-02 0.  1.
    10030    2    1    2    0    0  0.00000000000E+00  0.00000000000E+00 -0.77725671680E+03  0.10466692707E+04  0.70099112574E+03 0.  0.
        2    1    3    3  502    0 -0.25732519704E+03 -0.16704956789E+03 -0.64169180869E+03  0.71125958166E+03  0.25500000920E-02 0.  1.
       -2    1    3    3    0  502  0.25732519704E+03  0.16704956789E+03 -0.13556490811E+03  0.33540968901E+03  0.25500000920E-02 0. -1.
</event>
<event>
 5   0  0.1079446E-02  0.7000463E+03  0.7818609E-02  0.9717153E-01
       -2   -1    0    0    0  501  0.00000000000E+00  0.00000000000E+00  0.30318554988E+03  0.30318554989E+03  0.25500000920E-02 0. -1.
        2   -1    0    0  501    0  0.00000000000E+00  0.00000000000E+00 -0.40409647459E+03  0.40409647460E+03  0.25500000920E-02 0.  1.
    10030    2    1    2    0    0  0.00000000000E+00  0.00000000000E+00 -0.10091092471E+03  0.70728202449E+03  0.70004631807E+03 0.  0.
        2    1    3    3  502    0  0.10782332398E+03 -0.33296356838E+03 -0.55567881180E+02  0.35437042271E+03  0.25500000920E-02 0. -1.
       -2    1    3    3    0  502 -0.10782332398E+03  0.33296356838E+03 -0.45343043534E+02  0.35291160178E+03  0.25500000920E-02 0.  1.
</event>
<event>
 5   0  0.1079446E-02  0.7028533E+03  0.7818609E-02  0.9712365E-01
        2   -1    0    0  501    0  0.00000000000E+00  0.00000000000E+00  0.42249556910E+03  0.42249556910E+03  0.25500000920E-02 0. -1.
       -2   -1    0    0    0  501  0.00000000000E+00  0.00000000000E+00 -0.29231241037E+03  0.29231241038E+03  0.25500000920E-02 0.  1.
    10030    2    1    2    0    0  0.00000000000E+00  0.00000000000E+00  0.13018315873E+03  0.71480797948E+03  0.70285332234E+03 0.  0.
        2    1    3    3  502    0  0.29784584951E+03  0.17186342484E+03  0.13879146980E+03  0.37082645397E+03  0.25500000920E-02 0.  1.
       -2    1    3    3    0  502 -0.29784584951E+03 -0.17186342484E+03 -0.86083110765E+01  0.34398152551E+03  0.25500000920E-02 0. -1.
</event>
<event>
 5   0  0.4440500E-03  0.7014127E+03  0.7818609E-02  0.9714819E-01
        4   -1    0    0  501    0  0.00000000000E+00  0.00000000000E+00  0.10412788357E+03  0.10413562809E+03  0.12699999809E+01 0.  1.
       -4   -1    0    0    0  501  0.00000000000E+00  0.00000000000E+00 -0.11811390882E+04  0.11811397709E+04  0.12699999809E+01 0. -1.
    10030    2    1    2    0    0  0.00000000000E+00  0.00000000000E+00 -0.10770112046E+04  0.12852753990E+04  0.70141265780E+03 0.  0.
        1    1    3    3  502    0 -0.99923158002E+02  0.24507681737E+03 -0.11686160593E+03  0.28931629557E+03  0.50400001928E-02 0.  1.
       -1    1    3    3    0  502  0.99923158002E+02 -0.24507681737E+03 -0.96014959868E+03  0.99595910347E+03  0.50400001928E-02 0. -1.
</event>
<event>
 5   0  0.6246998E-03  0.7028828E+03  0.7818609E-02  0.9712315E-01
        1   -1    0    0  501    0  0.00000000000E+00  0.00000000000E+00  0.29420847093E+03  0.29420847098E+03  0.50400001928E-02 0. -1.
       -1   -1    0    0    0  501  0.00000000000E+00  0.00000000000E+00 -0.41980798929E+03  0.41980798932E+03  0.50400001928E-02 0.  1.
    10030    2    1    2    0    0  0.00000000000E+00  0.00000000000E+00 -0.12559951835E+03  0.71401646029E+03  0.70288282563E+03 0.  0.
        4    1    3    3  502    0 -0.13797880839E+03 -0.70074919876E+02  0.25773084171E+03  0.30062509148E+03  0.12699999809E+01 0. -1.
       -4    1    3    3    0  502  0.13797880839E+03  0.70074919876E+02 -0.38333036006E+03  0.41339136881E+03  0.12699999809E+01 0.  1.
</event>
<event>
 5   0  0.6785252E-03  0.7068456E+03  0.7818609E-02  0.9705596E-01
        1   -1    0    0  501    0  0.00000000000E+00  0.00000000000E+00  0.24346592332E+04  0.24346592332E+04  0.50400001928E-02 0.  1.
       -1   -1    0    0    0  501  0.00000000000E+00  0.00000000000E+00 -0.51303967703E+02  0.51303967950E+02  0.50400001928E-02 0. -1.
    10030    2    1    2    0    0  0.00000000000E+00  0.00000000000E+00  0.23833552655E+04  0.24859632011E+04  0.70684560968E+03 0.  0.
        3    1    3    3  502    0 -0.28034672978E+03  0.68346855498E+02  0.47398849117E+03  0.55491502189E+03  0.10100000352E+00 0. -1.
       -3    1    3    3    0  502  0.28034672978E+03 -0.68346855498E+02  0.19093667743E+04  0.19310481792E+04  0.10100000352E+00 0.  1.
</event>
<event>
 5   0  0.1099980E-02  0.7058272E+03  0.7818609E-02  0.9707319E-01
        2   -1    0    0  501    0  0.00000000000E+00  0.00000000000E+00  0.67314280657E+03  0.67314280657E+03  0.25500000920E-02 0.  1.
       -2   -1    0    0    0  501  0.00000000000E+00  0.00000000000E+00 -0.18502462361E+03  0.18502462363E+03  0.25500000920E-02 0. -1.
    10030    2    1    2    0    0  0.00000000000E+00  0.00000000000E+00  0.48811818296E+03  0.85816743020E+03  0.70582715853E+03 0.  0.
        5    1    3    3  502    0 -0.11045002621E+03 -0.32952120481E+03  0.31843853531E+03  0.47139009693E+03  0.46999998093E+01 0. -1.
       -5    1    3    3    0  502  0.11045002621E+03  0.32952120481E+03  0.16967964765E+03  0.38677733327E+03  0.46999998093E+01 0.  1.
</event>
<event>
 5   0  0.6609285E-03  0.7046020E+03  0.7818609E-02  0.9709394E-01
       -1   -1    0    0    0  501  0.00000000000E+00  0.00000000000E+00  0.18551735229E+03  0.18551735236E+03  0.50400001928E-02 0.  1.
        1   -1    0    0  501    0  0.00000000000E+00  0.00000000000E+00 -0.66902631316E+03  0.66902631318E+03  0.50400001928E-02 0. -1.
    10030    2    1    2    0    0  0.00000000000E+00  0.00000000000E+00 -0.48350896088E+03  0.85454366554E+03  0.70460198769E+03 0.  0.
        2    1    3    3  502    0 -0.29330695051E+03  0.12668737242E+03 -0.42179485570E+03  0.52914039522E+03  0.25500000920E-02 0. -1.
       -2    1    3    3    0  502  0.29330695051E+03 -0.12668737242E+03 -0.61714105176E+02  0.32540327032E+03  0.25500000920E-02 0.  1.
</event>
<event>
 5   0  0.1099980E-02  0.6932479E+03  0.7818609E-02  0.9728849E-01
       -2   -1    0    0    0  501  0.00000000000E+00  0.00000000000E+00  0.51830933039E+02  0.51830933102E+02  0.25500000920E-02 0.  1.
        2   -1    0    0  501    0  0.00000000000E+00  0.00000000000E+00 -0.23180785912E+04  0.23180785912E+04  0.25500000920E-02 0. -1.
    10030    2    1    2    0    0  0.00000000000E+00  0.00000000000E+00 -0.22662476582E+04  0.23699095243E+04  0.69324793924E+03 0.  0.
        5    1    3    3  502    0 -0.12661199134E+03 -0.41370775716E+01 -0.30256098680E+02  0.13032740796E+03  0.46999998093E+01 0.  1.
       -5    1    3    3    0  502  0.12661199134E+03  0.41370775716E+01 -0.22359915595E+04  0.22395821163E+04  0.46999998093E+01 0. -1.
</event>
<event>
 5   0  0.6246998E-03  0.7062076E+03  0.7818609E-02  0.9706675E-01
       -1   -1    0    0    0  501  0.00000000000E+00  0.00000000000E+00  0.27525673542E+03  0.27525673547E+03  0.50400001928E-02 0. -1.
        1   -1    0    0  501    0  0.00000000000E+00  0.00000000000E+00 -0.45296721512E+03  0.45296721514E+03  0.50400001928E-02 0.  1.
    10030    2    1    2    0    0  0.00000000000E+00  0.00000000000E+00 -0.17771047969E+03  0.72822395061E+03  0.70620755281E+03 0.  0.
        4    1    3    3  502    0 -0.32749726896E+03  0.12944934920E+03 -0.11552800233E+03  0.37062100239E+03  0.12699999809E+01 0.  1.
       -4    1    3    3    0  502  0.32749726896E+03 -0.12944934920E+03 -0.62182477369E+02  0.35760294823E+03  0.12699999809E+01 0. -1.
</event>
<event>
 5   0  0.6990118E-03  0.7037786E+03  0.7818609E-02  0.9710792E-01
        1   -1    0    0  501    0  0.00000000000E+00  0.00000000000E+00  0.92583865880E+03  0.92583865881E+03  0.50400001928E-02 0.  1.
       -1   -1    0    0    0  501  0.00000000000E+00  0.00000000000E+00 -0.13374476280E+03  0.13374476290E+03  0.50400001928E-02 0. -1.
    10030    2    1    2    0    0  0.00000000000E+00  0.00000000000E+00  0.79209389600E+03  0.10595834217E+04  0.70377857845E+03 0.  0.
        5    1    3    3  502    0  0.32010982331E+03  0.57043085185E+02  0.59848658671E+03  0.68112590394E+03  0.46999998093E+01 0.  1.
       -5    1    3    3    0  502 -0.32010982331E+03 -0.57043085185E+02  0.19360730929E+03  0.37845751777E+03  0.46999998093E+01 0. -1.
</event>
<event>
 5   0  0.6785252E-03  0.7012143E+03  0.7818609E-02  0.9715158E-01
        1   -1    0    0  501    0  0.00000000000E+00  0.00000000000E+00  0.13926111972E+04  0.13926111972E+04  0.50400001928E-02 0.  1.
       -1   -1    0    0    0  501  0.00000000000E+00  0.00000000000E+00 -0.88269695060E+02  0.88269695204E+02  0.50400001928E-02 0. -1.
    10030    2    1    2    0    0  0.00000000000E+00  0.00000000000E+00  0.13043415021E+04  0.14808808924E+04  0.70121427775E+03 0.  0.
        3    1    3    3  502    0  0.20773054341E+03 -0.54133384277E+02  0.12375959390E+04  0.12560756826E+04  0.10100000352E+00 0.  1.
       -3    1    3    3    0  502 -0.20773054341E+03  0.54133384277E+02  0.66745563116E+02  0.22480520980E+03  0.10100000352E+00 0. -1.
</event>
<event>
 5   0  0.6689415E-03  0.6987015E+03  0.7818609E-02  0.9719455E-01
        1   -1    0    0  501    0  0.00000000000E+00  0.00000000000E+00  0.15851656333E+04  0.15851656333E+04  0.50400001928E-02 0. -1.
       -1   -1    0    0    0  501  0.00000000000E+00  0.00000000000E+00 -0.76992541077E+02  0.76992541242E+02  0.50400001928E-02 0.  1.
    10030    2    1    2    0    0  0.00000000000E+00  0.00000000000E+00  0.15081730922E+04  0.16621581746E+04  0.69870145350E+03 0.  0.
        1    1    3    3  502    0 -0.12362647293E+03  0.73421206243E+02 -0.33376578338E+01  0.14382391428E+03  0.50400001928E-02 0.  1.
       -1    1    3    3    0  502  0.12362647293E+03 -0.73421206243E+02  0.15115107501E+04  0.15183342603E+04  0.50400001928E-02 0. -1.
</event>
<event>
 5   0  0.1100119E-02  0.6993394E+03  0.7818609E-02  0.9718363E-01
       -2   -1    0    0    0  501  0.00000000000E+00  0.00000000000E+00  0.28058049461E+03  0.28058049462E+03  0.25500000920E-02 0.  1.
        2   -1    0    0  501    0  0.00000000000E+00  0.00000000000E+00 -0.43577118261E+03  0.43577118262E+03  0.25500000920E-02 0. -1.
    10030    2    1    2    0    0  0.00000000000E+00  0.00000000000E+00 -0.15519068800E+03  0.71635167724E+03  0.69933938530E+03 0.  0.
        4    1    3    3  502    0  0.14341841372E+03 -0.39853453447E+02  0.24650338889E+03  0.28796297120E+03  0.12699999809E+01 0.  1.
       -4    1    3    3    0  502 -0.14341841372E+03  0.39853453447E+02 -0.40169407690E+03  0.42838870604E+03  0.12699999809E+01 0. -1.
</event>
<event>
 5   0  0.1079446E-02  0.7099261E+03  0.7818609E-02  0.9700406E-01
        2   -1    0    0  501    0  0.00000000000E+00  0.00000000000E+00  0.25775876298E+04  0.25775876298E+04  0.25500000920E-02 0.  1.
       -2   -1    0    0    0  501  0.00000000000E+00  0.00000000000E+00 -0.48882444581E+02  0.48882444647E+02  0.25500000920E-02 0. -1.
    10030    2    1    2    0    0  0.00000000000E+00  0.00000000000E+00  0.25287051852E+04  0.26264700744E+04  0.70992614983E+03 0.  0.
        2    1    3    3  502    0 -0.17372582485E+03 -0.30582006931E+03  0.10872249874E+04  0.11427006389E+04  0.25500000920E-02 0. -1.
       -2    1    3    3    0  502  0.17372582485E+03  0.30582006931E+03  0.14414801978E+04  0.14837694355E+04  0.25500000920E-02 0.  1.
</event>
<event>
 5   0  0.6785252E-03  0.6988636E+03  0.7818609E-02  0.9719178E-01
       -1   -1    0    0    0  501  0.00000000000E+00  0.00000000000E+00  0.45659884429E+03  0.45659884432E+03  0.50400001928E-02 0.  1.
        1   -1    0    0  501    0  0.00000000000E+00  0.00000000000E+00 -0.26741761108E+03  0.26741761112E+03  0.50400001928E-02 0. -1.
    10030    2    1    2    0    0  0.00000000000E+00  0.00000000000E+00  0.18918123321E+03  0.72401645544E+03  0.69886356948E+03 0.  0.
        3    1    3    3  502    0  0.33540646779E+03  0.61214428283E+02  0.15299337821E+02  0.34128988383E+03  0.10100000352E+00 0. -1.
       -3    1    3    3    0  502 -0.33540646779E+03 -0.61214428283E+02  0.17388189539E+03  0.38272657161E+03  0.10100000352E+00 0.  1.
</event>
<event>
 5   0  0.1119786E-02  0.6984484E+03  0.7818609E-02  0.9719889E-01
        2   -1    0    0  501    0  0.00000000000E+00  0.00000000000E+00  0.65183819081E+03  0.65183819081E+03  0.25500000920E-02 0.  1.
       -2   -1    0    0    0  501  0.00000000000E+00  0.00000000000E+00 -0.18709785999E+03  0.18709786000E+03  0.25500000920E-02 0. -1.
    10030    2    1    2    0    0  0.00000000000E+00  0.00000000000E+00  0.46474033082E+03  0.83893605082E+03  0.69844836765E+03 0.  0.
        3    1    3    3  502    0 -0.94141798269E+02 -0.22831352905E+03 -0.64211788673E+02  0.25517231381E+03  0.10100000352E+00 0. -1.
       -3    1    3    3    0  502  0.94141798269E+02  0.22831352905E+03  0.52895211949E+03  0.58376373701E+03  0.10100000352E+00 0.  1.
</event>
<event>
 5   0  0.6246998E-03  0.6984617E+03  0.7818609E-02  0.9719866E-01
       -1   -1    0    0    0  501  0.00000000000E+00  0.00000000000E+00  0.10431193995E+03  0.10431194007E+03  0.50400001928E-02 0.  1.
        1   -1    0    0  501    0  0.00000000000E+00  0.00000000000E+00 -0.11692064427E+04  0.11692064427E+04  0.50400001928E-02 0. -1.
    10030    2    1    2    0    0  0.00000000000E+00  0.00000000000E+00 -0.10648945028E+04  0.12735183828E+04  0.69846171642E+03 0.  0.
        4    1    3    3  502    0 -0.24514371095E+03  0.24122250846E+03 -0.42188672833E+03  0.54431035453E+03  0.12699999809E+01 0.  1.
       -4    1    3    3    0  502  0.24514371095E+03 -0.24122250846E+03 -0.64300777443E+03  0.72920802826E+03  0.12699999809E+01 0. -1.
</event>
<event>
 5   0  0.6246998E-03  0.6994296E+03  0.7818609E-02  0.9718208E-01
        1   -1    0    0  501    0  0.00000000000E+00  0.00000000000E+00  0.20245020636E+04  0.20245020636E+04  0.50400001928E-02 0.  1.
       -1   -1    0    0    0  501  0.00000000000E+00  0.00000000000E+00 -0.60410141814E+02  0.60410142025E+02  0.50400001928E-02 0. -1.
    10030    2    1    2    0    0  0.00000000000E+00  0.00000000000E+00  0.19640919217E+04  0.20849122056E+04  0.69942964475E+03 0.  0.
        4    1    3    3  502    0 -0.28774822053E+03  0.19818116946E+03  0.93742935008E+03  0.10004250165E+04  0.12699999809E+01 0. -1.
       -4    1    3    3    0  502  0.28774822053E+03 -0.19818116946E+03  0.10266625717E+04  0.10844871891E+04  0.12699999809E+01 0.  1.
</event>
<event>
 5   0  0.6990118E-03  0.7013217E+03  0.7818609E-02  0.9714975E-01
       -1   -1    0    0    0  501  0.00000000000E+00  0.00000000000E+00  0.86400777285E+03  0.86400777287E+03  0.50400001928E-02 0.  1.
        1   -1    0    0  501    0  0.00000000000E+00  0.00000000000E+00 -0.14231705548E+03  0.14231705556E+03  0.50400001928E-02 0. -1.
    10030    2    1    2    0    0  0.00000000000E+00  0.00000000000E+00  0.72169071738E+03  0.10063248284E+04  0.70132172986E+03 0.  0.
        5    1    3    3  502    0 -0.19340477537E+03 -0.12475371863E+03 -0.18717060654E+02  0.23095738959E+03  0.46999998093E+01 0. -1.
       -5    1    3    3    0  502  0.19340477537E+03  0.12475371863E+03  0.74040777803E+03  0.77536743884E+03  0.46999998093E+01 0.  1.
</event>
<event>
 5   0  0.1119786E-02  0.7033339E+03  0.7818609E-02  0.9711548E-01
       -2   -1    0    0    0  501  0.00000000000E+00  0.00000000000E+00  0.23241086809E+03  0.23241086811E+03  0.25500000920E-02 0.  1.
        2   -1    0    0  501    0  0.00000000000E+00  0.00000000000E+00 -0.53211651047E+03  0.53211651047E+03  0.25500000920E-02 0. -1.
    10030    2    1    2    0    0  0.00000000000E+00  0.00000000000E+00 -0.29970564237E+03  0.76452737858E+03  0.70333394666E+03 0.  0.
        3    1    3    3  502    0  0.35735985801E+02 -0.11208815663E+02  0.23023679549E+03  0.23326313560E+03  0.10100000352E+00 0.  1.
       -3    1    3    3    0  502 -0.35735985801E+02  0.11208815663E+02 -0.52994243786E+03  0.53126424299E+03  0.10100000352E+00 0. -1.
</event>
<event>
 5   0  0.6246998E-03  0.6995798E+03  0.7818609E-02  0.9717951E-01
       -1   -1    0    0    0  501  0.00000000000E+00  0.00000000000E+00  0.42630476632E+03  0.42630476635E+03  0.50400001928E-02 0.  1.
        1   -1    0    0  501    0  0.00000000000E+00  0.00000000000E+00 -0.28700824088E+03  0.28700824093E+03  0.50400001928E-02 0. -1.
    10030    2    1    2    0    0  0.00000000000E+00  0.00000000000E+00  0.13929652544E+03  0.71331300727E+03  0.69957981985E+03 0.  0.
        4    1    3    3  502    0  0.21878303570E+02 -0.12534209123E+03 -0.26257310013E+03  0.29177996129E+03  0.12699999809E+01 0. -1.
       -4    1    3    3    0  502 -0.21878303570E+02  0.12534209123E+03  0.40186962557E+03  0.42153304598E+03  0.12699999809E+01 0.  1.
</event>
<event>
 5   0  0.1109788E-02  0.6895729E+03  0.7818609E-02  0.9735232E-01
       -2   -1    0    0    0  501  0.00000000000E+00  0.00000000000E+00  0.57433404534E+03  0.57433404535E+03  0.25500000920E-02 0. -1.
        2   -1    0    0  501    0  0.00000000000E+00  0.00000000000E+00 -0.20698356769E+03  0.20698356771E+03  0.25500000920E-02 0.  1.
    10030    2    1    2    0    0  0.00000000000E+00  0.00000000000E+00  0.36735047765E+03  0.78131761305E+03  0.68957293960E+03 0.  0.
        1    1    3    3  502    0  0.24396980979E+03 -0.15788073334E+03 -0.26565389163E+02  0.29181040759E+03  0.50400001928E-02 0.  1.
       -1    1    3    3    0  502 -0.24396980979E+03  0.15788073334E+03  0.39391586681E+03  0.48950720546E+03  0.50400001928E-02 0. -1.
</event>
<event>
 5   0  0.6246998E-03  0.7015904E+03  0.7818609E-02  0.9714516E-01
       -1   -1    0    0    0  501  0.00000000000E+00  0.00000000000E+00  0.62772911218E+03  0.62772911220E+03  0.50400001928E-02 0. -1.
        1   -1    0    0  501    0  0.00000000000E+00  0.00000000000E+00 -0.19603560373E+03  0.19603560380E+03  0.50400001928E-02 0.  1.
    10030    2    1    2    0    0  0.00000000000E+00  0.00000000000E+00  0.43169350845E+03  0.82376471600E+03  0.70159035205E+03 0.  0.
        4    1    3    3  502    0  0.10987317483E+03 -0.85202649595E+02  0.59399255559E+03  0.61004948573E+03  0.12699999809E+01 0. -1.
       -4    1    3    3    0  502 -0.10987317483E+03  0.85202649595E+02 -0.16229904714E+03  0.21371523027E+03  0.12699999809E+01 0.  1.
</event>
<event>
 5   0  0.6990118E-03  0.6981621E+03  0.7818609E-02  0.9720380E-01
        1   -1    0    0  501    0  0.00000000000E+00  0.00000000000E+00  0.36560502249E+03  0.36560502252E+03  0.50400001928E-02 0.  1.
       -1   -1    0    0    0  501  0.00000000000E+00  0.00000000000E+00 -0.33330388407E+03  0.33330388410E+03  0.50400001928E-02 0. -1.
    10030    2    1    2    0    0  0.00000000000E+00  0.00000000000E+00  0.32301138424E+02  0.69890890663E+03  0.69816208449E+03 0.  0.
        5    1    3    3  502    0 -0.31289940639E+02 -0.34081595024E+03  0.84787106279E+02  0.35262659530E+03  0.46999998093E+01 0.  1.
       -5    1    3    3    0  502  0.31289940639E+02  0.34081595024E+03 -0.52485967856E+02  0.34628231133E+03  0.46999998093E+01 0. -1.
</event>
<event>
 5   0  0.4440500E-03  0.6982220E+03  0.7818609E-02  0.9720278E-01
       -3   -1    0    0    0  501  0.00000000000E+00  0.00000000000E+00  0.43890932219E+03  0.43890933381E+03  0.10100000352E+00 0.  1.
        3   -1    0    0  501    0  0.00000000000E+00  0.00000000000E+00 -0.27768485241E+03  0.27768487077E+03  0.10100000352E+00 0. -1.
    10030    2    1    2    0    0  0.00000000000E+00  0.00000000000E+00  0.16122446979E+03  0.71659420459E+03  0.69822197358E+03 0.  0.
        4    1    3    3  502    0  0.48034386081E+01  0.17005702076E+03  0.39348520165E+03  0.42868949153E+03  0.12699999809E+01 0.  1.
       -4    1    3    3    0  502 -0.48034386081E+01 -0.17005702076E+03 -0.23226073186E+03  0.28790471305E+03  0.12699999809E+01 0. -1.
</event>
<event>
 5   0  0.4440500E-03  0.6949293E+03  0.7818609E-02  0.9725943E-01
       -3   -1    0    0    0  501  0.00000000000E+00  0.00000000000E+00  0.35807370245E+03  0.35807371669E+03  0.10100000352E+00 0. -1.
        3   -1    0    0  501    0  0.00000000000E+00  0.00000000000E+00 -0.33716990623E+03  0.33716992136E+03  0.10100000352E+00 0.  1.
    10030    2    1    2    0    0  0.00000000000E+00  0.00000000000E+00  0.20903796215E+02  0.69524363805E+03  0.69492931119E+03 0.  0.
        5    1    3    3  502    0 -0.23092890446E+03 -0.71855572163E+02 -0.23909671820E+03  0.34011867461E+03  0.46999998093E+01 0.  1.
       -5    1    3    3    0  502  0.23092890446E+03  0.71855572163E+02  0.26000051441E+03  0.35512496344E+03  0.46999998093E+01 0. -1.
</event>
<event>
 5   0  0.4440500E-03  0.6958717E+03  0.7818609E-02  0.9724318E-01
       -4   -1    0    0    0  501  0.00000000000E+00  0.00000000000E+00  0.35921504687E+03  0.35921729189E+03  0.12699999809E+01 0. -1.
        4   -1    0    0  501    0  0.00000000000E+00  0.00000000000E+00 -0.33700635038E+03  0.33700874336E+03  0.12699999809E+01 0.  1.
    10030    2    1    2    0    0  0.00000000000E+00  0.00000000000E+00  0.22208696483E+02  0.69622603525E+03  0.69587173097E+03 0.  0.
        5    1    3    3  502    0  0.25596976822E+03  0.56272374527E+02 -0.21781375076E+03  0.34081083080E+03  0.46999998093E+01 0.  1.
       -5    1    3    3    0  502 -0.25596976822E+03 -0.56272374527E+02  0.24002244724E+03  0.35541520445E+03  0.46999998093E+01 0. -1.
</event>
<event>
 5   0  0.4440500E-03  0.7009104E+03  0.7818609E-02  0.9715677E-01
       -3   -1    0    0    0  501  0.00000000000E+00  0.00000000000E+00  0.39393347067E+03  0.39393348362E+03  0.10100000352E+00 0.  1.
        3   -1    0    0  501    0  0.00000000000E+00  0.00000000000E+00 -0.31177558205E+03  0.31177559841E+03  0.10100000352E+00 0. -1.
    10030    2    1    2    0    0  0.00000000000E+00  0.00000000000E+00  0.82157888617E+02  0.70570908203E+03  0.70091040069E+03 0.  0.
        3    1    3    3  502    0 -0.19147929343E+03  0.28053260689E+03  0.12801809474E+03  0.36297590294E+03  0.10100000352E+00 0. -1.
       -3    1    3    3    0  502  0.19147929343E+03 -0.28053260689E+03 -0.45860206121E+02  0.34273317908E+03  0.10100000352E+00 0.  1.
</event>
<event>
 5   0  0.6609285E-03  0.7002970E+03  0.7818609E-02  0.9716724E-01
       -1   -1    0    0    0  501  0.00000000000E+00  0.00000000000E+00  0.19429398697E+03  0.19429398704E+03  0.50400001928E-02 0. -1.
        1   -1    0    0  501    0  0.00000000000E+00  0.00000000000E+00 -0.63102302148E+03  0.63102302150E+03  0.50400001928E-02 0.  1.
    10030    2    1    2    0    0  0.00000000000E+00  0.00000000000E+00 -0.43672903451E+03  0.82531700854E+03  0.70029701913E+03 0.  0.
        2    1    3    3  502    0  0.53089999672E+02 -0.29565177221E+03 -0.43041852909E+03  0.52487010647E+03  0.25500000920E-02 0.  1.
       -2    1    3    3    0  502 -0.53089999672E+02  0.29565177221E+03 -0.63105054197E+01  0.30044690207E+03  0.25500000920E-02 0. -1.
</event>
<event>
 5   0  0.4440500E-03  0.6997312E+03  0.7818609E-02  0.9717692E-01
       -3   -1    0    0    0  501  0.00000000000E+00  0.00000000000E+00  0.94042772299E+03  0.94042772841E+03  0.10100000352E+00 0.  1.
        3   -1    0    0  501    0  0.00000000000E+00  0.00000000000E+00 -0.13015984029E+03  0.13015987948E+03  0.10100000352E+00 0. -1.
    10030    2    1    2    0    0  0.00000000000E+00  0.00000000000E+00  0.81026788269E+03  0.10705876079E+04  0.69973122299E+03 0.  0.
        1    1    3    3  502    0 -0.23732650882E+03  0.15489403883E+03  0.71902573578E+03  0.77286094726E+03  0.50400001928E-02 0.  1.
       -1    1    3    3    0  502  0.23732650882E+03 -0.15489403883E+03  0.91242146912E+02  0.29772666063E+03  0.50400001928E-02 0. -1.
</event>
<event>
 5   0  0.6990118E-03  0.6948371E+03  0.7818609E-02  0.9726102E-01
       -1   -1    0    0    0  501  0.00000000000E+00  0.00000000000E+00  0.12794655869E+03  0.12794655878E+03  0.50400001928E-02 0.  1.
        1   -1    0    0  501    0  0.00000000000E+00  0.00000000000E+00 -0.94335975759E+03  0.94335975761E+03  0.50400001928E-02 0. -1.
    10030    2    1    2    0    0  0.00000000000E+00  0.00000000000E+00 -0.81541319891E+03  0.10713063164E+04  0.69483705902E+03 0.  0.
        5    1    3    3  502    0 -0.21780212970E+03 -0.16363417784E+03 -0.74005016377E+03  0.78861286241E+03  0.46999998093E+01 0. -1.
       -5    1    3    3    0  502  0.21780212970E+03  0.16363417784E+03 -0.75363035138E+02  0.28269345398E+03  0.46999998093E+01 0.  1.
</event>
<event>
 5   0  0.1079446E-02  0.6987485E+03  0.7818609E-02  0.9719375E-01
       -2   -1    0    0    0  501  0.00000000000E+00  0.00000000000E+00  0.77549205774E+03  0.77549205774E+03  0.25500000920E-02 0. -1.
        2   -1    0    0  501    0  0.00000000000E+00  0.00000000000E+00 -0.15739989508E+03  0.15739989510E+03  0.25500000920E-02 0.  1.
    10030    2    1    2    0    0  0.00000000000E+00  0.00000000000E+00  0.61809216266E+03  0.93289195285E+03  0.69874850565E+03 0.  0.
        2    1    3    3  502    0  0.10297603892E+03 -0.31525318867E+03  0.16234571374E+03  0.36924892462E+03  0.25500000920E-02 0.  1.
       -2    1    3    3    0  502 -0.10297603892E+03  0.31525318867E+03  0.45574644891E+03  0.56364302822E+03  0.25500000920E-02 0. -1.
</event>
<event>
 5   0  0.6246998E-03  0.6991629E+03  0.7818609E-02  0.9718665E-01
       -1   -1    0    0    0  501  0.00000000000E+00  0.00000000000E+00  0.29179296838E+03  0.29179296842E+03  0.50400001928E-02 0. -1.
        1   -1    0    0  501    0  0.00000000000E+00  0.00000000000E+00 -0.41881466700E+03  0.41881466703E+03  0.50400001928E-02 0.  1.
    10030    2    1    2    0    0  0.00000000000E+00  0.00000000000E+00 -0.12702169862E+03  0.71060763545E+03  0.69916285630E+03 0.  0.
        4    1    3    3  502    0 -0.32300224458E+02  0.53087091829E+02 -0.41315371995E+03  0.41780276809E+03  0.12699999809E+01 0.  1.
       -4    1    3    3    0  502  0.32300224458E+02 -0.53087091829E+02  0.28613202133E+03  0.29280486735E+03  0.12699999809E+01 0. -1.
</event>
<event>
 5   0  0.6246998E-03  0.7017101E+03  0.7818609E-02  0.9714312E-01
       -1   -1    0    0    0  501  0.00000000000E+00  0.00000000000E+00  0.31469313630E+03  0.31469313634E+03  0.50400001928E-02 0. -1.
        1   -1    0    0  501    0  0.00000000000E+00  0.00000000000E+00 -0.39117240215E+03  0.39117240218E+03  0.50400001928E-02 0.  1.
    10030    2    1    2    0    0  0.00000000000E+00  0.00000000000E+00 -0.76479265848E+02  0.70586553853E+03  0.70171011135E+03 0.  0.
        4    1    3    3  502    0  0.12144495168E+03  0.31956846290E+03  0.41124850443E+02  0.34433376975E+03  0.12699999809E+01 0. -1.
       -4    1    3    3    0  502 -0.12144495168E+03 -0.31956846290E+03 -0.11760411629E+03  0.36153176878E+03  0.12699999809E+01 0.  1.
</event>
<event>
 5   0  0.6689415E-03  0.6989748E+03  0.7818609E-02  0.9718987E-01
        1   -1    0    0  501    0  0.00000000000E+00  0.00000000000E+00  0.68746087517E+03  0.68746087519E+03  0.50400001928E-02 0. -1.
       -1   -1    0    0    0  501  0.00000000000E+00  0.00000000000E+00 -0.17767038250E+03  0.17767038257E+03  0.50400001928E-02 0.  1.
    10030    2    1    2    0    0  0.00000000000E+00  0.00000000000E+00  0.50979049268E+03  0.86513125776E+03  0.69897478261E+03 0.  0.
        1    1    3    3  502    0  0.44643374332E+02  0.26827049771E+03 -0.16780547958E+02  0.27247693045E+03  0.50400001928E-02 0.  1.
       -1    1    3    3    0  502 -0.44643374332E+02 -0.26827049771E+03  0.52657104063E+03  0.59265432731E+03  0.50400001928E-02 0. -1.
</event>
<event>
 5   0  0.4440500E-03  0.6987157E+03  0.7818609E-02  0.9719431E-01
        3   -1    0    0  501    0  0.00000000000E+00  0.00000000000E+00  0.46581930395E+03  0.46581931490E+03  0.10100000352E+00 0. -1.
       -3   -1    0    0    0  501  0.00000000000E+00  0.00000000000E+00 -0.26201337342E+03  0.26201339288E+03  0.10100000352E+00 0.  1.
    10030    2    1    2    0    0  0.00000000000E+00  0.00000000000E+00  0.20380593054E+03  0.72783270779E+03  0.69871567408E+03 0.  0.
        2    1    3    3  502    0  0.10861942330E+01  0.54307594928E+02 -0.25758776737E+03  0.26325264024E+03  0.25500000920E-02 0.  1.
       -2    1    3    3    0  502 -0.10861942330E+01 -0.54307594928E+02  0.46139369791E+03  0.46458006755E+03  0.25500000920E-02 0. -1.
</event>
<event>
 5   0  0.1100119E-02  0.7145708E+03  0.7818609E-02  0.9692634E-01
       -2   -1    0    0    0  501  0.00000000000E+00  0.00000000000E+00  0.38846737465E+03  0.38846737466E+03  0.25500000920E-02 0.  1.
        2   -1    0    0  501    0  0.00000000000E+00  0.00000000000E+00 -0.32860638089E+03  0.32860638090E+03  0.25500000920E-02 0. -1.
    10030    2    1    2    0    0  0.00000000000E+00  0.00000000000E+00  0.59860993762E+02  0.71707375556E+03  0.71457080288E+03 0.  0.
        4    1    3    3  502    0 -0.19840380673E+03  0.71058531403E+02 -0.25958979858E+03  0.33436785407E+03  0.12699999809E+01 0. -1.
       -4    1    3    3    0  502  0.19840380673E+03 -0.71058531403E+02  0.31945079234E+03  0.38270590149E+03  0.12699999809E+01 0.  1.
</event>
<event>
 5   0  0.6689415E-03  0.7315587E+03  0.7818609E-02  0.9664734E-01
        1   -1    0    0  501    0  0.00000000000E+00  0.00000000000E+00  0.68421175038E+03  0.68421175040E+03  0.50400001928E-02 0. -1.
       -1   -1    0    0    0  501  0.00000000000E+00  0.00000000000E+00 -0.19554552704E+03  0.19554552710E+03  0.50400001928E-02 0.  1.
    10030    2    1    2    0    0  0.00000000000E+00  0.00000000000E+00  0.48866622334E+03  0.87975727750E+03  0.73155873960E+03 0.  0.
        1    1    3    3  502    0 -0.35309102295E+03 -0.46917821939E+01  0.35904721075E+03  0.50359724273E+03  0.50400001928E-02 0. -1.
       -1    1    3    3    0  502  0.35309102295E+03  0.46917821939E+01  0.12961901259E+03  0.37616003478E+03  0.50400001928E-02 0.  1.
</event>
<event>
 5   0  0.1100119E-02  0.7034101E+03  0.7818609E-02  0.9711418E-01
       -2   -1    0    0    0  501  0.00000000000E+00  0.00000000000E+00  0.90823715926E+02  0.90823715962E+02  0.25500000920E-02 0.  1.
        2   -1    0    0  501    0  0.00000000000E+00  0.00000000000E+00 -0.13619399240E+04  0.13619399240E+04  0.25500000920E-02 0. -1.
    10030    2    1    2    0    0  0.00000000000E+00  0.00000000000E+00 -0.12711162081E+04  0.14527636400E+04  0.70341010740E+03 0.  0.
        4    1    3    3  502    0  0.43749518761E+02  0.22115888585E+03 -0.78039419233E+02  0.23857291765E+03  0.12699999809E+01 0.  1.
       -4    1    3    3    0  502 -0.43749518761E+02 -0.22115888585E+03 -0.11930767889E+04  0.12141907224E+04  0.12699999809E+01 0. -1.
</event>
<event>
 5   0  0.1119786E-02  0.6803857E+03  0.7818609E-02  0.9751376E-01
       -2   -1    0    0    0  501  0.00000000000E+00  0.00000000000E+00  0.40466507431E+02  0.40466507512E+02  0.25500000920E-02 0. -1.
        2   -1    0    0  501    0  0.00000000000E+00  0.00000000000E+00 -0.28599247742E+04  0.28599247742E+04  0.25500000920E-02 0.  1.
    10030    2    1    2    0    0  0.00000000000E+00  0.00000000000E+00 -0.28194582667E+04  0.29003912817E+04  0.68038567664E+03 0.  0.
        3    1    3    3  502    0  0.16524183028E+03 -0.28249729298E+03 -0.10139118904E+04  0.10654233500E+04  0.10100000352E+00 0. -1.
       -3    1    3    3    0  502 -0.16524183028E+03  0.28249729298E+03 -0.18055463763E+04  0.18349679317E+04  0.10100000352E+00 0.  1.
</event>
<event>
 5   0  0.1109788E-02  0.7036640E+03  0.7818609E-02  0.9710987E-01
        2   -1    0    0  501    0  0.00000000000E+00  0.00000000000E+00  0.43491900800E+03  0.43491900801E+03  0.25500000920E-02 0.  1.
       -2   -1    0    0    0  501  0.00000000000E+00  0.00000000000E+00 -0.28461796579E+03  0.28461796580E+03  0.25500000920E-02 0. -1.
    10030    2    1    2    0    0  0.00000000000E+00  0.00000000000E+00  0.15030104222E+03  0.71953697381E+03  0.70366402024E+03 0.  0.
        1    1    3    3  502    0 -0.21933245759E+03  0.43914638995E+02  0.35284700114E+03  0.41777533282E+03  0.50400001928E-02 0.  1.
       -1    1    3    3    0  502  0.21933245759E+03 -0.43914638995E+02 -0.20254595892E+03  0.30176164099E+03  0.50400001928E-02 0. -1.
</event>
<event>
 5   0  0.1100119E-02  0.7032473E+03  0.7818609E-02  0.9711695E-01
        2   -1    0    0  501    0  0.00000000000E+00  0.00000000000E+00  0.10740444052E+04  0.10740444052E+04  0.25500000920E-02 0.  1.
       -2   -1    0    0    0  501  0.00000000000E+00  0.00000000000E+00 -0.11511552260E+03  0.11511552263E+03  0.25500000920E-02 0. -1.
    10030    2    1    2    0    0  0.00000000000E+00  0.00000000000E+00  0.95892888263E+03  0.11891599279E+04  0.70324727664E+03 0.  0.
        4    1    3    3  502    0 -0.18043003246E+03 -0.28518795051E+03  0.31249247340E+03  0.45993512865E+03  0.12699999809E+01 0. -1.
       -4    1    3    3    0  502  0.18043003246E+03  0.28518795051E+03  0.64643640922E+03  0.72922479922E+03  0.12699999809E+01 0.  1.
</event>
<event>
 5   0  0.6689415E-03  0.7017386E+03  0.7818609E-02  0.9714264E-01
       -1   -1    0    0    0  501  0.00000000000E+00  0.00000000000E+00  0.28814587845E+03  0.28814587850E+03  0.50400001928E-02 0. -1.
        1   -1    0    0  501    0  0.00000000000E+00  0.00000000000E+00 -0.42724627269E+03  0.42724627272E+03  0.50400001928E-02 0.  1.
    10030    2    1    2    0    0  0.00000000000E+00  0.00000000000E+00 -0.13910039424E+03  0.71539215122E+03  0.70173856268E+03 0.  0.
        1    1    3    3  502    0  0.30464854422E+03 -0.10717909308E+03  0.70272155776E+02  0.33050910637E+03  0.50400001928E-02 0. -1.
       -1    1    3    3    0  502 -0.30464854422E+03  0.10717909308E+03 -0.20937255002E+03  0.38488304485E+03  0.50400001928E-02 0.  1.
</event>
<event>
 5   0  0.1119786E-02  0.7010662E+03  0.7818609E-02  0.9715411E-01
       -2   -1    0    0    0  501  0.00000000000E+00  0.00000000000E+00  0.30186963169E+03  0.30186963170E+03  0.25500000920E-02 0.  1.
        2   -1    0    0  501    0  0.00000000000E+00  0.00000000000E+00 -0.40704140297E+03  0.40704140297E+03  0.25500000920E-02 0. -1.
    10030    2    1    2    0    0  0.00000000000E+00  0.00000000000E+00 -0.10517177127E+03  0.70891103468E+03  0.70106615495E+03 0.  0.
        3    1    3    3  502    0  0.17107406675E+02 -0.13194295358E+03 -0.38051685563E+03  0.40310630606E+03  0.10100000352E+00 0. -1.
       -3    1    3    3    0  502 -0.17107406675E+02  0.13194295358E+03  0.27534508436E+03  0.30580472862E+03  0.10100000352E+00 0.  1.
</event>
<event>
 5   0  0.6689415E-03  0.6999206E+03  0.7818609E-02  0.9717368E-01
       -1   -1    0    0    0  501  0.00000000000E+00  0.00000000000E+00  0.14781877010E+03  0.14781877019E+03  0.50400001928E-02 0.  1.
        1   -1    0    0  501    0  0.00000000000E+00  0.00000000000E+00 -0.82852961162E+03  0.82852961164E+03  0.50400001928E-02 0. -1.
    10030    2    1    2    0    0  0.00000000000E+00  0.00000000000E+00 -0.68071084152E+03  0.97634838182E+03  0.69992064759E+03 0.  0.
        1    1    3    3  502    0 -0.28900039419E+03 -0.92752442914E+01 -0.65353849639E+02  0.29644288436E+03  0.50400001928E-02 0.  1.
       -1    1    3    3    0  502  0.28900039419E+03  0.92752442914E+01 -0.61535699188E+03  0.67990549746E+03  0.50400001928E-02 0. -1.
</event>
<event>
 5   0  0.1100119E-02  0.7017176E+03  0.7818609E-02  0.9714299E-01
       -2   -1    0    0    0  501  0.00000000000E+00  0.00000000000E+00  0.15591889920E+03  0.15591889922E+03  0.25500000920E-02 0. -1.
        2   -1    0    0  501    0  0.00000000000E+00  0.00000000000E+00 -0.78952510457E+03  0.78952510457E+03  0.25500000920E-02 0.  1.
    10030    2    1    2    0    0  0.00000000000E+00  0.00000000000E+00 -0.63360620537E+03  0.94544400379E+03  0.70171756485E+03 0.  0.
        4    1    3    3  502    0 -0.23610055252E+03  0.21786679627E+03 -0.50682351227E+03  0.60006757728E+03  0.12699999809E+01 0.  1.
       -4    1    3    3    0  502  0.23610055252E+03 -0.21786679627E+03 -0.12678269311E+03  0.34537642651E+03  0.12699999809E+01 0. -1.
</event>
<event>
 5   0  0.1079446E-02  0.7026745E+03  0.7818609E-02  0.9712669E-01
       -2   -1    0    0    0  501  0.00000000000E+00  0.00000000000E+00  0.12808032543E+03  0.12808032545E+03  0.25500000920E-02 0.  1.
        2   -1    0    0  501    0  0.00000000000E+00  0.00000000000E+00 -0.96375339049E+03  0.96375339050E+03  0.25500000920E-02 0. -1.
    10030    2    1    2    0    0  0.00000000000E+00  0.00000000000E+00 -0.83567306507E+03  0.10918337159E+04  0.70267445635E+03 0.  0.
        2    1    3    3  502    0  0.50055728481E+02 -0.87338699728E+02 -0.94086506853E+03  0.94623501395E+03  0.25500000920E-02 0. -1.
       -2    1    3    3    0  502 -0.50055728481E+02  0.87338699728E+02  0.10519200347E+03  0.14559870200E+03  0.25500000920E-02 0.  1.
</event>
<event>
 5   0  0.1109788E-02  0.6985399E+03  0.7818609E-02  0.9719732E-01
       -2   -1    0    0    0  501  0.00000000000E+00  0.00000000000E+00  0.14253554593E+03  0.14253554595E+03  0.25500000920E-02 0.  1.
        2   -1    0    0  501    0  0.00000000000E+00  0.00000000000E+00 -0.85585317980E+03  0.85585317981E+03  0.25500000920E-02 0. -1.
    10030    2    1    2    0    0  0.00000000000E+00  0.00000000000E+00 -0.71331763388E+03  0.99838872576E+03  0.69853990647E+03 0.  0.
        1    1    3    3  502    0 -0.58378757292E+02  0.59877373457E+02  0.12801553926E+03  0.15290963826E+03  0.50400001928E-02 0.  1.
       -1    1    3    3    0  502  0.58378757292E+02 -0.59877373457E+02 -0.84133317314E+03  0.84547908750E+03  0.50400001928E-02 0. -1.
</event>
<event>
 5   0  0.1109788E-02  0.7015882E+03  0.7818609E-02  0.9714520E-01
       -2   -1    0    0    0  501  0.00000000000E+00  0.00000000000E+00  0.12225312642E+03  0.12225312644E+03  0.25500000920E-02 0. -1.
        2   -1    0    0  501    0  0.00000000000E+00  0.00000000000E+00 -0.10065713741E+04  0.10065713741E+04  0.25500000920E-02 0.  1.
    10030    2    1    2    0    0  0.00000000000E+00  0.00000000000E+00 -0.88431824767E+03  0.11288245005E+04  0.70158819106E+03 0.  0.
        1    1    3    3  502    0  0.18504512582E+03  0.62183227848E+02 -0.91110298042E+03  0.93178167689E+03  0.50400001928E-02 0.  1.
       -1    1    3    3    0  502 -0.18504512582E+03 -0.62183227848E+02  0.26784732757E+02  0.19704282365E+03  0.50400001928E-02 0. -1.
</event>
<event>
 5   0  0.4440500E-03  0.7007557E+03  0.7818609E-02  0.9715941E-01
       -3   -1    0    0    0  501  0.00000000000E+00  0.00000000000E+00  0.54075686580E+03  0.54075687523E+03  0.10100000352E+00 0.  1.
        3   -1    0    0  501    0  0.00000000000E+00  0.00000000000E+00 -0.22702368264E+03  0.22702370511E+03  0.10100000352E+00 0. -1.
    10030    2    1    2    0    0  0.00000000000E+00  0.00000000000E+00  0.31373318315E+03  0.76778058034E+03  0.70075567021E+03 0.  0.
        2    1    3    3  502    0 -0.46871606320E+02 -0.27352707807E+03  0.39121876321E+03  0.47965209330E+03  0.25500000920E-02 0.  1.
       -2    1    3    3    0  502  0.46871606320E+02  0.27352707807E+03 -0.77485580051E+02  0.28812848704E+03  0.25500000920E-02 0. -1.
</event>
<event>
 5   0  0.1079446E-02  0.7003423E+03  0.7818609E-02  0.9716647E-01
       -2   -1    0    0    0  501  0.00000000000E+00  0.00000000000E+00  0.16992964015E+03  0.16992964017E+03  0.25500000920E-02 0.  1.
        2   -1    0    0  501    0  0.00000000000E+00  0.00000000000E+00 -0.72159178242E+03  0.72159178243E+03  0.25500000920E-02 0. -1.
    10030    2    1    2    0    0  0.00000000000E+00  0.00000000000E+00 -0.55166214227E+03  0.89152142259E+03  0.70034229326E+03 0.  0.
        2    1    3    3  502    0 -0.20127346167E+03 -0.27342703520E+03 -0.16672192977E+03  0.37824535929E+03  0.25500000920E-02 0.  1.
       -2    1    3    3    0  502  0.20127346167E+03  0.27342703520E+03 -0.38494021251E+03  0.51327606330E+03  0.25500000920E-02 0. -1.
</event>
<event>
 5   0  0.6609285E-03  0.6899923E+03  0.7818609E-02  0.9734501E-01
        1   -1    0    0  501    0  0.00000000000E+00  0.00000000000E+00  0.53048620300E+03  0.53048620302E+03  0.50400001928E-02 0.  1.
       -1   -1    0    0    0  501  0.00000000000E+00  0.00000000000E+00 -0.22436465190E+03  0.22436465195E+03  0.50400001928E-02 0. -1.
    10030    2    1    2    0    0  0.00000000000E+00  0.00000000000E+00  0.30612155110E+03  0.75485085498E+03  0.68999232547E+03 0.  0.
        2    1    3    3  502    0  0.20923904360E+03 -0.25003914986E+03  0.27645395272E+03  0.42746618791E+03  0.25500000920E-02 0.  1.
       -2    1    3    3    0  502 -0.20923904360E+03  0.25003914986E+03  0.29667598387E+02  0.32738466707E+03  0.25500000920E-02 0. -1.
</event>
<event>
 5   0  0.6609285E-03  0.6940212E+03  0.7818609E-02  0.9727512E-01
       -1   -1    0    0    0  501  0.00000000000E+00  0.00000000000E+00  0.14965029066E+03  0.14965029074E+03  0.50400001928E-02 0.  1.
        1   -1    0    0  501    0  0.00000000000E+00  0.00000000000E+00 -0.80465164533E+03  0.80465164534E+03  0.50400001928E-02 0. -1.
    10030    2    1    2    0    0  0.00000000000E+00  0.00000000000E+00 -0.65500135467E+03  0.95430193608E+03  0.69402118886E+03 0.  0.
        2    1    3    3  502    0  0.58677372538E+02 -0.24724886095E+03 -0.65243150020E+03  0.70017276136E+03  0.25500000920E-02 0. -1.
       -2    1    3    3    0  502 -0.58677372538E+02  0.24724886095E+03 -0.25698544725E+01  0.25412917473E+03  0.25500000920E-02 0.  1.
</event>
<event>
 5   0  0.6246998E-03  0.6868288E+03  0.7818609E-02  0.9740026E-01
       -1   -1    0    0    0  501  0.00000000000E+00  0.00000000000E+00  0.24297789445E+03  0.24297789450E+03  0.50400001928E-02 0. -1.
        1   -1    0    0  501    0  0.00000000000E+00  0.00000000000E+00 -0.48536705080E+03  0.48536705083E+03  0.50400001928E-02 0.  1.
    10030    2    1    2    0    0  0.00000000000E+00  0.00000000000E+00 -0.24238915635E+03  0.72834494532E+03  0.68682884059E+03 0.  0.
        4    1    3    3  502    0  0.27858435433E+03 -0.91025821469E+02  0.68613148555E+02  0.30100551441E+03  0.12699999809E+01 0. -1.
       -4    1    3    3    0  502 -0.27858435433E+03  0.91025821469E+02 -0.31100230491E+03  0.42733943091E+03  0.12699999809E+01 0.  1.
</event>
<event>
 5   0  0.6990118E-03  0.7261607E+03  0.7818609E-02  0.9673511E-01
       -1   -1    0    0    0  501  0.00000000000E+00  0.00000000000E+00  0.30932041951E+03  0.30932041955E+03  0.50400001928E-02 0. -1.
        1   -1    0    0  501    0  0.00000000000E+00  0.00000000000E+00 -0.42618375733E+03  0.42618375736E+03  0.50400001928E-02 0.  1.
    10030    2    1    2    0    0  0.00000000000E+00  0.00000000000E+00 -0.11686333782E+03  0.73550417691E+03  0.72616069470E+03 0.  0.
        5    1    3    3  502    0  0.10523151052E+03  0.23468290300E+03  0.20109859275E+03  0.32651565011E+03  0.46999998093E+01 0. -1.
       -5    1    3    3    0  502 -0.10523151052E+03 -0.23468290300E+03 -0.31796193057E+03  0.40898852680E+03  0.46999998093E+01 0.  1.
</event>
<event>
 5   0  0.6990118E-03  0.6992370E+03  0.7818609E-02  0.9718538E-01
       -1   -1    0    0    0  501  0.00000000000E+00  0.00000000000E+00  0.75022879663E+02  0.75022879832E+02  0.50400001928E-02 0.  1.
        1   -1    0    0  501    0  0.00000000000E+00  0.00000000000E+00 -0.16292776087E+04  0.16292776088E+04  0.50400001928E-02 0. -1.
    10030    2    1    2    0    0  0.00000000000E+00  0.00000000000E+00 -0.15542547291E+04  0.17043004886E+04  0.69923700740E+03 0.  0.
        5    1    3    3  502    0  0.34256828473E+02  0.18907722766E+03 -0.65317676594E+02  0.20300792396E+03  0.46999998093E+01 0.  1.
       -5    1    3    3    0  502 -0.34256828473E+02 -0.18907722766E+03 -0.14889370525E+04  0.15012925646E+04  0.46999998093E+01 0. -1.
</event>
<event>
 5   0  0.1119786E-02  0.6998712E+03  0.7818609E-02  0.9717452E-01
        2   -1    0    0  501    0  0.00000000000E+00  0.00000000000E+00  0.13271403367E+04  0.13271403367E+04  0.25500000920E-02 0. -1.
       -2   -1    0    0    0  501  0.00000000000E+00  0.00000000000E+00 -0.92269775428E+02  0.92269775463E+02  0.25500000920E-02 0.  1.
    10030    2    1    2    0    0  0.00000000000E+00  0.00000000000E+00  0.12348705612E+04  0.14194101121E+04  0.69987124774E+03 0.  0.
        3    1    3    3  502    0  0.23294104706E+03  0.12887403800E+03  0.15680661452E+03  0.30896338559E+03  0.10100000352E+00 0.  1.
       -3    1    3    3    0  502 -0.23294104706E+03 -0.12887403800E+03  0.10780639467E+04  0.11104467265E+04  0.10100000352E+00 0. -1.
</event>
<event>
 5   0  0.1119786E-02  0.7003051E+03  0.7818609E-02  0.9716711E-01
       -2   -1    0    0    0  501  0.00000000000E+00  0.00000000000E+00  0.65821400702E+02  0.65821400751E+02  0.25500000920E-02 0. -1.
        2   -1    0    0  501    0  0.00000000000E+00  0.00000000000E+00 -0.18627194430E+04  0.18627194430E+04  0.25500000920E-02 0.  1.
    10030    2    1    2    0    0  0.00000000000E+00  0.00000000000E+00 -0.17968980423E+04  0.19285408437E+04  0.70030508466E+03 0.  0.
        3    1    3    3  502    0  0.11288895202E+03  0.14528154175E+03 -0.78020421500E+02  0.19984453516E+03  0.10100000352E+00 0. -1.
       -3    1    3    3    0  502 -0.11288895202E+03 -0.14528154175E+03 -0.17188776208E+04  0.17286963086E+04  0.10100000352E+00 0.  1.
</event>
<event>
 5   0  0.6990118E-03  0.6994102E+03  0.7818609E-02  0.9718241E-01
       -1   -1    0    0    0  501  0.00000000000E+00  0.00000000000E+00  0.82675560338E+03  0.82675560340E+03  0.50400001928E-02 0.  1.
        1   -1    0    0  501    0  0.00000000000E+00  0.00000000000E+00 -0.14791994359E+03  0.14791994368E+03  0.50400001928E-02 0. -1.
    10030    2    1    2    0    0  0.00000000000E+00  0.00000000000E+00  0.67883565979E+03  0.97467554708E+03  0.69941015797E+03 0.  0.
        5    1    3    3  502    0 -0.24026230714E+03  0.10944279888E+03  0.65893061556E+03  0.70986995188E+03  0.46999998093E+01 0.  1.
       -5    1    3    3    0  502  0.24026230714E+03 -0.10944279888E+03  0.19905044225E+02  0.26480559519E+03  0.46999998093E+01 0. -1.
</event>
<event>
 5   0  0.1109788E-02  0.6977282E+03  0.7818609E-02  0.9721125E-01
       -2   -1    0    0    0  501  0.00000000000E+00  0.00000000000E+00  0.22346879432E+03  0.22346879434E+03  0.25500000920E-02 0. -1.
        2   -1    0    0  501    0  0.00000000000E+00  0.00000000000E+00 -0.54462265320E+03  0.54462265321E+03  0.25500000920E-02 0.  1.
    10030    2    1    2    0    0  0.00000000000E+00  0.00000000000E+00 -0.32115385888E+03  0.76809144755E+03  0.69772822124E+03 0.  0.
        1    1    3    3  502    0  0.14705609807E+02 -0.14235836084E+03 -0.51081907811E+03  0.53048872603E+03  0.50400001928E-02 0.  1.
       -1    1    3    3    0  502 -0.14705609807E+02  0.14235836084E+03  0.18966521923E+03  0.23760272152E+03  0.50400001928E-02 0. -1.
</event>
<event>
 5   0  0.6609285E-03  0.7004685E+03  0.7818609E-02  0.9716431E-01
        1   -1    0    0  501    0  0.00000000000E+00  0.00000000000E+00  0.57640082752E+03  0.57640082754E+03  0.50400001928E-02 0.  1.
       -1   -1    0    0    0  501  0.00000000000E+00  0.00000000000E+00 -0.21281030012E+03  0.21281030018E+03  0.50400001928E-02 0. -1.
    10030    2    1    2    0    0  0.00000000000E+00  0.00000000000E+00  0.36359052739E+03  0.78921112772E+03  0.70046850929E+03 0.  0.
        2    1    3    3  502    0 -0.26364136177E+03  0.12616934793E+03 -0.35625506731E+02  0.29443955022E+03  0.25500000920E-02 0. -1.
       -2    1    3    3    0  502  0.26364136177E+03 -0.12616934793E+03  0.39921603413E+03  0.49477157750E+03  0.25500000920E-02 0.  1.
</event>
<event>
 5   0  0.1119786E-02  0.6979020E+03  0.7818609E-02  0.9720827E-01
       -2   -1    0    0    0  501  0.00000000000E+00  0.00000000000E+00  0.28636761699E+03  0.28636761700E+03  0.25500000920E-02 0. -1.
        2   -1    0    0  501    0  0.00000000000E+00  0.00000000000E+00 -0.42521144242E+03  0.42521144243E+03  0.25500000920E-02 0.  1.
    10030    2    1    2    0    0  0.00000000000E+00  0.00000000000E+00 -0.13884382543E+03  0.71157905943E+03  0.69790196300E+03 0.  0.
        3    1    3    3  502    0  0.26185503638E+03  0.87362142827E+01  0.16557792682E+03  0.30993618951E+03  0.10100000352E+00 0. -1.
       -3    1    3    3    0  502 -0.26185503638E+03 -0.87362142827E+01 -0.30442175224E+03  0.40164286992E+03  0.10100000352E+00 0.  1.
</event>
<event>
 5   0  0.1100119E-02  0.6955620E+03  0.7818609E-02  0.9724852E-01
       -2   -1    0    0    0  501  0.00000000000E+00  0.00000000000E+00  0.12660263245E+03  0.12660263248E+03  0.25500000920E-02 0.  1.
        2   -1    0    0  501    0  0.00000000000E+00  0.00000000000E+00 -0.95536425044E+03  0.95536425045E+03  0.25500000920E-02 0. -1.
    10030    2    1    2    0    0  0.00000000000E+00  0.00000000000E+00 -0.82876161799E+03  0.10819668829E+04  0.69556201470E+03 0.  0.
        4    1    3    3  502    0 -0.25335248985E+03 -0.14489828518E+03 -0.12019651414E+03  0.31564507294E+03  0.12699999809E+01 0.  1.
       -4    1    3    3    0  502  0.25335248985E+03  0.14489828518E+03 -0.70856510385E+03  0.76632180998E+03  0.12699999809E+01 0. -1.
</event>
<event>
 5   0  0.1099980E-02  0.6996059E+03  0.7818609E-02  0.9717906E-01
        2   -1    0    0  501    0  0.00000000000E+00  0.00000000000E+00  0.34722532146E+03  0.34722532147E+03  0.25500000920E-02 0.  1.
       -2   -1    0    0    0  501  0.00000000000E+00  0.00000000000E+00 -0.35239972083E+03  0.35239972084E+03  0.25500000920E-02 0. -1.
    10030    2    1    2    0    0  0.00000000000E+00  0.00000000000E+00 -0.51743993705E+01  0.69962504231E+03  0.69960590722E+03 0.  0.
        5    1    3    3  502    0 -0.15290088511E+03  0.23460996099E+03  0.20698833426E+03  0.34826250873E+03  0.46999998093E+01 0.  1.
       -5    1    3    3    0  502  0.15290088511E+03 -0.23460996099E+03 -0.21216273363E+03  0.35136253358E+03  0.46999998093E+01 0. -1.
</event>
<event>
 5   0  0.6689415E-03  0.7020321E+03  0.7818609E-02  0.9713763E-01
       -1   -1    0    0    0  501  0.00000000000E+00  0.00000000000E+00  0.41669195894E+03  0.41669195897E+03  0.50400001928E-02 0.  1.
        1   -1    0    0  501    0  0.00000000000E+00  0.00000000000E+00 -0.29569145600E+03  0.29569145604E+03  0.50400001928E-02 0. -1.
    10030    2    1    2    0    0  0.00000000000E+00  0.00000000000E+00  0.12100050294E+03  0.71238341501E+03  0.70203205644E+03 0.  0.
        1    1    3    3  502    0 -0.92744877490E+02 -0.16114594335E+03 -0.24161883307E+03  0.30487585651E+03  0.50400001928E-02 0. -1.
       -1    1    3    3    0  502  0.92744877490E+02  0.16114594335E+03  0.36261933601E+03  0.40750755850E+03  0.50400001928E-02 0.  1.
</event>
<event>
 5   0  0.4440500E-03  0.6985546E+03  0.7818609E-02  0.9719707E-01
        3   -1    0    0  501    0  0.00000000000E+00  0.00000000000E+00  0.41027461097E+03  0.41027462340E+03  0.10100000352E+00 0.  1.
       -3   -1    0    0    0  501  0.00000000000E+00  0.00000000000E+00 -0.29734869601E+03  0.29734871316E+03  0.10100000352E+00 0. -1.
    10030    2    1    2    0    0  0.00000000000E+00  0.00000000000E+00  0.11292591496E+03  0.70762333656E+03  0.69855459642E+03 0.  0.
        1    1    3    3  502    0 -0.88669766575E+02  0.19572645817E+03  0.33539832451E+03  0.39832550765E+03  0.50400001928E-02 0.  1.
       -1    1    3    3    0  502  0.88669766575E+02 -0.19572645817E+03 -0.22247240955E+03  0.30929782891E+03  0.50400001928E-02 0. -1.
</event>
<event>
 5   0  0.6689415E-03  0.7214323E+03  0.7818609E-02  0.9681266E-01
       -1   -1    0    0    0  501  0.00000000000E+00  0.00000000000E+00  0.25085892679E+03  0.25085892684E+03  0.50400001928E-02 0. -1.
        1   -1    0    0  501    0  0.00000000000E+00  0.00000000000E+00 -0.51868249289E+03  0.51868249292E+03  0.50400001928E-02 0.  1.
    10030    2    1    2    0    0  0.00000000000E+00  0.00000000000E+00 -0.26782356610E+03  0.76954141976E+03  0.72143227968E+03 0.  0.
        1    1    3    3  502    0 -0.16986356690E+03 -0.91150007028E+02  0.19130345624E+03  0.27158602235E+03  0.50400001928E-02 0. -1.
       -1    1    3    3    0  502  0.16986356690E+03  0.91150007028E+02 -0.45912702234E+03  0.49795539741E+03  0.50400001928E-02 0.  1.
</event>
<event>
 5   0  0.6246998E-03  0.7006176E+03  0.7818609E-02  0.9716177E-01
       -1   -1    0    0    0  501  0.00000000000E+00  0.00000000000E+00  0.22910588535E+03  0.22910588541E+03  0.50400001928E-02 0. -1.
        1   -1    0    0  501    0  0.00000000000E+00  0.00000000000E+00 -0.53563113679E+03  0.53563113681E+03  0.50400001928E-02 0.  1.
    10030    2    1    2    0    0  0.00000000000E+00  0.00000000000E+00 -0.30652525144E+03  0.76473702222E+03  0.70061757285E+03 0.  0.
        4    1    3    3  502    0  0.81250808337E+02 -0.24868953015E+03 -0.40753362056E+03  0.48428652784E+03  0.12699999809E+01 0.  1.
       -4    1    3    3    0  502 -0.81250808337E+02  0.24868953015E+03  0.10100836913E+03  0.28045049437E+03  0.12699999809E+01 0. -1.
</event>
<event>
 5   0  0.6785252E-03  0.6993911E+03  0.7818609E-02  0.9718274E-01
        1   -1    0    0  501    0  0.00000000000E+00  0.00000000000E+00  0.11476000167E+04  0.11476000167E+04  0.50400001928E-02 0. -1.
       -1   -1    0    0    0  501  0.00000000000E+00  0.00000000000E+00 -0.10655887920E+03  0.10655887932E+03  0.50400001928E-02 0.  1.
    10030    2    1    2    0    0  0.00000000000E+00  0.00000000000E+00  0.10410411375E+04  0.12541588960E+04  0.69939108266E+03 0.  0.
        3    1    3    3  502    0  0.98030973960E+02 -0.17946393414E+03  0.10292048942E+04  0.10493236393E+04  0.10100000352E+00 0. -1.
       -3    1    3    3    0  502 -0.98030973960E+02  0.17946393414E+03  0.11836243206E+02  0.20483525665E+03  0.10100000352E+00 0.  1.
</event>
<event>
 5   0  0.1119786E-02  0.7008172E+03  0.7818609E-02  0.9715836E-01
        2   -1    0    0  501    0  0.00000000000E+00  0.00000000000E+00  0.14360068579E+04  0.14360068579E+04  0.25500000920E-02 0. -1.
       -2   -1    0    0    0  501  0.00000000000E+00  0.00000000000E+00 -0.85505284868E+02  0.85505284906E+02  0.25500000920E-02 0.  1.
    10030    2    1    2    0    0  0.00000000000E+00  0.00000000000E+00  0.13505015730E+04  0.15215121428E+04  0.70081716727E+03 0.  0.
        3    1    3    3  502    0 -0.22655842152E+03  0.15814786151E+03  0.11431454870E+04  0.11760616817E+04  0.10100000352E+00 0. -1.
       -3    1    3    3    0  502  0.22655842152E+03 -0.15814786151E+03  0.20735608596E+03  0.34545046106E+03  0.10100000352E+00 0.  1.
</event>
<event>
 5   0  0.6609285E-03  0.7006757E+03  0.7818609E-02  0.9716077E-01
        1   -1    0    0  501    0  0.00000000000E+00  0.00000000000E+00  0.17112248258E+04  0.17112248258E+04  0.50400001928E-02 0. -1.
       -1   -1    0    0    0  501  0.00000000000E+00  0.00000000000E+00 -0.71724427955E+02  0.71724428132E+02  0.50400001928E-02 0.  1.
    10030    2    1    2    0    0  0.00000000000E+00  0.00000000000E+00  0.16395003978E+04  0.17829492539E+04  0.70067573640E+03 0.  0.
        2    1    3    3  502    0 -0.10129906636E+03  0.23630291021E+03  0.14253258487E+04  0.14483281193E+04  0.25500000920E-02 0. -1.
       -2    1    3    3    0  502  0.10129906636E+03 -0.23630291021E+03  0.21417454910E+03  0.33462113458E+03  0.25500000920E-02 0.  1.
</event>
<event>
 5   0  0.6609285E-03  0.7003258E+03  0.7818609E-02  0.9716675E-01
        1   -1    0    0  501    0  0.00000000000E+00  0.00000000000E+00  0.31068004676E+03  0.31068004680E+03  0.50400001928E-02 0. -1.
       -1   -1    0    0    0  501  0.00000000000E+00  0.00000000000E+00 -0.39466341555E+03  0.39466341558E+03  0.50400001928E-02 0.  1.
    10030    2    1    2    0    0  0.00000000000E+00  0.00000000000E+00 -0.83983368791E+02  0.70534346238E+03  0.70032577682E+03 0.  0.
        2    1    3    3  502    0  0.11853653936E+03  0.42920036171E+02  0.28703073569E+03  0.31349590732E+03  0.25500000920E-02 0. -1.
       -2    1    3    3    0  502 -0.11853653936E+03 -0.42920036171E+02 -0.37101410449E+03  0.39184755505E+03  0.25500000920E-02 0.  1.
</event>
<event>
 5   0  0.6785252E-03  0.7002849E+03  0.7818609E-02  0.9716745E-01
        1   -1    0    0  501    0  0.00000000000E+00  0.00000000000E+00  0.11775640258E+04  0.11775640259E+04  0.50400001928E-02 0. -1.
       -1   -1    0    0    0  501  0.00000000000E+00  0.00000000000E+00 -0.10411300537E+03  0.10411300549E+03  0.50400001928E-02 0.  1.
    10030    2    1    2    0    0  0.00000000000E+00  0.00000000000E+00  0.10734510205E+04  0.12816770314E+04  0.70028488441E+03 0.  0.
        3    1    3    3  502    0 -0.14332253905E+03 -0.15102007412E+03  0.10519625364E+04  0.10723682209E+04  0.10100000352E+00 0. -1.
       -3    1    3    3    0  502  0.14332253905E+03  0.15102007412E+03  0.21488484076E+02  0.20930881046E+03  0.10100000352E+00 0.  1.
</event>
<event>
 5   0  0.6246998E-03  0.7025625E+03  0.7818609E-02  0.9712860E-01
        1   -1    0    0  501    0  0.00000000000E+00  0.00000000000E+00  0.11461660912E+04  0.11461660912E+04  0.50400001928E-02 0. -1.
       -1   -1    0    0    0  501  0.00000000000E+00  0.00000000000E+00 -0.10766197491E+03  0.10766197503E+03  0.50400001928E-02 0.  1.
    10030    2    1    2    0    0  0.00000000000E+00  0.00000000000E+00  0.10385041163E+04  0.12538280663E+04  0.70256246709E+03 0.  0.
        4    1    3    3  502    0 -0.34078315409E+03  0.14504173461E+02  0.36936947848E+03  0.50277127374E+03  0.12699999809E+01 0. -1.
       -4    1    3    3    0  502  0.34078315409E+03 -0.14504173461E+02  0.66913463784E+03  0.75105679254E+03  0.12699999809E+01 0.  1.
</event>
<event>
 5   0  0.1079446E-02  0.7307041E+03  0.7818609E-02  0.9666118E-01
       -2   -1    0    0    0  501  0.00000000000E+00  0.00000000000E+00  0.13509263765E+03  0.13509263768E+03  0.25500000920E-02 0. -1.
        2   -1    0    0  501    0  0.00000000000E+00  0.00000000000E+00 -0.98807847816E+03  0.98807847817E+03  0.25500000920E-02 0.  1.
    10030    2    1    2    0    0  0.00000000000E+00  0.00000000000E+00 -0.85298584051E+03  0.11231711158E+04  0.73070412025E+03 0.  0.
        2    1    3    3  502    0  0.33705011410E+03 -0.10758321446E+03 -0.56657398294E+03  0.66796931486E+03  0.25500000920E-02 0.  1.
       -2    1    3    3    0  502 -0.33705011410E+03  0.10758321446E+03 -0.28641185758E+03  0.45520180098E+03  0.25500000920E-02 0. -1.
</event>
<event>
 5   0  0.1099980E-02  0.6974875E+03  0.7818609E-02  0.9721539E-01
        2   -1    0    0  501    0  0.00000000000E+00  0.00000000000E+00  0.12763973474E+04  0.12763973474E+04  0.25500000920E-02 0.  1.
       -2   -1    0    0    0  501  0.00000000000E+00  0.00000000000E+00 -0.95285529660E+02  0.95285529694E+02  0.25500000920E-02 0. -1.
    10030    2    1    2    0    0  0.00000000000E+00  0.00000000000E+00  0.11811118178E+04  0.13716828771E+04  0.69748748327E+03 0.  0.
        5    1    3    3  502    0  0.15453377238E+03  0.30494972445E+03  0.45537288357E+03  0.56943970210E+03  0.46999998093E+01 0. -1.
       -5    1    3    3    0  502 -0.15453377238E+03 -0.30494972445E+03  0.72573893419E+03  0.80224317501E+03  0.46999998093E+01 0.  1.
</event>
<event>
 5   0  0.1119786E-02  0.7004871E+03  0.7818609E-02  0.9716400E-01
       -2   -1    0    0    0  501  0.00000000000E+00  0.00000000000E+00  0.69354614754E+02  0.69354614801E+02  0.25500000920E-02 0. -1.
        2   -1    0    0  501    0  0.00000000000E+00  0.00000000000E+00 -0.17687439394E+04  0.17687439394E+04  0.25500000920E-02 0.  1.
    10030    2    1    2    0    0  0.00000000000E+00  0.00000000000E+00 -0.16993893246E+04  0.18380985542E+04  0.70048712924E+03 0.  0.
        3    1    3    3  502    0  0.11727134583E+03 -0.24228338480E+03 -0.26167360404E+03  0.37540230734E+03  0.10100000352E+00 0. -1.
       -3    1    3    3    0  502 -0.11727134583E+03  0.24228338480E+03 -0.14377157206E+04  0.14626962468E+04  0.10100000352E+00 0.  1.
</event>
<event>
 5   0  0.1099980E-02  0.6982642E+03  0.7818609E-02  0.9720205E-01
        2   -1    0    0  501    0  0.00000000000E+00  0.00000000000E+00  0.90339501806E+03  0.90339501807E+03  0.25500000920E-02 0.  1.
       -2   -1    0    0    0  501  0.00000000000E+00  0.00000000000E+00 -0.13492795216E+03  0.13492795218E+03  0.25500000920E-02 0. -1.
    10030    2    1    2    0    0  0.00000000000E+00  0.00000000000E+00  0.76846706590E+03  0.10383229703E+04  0.69826424738E+03 0.  0.
        5    1    3    3  502    0  0.31023734536E+02 -0.13674190905E+03 -0.91167418916E+02  0.16731530135E+03  0.46999998093E+01 0. -1.
       -5    1    3    3    0  502 -0.31023734536E+02  0.13674190905E+03  0.85963448482E+03  0.87100766890E+03  0.46999998093E+01 0.  1.
</event>
<event>
 5   0  0.6246998E-03  0.6929434E+03  0.7818609E-02  0.9729377E-01
       -1   -1    0    0    0  501  0.00000000000E+00  0.00000000000E+00  0.79747392261E+02  0.79747392420E+02  0.50400001928E-02 0. -1.
        1   -1    0    0  501    0  0.00000000000E+00  0.00000000000E+00 -0.15052860093E+04  0.15052860093E+04  0.50400001928E-02 0.  1.
    10030    2    1    2    0    0  0.00000000000E+00  0.00000000000E+00 -0.14255386170E+04  0.15850334017E+04  0.69294338579E+03 0.  0.
        4    1    3    3  502    0 -0.17390120213E+03 -0.28058981347E+03 -0.95342156896E+03  0.10089532063E+04  0.12699999809E+01 0. -1.
       -4    1    3    3    0  502  0.17390120213E+03  0.28058981347E+03 -0.47211704804E+03  0.57608019535E+03  0.12699999809E+01 0.  1.
</event>
<event>
 5   0  0.6785252E-03  0.6990553E+03  0.7818609E-02  0.9718849E-01
        1   -1    0    0  501    0  0.00000000000E+00  0.00000000000E+00  0.60769689821E+03  0.60769689823E+03  0.50400001928E-02 0.  1.
       -1   -1    0    0    0  501  0.00000000000E+00  0.00000000000E+00 -0.20103705330E+03  0.20103705336E+03  0.50400001928E-02 0. -1.
    10030    2    1    2    0    0  0.00000000000E+00  0.00000000000E+00  0.40665984491E+03  0.80873395160E+03  0.69905534474E+03 0.  0.
        3    1    3    3  502    0  0.28290326372E+03 -0.16796632582E+03  0.33983692075E+03  0.47300749058E+03  0.10100000352E+00 0.  1.
       -3    1    3    3    0  502 -0.28290326372E+03  0.16796632582E+03  0.66822924160E+02  0.33572646102E+03  0.10100000352E+00 0. -1.
</event>
<event>
 5   0  0.6785252E-03  0.6976445E+03  0.7818609E-02  0.9721269E-01
        1   -1    0    0  501    0  0.00000000000E+00  0.00000000000E+00  0.11566493835E+04  0.11566493835E+04  0.50400001928E-02 0.  1.
       -1   -1    0    0    0  501  0.00000000000E+00  0.00000000000E+00 -0.10519780382E+03  0.10519780395E+03  0.50400001928E-02 0. -1.
    10030    2    1    2    0    0  0.00000000000E+00  0.00000000000E+00  0.10514515797E+04  0.12618471874E+04  0.69764453705E+03 0.  0.
        3    1    3    3  502    0 -0.28946537133E+03  0.19035318106E+03  0.45220094567E+03  0.56965800284E+03  0.10100000352E+00 0.  1.
       -3    1    3    3    0  502  0.28946537133E+03 -0.19035318106E+03  0.59925063398E+03  0.69218918459E+03  0.10100000352E+00 0. -1.
</event>
<event>
 5   0  0.6785252E-03  0.6933596E+03  0.7818609E-02  0.9728656E-01
       -1   -1    0    0    0  501  0.00000000000E+00  0.00000000000E+00  0.79722256873E+03  0.79722256875E+03  0.50400001928E-02 0. -1.
        1   -1    0    0  501    0  0.00000000000E+00  0.00000000000E+00 -0.15075699290E+03  0.15075699299E+03  0.50400001928E-02 0.  1.
    10030    2    1    2    0    0  0.00000000000E+00  0.00000000000E+00  0.64646557583E+03  0.94797956173E+03  0.69335958112E+03 0.  0.
        3    1    3    3  502    0  0.15526898825E+03  0.26086177397E+03  0.55213419515E+03  0.63008690153E+03  0.10100000352E+00 0.  1.
       -3    1    3    3    0  502 -0.15526898825E+03 -0.26086177397E+03  0.94331380676E+02  0.31789266020E+03  0.10100000352E+00 0. -1.
</event>
<event>
 5   0  0.1079446E-02  0.7085196E+03  0.7818609E-02  0.9702772E-01
       -2   -1    0    0    0  501  0.00000000000E+00  0.00000000000E+00  0.37243043331E+03  0.37243043332E+03  0.25500000920E-02 0. -1.
        2   -1    0    0  501    0  0.00000000000E+00  0.00000000000E+00 -0.33697573649E+03  0.33697573650E+03  0.25500000920E-02 0.  1.
    10030    2    1    2    0    0  0.00000000000E+00  0.00000000000E+00  0.35454696816E+02  0.70940616982E+03  0.70851963858E+03 0.  0.
        2    1    3    3  502    0 -0.24511879166E+02 -0.75107049754E+02  0.36349713777E+03  0.37198396513E+03  0.25500000920E-02 0. -1.
       -2    1    3    3    0  502  0.24511879166E+02  0.75107049754E+02 -0.32804244095E+03  0.33742220469E+03  0.25500000920E-02 0.  1.
</event>
<event>
 5   0  0.1119786E-02  0.7005606E+03  0.7818609E-02  0.9716274E-01
        2   -1    0    0  501    0  0.00000000000E+00  0.00000000000E+00  0.53644667073E+03  0.53644667074E+03  0.25500000920E-02 0.  1.
       -2   -1    0    0    0  501  0.00000000000E+00  0.00000000000E+00 -0.22872040932E+03  0.22872040934E+03  0.25500000920E-02 0. -1.
    10030    2    1    2    0    0  0.00000000000E+00  0.00000000000E+00  0.30772626141E+03  0.76516708007E+03  0.70056063868E+03 0.  0.
        3    1    3    3  502    0 -0.29623271219E+03  0.13056132241E+03  0.77493705330E+01  0.32382115685E+03  0.10100000352E+00 0. -1.
       -3    1    3    3    0  502  0.29623271219E+03 -0.13056132241E+03  0.29997689088E+03  0.44134592322E+03  0.10100000352E+00 0.  1.
</event>
<event>
 5   0  0.1119786E-02  0.6936341E+03  0.7818609E-02  0.9728181E-01
        2   -1    0    0  501    0  0.00000000000E+00  0.00000000000E+00  0.11321626713E+04  0.11321626713E+04  0.25500000920E-02 0. -1.
       -2   -1    0    0    0  501  0.00000000000E+00  0.00000000000E+00 -0.10624097918E+03  0.10624097921E+03  0.25500000920E-02 0.  1.
    10030    2    1    2    0    0  0.00000000000E+00  0.00000000000E+00  0.10259216921E+04  0.12384036505E+04  0.69363411337E+03 0.  0.
        3    1    3    3  502    0  0.27821073044E+02  0.34518363558E+03  0.47925979183E+03  0.59128310702E+03  0.10100000352E+00 0. -1.
       -3    1    3    3    0  502 -0.27821073044E+02 -0.34518363558E+03  0.54666190024E+03  0.64712054345E+03  0.10100000352E+00 0.  1.
</event>
<event>
 5   0  0.6609285E-03  0.6990436E+03  0.7818609E-02  0.9718869E-01
        1   -1    0    0  501    0  0.00000000000E+00  0.00000000000E+00  0.45307513453E+03  0.45307513456E+03  0.50400001928E-02 0.  1.
       -1   -1    0    0    0  501  0.00000000000E+00  0.00000000000E+00 -0.26963630607E+03  0.26963630611E+03  0.50400001928E-02 0. -1.
    10030    2    1    2    0    0  0.00000000000E+00  0.00000000000E+00  0.18343882847E+03  0.72271144067E+03  0.69904364863E+03 0.  0.
        2    1    3    3  502    0 -0.24079001137E+03  0.13376598263E+03 -0.13072176729E+03  0.30489563482E+03  0.25500000920E-02 0. -1.
       -2    1    3    3    0  502  0.24079001137E+03 -0.13376598263E+03  0.31416059576E+03  0.41781580585E+03  0.25500000920E-02 0.  1.
</event>
<event>
 5   0  0.1100119E-02  0.6992734E+03  0.7818609E-02  0.9718476E-01
        2   -1    0    0  501    0  0.00000000000E+00  0.00000000000E+00  0.84047615367E+03  0.84047615367E+03  0.25500000920E-02 0. -1.
       -2   -1    0    0    0  501  0.00000000000E+00  0.00000000000E+00 -0.14544827409E+03  0.14544827412E+03  0.25500000920E-02 0.  1.
    10030    2    1    2    0    0  0.00000000000E+00  0.00000000000E+00  0.69502787957E+03  0.98592442779E+03  0.69927335422E+03 0.  0.
        4    1    3    3  502    0  0.94039362728E+02  0.91567236132E+02  0.80441783903E+03  0.81505682816E+03  0.12699999809E+01 0. -1.
       -4    1    3    3    0  502 -0.94039362728E+02 -0.91567236132E+02 -0.10938995945E+03  0.17086759963E+03  0.12699999809E+01 0.  1.
</event>
<event>
 5   0  0.1119786E-02  0.6795303E+03  0.7818609E-02  0.9752893E-01
       -2   -1    0    0    0  501  0.00000000000E+00  0.00000000000E+00  0.11130046954E+03  0.11130046956E+03  0.25500000920E-02 0. -1.
        2   -1    0    0  501    0  0.00000000000E+00  0.00000000000E+00 -0.10371955925E+04  0.10371955925E+04  0.25500000920E-02 0.  1.
    10030    2    1    2    0    0  0.00000000000E+00  0.00000000000E+00 -0.92589512296E+03  0.11484960621E+04  0.67953029797E+03 0.  0.
        3    1    3    3  502    0 -0.20332617507E+03 -0.26672034911E+03 -0.37100890142E+03  0.50012887662E+03  0.10100000352E+00 0. -1.
       -3    1    3    3    0  502  0.20332617507E+03  0.26672034911E+03 -0.55488622155E+03  0.64836718544E+03  0.10100000352E+00 0.  1.
</event>
<event>
 5   0  0.1119786E-02  0.6919080E+03  0.7818609E-02  0.9731172E-01
       -2   -1    0    0    0  501  0.00000000000E+00  0.00000000000E+00  0.11460187029E+03  0.11460187032E+03  0.25500000920E-02 0.  1.
        2   -1    0    0  501    0  0.00000000000E+00  0.00000000000E+00 -0.10443474422E+04  0.10443474422E+04  0.25500000920E-02 0. -1.
    10030    2    1    2    0    0  0.00000000000E+00  0.00000000000E+00 -0.92974557193E+03  0.11589493125E+04  0.69190800004E+03 0.  0.
        3    1    3    3  502    0 -0.71305971362E+02  0.23252506137E+03 -0.52768077430E+02  0.24887130392E+03  0.10100000352E+00 0.  1.
       -3    1    3    3    0  502  0.71305971362E+02 -0.23252506137E+03 -0.87697749450E+03  0.91007800863E+03  0.10100000352E+00 0. -1.
</event>
<event>
 5   0  0.4440500E-03  0.6971229E+03  0.7818609E-02  0.9722165E-01
       -3   -1    0    0    0  501  0.00000000000E+00  0.00000000000E+00  0.22722548812E+03  0.22722551056E+03  0.10100000352E+00 0. -1.
        3   -1    0    0  501    0  0.00000000000E+00  0.00000000000E+00 -0.53468950486E+03  0.53468951439E+03  0.10100000352E+00 0.  1.
    10030    2    1    2    0    0  0.00000000000E+00  0.00000000000E+00 -0.30746401674E+03  0.76191502496E+03  0.69712293297E+03 0.  0.
        4    1    3    3  502    0 -0.15569392381E+02 -0.31972097521E+03 -0.30450088995E+03  0.44179895071E+03  0.12699999809E+01 0.  1.
       -4    1    3    3    0  502  0.15569392381E+02  0.31972097521E+03 -0.29631267881E+01  0.32011607425E+03  0.12699999809E+01 0. -1.
</event>
<event>
 5   0  0.1119786E-02  0.6985149E+03  0.7818609E-02  0.9719775E-01
       -2   -1    0    0    0  501  0.00000000000E+00  0.00000000000E+00  0.87775138174E+02  0.87775138211E+02  0.25500000920E-02 0.  1.
        2   -1    0    0  501    0  0.00000000000E+00  0.00000000000E+00 -0.13896962664E+04  0.13896962664E+04  0.25500000920E-02 0. -1.
    10030    2    1    2    0    0  0.00000000000E+00  0.00000000000E+00 -0.13019211282E+04  0.14774714046E+04  0.69851494424E+03 0.  0.
        3    1    3    3  502    0  0.27966478882E+03 -0.19855082776E+03 -0.51152114622E+03  0.61586420463E+03  0.10100000352E+00 0. -1.
       -3    1    3    3    0  502 -0.27966478882E+03  0.19855082776E+03 -0.79039998201E+03  0.86160719999E+03  0.10100000352E+00 0.  1.
</event>
<event>
 5   0  0.1099980E-02  0.6951042E+03  0.7818609E-02  0.9725641E-01
        2   -1    0    0  501    0  0.00000000000E+00  0.00000000000E+00  0.36806829049E+03  0.36806829049E+03  0.25500000920E-02 0. -1.
       -2   -1    0    0    0  501  0.00000000000E+00  0.00000000000E+00 -0.32817949059E+03  0.32817949060E+03  0.25500000920E-02 0.  1.
    10030    2    1    2    0    0  0.00000000000E+00  0.00000000000E+00  0.39888799899E+02  0.69624778109E+03  0.69510420536E+03 0.  0.
        5    1    3    3  502    0  0.25102795357E+03  0.19195241169E+03 -0.12489506032E+03  0.33982587882E+03  0.46999998093E+01 0.  1.
       -5    1    3    3    0  502 -0.25102795357E+03 -0.19195241169E+03  0.16478386022E+03  0.35642190227E+03  0.46999998093E+01 0. -1.
</event>
<event>
 5   0  0.6785252E-03  0.6956923E+03  0.7818609E-02  0.9724627E-01
       -1   -1    0    0    0  501  0.00000000000E+00  0.00000000000E+00  0.23504860597E+03  0.23504860602E+03  0.50400001928E-02 0. -1.
        1   -1    0    0  501    0  0.00000000000E+00  0.00000000000E+00 -0.51477410837E+03  0.51477410840E+03  0.50400001928E-02 0.  1.
    10030    2    1    2    0    0  0.00000000000E+00  0.00000000000E+00 -0.27972550240E+03  0.74982271442E+03  0.69569227850E+03 0.  0.
        3    1    3    3  502    0 -0.21512321837E+03 -0.40858409453E+02 -0.43116919110E+03  0.48358483254E+03  0.10100000352E+00 0.  1.
       -3    1    3    3    0  502  0.21512321837E+03  0.40858409453E+02  0.15144368869E+03  0.26623788189E+03  0.10100000352E+00 0. -1.
</event>
<event>
 5   0  0.4440500E-03  0.6927658E+03  0.7818609E-02  0.9729684E-01
       -3   -1    0    0    0  501  0.00000000000E+00  0.00000000000E+00  0.12657703097E+04  0.12657703137E+04  0.10100000352E+00 0.  1.
        3   -1    0    0  501    0  0.00000000000E+00  0.00000000000E+00 -0.94788975901E+02  0.94789029710E+02  0.10100000352E+00 0. -1.
    10030    2    1    2    0    0  0.00000000000E+00  0.00000000000E+00  0.11709813338E+04  0.13605593435E+04  0.69276579226E+03 0.  0.
        2    1    3    3  502    0  0.17627676006E+03 -0.60302607220E+02  0.11992191610E+02  0.18669149215E+03  0.25500000920E-02 0. -1.
       -2    1    3    3    0  502 -0.17627676006E+03  0.60302607220E+02  0.11589891422E+04  0.11738678513E+04  0.25500000920E-02 0.  1.
</event>
<event>
 5   0  0.6609285E-03  0.7022296E+03  0.7818609E-02  0.9713427E-01
        1   -1    0    0  501    0  0.00000000000E+00  0.00000000000E+00  0.30665732053E+03  0.30665732057E+03  0.50400001928E-02 0.  1.
       -1   -1    0    0    0  501  0.00000000000E+00  0.00000000000E+00 -0.40201743480E+03  0.40201743483E+03  0.50400001928E-02 0. -1.
    10030    2    1    2    0    0  0.00000000000E+00  0.00000000000E+00 -0.95360114265E+02  0.70867475540E+03  0.70222956186E+03 0.  0.
        2    1    3    3  502    0 -0.16972096255E+03 -0.10209663036E+03  0.24489923944E+03  0.31496756110E+03  0.25500000920E-02 0.  1.
       -2    1    3    3    0  502  0.16972096255E+03  0.10209663036E+03 -0.34025935370E+03  0.39370719430E+03  0.25500000920E-02 0. -1.
</event>
<event>
 5   0  0.6246998E-03  0.6997511E+03  0.7818609E-02  0.9717658E-01
        1   -1    0    0  501    0  0.00000000000E+00  0.00000000000E+00  0.28237061951E+03  0.28237061956E+03  0.50400001928E-02 0. -1.
       -1   -1    0    0    0  501  0.00000000000E+00  0.00000000000E+00 -0.43351850180E+03  0.43351850183E+03  0.50400001928E-02 0.  1.
    10030    2    1    2    0    0  0.00000000000E+00  0.00000000000E+00 -0.15114788229E+03  0.71588912139E+03  0.69975106417E+03 0.  0.
        4    1    3    3  502    0  0.16198079190E+03 -0.15213197138E+03  0.20089792682E+03  0.29957220092E+03  0.12699999809E+01 0. -1.
       -4    1    3    3    0  502 -0.16198079190E+03  0.15213197138E+03 -0.35204580911E+03  0.41631692047E+03  0.12699999809E+01 0.  1.
</event>
<event>
 5   0  0.1119786E-02  0.7108824E+03  0.7818609E-02  0.9698801E-01
       -2   -1    0    0    0  501  0.00000000000E+00  0.00000000000E+00  0.22053842709E+03  0.22053842711E+03  0.25500000920E-02 0. -1.
        2   -1    0    0  501    0  0.00000000000E+00  0.00000000000E+00 -0.57286361299E+03  0.57286361299E+03  0.25500000920E-02 0.  1.
    10030    2    1    2    0    0  0.00000000000E+00  0.00000000000E+00 -0.35232518589E+03  0.79340204010E+03  0.71088238171E+03 0.  0.
        3    1    3    3  502    0 -0.17116184661E+03  0.79280909866E+02 -0.51239118787E+03  0.54600968857E+03  0.10100000352E+00 0.  1.
       -3    1    3    3    0  502  0.17116184661E+03 -0.79280909866E+02  0.16006600198E+03  0.24739235153E+03  0.10100000352E+00 0. -1.
</event>
<event>
 5   0  0.1119786E-02  0.7027008E+03  0.7818609E-02  0.9712625E-01
        2   -1    0    0  501    0  0.00000000000E+00  0.00000000000E+00  0.63586815803E+03  0.63586815804E+03  0.25500000920E-02 0.  1.
       -2   -1    0    0    0  501  0.00000000000E+00  0.00000000000E+00 -0.19413948602E+03  0.19413948604E+03  0.25500000920E-02 0. -1.
    10030    2    1    2    0    0  0.00000000000E+00  0.00000000000E+00  0.44172867201E+03  0.83000764408E+03  0.70270083930E+03 0.  0.
        3    1    3    3  502    0 -0.21557968071E+03 -0.71481241798E+02 -0.95774450012E+02  0.24648919274E+03  0.10100000352E+00 0. -1.
       -3    1    3    3    0  502  0.21557968071E+03  0.71481241798E+02  0.53750312202E+03  0.58351845134E+03  0.10100000352E+00 0.  1.
</event>
<event>
 5   0  0.1109788E-02  0.6994150E+03  0.7818609E-02  0.9718233E-01
        2   -1    0    0  501    0  0.00000000000E+00  0.00000000000E+00  0.56222587750E+03  0.56222587750E+03  0.25500000920E-02 0. -1.
       -2   -1    0    0    0  501  0.00000000000E+00  0.00000000000E+00 -0.21751993936E+03  0.21751993938E+03  0.25500000920E-02 0.  1.
    10030    2    1    2    0    0  0.00000000000E+00  0.00000000000E+00  0.34470593813E+03  0.77974581688E+03  0.69941500925E+03 0.  0.
        1    1    3    3  502    0  0.57945132980E+02 -0.23738379835E+03 -0.10655369964E+03  0.26657531222E+03  0.50400001928E-02 0.  1.
       -1    1    3    3    0  502 -0.57945132980E+02  0.23738379835E+03  0.45125963777E+03  0.51317050466E+03  0.50400001928E-02 0. -1.
</event>
<event>
 5   0  0.6689415E-03  0.6996305E+03  0.7818609E-02  0.9717864E-01
        1   -1    0    0  501    0  0.00000000000E+00  0.00000000000E+00  0.74959236864E+03  0.74959236865E+03  0.50400001928E-02 0.  1.
       -1   -1    0    0    0  501  0.00000000000E+00  0.00000000000E+00 -0.16324968861E+03  0.16324968869E+03  0.50400001928E-02 0. -1.
    10030    2    1    2    0    0  0.00000000000E+00  0.00000000000E+00  0.58634268003E+03  0.91284205734E+03  0.69963053337E+03 0.  0.
        1    1    3    3  502    0  0.32044483621E+03  0.10754822812E+03  0.17560481653E+03  0.38090493045E+03  0.50400001928E-02 0.  1.
       -1    1    3    3    0  502 -0.32044483621E+03 -0.10754822812E+03  0.41073786350E+03  0.53193712689E+03  0.50400001928E-02 0. -1.
</event>
<event>
 5   0  0.1079446E-02  0.6932573E+03  0.7818609E-02  0.9728833E-01
        2   -1    0    0  501    0  0.00000000000E+00  0.00000000000E+00  0.91090658035E+02  0.91090658071E+02  0.25500000920E-02 0. -1.
       -2   -1    0    0    0  501  0.00000000000E+00  0.00000000000E+00 -0.13190310406E+04  0.13190310406E+04  0.25500000920E-02 0.  1.
    10030    2    1    2    0    0  0.00000000000E+00  0.00000000000E+00 -0.12279403825E+04  0.14101216986E+04  0.69325725523E+03 0.  0.
        2    1    3    3  502    0  0.33718823833E+03 -0.60417923770E+01 -0.45100469550E+03  0.56314975512E+03  0.25500000920E-02 0. -1.
       -2    1    3    3    0  502 -0.33718823833E+03  0.60417923770E+01 -0.77693568702E+03  0.84697194351E+03  0.25500000920E-02 0.  1.
</event>
<event>
 5   0  0.1119786E-02  0.6998370E+03  0.7818609E-02  0.9717511E-01
       -2   -1    0    0    0  501  0.00000000000E+00  0.00000000000E+00  0.23571954591E+03  0.23571954592E+03  0.25500000920E-02 0. -1.
        2   -1    0    0  501    0  0.00000000000E+00  0.00000000000E+00 -0.51944331854E+03  0.51944331855E+03  0.25500000920E-02 0.  1.
    10030    2    1    2    0    0  0.00000000000E+00  0.00000000000E+00 -0.28372377264E+03  0.75516286447E+03  0.69983696152E+03 0.  0.
        3    1    3    3  502    0 -0.34834440892E+03  0.32809111876E+02 -0.14699936073E+03  0.37951164318E+03  0.10100000352E+00 0.  1.
       -3    1    3    3    0  502  0.34834440892E+03 -0.32809111876E+02 -0.13672441190E+03  0.37565122130E+03  0.10100000352E+00 0. -1.
</event>
<event>
 5   0  0.6689415E-03  0.6940405E+03  0.7818609E-02  0.9727478E-01
       -1   -1    0    0    0  501  0.00000000000E+00  0.00000000000E+00  0.26663702333E+03  0.26663702338E+03  0.50400001928E-02 0. -1.
        1   -1    0    0  501    0  0.00000000000E+00  0.00000000000E+00 -0.45163671386E+03  0.45163671389E+03  0.50400001928E-02 0.  1.
    10030    2    1    2    0    0  0.00000000000E+00  0.00000000000E+00 -0.18499969053E+03  0.71827373727E+03  0.69404054360E+03 0.  0.
        1    1    3    3  502    0 -0.31345771045E+03 -0.14638498180E+03 -0.64370492749E+02  0.35189182926E+03  0.50400001928E-02 0.  1.
       -1    1    3    3    0  502  0.31345771045E+03  0.14638498180E+03 -0.12062919778E+03  0.36638190801E+03  0.50400001928E-02 0. -1.
</event>
<event>
 5   0  0.1100119E-02  0.7462361E+03  0.7818609E-02  0.9641274E-01
       -2   -1    0    0    0  501  0.00000000000E+00  0.00000000000E+00  0.55455696561E+03  0.55455696562E+03  0.25500000920E-02 0. -1.
        2   -1    0    0  501    0  0.00000000000E+00  0.00000000000E+00 -0.25104196223E+03  0.25104196224E+03  0.25500000920E-02 0.  1.
    10030    2    1    2    0    0  0.00000000000E+00  0.00000000000E+00  0.30351500339E+03  0.80559892786E+03  0.74623607209E+03 0.  0.
        4    1    3    3  502    0 -0.36018523718E+03  0.26344381410E+02  0.25295930897E+03  0.44092794923E+03  0.12699999809E+01 0. -1.
       -4    1    3    3    0  502  0.36018523718E+03 -0.26344381410E+02  0.50555694414E+02  0.36467097863E+03  0.12699999809E+01 0.  1.
</event>
<event>
 5   0  0.6990118E-03  0.7000175E+03  0.7818609E-02  0.9717202E-01
        1   -1    0    0  501    0  0.00000000000E+00  0.00000000000E+00  0.40546306971E+03  0.40546306974E+03  0.50400001928E-02 0. -1.
       -1   -1    0    0    0  501  0.00000000000E+00  0.00000000000E+00 -0.30213880318E+03  0.30213880322E+03  0.50400001928E-02 0.  1.
    10030    2    1    2    0    0  0.00000000000E+00  0.00000000000E+00  0.10332426653E+03  0.70760187296E+03  0.70001750447E+03 0.  0.
        5    1    3    3  502    0  0.45946652202E+01 -0.33754695947E+03 -0.41669024297E+02  0.34017268906E+03  0.46999998093E+01 0.  1.
       -5    1    3    3    0  502 -0.45946652202E+01  0.33754695947E+03  0.14499329083E+03  0.36742918390E+03  0.46999998093E+01 0. -1.
</event>
<event>
 5   0  0.1099980E-02  0.7028133E+03  0.7818609E-02  0.9712433E-01
       -2   -1    0    0    0  501  0.00000000000E+00  0.00000000000E+00  0.24082195514E+03  0.24082195516E+03  0.25500000920E-02 0. -1.
        2   -1    0    0  501    0  0.00000000000E+00  0.00000000000E+00 -0.51277153551E+03  0.51277153552E+03  0.25500000920E-02 0.  1.
    10030    2    1    2    0    0  0.00000000000E+00  0.00000000000E+00 -0.27194958037E+03  0.75359349067E+03  0.70281332865E+03 0.  0.
        5    1    3    3  502    0  0.18363182087E+03 -0.22785028674E+03 -0.34452216573E+03  0.45205531905E+03  0.46999998093E+01 0.  1.
       -5    1    3    3    0  502 -0.18363182087E+03  0.22785028674E+03  0.72572585366E+02  0.30153817162E+03  0.46999998093E+01 0. -1.
</event>
<event>
 5   0  0.1100119E-02  0.6995763E+03  0.7818609E-02  0.9717957E-01
        2   -1    0    0  501    0  0.00000000000E+00  0.00000000000E+00  0.67157995002E+03  0.67157995003E+03  0.25500000920E-02 0.  1.
       -2   -1    0    0    0  501  0.00000000000E+00  0.00000000000E+00 -0.18218495854E+03  0.18218495856E+03  0.25500000920E-02 0. -1.
    10030    2    1    2    0    0  0.00000000000E+00  0.00000000000E+00  0.48939499148E+03  0.85376490859E+03  0.69957634426E+03 0.  0.
        4    1    3    3  502    0  0.50795336526E+01  0.27041488283E+03 -0.26001324290E+02  0.27171251771E+03  0.12699999809E+01 0. -1.
       -4    1    3    3    0  502 -0.50795336526E+01 -0.27041488283E+03  0.51539631577E+03  0.58205239088E+03  0.12699999809E+01 0.  1.
</event>
<event>
 5   0  0.1119786E-02  0.7009623E+03  0.7818609E-02  0.9715588E-01
        2   -1    0    0  501    0  0.00000000000E+00  0.00000000000E+00  0.77902815079E+03  0.77902815079E+03  0.25500000920E-02 0.  1.
       -2   -1    0    0    0  501  0.00000000000E+00  0.00000000000E+00 -0.15767984469E+03  0.15767984471E+03  0.25500000920E-02 0. -1.
    10030    2    1    2    0    0  0.00000000000E+00  0.00000000000E+00  0.62134830610E+03  0.93670799550E+03  0.70096230380E+03 0.  0.
        3    1    3    3  502    0  0.32697691879E+03  0.12485819607E+03  0.28626840937E+03  0.45216488912E+03  0.10100000352E+00 0. -1.
       -3    1    3    3    0  502 -0.32697691879E+03 -0.12485819607E+03  0.33507989673E+03  0.48454310638E+03  0.10100000352E+00 0.  1.
</event>
<event>
 5   0  0.1119786E-02  0.7033653E+03  0.7818609E-02  0.9711494E-01
       -2   -1    0    0    0  501  0.00000000000E+00  0.00000000000E+00  0.11046481035E+03  0.11046481038E+03  0.25500000920E-02 0.  1.
        2   -1    0    0  501    0  0.00000000000E+00  0.00000000000E+00 -0.11196387731E+04  0.11196387731E+04  0.25500000920E-02 0. -1.
    10030    2    1    2    0    0  0.00000000000E+00  0.00000000000E+00 -0.10091739628E+04  0.12301035835E+04  0.70336529557E+03 0.  0.
        3    1    3    3  502    0  0.15092246437E+03  0.28839419555E+03 -0.73747011949E+03  0.80610854705E+03  0.10100000352E+00 0. -1.
       -3    1    3    3    0  502 -0.15092246437E+03 -0.28839419555E+03 -0.27170384327E+03  0.42399503644E+03  0.10100000352E+00 0.  1.
</event>
<event>
 5   0  0.4440500E-03  0.7024087E+03  0.7818609E-02  0.9713122E-01
        3   -1    0    0  501    0  0.00000000000E+00  0.00000000000E+00  0.31333780938E+03  0.31333782566E+03  0.10100000352E+00 0.  1.
       -3   -1    0    0    0  501  0.00000000000E+00  0.00000000000E+00 -0.39364697376E+03  0.39364698672E+03  0.10100000352E+00 0. -1.
    10030    2    1    2    0    0  0.00000000000E+00  0.00000000000E+00 -0.80309164377E+02  0.70698481238E+03  0.70240868663E+03 0.  0.
        5    1    3    3  502    0 -0.50361291982E+02 -0.33797371293E+03  0.41366355092E+02  0.34423212473E+03  0.46999998093E+01 0.  1.
       -5    1    3    3    0  502  0.50361291982E+02  0.33797371293E+03 -0.12167551947E+03  0.36275268765E+03  0.46999998093E+01 0. -1.
</event>
<event>
 5   0  0.1079446E-02  0.7027848E+03  0.7818609E-02  0.9712482E-01
       -2   -1    0    0    0  501  0.00000000000E+00  0.00000000000E+00  0.30764004730E+03  0.30764004731E+03  0.25500000920E-02 0.  1.
        2   -1    0    0  501    0  0.00000000000E+00  0.00000000000E+00 -0.40136719085E+03  0.40136719086E+03  0.25500000920E-02 0. -1.
    10030    2    1    2    0    0  0.00000000000E+00  0.00000000000E+00 -0.93727143555E+02  0.70900723817E+03  0.70278480798E+03 0.  0.
        2    1    3    3  502    0 -0.25570438688E+03 -0.23413176453E+03  0.10863726721E+02  0.34687236442E+03  0.25500000920E-02 0.  1.
       -2    1    3    3    0  502  0.25570438688E+03  0.23413176453E+03 -0.10459087028E+03  0.36213487375E+03  0.25500000920E-02 0. -1.
</event>
<event>
 5   0  0.1119786E-02  0.6990782E+03  0.7818609E-02  0.9718810E-01
       -2   -1    0    0    0  501  0.00000000000E+00  0.00000000000E+00  0.11228527174E+03  0.11228527176E+03  0.25500000920E-02 0. -1.
        2   -1    0    0  501    0  0.00000000000E+00  0.00000000000E+00 -0.10880998844E+04  0.10880998844E+04  0.25500000920E-02 0.  1.
    10030    2    1    2    0    0  0.00000000000E+00  0.00000000000E+00 -0.97581461262E+03  0.12003851561E+04  0.69907822512E+03 0.  0.
        3    1    3    3  502    0 -0.30965359186E+03  0.12111846382E+03 -0.67302400056E+03  0.75067725739E+03  0.10100000352E+00 0.  1.
       -3    1    3    3    0  502  0.30965359186E+03 -0.12111846382E+03 -0.30279061206E+03  0.44970789873E+03  0.10100000352E+00 0. -1.
</event>
<event>
 5   0  0.4440500E-03  0.6979119E+03  0.7818609E-02  0.9720810E-01
       -3   -1    0    0    0  501  0.00000000000E+00  0.00000000000E+00  0.26803894698E+03  0.26803896601E+03  0.10100000352E+00 0. -1.
        3   -1    0    0  501    0  0.00000000000E+00  0.00000000000E+00 -0.45430053658E+03  0.45430054781E+03  0.10100000352E+00 0.  1.
    10030    2    1    2    0    0  0.00000000000E+00  0.00000000000E+00 -0.18626158960E+03  0.72233951381E+03  0.69791188087E+03 0.  0.
        2    1    3    3  502    0  0.31893875184E+03 -0.13388805158E+03 -0.14081178327E+03  0.37346471867E+03  0.25500000920E-02 0.  1.
       -2    1    3    3    0  502 -0.31893875184E+03  0.13388805158E+03 -0.45449806330E+02  0.34887479514E+03  0.25500000920E-02 0. -1.
</event>
<event>
 5   0  0.6785252E-03  0.6957511E+03  0.7818609E-02  0.9724526E-01
        1   -1    0    0  501    0  0.00000000000E+00  0.00000000000E+00  0.39728139490E+03  0.39728139493E+03  0.50400001928E-02 0. -1.
       -1   -1    0    0    0  501  0.00000000000E+00  0.00000000000E+00 -0.30461384279E+03  0.30461384283E+03  0.50400001928E-02 0.  1.
    10030    2    1    2    0    0  0.00000000000E+00  0.00000000000E+00  0.92667552109E+02  0.70189523776E+03  0.69575114055E+03 0.  0.
        3    1    3    3  502    0 -0.98498389707E+02 -0.24125972640E+03 -0.18615570345E+03  0.32025325055E+03  0.10100000352E+00 0.  1.
       -3    1    3    3    0  502  0.98498389707E+02  0.24125972640E+03  0.27882325556E+03  0.38164198721E+03  0.10100000352E+00 0. -1.
</event>
<event>
 5   0  0.1109788E-02  0.7004084E+03  0.7818609E-02  0.9716534E-01
        2   -1    0    0  501    0  0.00000000000E+00  0.00000000000E+00  0.27510883997E+03  0.27510883998E+03  0.25500000920E-02 0. -1.
       -2   -1    0    0    0  501  0.00000000000E+00  0.00000000000E+00 -0.44579808213E+03  0.44579808214E+03  0.25500000920E-02 0.  1.
    10030    2    1    2    0    0  0.00000000000E+00  0.00000000000E+00 -0.17068924216E+03  0.72090692212E+03  0.70040843297E+03 0.  0.
        1    1    3    3  502    0  0.28344429131E+03 -0.11036500163E+03  0.93291369479E+02  0.31815779027E+03  0.50400001928E-02 0. -1.
       -1    1    3    3    0  502 -0.28344429131E+03  0.11036500163E+03 -0.26398061164E+03  0.40274913185E+03  0.50400001928E-02 0.  1.
</event>
<event>
 5   0  0.6689415E-03  0.7076803E+03  0.7818609E-02  0.9704187E-01
        1   -1    0    0  501    0  0.00000000000E+00  0.00000000000E+00  0.20771349960E+04  0.20771349960E+04  0.50400001928E-02 0. -1.
       -1   -1    0    0    0  501  0.00000000000E+00  0.00000000000E+00 -0.60276711139E+02  0.60276711349E+02  0.50400001928E-02 0.  1.
    10030    2    1    2    0    0  0.00000000000E+00  0.00000000000E+00  0.20168582849E+04  0.21374117074E+04  0.70768034135E+03 0.  0.
        1    1    3    3  502    0  0.10562691920E+02 -0.13676892831E+03  0.19935565150E+04  0.19982704744E+04  0.50400001928E-02 0. -1.
       -1    1    3    3    0  502 -0.10562691920E+02  0.13676892831E+03  0.23301769851E+02  0.13914123298E+03  0.50400001928E-02 0.  1.
</event>
<event>
 5   0  0.1100119E-02  0.6993569E+03  0.7818609E-02  0.9718333E-01
       -2   -1    0    0    0  501  0.00000000000E+00  0.00000000000E+00  0.11526600441E+03  0.11526600444E+03  0.25500000920E-02 0.  1.
        2   -1    0    0  501    0  0.00000000000E+00  0.00000000000E+00 -0.10608073497E+04  0.10608073497E+04  0.25500000920E-02 0. -1.
    10030    2    1    2    0    0  0.00000000000E+00  0.00000000000E+00 -0.94554134529E+03  0.11760733541E+04  0.69935691793E+03 0.  0.
        4    1    3    3  502    0 -0.18436078744E+03  0.68574979100E+02  0.13403488241E+02  0.19716159388E+03  0.12699999809E+01 0.  1.
       -4    1    3    3    0  502  0.18436078744E+03 -0.68574979100E+02 -0.95894483354E+03  0.97891176026E+03  0.12699999809E+01 0. -1.
</event>
<event>
 5   0  0.1100119E-02  0.7331979E+03  0.7818609E-02  0.9662085E-01
       -2   -1    0    0    0  501  0.00000000000E+00  0.00000000000E+00  0.64817174123E+02  0.64817174173E+02  0.25500000920E-02 0.  1.
        2   -1    0    0  501    0  0.00000000000E+00  0.00000000000E+00 -0.20734441919E+04  0.20734441919E+04  0.25500000920E-02 0. -1.
    10030    2    1    2    0    0  0.00000000000E+00  0.00000000000E+00 -0.20086270177E+04  0.21382613660E+04  0.73319790854E+03 0.  0.
        4    1    3    3  502    0  0.15536470647E+03  0.56056237721E+02 -0.49848464131E+02  0.17253108729E+03  0.12699999809E+01 0.  1.
       -4    1    3    3    0  502 -0.15536470647E+03 -0.56056237721E+02 -0.19587785536E+04  0.19657302787E+04  0.12699999809E+01 0. -1.
</event>
<event>
 5   0  0.6990118E-03  0.6942673E+03  0.7818609E-02  0.9727086E-01
       -1   -1    0    0    0  501  0.00000000000E+00  0.00000000000E+00  0.12747094159E+03  0.12747094169E+03  0.50400001928E-02 0.  1.
        1   -1    0    0  501    0  0.00000000000E+00  0.00000000000E+00 -0.94532738247E+03  0.94532738249E+03  0.50400001928E-02 0. -1.
    10030    2    1    2    0    0  0.00000000000E+00  0.00000000000E+00 -0.81785644088E+03  0.10727983242E+04  0.69426730189E+03 0.  0.
        5    1    3    3  502    0 -0.25414372697E+03 -0.57556742573E+02 -0.54610506689E+02  0.26628219995E+03  0.46999998093E+01 0.  1.
       -5    1    3    3    0  502  0.25414372697E+03  0.57556742573E+02 -0.76324593419E+03  0.80651612422E+03  0.46999998093E+01 0. -1.
</event>
<event>
 5   0  0.1100119E-02  0.6976989E+03  0.7818609E-02  0.9721176E-01
       -2   -1    0    0    0  501  0.00000000000E+00  0.00000000000E+00  0.11399437167E+03  0.11399437170E+03  0.25500000920E-02 0.  1.
        2   -1    0    0  501    0  0.00000000000E+00  0.00000000000E+00 -0.10675607922E+04  0.10675607922E+04  0.25500000920E-02 0. -1.
    10030    2    1    2    0    0  0.00000000000E+00  0.00000000000E+00 -0.95356642056E+03  0.11815551639E+04  0.69769885122E+03 0.  0.
        4    1    3    3  502    0  0.63159493552E+02 -0.34361814550E+02  0.10130555730E+03  0.12423479692E+03  0.12699999809E+01 0.  1.
       -4    1    3    3    0  502 -0.63159493552E+02  0.34361814550E+02 -0.10548719779E+04  0.10573203670E+04  0.12699999809E+01 0. -1.
</event>
<event>
 5   0  0.1109788E-02  0.7004974E+03  0.7818609E-02  0.9716382E-01
        2   -1    0    0  501    0  0.00000000000E+00  0.00000000000E+00  0.75163772911E+03  0.75163772912E+03  0.25500000920E-02 0.  1.
       -2   -1    0    0    0  501  0.00000000000E+00  0.00000000000E+00 -0.16320913309E+03  0.16320913311E+03  0.25500000920E-02 0. -1.
    10030    2    1    2    0    0  0.00000000000E+00  0.00000000000E+00  0.58842859602E+03  0.91484686223E+03  0.70049737239E+03 0.  0.
        1    1    3    3  502    0 -0.32800467747E+02  0.28051917564E+03  0.23689363029E+02  0.28342206078E+03  0.50400001928E-02 0. -1.
       -1    1    3    3    0  502  0.32800467747E+02 -0.28051917564E+03  0.56473923299E+03  0.63142480146E+03  0.50400001928E-02 0.  1.
</event>
<event>
 5   0  0.6246998E-03  0.7187831E+03  0.7818609E-02  0.9685639E-01
        1   -1    0    0  501    0  0.00000000000E+00  0.00000000000E+00  0.11068632645E+04  0.11068632645E+04  0.50400001928E-02 0. -1.
       -1   -1    0    0    0  501  0.00000000000E+00  0.00000000000E+00 -0.11669218095E+03  0.11669218105E+03  0.50400001928E-02 0.  1.
    10030    2    1    2    0    0  0.00000000000E+00  0.00000000000E+00  0.99017108358E+03  0.12235554456E+04  0.71878310615E+03 0.  0.
        4    1    3    3  502    0 -0.27694182757E+03 -0.55680261665E+02  0.87329226173E+03  0.91784424316E+03  0.12699999809E+01 0. -1.
       -4    1    3    3    0  502  0.27694182757E+03  0.55680261665E+02  0.11687882185E+03  0.30571120244E+03  0.12699999809E+01 0.  1.
</event>
<event>
 5   0  0.6990118E-03  0.7027388E+03  0.7818609E-02  0.9712560E-01
        1   -1    0    0  501    0  0.00000000000E+00  0.00000000000E+00  0.12111582955E+04  0.12111582955E+04  0.50400001928E-02 0. -1.
       -1   -1    0    0    0  501  0.00000000000E+00  0.00000000000E+00 -0.10193584836E+03  0.10193584849E+03  0.50400001928E-02 0.  1.
    10030    2    1    2    0    0  0.00000000000E+00  0.00000000000E+00  0.11092224472E+04  0.13130941440E+04  0.70273878061E+03 0.  0.
        5    1    3    3  502    0  0.46689756787E+02  0.10851545351E+02  0.12049608988E+04  0.12059231099E+04  0.46999998093E+01 0. -1.
       -5    1    3    3    0  502 -0.46689756787E+02 -0.10851545351E+02 -0.95738451644E+02  0.10717103408E+03  0.46999998093E+01 0.  1.
</event>
<event>
 5   0  0.6785252E-03  0.7008255E+03  0.7818609E-02  0.9715822E-01
        1   -1    0    0  501    0  0.00000000000E+00  0.00000000000E+00  0.14550525441E+04  0.14550525441E+04  0.50400001928E-02 0. -1.
       -1   -1    0    0    0  501  0.00000000000E+00  0.00000000000E+00 -0.84388072638E+02  0.84388072789E+02  0.50400001928E-02 0.  1.
    10030    2    1    2    0    0  0.00000000000E+00  0.00000000000E+00  0.13706644714E+04  0.15394406169E+04  0.70082545588E+03 0.  0.
        3    1    3    3  502    0 -0.29437823742E+03 -0.93290590336E+00  0.11028596215E+04  0.11414721949E+04  0.10100000352E+00 0.  1.
       -3    1    3    3    0  502  0.29437823742E+03  0.93290590336E+00  0.26780484996E+03  0.39796842192E+03  0.10100000352E+00 0. -1.
</event>
<event>
 5   0  0.1100119E-02  0.6995059E+03  0.7818609E-02  0.9718078E-01
        2   -1    0    0  501    0  0.00000000000E+00  0.00000000000E+00  0.11857446375E+04  0.11857446375E+04  0.25500000920E-02 0.  1.
       -2   -1    0    0    0  501  0.00000000000E+00  0.00000000000E+00 -0.10316480654E+03  0.10316480657E+03  0.25500000920E-02 0. -1.
    10030    2    1    2    0    0  0.00000000000E+00  0.00000000000E+00  0.10825798310E+04  0.12889094441E+04  0.69950587175E+03 0.  0.
        4    1    3    3  502    0 -0.29399226934E+03  0.16719735727E+03  0.37711134355E+03  0.50655798192E+03  0.12699999809E+01 0. -1.
       -4    1    3    3    0  502  0.29399226934E+03 -0.16719735727E+03  0.70546848742E+03  0.78235146216E+03  0.12699999809E+01 0.  1.
</event>
<event>
 5   0  0.1109788E-02  0.7003004E+03  0.7818609E-02  0.9716719E-01
       -2   -1    0    0    0  501  0.00000000000E+00  0.00000000000E+00  0.20799145819E+03  0.20799145820E+03  0.25500000920E-02 0.  1.
        2   -1    0    0  501    0  0.00000000000E+00  0.00000000000E+00 -0.58947212436E+03  0.58947212437E+03  0.25500000920E-02 0. -1.
    10030    2    1    2    0    0  0.00000000000E+00  0.00000000000E+00 -0.38148066618E+03  0.79746358257E+03  0.70030041187E+03 0.  0.
        1    1    3    3  502    0  0.26242869087E+03  0.22566137063E+02 -0.45346022394E+03  0.52440845060E+03  0.50400001928E-02 0. -1.
       -1    1    3    3    0  502 -0.26242869087E+03 -0.22566137063E+02  0.71979557769E+02  0.27305513197E+03  0.50400001928E-02 0.  1.
</event>
<event>
 5   0  0.1079446E-02  0.7008186E+03  0.7818609E-02  0.9715833E-01
        2   -1    0    0  501    0  0.00000000000E+00  0.00000000000E+00  0.78575123089E+03  0.78575123090E+03  0.25500000920E-02 0. -1.
       -2   -1    0    0    0  501  0.00000000000E+00  0.00000000000E+00 -0.15626659693E+03  0.15626659695E+03  0.25500000920E-02 0.  1.
    10030    2    1    2    0    0  0.00000000000E+00  0.00000000000E+00  0.62948463396E+03  0.94201782785E+03  0.70081858108E+03 0.  0.
        2    1    3    3  502    0  0.29309255427E+02  0.16021036261E+03  0.73178170072E+03  0.74968716827E+03  0.25500000920E-02 0. -1.
       -2    1    3    3    0  502 -0.29309255427E+02 -0.16021036261E+03 -0.10229706676E+03  0.19233065958E+03  0.25500000920E-02 0.  1.
</event>
<event>
 5   0  0.1099980E-02  0.7046090E+03  0.7818609E-02  0.9709383E-01
       -2   -1    0    0    0  501  0.00000000000E+00  0.00000000000E+00  0.95128497518E+02  0.95128497553E+02  0.25500000920E-02 0.  1.
        2   -1    0    0  501    0  0.00000000000E+00  0.00000000000E+00 -0.13047452912E+04  0.13047452912E+04  0.25500000920E-02 0. -1.
    10030    2    1    2    0    0  0.00000000000E+00  0.00000000000E+00 -0.12096167937E+04  0.13998737887E+04  0.70460899574E+03 0.  0.
        5    1    3    3  502    0 -0.15877587807E+03 -0.91185812589E+02 -0.68967026667E+01  0.18328744196E+03  0.46999998093E+01 0.  1.
       -5    1    3    3    0  502  0.15877587807E+03  0.91185812589E+02 -0.12027200910E+04  0.12165863468E+04  0.46999998093E+01 0. -1.
</event>
<event>
 5   0  0.1079446E-02  0.7002793E+03  0.7818609E-02  0.9716755E-01
        2   -1    0    0  501    0  0.00000000000E+00  0.00000000000E+00  0.17712623201E+04  0.17712623201E+04  0.25500000920E-02 0.  1.
       -2   -1    0    0    0  501  0.00000000000E+00  0.00000000000E+00 -0.69214908715E+02  0.69214908762E+02  0.25500000920E-02 0. -1.
    10030    2    1    2    0    0  0.00000000000E+00  0.00000000000E+00  0.17020474114E+04  0.18404772289E+04  0.70027925813E+03 0.  0.
        2    1    3    3  502    0 -0.22152370670E+03  0.74566370722E+02  0.15361985507E+04  0.15538786579E+04  0.25500000920E-02 0.  1.
       -2    1    3    3    0  502  0.22152370670E+03 -0.74566370722E+02  0.16584886063E+03  0.28659857092E+03  0.25500000920E-02 0. -1.
</event>
<event>
 5   0  0.6785252E-03  0.7029522E+03  0.7818609E-02  0.9712197E-01
       -1   -1    0    0    0  501  0.00000000000E+00  0.00000000000E+00  0.60221477781E+03  0.60221477783E+03  0.50400001928E-02 0. -1.
        1   -1    0    0  501    0  0.00000000000E+00  0.00000000000E+00 -0.20513521559E+03  0.20513521565E+03  0.50400001928E-02 0.  1.
    10030    2    1    2    0    0  0.00000000000E+00  0.00000000000E+00  0.39707956222E+03  0.80734999348E+03  0.70295222686E+03 0.  0.
        3    1    3    3  502    0  0.22499252537E+03  0.26168194467E+03  0.12204179767E+03  0.36605093528E+03  0.10100000352E+00 0. -1.
       -3    1    3    3    0  502 -0.22499252537E+03 -0.26168194467E+03  0.27503776454E+03  0.44129905820E+03  0.10100000352E+00 0.  1.
</event>
<event>
 5   0  0.1109788E-02  0.7015705E+03  0.7818609E-02  0.9714550E-01
        2   -1    0    0  501    0  0.00000000000E+00  0.00000000000E+00  0.26137141317E+03  0.26137141318E+03  0.25500000920E-02 0.  1.
       -2   -1    0    0    0  501  0.00000000000E+00  0.00000000000E+00 -0.47078715196E+03  0.47078715196E+03  0.25500000920E-02 0. -1.
    10030    2    1    2    0    0  0.00000000000E+00  0.00000000000E+00 -0.20941573879E+03  0.73215856514E+03  0.70157053306E+03 0.  0.
        1    1    3    3  502    0  0.32604651110E+03 -0.75136214289E+02  0.52348415921E+01  0.33463290587E+03  0.50400001928E-02 0.  1.
       -1    1    3    3    0  502 -0.32604651110E+03  0.75136214289E+02 -0.21465058038E+03  0.39752565927E+03  0.50400001928E-02 0. -1.
</event>
<event>
 5   0  0.6609285E-03  0.6992271E+03  0.7818609E-02  0.9718555E-01
        1   -1    0    0  501    0  0.00000000000E+00  0.00000000000E+00  0.16350825926E+04  0.16350825926E+04  0.50400001928E-02 0. -1.
       -1   -1    0    0    0  501  0.00000000000E+00  0.00000000000E+00 -0.74754417392E+02  0.74754417562E+02  0.50400001928E-02 0.  1.
    10030    2    1    2    0    0  0.00000000000E+00  0.00000000000E+00  0.15603281752E+04  0.17098370102E+04  0.69922713548E+03 0.  0.
        2    1    3    3  502    0 -0.14550659501E+03  0.86995787013E+02  0.32481639437E+02  0.17261371051E+03  0.25500000920E-02 0.  1.
       -2    1    3    3    0  502  0.14550659501E+03 -0.86995787013E+02  0.15278465358E+04  0.15372232997E+04  0.25500000920E-02 0. -1.
</event>
<event>
 5   0  0.6246998E-03  0.6984824E+03  0.7818609E-02  0.9719831E-01
       -1   -1    0    0    0  501  0.00000000000E+00  0.00000000000E+00  0.27010333566E+03  0.27010333571E+03  0.50400001928E-02 0. -1.
        1   -1    0    0  501    0  0.00000000000E+00  0.00000000000E+00 -0.45156568856E+03  0.45156568859E+03  0.50400001928E-02 0.  1.
    10030    2    1    2    0    0  0.00000000000E+00  0.00000000000E+00 -0.18146235289E+03  0.72166902430E+03  0.69848235132E+03 0.  0.
        4    1    3    3  502    0  0.26492551225E+03 -0.58393062203E+02  0.13650733472E+03  0.30369580518E+03  0.12699999809E+01 0. -1.
       -4    1    3    3    0  502 -0.26492551225E+03  0.58393062203E+02 -0.31796968761E+03  0.41797321911E+03  0.12699999809E+01 0.  1.
</event>
<event>
 5   0  0.1119786E-02  0.6977069E+03  0.7818609E-02  0.9721162E-01
        2   -1    0    0  501    0  0.00000000000E+00  0.00000000000E+00  0.50502533749E+03  0.50502533750E+03  0.25500000920E-02 0.  1.
       -2   -1    0    0    0  501  0.00000000000E+00  0.00000000000E+00 -0.24097551747E+03  0.24097551748E+03  0.25500000920E-02 0. -1.
    10030    2    1    2    0    0  0.00000000000E+00  0.00000000000E+00  0.26404982003E+03  0.74600085498E+03  0.69770693573E+03 0.  0.
        3    1    3    3  502    0 -0.19488014208E+03 -0.18991247572E+03  0.36543233120E+03  0.45561586572E+03  0.10100000352E+00 0.  1.
       -3    1    3    3    0  502  0.19488014208E+03  0.18991247572E+03 -0.10138251117E+03  0.29038498925E+03  0.10100000352E+00 0. -1.
</event>
<event>
 5   0  0.1099980E-02  0.7012250E+03  0.7818609E-02  0.9715140E-01
        2   -1    0    0  501    0  0.00000000000E+00  0.00000000000E+00  0.16688400497E+04  0.16688400497E+04  0.25500000920E-02 0.  1.
       -2   -1    0    0    0  501  0.00000000000E+00  0.00000000000E+00 -0.73661426035E+02  0.73661426079E+02  0.25500000920E-02 0. -1.
    10030    2    1    2    0    0  0.00000000000E+00  0.00000000000E+00  0.15951786236E+04  0.17425014757E+04  0.70122503641E+03 0.  0.
        5    1    3    3  502    0  0.16238763696E+03 -0.19689313413E+03  0.20032245335E+03  0.32448085647E+03  0.46999998093E+01 0. -1.
       -5    1    3    3    0  502 -0.16238763696E+03  0.19689313413E+03  0.13948561703E+04  0.14180206193E+04  0.46999998093E+01 0.  1.
</event>
<event>
 5   0  0.4440500E-03  0.7007385E+03  0.7818609E-02  0.9715970E-01
        3   -1    0    0  501    0  0.00000000000E+00  0.00000000000E+00  0.36295731617E+03  0.36295733023E+03  0.10100000352E+00 0.  1.
       -3   -1    0    0    0  501  0.00000000000E+00  0.00000000000E+00 -0.33821771140E+03  0.33821772648E+03  0.10100000352E+00 0. -1.
    10030    2    1    2    0    0  0.00000000000E+00  0.00000000000E+00  0.24739604777E+02  0.70117505670E+03  0.70073847625E+03 0.  0.
        4    1    3    3  502    0 -0.44054011778E+02  0.26335289206E+03  0.23936238464E+03  0.35859652228E+03  0.12699999809E+01 0. -1.
       -4    1    3    3    0  502  0.44054011778E+02 -0.26335289206E+03 -0.21462277987E+03  0.34257853442E+03  0.12699999809E+01 0.  1.
</event>
<event>
 5   0  0.6990118E-03  0.6999250E+03  0.7818609E-02  0.9717360E-01
        1   -1    0    0  501    0  0.00000000000E+00  0.00000000000E+00  0.50191592111E+03  0.50191592113E+03  0.50400001928E-02 0.  1.
       -1   -1    0    0    0  501  0.00000000000E+00  0.00000000000E+00 -0.24401247591E+03  0.24401247596E+03  0.50400001928E-02 0. -1.
    10030    2    1    2    0    0  0.00000000000E+00  0.00000000000E+00  0.25790344520E+03  0.74592839709E+03  0.69992498637E+03 0.  0.
        5    1    3    3  502    0  0.20242300906E+02  0.24768073503E+03  0.39151032324E+03  0.46374337780E+03  0.46999998093E+01 0.  1.
       -5    1    3    3    0  502 -0.20242300906E+02 -0.24768073503E+03 -0.13360687804E+03  0.28218501929E+03  0.46999998093E+01 0. -1.
</event>
<event>
 5   0  0.1099980E-02  0.7053499E+03  0.7818609E-02  0.9708127E-01
        2   -1    0    0  501    0  0.00000000000E+00  0.00000000000E+00  0.58659277133E+03  0.58659277133E+03  0.25500000920E-02 0.  1.
       -2   -1    0    0    0  501  0.00000000000E+00  0.00000000000E+00 -0.21203742694E+03  0.21203742696E+03  0.25500000920E-02 0. -1.
    10030    2    1    2    0    0  0.00000000000E+00  0.00000000000E+00  0.37455534439E+03  0.79863019829E+03  0.70534990438E+03 0.  0.
        5    1    3    3  502    0  0.12144864824E+03  0.21731776405E+02 -0.18676755094E+03  0.22388892860E+03  0.46999998093E+01 0. -1.
       -5    1    3    3    0  502 -0.12144864824E+03 -0.21731776405E+02  0.56132289533E+03  0.57474126969E+03  0.46999998093E+01 0.  1.
</event>
<event>
 5   0  0.1109788E-02  0.7012020E+03  0.7818609E-02  0.9715179E-01
       -2   -1    0    0    0  501  0.00000000000E+00  0.00000000000E+00  0.46471628958E+02  0.46471629028E+02  0.25500000920E-02 0.  1.
        2   -1    0    0  501    0  0.00000000000E+00  0.00000000000E+00 -0.26450778013E+04  0.26450778013E+04  0.25500000920E-02 0. -1.
    10030    2    1    2    0    0  0.00000000000E+00  0.00000000000E+00 -0.25986061724E+04  0.26915494303E+04  0.70120203720E+03 0.  0.
        1    1    3    3  502    0  0.16165569550E+03 -0.28891173821E+03 -0.17422861673E+04  0.17734609230E+04  0.50400001928E-02 0. -1.
       -1    1    3    3    0  502 -0.16165569550E+03  0.28891173821E+03 -0.85632000503E+03  0.91808850739E+03  0.50400001928E-02 0.  1.
</event>
<event>
 5   0  0.6246998E-03  0.7019618E+03  0.7818609E-02  0.9713883E-01
        1   -1    0    0  501    0  0.00000000000E+00  0.00000000000E+00  0.42916125911E+03  0.42916125914E+03  0.50400001928E-02 0.  1.
       -1   -1    0    0    0  501  0.00000000000E+00  0.00000000000E+00 -0.28704270539E+03  0.28704270544E+03  0.50400001928E-02 0. -1.
    10030    2    1    2    0    0  0.00000000000E+00  0.00000000000E+00  0.14211855371E+03  0.71620396457E+03  0.70196184765E+03 0.  0.
        4    1    3    3  502    0  0.66055774103E+02  0.33247436447E+03  0.16391918601E+03  0.37652845943E+03  0.12699999809E+01 0.  1.
       -4    1    3    3    0  502 -0.66055774103E+02 -0.33247436447E+03 -0.21800632290E+02  0.33967550514E+03  0.12699999809E+01 0. -1.
</event>
<event>
 5   0  0.4440500E-03  0.6979134E+03  0.7818609E-02  0.9720807E-01
        3   -1    0    0  501    0  0.00000000000E+00  0.00000000000E+00  0.16780299657E+03  0.16780302697E+03  0.10100000352E+00 0.  1.
       -3   -1    0    0    0  501  0.00000000000E+00  0.00000000000E+00 -0.72567685366E+03  0.72567686068E+03  0.10100000352E+00 0. -1.
    10030    2    1    2    0    0  0.00000000000E+00  0.00000000000E+00 -0.55787385708E+03  0.89347988765E+03  0.69791336799E+03 0.  0.
        3    1    3    3  502    0 -0.16404186702E+03 -0.24732842627E+03 -0.51391733934E+03  0.59345777142E+03  0.10100000352E+00 0. -1.
       -3    1    3    3    0  502  0.16404186702E+03  0.24732842627E+03 -0.43956517739E+02  0.30002211624E+03  0.10100000352E+00 0.  1.
</event>
<event>
 5   0  0.6990118E-03  0.7006489E+03  0.7818609E-02  0.9716123E-01
        1   -1    0    0  501    0  0.00000000000E+00  0.00000000000E+00  0.19777994459E+04  0.19777994460E+04  0.50400001928E-02 0.  1.
       -1   -1    0    0    0  501  0.00000000000E+00  0.00000000000E+00 -0.62052409804E+02  0.62052410009E+02  0.50400001928E-02 0. -1.
    10030    2    1    2    0    0  0.00000000000E+00  0.00000000000E+00  0.19157470361E+04  0.20398518560E+04  0.70064890479E+03 0.  0.
        5    1    3    3  502    0  0.21049033755E+03 -0.99892140505E+02  0.17194110884E+04  0.17351314656E+04  0.46999998093E+01 0.  1.
       -5    1    3    3    0  502 -0.21049033755E+03  0.99892140505E+02  0.19633594772E+03  0.30472039036E+03  0.46999998093E+01 0. -1.
</event>
<event>
 5   0  0.1099980E-02  0.7025815E+03  0.7818609E-02  0.9712828E-01
       -2   -1    0    0    0  501  0.00000000000E+00  0.00000000000E+00  0.30519995864E+03  0.30519995865E+03  0.25500000920E-02 0. -1.
        2   -1    0    0  501    0  0.00000000000E+00  0.00000000000E+00 -0.40434214412E+03  0.40434214413E+03  0.25500000920E-02 0.  1.
    10030    2    1    2    0    0  0.00000000000E+00  0.00000000000E+00 -0.99142185488E+02  0.70954210278E+03  0.70258154165E+03 0.  0.
        5    1    3    3  502    0  0.21635549092E+03  0.27642403157E+03 -0.36670661246E+02  0.35296851287E+03  0.46999998093E+01 0.  1.
       -5    1    3    3    0  502 -0.21635549092E+03 -0.27642403157E+03 -0.62471524242E+02  0.35657358991E+03  0.46999998093E+01 0. -1.
</event>
<event>
 5   0  0.1079446E-02  0.7006816E+03  0.7818609E-02  0.9716067E-01
       -2   -1    0    0    0  501  0.00000000000E+00  0.00000000000E+00  0.18231885038E+03  0.18231885040E+03  0.25500000920E-02 0. -1.
        2   -1    0    0  501    0  0.00000000000E+00  0.00000000000E+00 -0.67320895136E+03  0.67320895137E+03  0.25500000920E-02 0.  1.
    10030    2    1    2    0    0  0.00000000000E+00  0.00000000000E+00 -0.49089010099E+03  0.85552780176E+03  0.70068161696E+03 0.  0.
        2    1    3    3  502    0 -0.13786840573E+03 -0.10979813720E+03 -0.61513675124E+03  0.63988792063E+03  0.25500000920E-02 0.  1.
       -2    1    3    3    0  502  0.13786840573E+03  0.10979813720E+03  0.12424665025E+03  0.21563988114E+03  0.25500000920E-02 0. -1.
</event>
<event>
 5   0  0.1119786E-02  0.6983104E+03  0.7818609E-02  0.9720126E-01
        2   -1    0    0  501    0  0.00000000000E+00  0.00000000000E+00  0.11705403384E+04  0.11705403384E+04  0.25500000920E-02 0.  1.
       -2   -1    0    0    0  501  0.00000000000E+00  0.00000000000E+00 -0.10414793911E+03  0.10414793914E+03  0.25500000920E-02 0. -1.
    10030    2    1    2    0    0  0.00000000000E+00  0.00000000000E+00  0.10663923992E+04  0.12746882775E+04  0.69831042928E+03 0.  0.
        3    1    3    3  502    0  0.97230178340E+02 -0.58603776932E+02 -0.69517452993E+02  0.13311948288E+03  0.10100000352E+00 0. -1.
       -3    1    3    3    0  502 -0.97230178340E+02  0.58603776932E+02  0.11359098522E+04  0.11415687946E+04  0.10100000352E+00 0.  1.
</event>
<event>
 5   0  0.6689415E-03  0.6952117E+03  0.7818609E-02  0.9725456E-01
        1   -1    0    0  501    0  0.00000000000E+00  0.00000000000E+00  0.27303616948E+03  0.27303616952E+03  0.50400001928E-02 0. -1.
       -1   -1    0    0    0  501  0.00000000000E+00  0.00000000000E+00 -0.44254145827E+03  0.44254145830E+03  0.50400001928E-02 0.  1.
    10030    2    1    2    0    0  0.00000000000E+00  0.00000000000E+00 -0.16950528879E+03  0.71557762782E+03  0.69521169330E+03 0.  0.
        1    1    3    3  502    0  0.22296860183E+03 -0.85709837378E+02 -0.34467480036E+03  0.41935890553E+03  0.50400001928E-02 0.  1.
       -1    1    3    3    0  502 -0.22296860183E+03  0.85709837378E+02  0.17516951156E+03  0.29621872228E+03  0.50400001928E-02 0. -1.
</event>
<event>
 5   0  0.1119786E-02  0.6977683E+03  0.7818609E-02  0.9721056E-01
       -2   -1    0    0    0  501  0.00000000000E+00  0.00000000000E+00  0.53350045509E+02  0.53350045570E+02  0.25500000920E-02 0. -1.
        2   -1    0    0  501    0  0.00000000000E+00  0.00000000000E+00 -0.22815376738E+04  0.22815376738E+04  0.25500000920E-02 0.  1.
    10030    2    1    2    0    0  0.00000000000E+00  0.00000000000E+00 -0.22281876283E+04  0.23348877193E+04  0.69776826754E+03 0.  0.
        3    1    3    3  502    0 -0.34117339357E+03 -0.66688557737E+01 -0.87102881442E+03  0.93548648513E+03  0.10100000352E+00 0. -1.
       -3    1    3    3    0  502  0.34117339357E+03  0.66688557737E+01 -0.13571588138E+04  0.13994012342E+04  0.10100000352E+00 0.  1.
</event>
<event>
 5   0  0.1099980E-02  0.6789926E+03  0.7818609E-02  0.9753848E-01
        2   -1    0    0  501    0  0.00000000000E+00  0.00000000000E+00  0.36290343397E+03  0.36290343398E+03  0.25500000920E-02 0. -1.
       -2   -1    0    0    0  501  0.00000000000E+00  0.00000000000E+00 -0.31759896271E+03  0.31759896272E+03  0.25500000920E-02 0.  1.
    10030    2    1    2    0    0  0.00000000000E+00  0.00000000000E+00  0.45304471259E+02  0.68050239670E+03  0.67899264856E+03 0.  0.
        5    1    3    3  502    0 -0.19352321905E+03  0.27840358848E+03  0.39298495810E+02  0.34135942372E+03  0.46999998093E+01 0.  1.
       -5    1    3    3    0  502  0.19352321905E+03 -0.27840358848E+03  0.60059754485E+01  0.33914297299E+03  0.46999998093E+01 0. -1.
</event>
<event>
 5   0  0.6246998E-03  0.6977753E+03  0.7818609E-02  0.9721044E-01
        1   -1    0    0  501    0  0.00000000000E+00  0.00000000000E+00  0.93620158579E+03  0.93620158581E+03  0.50400001928E-02 0.  1.
       -1   -1    0    0    0  501  0.00000000000E+00  0.00000000000E+00 -0.13001751119E+03  0.13001751129E+03  0.50400001928E-02 0. -1.
    10030    2    1    2    0    0  0.00000000000E+00  0.00000000000E+00  0.80618407460E+03  0.10662190971E+04  0.69777532263E+03 0.  0.
        4    1    3    3  502    0  0.31197464470E+03 -0.10147131784E+03  0.22167225117E+03  0.39593535724E+03  0.12699999809E+01 0. -1.
       -4    1    3    3    0  502 -0.31197464470E+03  0.10147131784E+03  0.58451182343E+03  0.67028373985E+03  0.12699999809E+01 0.  1.
</event>
<event>
 5   0  0.4440500E-03  0.6659762E+03  0.7818609E-02  0.9777254E-01
        4   -1    0    0  501    0  0.00000000000E+00  0.00000000000E+00  0.36673267870E+03  0.36673487771E+03  0.12699999809E+01 0.  1.
       -4   -1    0    0    0  501  0.00000000000E+00  0.00000000000E+00 -0.30234407187E+03  0.30234673918E+03  0.12699999809E+01 0. -1.
    10030    2    1    2    0    0  0.00000000000E+00  0.00000000000E+00  0.64388606833E+02  0.66908161689E+03  0.66597621381E+03 0.  0.
        5    1    3    3  502    0 -0.31547720463E+03 -0.10591302124E+03  0.21394544367E+02  0.33350150110E+03  0.46999998093E+01 0.  1.
       -5    1    3    3    0  502  0.31547720463E+03  0.10591302124E+03  0.42994062466E+02  0.33558011579E+03  0.46999998093E+01 0. -1.
</event>
<event>
 5   0  0.1100119E-02  0.6989273E+03  0.7818609E-02  0.9719068E-01
        2   -1    0    0  501    0  0.00000000000E+00  0.00000000000E+00  0.28034652930E+03  0.28034652931E+03  0.25500000920E-02 0.  1.
       -2   -1    0    0    0  501  0.00000000000E+00  0.00000000000E+00 -0.43562103992E+03  0.43562103992E+03  0.25500000920E-02 0. -1.
    10030    2    1    2    0    0  0.00000000000E+00  0.00000000000E+00 -0.15527451062E+03  0.71596756923E+03  0.69892731134E+03 0.  0.
        4    1    3    3  502    0  0.54721787771E+02 -0.29789161810E+02  0.27460873465E+03  0.28159090586E+03  0.12699999809E+01 0.  1.
       -4    1    3    3    0  502 -0.54721787771E+02  0.29789161810E+02 -0.42988324527E+03  0.43437666337E+03  0.12699999809E+01 0. -1.
</event>
<event>
 5   0  0.1100119E-02  0.7009055E+03  0.7818609E-02  0.9715685E-01
       -2   -1    0    0    0  501  0.00000000000E+00  0.00000000000E+00  0.11424678775E+03  0.11424678778E+03  0.25500000920E-02 0. -1.
        2   -1    0    0  501    0  0.00000000000E+00  0.00000000000E+00 -0.10750159590E+04  0.10750159590E+04  0.25500000920E-02 0.  1.
    10030    2    1    2    0    0  0.00000000000E+00  0.00000000000E+00 -0.96076917122E+03  0.11892627467E+04  0.70090547183E+03 0.  0.
        4    1    3    3  502    0 -0.23692434467E+03  0.55114218005E+02 -0.52329386138E+02  0.24881860798E+03  0.12699999809E+01 0. -1.
       -4    1    3    3    0  502  0.23692434467E+03 -0.55114218005E+02 -0.90843978508E+03  0.94044413877E+03  0.12699999809E+01 0.  1.
</event>
<event>
 5   0  0.1079446E-02  0.7003245E+03  0.7818609E-02  0.9716677E-01
       -2   -1    0    0    0  501  0.00000000000E+00  0.00000000000E+00  0.11244478239E+03  0.11244478242E+03  0.25500000920E-02 0. -1.
        2   -1    0    0  501    0  0.00000000000E+00  0.00000000000E+00 -0.10904340184E+04  0.10904340184E+04  0.25500000920E-02 0.  1.
    10030    2    1    2    0    0  0.00000000000E+00  0.00000000000E+00 -0.97798923600E+03  0.12028788008E+04  0.70032454172E+03 0.  0.
        2    1    3    3  502    0 -0.29181078399E+03 -0.17155481076E+03 -0.33508915229E+03  0.47630801666E+03  0.25500000920E-02 0. -1.
       -2    1    3    3    0  502  0.29181078399E+03  0.17155481076E+03 -0.64290008371E+03  0.72657078416E+03  0.25500000920E-02 0.  1.
</event>
<event>
 5   0  0.1109788E-02  0.6995562E+03  0.7818609E-02  0.9717992E-01
        2   -1    0    0  501    0  0.00000000000E+00  0.00000000000E+00  0.81282096812E+03  0.81282096813E+03  0.25500000920E-02 0.  1.
       -2   -1    0    0    0  501  0.00000000000E+00  0.00000000000E+00 -0.15051864076E+03  0.15051864078E+03  0.25500000920E-02 0. -1.
    10030    2    1    2    0    0  0.00000000000E+00  0.00000000000E+00  0.66230232736E+03  0.96333960891E+03  0.69955616591E+03 0.  0.
        1    1    3    3  502    0  0.18091214736E+03 -0.29457981919E+03  0.25778753541E+03  0.43123182672E+03  0.50400001928E-02 0. -1.
       -1    1    3    3    0  502 -0.18091214736E+03  0.29457981919E+03  0.40451479195E+03  0.53210778219E+03  0.50400001928E-02 0.  1.
</event>
<event>
 5   0  0.1100119E-02  0.7025378E+03  0.7818609E-02  0.9712902E-01
        2   -1    0    0  501    0  0.00000000000E+00  0.00000000000E+00  0.18184085114E+04  0.18184085114E+04  0.25500000920E-02 0.  1.
       -2   -1    0    0    0  501  0.00000000000E+00  0.00000000000E+00 -0.67855959456E+02  0.67855959503E+02  0.25500000920E-02 0. -1.
    10030    2    1    2    0    0  0.00000000000E+00  0.00000000000E+00  0.17505525519E+04  0.18862644709E+04  0.70253784032E+03 0.  0.
        4    1    3    3  502    0  0.13939619531E+03  0.19243889531E+03  0.15698598392E+04  0.15877422824E+04  0.12699999809E+01 0.  1.
       -4    1    3    3    0  502 -0.13939619531E+03 -0.19243889531E+03  0.18069271276E+03  0.29852218852E+03  0.12699999809E+01 0. -1.
</event>
<event>
 5   0  0.1119786E-02  0.7001180E+03  0.7818609E-02  0.9717030E-01
        2   -1    0    0  501    0  0.00000000000E+00  0.00000000000E+00  0.95494768262E+03  0.95494768263E+03  0.25500000920E-02 0.  1.
       -2   -1    0    0    0  501  0.00000000000E+00  0.00000000000E+00 -0.12832254156E+03  0.12832254159E+03  0.25500000920E-02 0. -1.
    10030    2    1    2    0    0  0.00000000000E+00  0.00000000000E+00  0.82662514106E+03  0.10832702242E+04  0.70011802922E+03 0.  0.
        3    1    3    3  502    0 -0.20978642276E+03  0.65202735690E+02  0.83500928372E+03  0.86342472400E+03  0.10100000352E+00 0.  1.
       -3    1    3    3    0  502  0.20978642276E+03 -0.65202735690E+02 -0.83841426560E+01  0.21984550022E+03  0.10100000352E+00 0. -1.
</event>
<event>
 5   0  0.4440500E-03  0.6985881E+03  0.7818609E-02  0.9719650E-01
        3   -1    0    0  501    0  0.00000000000E+00  0.00000000000E+00  0.11391981133E+03  0.11391985610E+03  0.10100000352E+00 0. -1.
       -3   -1    0    0    0  501  0.00000000000E+00  0.00000000000E+00 -0.10709840608E+04  0.10709840655E+04  0.10100000352E+00 0.  1.
    10030    2    1    2    0    0  0.00000000000E+00  0.00000000000E+00 -0.95706424943E+03  0.11849039216E+04  0.69858809460E+03 0.  0.
        3    1    3    3  502    0 -0.16078035751E+02 -0.34482925323E+03 -0.56893189278E+03  0.66546917731E+03  0.10100000352E+00 0.  1.
       -3    1    3    3    0  502  0.16078035751E+02  0.34482925323E+03 -0.38813235665E+03  0.51943474431E+03  0.10100000352E+00 0. -1.
</event>
<event>
 5   0  0.6689415E-03  0.7012348E+03  0.7818609E-02  0.9715123E-01
        1   -1    0    0  501    0  0.00000000000E+00  0.00000000000E+00  0.10693256272E+04  0.10693256272E+04  0.50400001928E-02 0. -1.
       -1   -1    0    0    0  501  0.00000000000E+00  0.00000000000E+00 -0.11496269970E+03  0.11496269981E+03  0.50400001928E-02 0.  1.
    10030    2    1    2    0    0  0.00000000000E+00  0.00000000000E+00  0.95436292745E+03  0.11842883270E+04  0.70123479956E+03 0.  0.
        1    1    3    3  502    0  0.21693041147E+03  0.57523692306E+02  0.22238516238E+02  0.22552678384E+03  0.50400001928E-02 0.  1.
       -1    1    3    3    0  502 -0.21693041147E+03 -0.57523692306E+02  0.93212441121E+03  0.95876154314E+03  0.50400001928E-02 0. -1.
</event>
<event>
 5   0  0.6689415E-03  0.6989805E+03  0.7818609E-02  0.9718977E-01
        1   -1    0    0  501    0  0.00000000000E+00  0.00000000000E+00  0.21488631625E+03  0.21488631631E+03  0.50400001928E-02 0. -1.
       -1   -1    0    0    0  501  0.00000000000E+00  0.00000000000E+00 -0.56840957993E+03  0.56840957995E+03  0.50400001928E-02 0.  1.
    10030    2    1    2    0    0  0.00000000000E+00  0.00000000000E+00 -0.35352326368E+03  0.78329589626E+03  0.69898051699E+03 0.  0.
        1    1    3    3  502    0 -0.18925629000E+03  0.79417463530E+02 -0.49375896923E+03  0.53471767928E+03  0.50400001928E-02 0.  1.
       -1    1    3    3    0  502  0.18925629000E+03 -0.79417463530E+02  0.14023570555E+03  0.24857821697E+03  0.50400001928E-02 0. -1.
</event>
<event>
 5   0  0.6246998E-03  0.7039064E+03  0.7818609E-02  0.9710575E-01
        1   -1    0    0  501    0  0.00000000000E+00  0.00000000000E+00  0.58792848511E+03  0.58792848513E+03  0.50400001928E-02 0.  1.
       -1   -1    0    0    0  501  0.00000000000E+00  0.00000000000E+00 -0.21069070778E+03  0.21069070784E+03  0.50400001928E-02 0. -1.
    10030    2    1    2    0    0  0.00000000000E+00  0.00000000000E+00  0.37723777733E+03  0.79861919298E+03  0.70390643892E+03 0.  0.
        4    1    3    3  502    0 -0.21153102361E+03  0.15434968468E+03 -0.78182680135E+02  0.27328253417E+03  0.12699999809E+01 0. -1.
       -4    1    3    3    0  502  0.21153102361E+03 -0.15434968468E+03  0.45542045746E+03  0.52533665881E+03  0.12699999809E+01 0.  1.
</event>
<event>
 5   0  0.6689415E-03  0.7008392E+03  0.7818609E-02  0.9715798E-01
       -1   -1    0    0    0  501  0.00000000000E+00  0.00000000000E+00  0.32767840649E+03  0.32767840653E+03  0.50400001928E-02 0.  1.
        1   -1    0    0  501    0  0.00000000000E+00  0.00000000000E+00 -0.37473905936E+03  0.37473905939E+03  0.50400001928E-02 0. -1.
    10030    2    1    2    0    0  0.00000000000E+00  0.00000000000E+00 -0.47060652873E+02  0.70241746592E+03  0.70083920508E+03 0.  0.
        1    1    3    3  502    0  0.56437529191E+02  0.26447571474E+03 -0.24688032455E+03  0.36617276395E+03  0.50400001928E-02 0.  1.
       -1    1    3    3    0  502 -0.56437529191E+02 -0.26447571474E+03  0.19981967168E+03  0.33624470197E+03  0.50400001928E-02 0. -1.
</event>
<event>
 5   0  0.1109788E-02  0.6975110E+03  0.7818609E-02  0.9721498E-01
       -2   -1    0    0    0  501  0.00000000000E+00  0.00000000000E+00  0.81312234733E+02  0.81312234773E+02  0.25500000920E-02 0.  1.
        2   -1    0    0  501    0  0.00000000000E+00  0.00000000000E+00 -0.14958436363E+04  0.14958436363E+04  0.25500000920E-02 0. -1.
    10030    2    1    2    0    0  0.00000000000E+00  0.00000000000E+00 -0.14145314016E+04  0.15771558711E+04  0.69751097170E+03 0.  0.
        1    1    3    3  502    0 -0.10459154335E+03 -0.15465757330E+03 -0.13733258647E+04  0.13859589772E+04  0.50400001928E-02 0. -1.
       -1    1    3    3    0  502  0.10459154335E+03  0.15465757330E+03 -0.41205536875E+02  0.19119689384E+03  0.50400001928E-02 0.  1.
</event>
<event>
 5   0  0.1100119E-02  0.6997224E+03  0.7818609E-02  0.9717707E-01
        2   -1    0    0  501    0  0.00000000000E+00  0.00000000000E+00  0.49759765756E+03  0.49759765757E+03  0.25500000920E-02 0.  1.
       -2   -1    0    0    0  501  0.00000000000E+00  0.00000000000E+00 -0.24598758956E+03  0.24598758957E+03  0.25500000920E-02 0. -1.
    10030    2    1    2    0    0  0.00000000000E+00  0.00000000000E+00  0.25161006800E+03  0.74358524714E+03  0.69972236883E+03 0.  0.
        4    1    3    3  502    0  0.25371528609E+03 -0.11327038898E+01  0.38179662637E+03  0.45841357552E+03  0.12699999809E+01 0.  1.
       -4    1    3    3    0  502 -0.25371528609E+03  0.11327038898E+01 -0.13018655837E+03  0.28517167162E+03  0.12699999809E+01 0. -1.
</event>
<event>
 5   0  0.1079446E-02  0.6978982E+03  0.7818609E-02  0.9720833E-01
       -2   -1    0    0    0  501  0.00000000000E+00  0.00000000000E+00  0.25805854888E+03  0.25805854890E+03  0.25500000920E-02 0.  1.
        2   -1    0    0  501    0  0.00000000000E+00  0.00000000000E+00 -0.47185213017E+03  0.47185213017E+03  0.25500000920E-02 0. -1.
    10030    2    1    2    0    0  0.00000000000E+00  0.00000000000E+00 -0.21379358128E+03  0.72991067907E+03  0.69789820463E+03 0.  0.
        2    1    3    3  502    0 -0.12473189599E+03  0.48985771389E+02 -0.44386791038E+03  0.46365544702E+03  0.25500000920E-02 0. -1.
       -2    1    3    3    0  502  0.12473189599E+03 -0.48985771389E+02  0.23007432910E+03  0.26625523205E+03  0.25500000920E-02 0.  1.
</event>
<event>
 5   0  0.6990118E-03  0.7005960E+03  0.7818609E-02  0.9716213E-01
        1   -1    0    0  501    0  0.00000000000E+00  0.00000000000E+00  0.19504530383E+04  0.19504530383E+04  0.50400001928E-02 0.  1.
       -1   -1    0    0    0  501  0.00000000000E+00  0.00000000000E+00 -0.62912916630E+02  0.62912916832E+02  0.50400001928E-02 0. -1.
    10030    2    1    2    0    0  0.00000000000E+00  0.00000000000E+00  0.18875401216E+04  0.20133659551E+04  0.70059600227E+03 0.  0.
        5    1    3    3  502    0 -0.27626663713E+03  0.17807578925E+03  0.59590658837E+03  0.68055932406E+03  0.46999998093E+01 0. -1.
       -5    1    3    3    0  502  0.27626663713E+03 -0.17807578925E+03  0.12916335333E+04  0.13328066311E+04  0.46999998093E+01 0.  1.
</event>
<event>
 5   0  0.6785252E-03  0.6997978E+03  0.7818609E-02  0.9717578E-01
       -1   -1    0    0    0  501  0.00000000000E+00  0.00000000000E+00  0.17752158732E+03  0.17752158739E+03  0.50400001928E-02 0.  1.
        1   -1    0    0  501    0  0.00000000000E+00  0.00000000000E+00 -0.68965835106E+03  0.68965835108E+03  0.50400001928E-02 0. -1.
    10030    2    1    2    0    0  0.00000000000E+00  0.00000000000E+00 -0.51213676374E+03  0.86717993847E+03  0.69979781431E+03 0.  0.
        3    1    3    3  502    0  0.10358097001E+03  0.10522472051E+03 -0.64916201440E+03  0.66574213499E+03  0.10100000352E+00 0. -1.
       -3    1    3    3    0  502 -0.10358097001E+03 -0.10522472051E+03  0.13702525066E+03  0.20143780348E+03  0.10100000352E+00 0.  1.
</event>
<event>
 5   0  0.1109788E-02  0.6984582E+03  0.7818609E-02  0.9719872E-01
        2   -1    0    0  501    0  0.00000000000E+00  0.00000000000E+00  0.11108652586E+04  0.11108652586E+04  0.25500000920E-02 0. -1.
       -2   -1    0    0    0  501  0.00000000000E+00  0.00000000000E+00 -0.10978916656E+03  0.10978916659E+03  0.25500000920E-02 0.  1.
    10030    2    1    2    0    0  0.00000000000E+00  0.00000000000E+00  0.10010760921E+04  0.12206544252E+04  0.69845821902E+03 0.  0.
        1    1    3    3  502    0  0.31353609525E+03  0.71134212923E+02  0.26221710653E+03  0.41487681335E+03  0.50400001928E-02 0.  1.
       -1    1    3    3    0  502 -0.31353609525E+03 -0.71134212923E+02  0.73885898554E+03  0.80577761188E+03  0.50400001928E-02 0. -1.
</event>
<event>
 5   0  0.6246998E-03  0.7055755E+03  0.7818609E-02  0.9707745E-01
       -1   -1    0    0    0  501  0.00000000000E+00  0.00000000000E+00  0.13056472990E+04  0.13056472990E+04  0.50400001928E-02 0. -1.
        1   -1    0    0  501    0  0.00000000000E+00  0.00000000000E+00 -0.95323745108E+02  0.95323745241E+02  0.50400001928E-02 0.  1.
    10030    2    1    2    0    0  0.00000000000E+00  0.00000000000E+00  0.12103235539E+04  0.14009710443E+04  0.70557548266E+03 0.  0.
        4    1    3    3  502    0 -0.10900454413E+03  0.13313322443E+03  0.12166765252E+04  0.12287838809E+04  0.12699999809E+01 0. -1.
       -4    1    3    3    0  502  0.10900454413E+03 -0.13313322443E+03 -0.63529712738E+01  0.17218716338E+03  0.12699999809E+01 0.  1.
</event>
<event>
 5   0  0.6689415E-03  0.7014621E+03  0.7818609E-02  0.9714735E-01
        1   -1    0    0  501    0  0.00000000000E+00  0.00000000000E+00  0.82810957460E+03  0.82810957461E+03  0.50400001928E-02 0.  1.
       -1   -1    0    0    0  501  0.00000000000E+00  0.00000000000E+00 -0.14854590084E+03  0.14854590093E+03  0.50400001928E-02 0. -1.
    10030    2    1    2    0    0  0.00000000000E+00  0.00000000000E+00  0.67956367375E+03  0.97665547554E+03  0.70146213812E+03 0.  0.
        1    1    3    3  502    0  0.52128828259E+02 -0.38133466516E+02  0.81975810816E+03  0.82229856617E+03  0.50400001928E-02 0.  1.
       -1    1    3    3    0  502 -0.52128828259E+02  0.38133466516E+02 -0.14019443441E+03  0.15435690937E+03  0.50400001928E-02 0. -1.
</event>
<event>
 5   0  0.6689415E-03  0.7088302E+03  0.7818609E-02  0.9702249E-01
       -1   -1    0    0    0  501  0.00000000000E+00  0.00000000000E+00  0.54571415130E+03  0.54571415132E+03  0.50400001928E-02 0.  1.
        1   -1    0    0  501    0  0.00000000000E+00  0.00000000000E+00 -0.23017558365E+03  0.23017558371E+03  0.50400001928E-02 0. -1.
    10030    2    1    2    0    0  0.00000000000E+00  0.00000000000E+00  0.31553856765E+03  0.77588973503E+03  0.70883022879E+03 0.  0.
        1    1    3    3  502    0 -0.25591963632E+03 -0.19352648356E+03 -0.70142178013E+01  0.32093077037E+03  0.50400001928E-02 0. -1.
       -1    1    3    3    0  502  0.25591963632E+03  0.19352648356E+03  0.32255278545E+03  0.45495896466E+03  0.50400001928E-02 0.  1.
</event>
<event>
 5   0  0.4440500E-03  0.7115394E+03  0.7818609E-02  0.9697699E-01
        3   -1    0    0  501    0  0.00000000000E+00  0.00000000000E+00  0.78349196165E+03  0.78349196816E+03  0.10100000352E+00 0. -1.
       -3   -1    0    0    0  501  0.00000000000E+00  0.00000000000E+00 -0.16154862443E+03  0.16154865600E+03  0.10100000352E+00 0.  1.
    10030    2    1    2    0    0  0.00000000000E+00  0.00000000000E+00  0.62194333723E+03  0.94504062416E+03  0.71153936405E+03 0.  0.
        4    1    3    3  502    0 -0.14271184597E+03  0.22532707641E+02 -0.12082664859E+03  0.18834830980E+03  0.12699999809E+01 0.  1.
       -4    1    3    3    0  502  0.14271184597E+03 -0.22532707641E+02  0.74276998582E+03  0.75669231437E+03  0.12699999809E+01 0. -1.
</event>
<event>
 5   0  0.6990118E-03  0.6990883E+03  0.7818609E-02  0.9718793E-01
       -1   -1    0    0    0  501  0.00000000000E+00  0.00000000000E+00  0.13087919178E+03  0.13087919188E+03  0.50400001928E-02 0. -1.
        1   -1    0    0  501    0  0.00000000000E+00  0.00000000000E+00 -0.93354118374E+03  0.93354118376E+03  0.50400001928E-02 0.  1.
    10030    2    1    2    0    0  0.00000000000E+00  0.00000000000E+00 -0.80266199196E+03  0.10644203756E+04  0.69908830826E+03 0.  0.
        5    1    3    3  502    0 -0.18856359517E+03 -0.22683246717E+03 -0.11587265120E+03  0.31695071995E+03  0.46999998093E+01 0. -1.
       -5    1    3    3    0  502  0.18856359517E+03  0.22683246717E+03 -0.68678934076E+03  0.74746965569E+03  0.46999998093E+01 0.  1.
</event>
<event>
 5   0  0.6785252E-03  0.7001147E+03  0.7818609E-02  0.9717036E-01
        1   -1    0    0  501    0  0.00000000000E+00  0.00000000000E+00  0.24438762986E+03  0.24438762991E+03  0.50400001928E-02 0. -1.
       -1   -1    0    0    0  501  0.00000000000E+00  0.00000000000E+00 -0.50141712866E+03  0.50141712869E+03  0.50400001928E-02 0.  1.
    10030    2    1    2    0    0  0.00000000000E+00  0.00000000000E+00 -0.25702949880E+03  0.74580475860E+03  0.70011468682E+03 0.  0.
        3    1    3    3  502    0  0.77068537343E+01  0.30158455723E+03 -0.31766228133E+03  0.43808900458E+03  0.10100000352E+00 0.  1.
       -3    1    3    3    0  502 -0.77068537343E+01 -0.30158455723E+03  0.60632782530E+02  0.30771575402E+03  0.10100000352E+00 0. -1.
</event>
<event>
 5   0  0.1100119E-02  0.7027643E+03  0.7818609E-02  0.9712517E-01
       -2   -1    0    0    0  501  0.00000000000E+00  0.00000000000E+00  0.75914636521E+02  0.75914636563E+02  0.25500000920E-02 0. -1.
        2   -1    0    0  501    0  0.00000000000E+00  0.00000000000E+00 -0.16264243408E+04  0.16264243408E+04  0.25500000920E-02 0.  1.
    10030    2    1    2    0    0  0.00000000000E+00  0.00000000000E+00 -0.15505097043E+04  0.17023389774E+04  0.70276429249E+03 0.  0.
        4    1    3    3  502    0 -0.32261912266E+03  0.10278778329E+03 -0.54776856947E+03  0.64397239483E+03  0.12699999809E+01 0. -1.
       -4    1    3    3    0  502  0.32261912266E+03 -0.10278778329E+03 -0.10027411348E+04  0.10583665825E+04  0.12699999809E+01 0.  1.
</event>
<event>
 5   0  0.1109788E-02  0.7005207E+03  0.7818609E-02  0.9716342E-01
       -2   -1    0    0    0  501  0.00000000000E+00  0.00000000000E+00  0.13031126230E+03  0.13031126233E+03  0.25500000920E-02 0. -1.
        2   -1    0    0  501    0  0.00000000000E+00  0.00000000000E+00 -0.94145590256E+03  0.94145590257E+03  0.25500000920E-02 0.  1.
    10030    2    1    2    0    0  0.00000000000E+00  0.00000000000E+00 -0.81114464026E+03  0.10717671649E+04  0.70052068372E+03 0.  0.
        1    1    3    3  502    0  0.14377861430E+03 -0.17834426519E+03 -0.19600303134E+00  0.22908296598E+03  0.50400001928E-02 0. -1.
       -1    1    3    3    0  502 -0.14377861430E+03  0.17834426519E+03 -0.81094863723E+03  0.84268419892E+03  0.50400001928E-02 0.  1.
</event>
<event>
 5   0  0.6246998E-03  0.7024500E+03  0.7818609E-02  0.9713051E-01
       -1   -1    0    0    0  501  0.00000000000E+00  0.00000000000E+00  0.14088530223E+03  0.14088530232E+03  0.50400001928E-02 0. -1.
        1   -1    0    0  501    0  0.00000000000E+00  0.00000000000E+00 -0.87559886983E+03  0.87559886985E+03  0.50400001928E-02 0.  1.
    10030    2    1    2    0    0  0.00000000000E+00  0.00000000000E+00 -0.73471356760E+03  0.10164841722E+04  0.70245003086E+03 0.  0.
        4    1    3    3  502    0 -0.60867245608E+01  0.83587493150E+02 -0.86091404660E+03  0.86498469684E+03  0.12699999809E+01 0.  1.
       -4    1    3    3    0  502  0.60867245608E+01 -0.83587493150E+02  0.12620047900E+03  0.15149947533E+03  0.12699999809E+01 0. -1.
</event>
<event>
 5   0  0.1099980E-02  0.6990776E+03  0.7818609E-02  0.9718811E-01
        2   -1    0    0  501    0  0.00000000000E+00  0.00000000000E+00  0.40525602909E+03  0.40525602910E+03  0.25500000920E-02 0. -1.
       -2   -1    0    0    0  501  0.00000000000E+00  0.00000000000E+00 -0.30148196655E+03  0.30148196656E+03  0.25500000920E-02 0.  1.
    10030    2    1    2    0    0  0.00000000000E+00  0.00000000000E+00  0.10377406254E+03  0.70673799565E+03  0.69907763406E+03 0.  0.
        5    1    3    3  502    0 -0.14853185053E+03 -0.11860704633E+02  0.37150467756E+03  0.40030014037E+03  0.46999998093E+01 0. -1.
       -5    1    3    3    0  502  0.14853185053E+03  0.11860704633E+02 -0.26773061502E+03  0.30643785528E+03  0.46999998093E+01 0.  1.
</event>
<event>
 5   0  0.6609285E-03  0.7003350E+03  0.7818609E-02  0.9716659E-01
       -1   -1    0    0    0  501  0.00000000000E+00  0.00000000000E+00  0.13369905343E+04  0.13369905343E+04  0.50400001928E-02 0.  1.
        1   -1    0    0  501    0  0.00000000000E+00  0.00000000000E+00 -0.91711414571E+02  0.91711414710E+02  0.50400001928E-02 0. -1.
    10030    2    1    2    0    0  0.00000000000E+00  0.00000000000E+00  0.12452791197E+04  0.14287019490E+04  0.70033504346E+03 0.  0.
        2    1    3    3  502    0  0.22714467933E+03  0.23038946944E+03  0.89590625192E+03  0.95253452704E+03  0.25500000920E-02 0.  1.
       -2    1    3    3    0  502 -0.22714467933E+03 -0.23038946944E+03  0.34937286779E+03  0.47616742196E+03  0.25500000920E-02 0. -1.
</event>
<event>
 5   0  0.6689415E-03  0.7005776E+03  0.7818609E-02  0.9716245E-01
        1   -1    0    0  501    0  0.00000000000E+00  0.00000000000E+00  0.45583347217E+03  0.45583347220E+03  0.50400001928E-02 0. -1.
       -1   -1    0    0    0  501  0.00000000000E+00  0.00000000000E+00 -0.26918214502E+03  0.26918214507E+03  0.50400001928E-02 0.  1.
    10030    2    1    2    0    0  0.00000000000E+00  0.00000000000E+00  0.18665132715E+03  0.72501561727E+03  0.70057756698E+03 0.  0.
        1    1    3    3  502    0 -0.15025722479E+03  0.55294474310E+02 -0.22909888488E+03  0.27950136237E+03  0.50400001928E-02 0.  1.
       -1    1    3    3    0  502  0.15025722479E+03 -0.55294474310E+02  0.41575021203E+03  0.44551425490E+03  0.50400001928E-02 0. -1.
</event>
<event>
 5   0  0.6689415E-03  0.6961133E+03  0.7818609E-02  0.9723902E-01
       -1   -1    0    0    0  501  0.00000000000E+00  0.00000000000E+00  0.17294689653E+03  0.17294689661E+03  0.50400001928E-02 0. -1.
        1   -1    0    0  501    0  0.00000000000E+00  0.00000000000E+00 -0.70046602038E+03  0.70046602040E+03  0.50400001928E-02 0.  1.
    10030    2    1    2    0    0  0.00000000000E+00  0.00000000000E+00 -0.52751912385E+03  0.87341291701E+03  0.69611327927E+03 0.  0.
        1    1    3    3  502    0 -0.43250248641E+02  0.14965930327E+03  0.12676234396E+03  0.20084118834E+03  0.50400001928E-02 0. -1.
       -1    1    3    3    0  502  0.43250248641E+02 -0.14965930327E+03 -0.65428146781E+03  0.67257172867E+03  0.50400001928E-02 0.  1.
</event>
<event>
 5   0  0.6785252E-03  0.6983121E+03  0.7818609E-02  0.9720123E-01
        1   -1    0    0  501    0  0.00000000000E+00  0.00000000000E+00  0.11519536619E+04  0.11519536619E+04  0.50400001928E-02 0. -1.
       -1   -1    0    0    0  501  0.00000000000E+00  0.00000000000E+00 -0.10582885584E+03  0.10582885596E+03  0.50400001928E-02 0.  1.
    10030    2    1    2    0    0  0.00000000000E+00  0.00000000000E+00  0.10461248061E+04  0.12577825179E+04  0.69831207378E+03 0.  0.
        3    1    3    3  502    0 -0.55741728331E+02 -0.17508816190E+03 -0.11698418572E+02  0.18411916770E+03  0.10100000352E+00 0.  1.
       -3    1    3    3    0  502  0.55741728331E+02  0.17508816190E+03  0.10578232246E+04  0.10736633502E+04  0.10100000352E+00 0. -1.
</event>
<event>
 5   0  0.1099980E-02  0.7028960E+03  0.7818609E-02  0.9712292E-01
        2   -1    0    0  501    0  0.00000000000E+00  0.00000000000E+00  0.15055269491E+04  0.15055269491E+04  0.25500000920E-02 0.  1.
       -2   -1    0    0    0  501  0.00000000000E+00  0.00000000000E+00 -0.82041508037E+02  0.82041508077E+02  0.25500000920E-02 0. -1.
    10030    2    1    2    0    0  0.00000000000E+00  0.00000000000E+00  0.14234854411E+04  0.15875684572E+04  0.70289601316E+03 0.  0.
        5    1    3    3  502    0 -0.22647464033E+03  0.10373694372E+03  0.15189196434E+03  0.29179680436E+03  0.46999998093E+01 0. -1.
       -5    1    3    3    0  502  0.22647464033E+03 -0.10373694372E+03  0.12715934767E+04  0.12957716528E+04  0.46999998093E+01 0.  1.
</event>
<event>
 5   0  0.1109788E-02  0.7047105E+03  0.7818609E-02  0.9709210E-01
       -2   -1    0    0    0  501  0.00000000000E+00  0.00000000000E+00  0.26199792018E+03  0.26199792020E+03  0.25500000920E-02 0.  1.
        2   -1    0    0  501    0  0.00000000000E+00  0.00000000000E+00 -0.47387482422E+03  0.47387482422E+03  0.25500000920E-02 0. -1.
    10030    2    1    2    0    0  0.00000000000E+00  0.00000000000E+00 -0.21187690403E+03  0.73587274442E+03  0.70471048915E+03 0.  0.
        1    1    3    3  502    0  0.88976281213E+02  0.22478611999E+03 -0.37361062288E+03  0.44500615267E+03  0.50400001928E-02 0. -1.
       -1    1    3    3    0  502 -0.88976281213E+02 -0.22478611999E+03  0.16173371885E+03  0.29086659175E+03  0.50400001928E-02 0.  1.
</event>
<event>
 5   0  0.6246998E-03  0.7004793E+03  0.7818609E-02  0.9716413E-01
        1   -1    0    0  501    0  0.00000000000E+00  0.00000000000E+00  0.18634574843E+03  0.18634574850E+03  0.50400001928E-02 0.  1.
       -1   -1    0    0    0  501  0.00000000000E+00  0.00000000000E+00 -0.65828078929E+03  0.65828078931E+03  0.50400001928E-02 0. -1.
    10030    2    1    2    0    0  0.00000000000E+00  0.00000000000E+00 -0.47193504085E+03  0.84462653781E+03  0.70047933987E+03 0.  0.
        4    1    3    3  502    0 -0.98828949262E+02 -0.26587227448E+03  0.11764497468E+02  0.28389301480E+03  0.12699999809E+01 0.  1.
       -4    1    3    3    0  502  0.98828949262E+02  0.26587227448E+03 -0.48369953832E+03  0.56073352301E+03  0.12699999809E+01 0. -1.
</event>
<event>
 5   0  0.6785252E-03  0.7080810E+03  0.7818609E-02  0.9703512E-01
        1   -1    0    0  501    0  0.00000000000E+00  0.00000000000E+00  0.10306749152E+04  0.10306749152E+04  0.50400001928E-02 0.  1.
       -1   -1    0    0    0  501  0.00000000000E+00  0.00000000000E+00 -0.12161417712E+03  0.12161417723E+03  0.50400001928E-02 0. -1.
    10030    2    1    2    0    0  0.00000000000E+00  0.00000000000E+00  0.90906073803E+03  0.11522890924E+04  0.70808101728E+03 0.  0.
        3    1    3    3  502    0 -0.27542806187E+03 -0.98806971610E+02  0.77886242841E+03  0.83201570147E+03  0.10100000352E+00 0.  1.
       -3    1    3    3    0  502  0.27542806187E+03  0.98806971610E+02  0.13019830963E+03  0.32027339093E+03  0.10100000352E+00 0. -1.
</event>
<event>
 5   0  0.1099980E-02  0.6965360E+03  0.7818609E-02  0.9723174E-01
        2   -1    0    0  501    0  0.00000000000E+00  0.00000000000E+00  0.75421360758E+03  0.75421360758E+03  0.25500000920E-02 0.  1.
       -2   -1    0    0    0  501  0.00000000000E+00  0.00000000000E+00 -0.16081731245E+03  0.16081731247E+03  0.25500000920E-02 0. -1.
    10030    2    1    2    0    0  0.00000000000E+00  0.00000000000E+00  0.59339629513E+03  0.91503092005E+03  0.69653601599E+03 0.  0.
        5    1    3    3  502    0  0.21404287636E+02  0.33584548806E+03  0.17906489829E+03  0.38123045941E+03  0.46999998093E+01 0. -1.
       -5    1    3    3    0  502 -0.21404287636E+02 -0.33584548806E+03  0.41433139684E+03  0.53380046064E+03  0.46999998093E+01 0.  1.
</event>
<event>
 5   0  0.6785252E-03  0.7035423E+03  0.7818609E-02  0.9711194E-01
       -1   -1    0    0    0  501  0.00000000000E+00  0.00000000000E+00  0.20410968058E+03  0.20410968065E+03  0.50400001928E-02 0. -1.
        1   -1    0    0  501    0  0.00000000000E+00  0.00000000000E+00 -0.60625709160E+03  0.60625709162E+03  0.50400001928E-02 0.  1.
    10030    2    1    2    0    0  0.00000000000E+00  0.00000000000E+00 -0.40214741102E+03  0.81036677227E+03  0.70354229824E+03 0.  0.
        3    1    3    3  502    0  0.52508751008E+02 -0.21804067891E+03  0.11108082725E+03  0.25027558206E+03  0.10100000352E+00 0. -1.
       -3    1    3    3    0  502 -0.52508751008E+02  0.21804067891E+03 -0.51322823826E+03  0.56009119021E+03  0.10100000352E+00 0.  1.
</event>
<event>
 5   0  0.6689415E-03  0.7051664E+03  0.7818609E-02  0.9708437E-01
        1   -1    0    0  501    0  0.00000000000E+00  0.00000000000E+00  0.24686296864E+03  0.24686296869E+03  0.50400001928E-02 0. -1.
       -1   -1    0    0    0  501  0.00000000000E+00  0.00000000000E+00 -0.50357866177E+03  0.50357866179E+03  0.50400001928E-02 0.  1.
    10030    2    1    2    0    0  0.00000000000E+00  0.00000000000E+00 -0.25671569313E+03  0.75044163049E+03  0.70516642977E+03 0.  0.
        1    1    3    3  502    0 -0.26465991105E+03 -0.88480869150E+02 -0.35769634369E+03  0.45367434029E+03  0.50400001928E-02 0.  1.
       -1    1    3    3    0  502  0.26465991105E+03  0.88480869150E+02  0.10098065056E+03  0.29676729020E+03  0.50400001928E-02 0. -1.
</event>
<event>
 5   0  0.1100119E-02  0.6983968E+03  0.7818609E-02  0.9719978E-01
        2   -1    0    0  501    0  0.00000000000E+00  0.00000000000E+00  0.91183383475E+03  0.91183383476E+03  0.25500000920E-02 0.  1.
       -2   -1    0    0    0  501  0.00000000000E+00  0.00000000000E+00 -0.13372997234E+03  0.13372997237E+03  0.25500000920E-02 0. -1.
    10030    2    1    2    0    0  0.00000000000E+00  0.00000000000E+00  0.77810386241E+03  0.10455638071E+04  0.69839677410E+03 0.  0.
        4    1    3    3  502    0 -0.67586123793E+02  0.77371985912E+02 -0.11059005597E+03  0.15095059361E+03  0.12699999809E+01 0. -1.
       -4    1    3    3    0  502  0.67586123793E+02 -0.77371985912E+02  0.88869391838E+03  0.89461321351E+03  0.12699999809E+01 0.  1.
</event>
<event>
 5   0  0.1079446E-02  0.7007831E+03  0.7818609E-02  0.9715894E-01
       -2   -1    0    0    0  501  0.00000000000E+00  0.00000000000E+00  0.92624154121E+02  0.92624154156E+02  0.25500000920E-02 0. -1.
        2   -1    0    0  501    0  0.00000000000E+00  0.00000000000E+00 -0.13255097664E+04  0.13255097664E+04  0.25500000920E-02 0.  1.
    10030    2    1    2    0    0  0.00000000000E+00  0.00000000000E+00 -0.12328856123E+04  0.14181339206E+04  0.70078305036E+03 0.  0.
        2    1    3    3  502    0 -0.32351809044E+03  0.10749916072E+03 -0.78027278881E+03  0.85149612410E+03  0.25500000920E-02 0.  1.
       -2    1    3    3    0  502  0.32351809044E+03 -0.10749916072E+03 -0.45261282346E+03  0.56663779645E+03  0.25500000920E-02 0. -1.
</event>
<event>
 5   0  0.6609285E-03  0.7008533E+03  0.7818609E-02  0.9715774E-01
        1   -1    0    0  501    0  0.00000000000E+00  0.00000000000E+00  0.91849966488E+02  0.91849966626E+02  0.50400001928E-02 0. -1.
       -1   -1    0    0    0  501  0.00000000000E+00  0.00000000000E+00 -0.13369503236E+04  0.13369503236E+04  0.50400001928E-02 0.  1.
    10030    2    1    2    0    0  0.00000000000E+00  0.00000000000E+00 -0.12451003571E+04  0.14288002903E+04  0.70085331569E+03 0.  0.
        2    1    3    3  502    0 -0.87073859845E+02  0.34635079785E+02  0.65832538040E+02  0.11452235106E+03  0.25500000920E-02 0. -1.
       -2    1    3    3    0  502  0.87073859845E+02 -0.34635079785E+02 -0.13109328952E+04  0.13142779392E+04  0.25500000920E-02 0.  1.
</event>
<event>
 5   0  0.1079446E-02  0.6956243E+03  0.7818609E-02  0.9724745E-01
       -2   -1    0    0    0  501  0.00000000000E+00  0.00000000000E+00  0.14922200366E+03  0.14922200368E+03  0.25500000920E-02 0.  1.
        2   -1    0    0  501    0  0.00000000000E+00  0.00000000000E+00 -0.81069338681E+03  0.81069338682E+03  0.25500000920E-02 0. -1.
    10030    2    1    2    0    0  0.00000000000E+00  0.00000000000E+00 -0.66147138315E+03  0.95991539050E+03  0.69562429960E+03 0.  0.
        2    1    3    3  502    0  0.26017538958E+03 -0.90185840534E+02 -0.62394666619E+03  0.68200744969E+03  0.25500000920E-02 0. -1.
       -2    1    3    3    0  502 -0.26017538958E+03  0.90185840534E+02 -0.37524716964E+02  0.27790794081E+03  0.25500000920E-02 0.  1.
</event>
<event>
 5   0  0.6609285E-03  0.6991504E+03  0.7818609E-02  0.9718686E-01
        1   -1    0    0  501    0  0.00000000000E+00  0.00000000000E+00  0.44465329286E+03  0.44465329289E+03  0.50400001928E-02 0. -1.
       -1   -1    0    0    0  501  0.00000000000E+00  0.00000000000E+00 -0.27482717846E+03  0.27482717851E+03  0.50400001928E-02 0.  1.
    10030    2    1    2    0    0  0.00000000000E+00  0.00000000000E+00  0.16982611440E+03  0.71948047140E+03  0.69915036980E+03 0.  0.
        2    1    3    3  502    0  0.23239423086E+01  0.33940069205E+03  0.17104008314E+03  0.38006965219E+03  0.25500000920E-02 0. -1.
       -2    1    3    3    0  502 -0.23239423086E+01 -0.33940069205E+03 -0.12139687372E+01  0.33941081921E+03  0.25500000920E-02 0.  1.
</event>
<event>
 5   0  0.6990118E-03  0.6998413E+03  0.7818609E-02  0.9717504E-01
        1   -1    0    0  501    0  0.00000000000E+00  0.00000000000E+00  0.13050330683E+04  0.13050330683E+04  0.50400001928E-02 0.  1.
       -1   -1    0    0    0  501  0.00000000000E+00  0.00000000000E+00 -0.93824803086E+02  0.93824803222E+02  0.50400001928E-02 0. -1.
    10030    2    1    2    0    0  0.00000000000E+00  0.00000000000E+00  0.12112082652E+04  0.13988578715E+04  0.69984132702E+03 0.  0.
        5    1    3    3  502    0 -0.14797273827E+03  0.26324154773E+03  0.25237026075E+03  0.39357957548E+03  0.46999998093E+01 0. -1.
       -5    1    3    3    0  502  0.14797273827E+03 -0.26324154773E+03  0.95883800441E+03  0.10052782960E+04  0.46999998093E+01 0.  1.
</event>
<event>
 5   0  0.6689415E-03  0.7006394E+03  0.7818609E-02  0.9716139E-01
       -1   -1    0    0    0  501  0.00000000000E+00  0.00000000000E+00  0.21086745208E+03  0.21086745214E+03  0.50400001928E-02 0. -1.
        1   -1    0    0  501    0  0.00000000000E+00  0.00000000000E+00 -0.58199543152E+03  0.58199543154E+03  0.50400001928E-02 0.  1.
    10030    2    1    2    0    0  0.00000000000E+00  0.00000000000E+00 -0.37112797944E+03  0.79286288369E+03  0.70063940455E+03 0.  0.
        1    1    3    3  502    0 -0.22542589394E+03 -0.13417396788E+03 -0.44829761786E+03  0.51941336287E+03  0.50400001928E-02 0.  1.
       -1    1    3    3    0  502  0.22542589394E+03  0.13417396788E+03  0.77169638425E+02  0.27344952082E+03  0.50400001928E-02 0. -1.
</event>
<event>
 5   0  0.1079446E-02  0.7024957E+03  0.7818609E-02  0.9712974E-01
       -2   -1    0    0    0  501  0.00000000000E+00  0.00000000000E+00  0.16204895382E+03  0.16204895384E+03  0.25500000920E-02 0. -1.
        2   -1    0    0  501    0  0.00000000000E+00  0.00000000000E+00 -0.76134425073E+03  0.76134425073E+03  0.25500000920E-02 0.  1.
    10030    2    1    2    0    0  0.00000000000E+00  0.00000000000E+00 -0.59929529691E+03  0.92339320457E+03  0.70249566358E+03 0.  0.
        2    1    3    3  502    0 -0.31798656642E+03  0.78769515444E+01 -0.10381034697E+03  0.33459541380E+03  0.25500000920E-02 0. -1.
       -2    1    3    3    0  502  0.31798656642E+03 -0.78769515444E+01 -0.49548494994E+03  0.58879779077E+03  0.25500000920E-02 0.  1.
</event>
<event>
 5   0  0.1100119E-02  0.6965813E+03  0.7818609E-02  0.9723097E-01
       -2   -1    0    0    0  501  0.00000000000E+00  0.00000000000E+00  0.52034158004E+03  0.52034158004E+03  0.25500000920E-02 0.  1.
        2   -1    0    0  501    0  0.00000000000E+00  0.00000000000E+00 -0.23312833848E+03  0.23312833850E+03  0.25500000920E-02 0. -1.
    10030    2    1    2    0    0  0.00000000000E+00  0.00000000000E+00  0.28721324155E+03  0.75346991854E+03  0.69658127453E+03 0.  0.
        4    1    3    3  502    0  0.15245038880E+03  0.21824363376E+03  0.38652089333E+03  0.46933082000E+03  0.12699999809E+01 0.  1.
       -4    1    3    3    0  502 -0.15245038880E+03 -0.21824363376E+03 -0.99307651773E+02  0.28413909854E+03  0.12699999809E+01 0. -1.
</event>
<event>
 5   0  0.1109788E-02  0.6982953E+03  0.7818609E-02  0.9720152E-01
       -2   -1    0    0    0  501  0.00000000000E+00  0.00000000000E+00  0.55195456776E+03  0.55195456777E+03  0.25500000920E-02 0.  1.
        2   -1    0    0  501    0  0.00000000000E+00  0.00000000000E+00 -0.22085892338E+03  0.22085892339E+03  0.25500000920E-02 0. -1.
    10030    2    1    2    0    0  0.00000000000E+00  0.00000000000E+00  0.33109564439E+03  0.77281349116E+03  0.69829532892E+03 0.  0.
        1    1    3    3  502    0 -0.16114977125E+03  0.92463126903E+02  0.49270392762E+03  0.52656988039E+03  0.50400001928E-02 0.  1.
       -1    1    3    3    0  502  0.16114977125E+03 -0.92463126903E+02 -0.16160828324E+03  0.24624361077E+03  0.50400001928E-02 0. -1.
</event>
<event>
 5   0  0.1109788E-02  0.6957431E+03  0.7818609E-02  0.9724540E-01
        2   -1    0    0  501    0  0.00000000000E+00  0.00000000000E+00  0.11414637985E+04  0.11414637985E+04  0.25500000920E-02 0. -1.
       -2   -1    0    0    0  501  0.00000000000E+00  0.00000000000E+00 -0.10601704102E+03  0.10601704105E+03  0.25500000920E-02 0.  1.
    10030    2    1    2    0    0  0.00000000000E+00  0.00000000000E+00  0.10354467575E+04  0.12474808396E+04  0.69574309733E+03 0.  0.
        1    1    3    3  502    0 -0.11415755956E+03  0.14847416560E+03  0.10433505673E+04  0.10600268546E+04  0.50400001928E-02 0. -1.
       -1    1    3    3    0  502  0.11415755956E+03 -0.14847416560E+03 -0.79038097253E+01  0.18745398500E+03  0.50400001928E-02 0.  1.
</event>
<event>
 5   0  0.4440500E-03  0.6993750E+03  0.7818609E-02  0.9718302E-01
       -4   -1    0    0    0  501  0.00000000000E+00  0.00000000000E+00  0.17962732289E+04  0.17962736779E+04  0.12699999809E+01 0. -1.
        4   -1    0    0  501    0  0.00000000000E+00  0.00000000000E+00 -0.68068649945E+02  0.68080496512E+02  0.12699999809E+01 0.  1.
    10030    2    1    2    0    0  0.00000000000E+00  0.00000000000E+00  0.17282045790E+04  0.18643541744E+04  0.69937502156E+03 0.  0.
        5    1    3    3  502    0 -0.22586458981E+03 -0.24909084465E+03  0.11197664230E+04  0.11691706436E+04  0.46999998093E+01 0.  1.
       -5    1    3    3    0  502  0.22586458981E+03  0.24909084465E+03  0.60843815602E+03  0.69518353082E+03  0.46999998093E+01 0. -1.
</event>
<event>
 5   0  0.1099980E-02  0.7040045E+03  0.7818609E-02  0.9710408E-01
       -2   -1    0    0    0  501  0.00000000000E+00  0.00000000000E+00  0.29759959629E+03  0.29759959630E+03  0.25500000920E-02 0. -1.
        2   -1    0    0  501    0  0.00000000000E+00  0.00000000000E+00 -0.41634996622E+03  0.41634996623E+03  0.25500000920E-02 0.  1.
    10030    2    1    2    0    0  0.00000000000E+00  0.00000000000E+00 -0.11875036994E+03  0.71394956253E+03  0.70400449393E+03 0.  0.
        5    1    3    3  502    0  0.26549352115E+02 -0.23705970662E+03 -0.32183870495E+03  0.40063002210E+03  0.46999998093E+01 0.  1.
       -5    1    3    3    0  502 -0.26549352115E+02  0.23705970662E+03  0.20308833501E+03  0.31331954043E+03  0.46999998093E+01 0. -1.
</event>
<event>
 5   0  0.1109788E-02  0.7014055E+03  0.7818609E-02  0.9714832E-01
        2   -1    0    0  501    0  0.00000000000E+00  0.00000000000E+00  0.22946206616E+03  0.22946206618E+03  0.25500000920E-02 0. -1.
       -2   -1    0    0    0  501  0.00000000000E+00  0.00000000000E+00 -0.53600323465E+03  0.53600323465E+03  0.25500000920E-02 0.  1.
    10030    2    1    2    0    0  0.00000000000E+00  0.00000000000E+00 -0.30654116848E+03  0.76546530083E+03  0.70140547389E+03 0.  0.
        1    1    3    3  502    0 -0.53710781015E+02 -0.43098606148E+02  0.22201083667E+03  0.23244601410E+03  0.50400001928E-02 0. -1.
       -1    1    3    3    0  502  0.53710781015E+02  0.43098606148E+02 -0.52855200515E+03  0.53301928673E+03  0.50400001928E-02 0.  1.
</event>
<event>
 5   0  0.1099980E-02  0.7015936E+03  0.7818609E-02  0.9714511E-01
       -2   -1    0    0    0  501  0.00000000000E+00  0.00000000000E+00  0.86600248402E+02  0.86600248440E+02  0.25500000920E-02 0. -1.
        2   -1    0    0  501    0  0.00000000000E+00  0.00000000000E+00 -0.14209936806E+04  0.14209936806E+04  0.25500000920E-02 0.  1.
    10030    2    1    2    0    0  0.00000000000E+00  0.00000000000E+00 -0.13343934322E+04  0.15075939290E+04  0.70159363095E+03 0.  0.
        5    1    3    3  502    0  0.22074031183E+03  0.98629386626E+02 -0.12132756341E+04  0.12371394002E+04  0.46999998093E+01 0.  1.
       -5    1    3    3    0  502 -0.22074031183E+03 -0.98629386626E+02 -0.12111779812E+03  0.27045452888E+03  0.46999998093E+01 0. -1.
</event>
<event>
 5   0  0.1100119E-02  0.6992774E+03  0.7818609E-02  0.9718469E-01
        2   -1    0    0  501    0  0.00000000000E+00  0.00000000000E+00  0.12547924539E+04  0.12547924539E+04  0.25500000920E-02 0. -1.
       -2   -1    0    0    0  501  0.00000000000E+00  0.00000000000E+00 -0.97424260233E+02  0.97424260266E+02  0.25500000920E-02 0.  1.
    10030    2    1    2    0    0  0.00000000000E+00  0.00000000000E+00  0.11573681937E+04  0.13522167142E+04  0.69927741732E+03 0.  0.
        4    1    3    3  502    0  0.19500486668E+03  0.23910666707E+03  0.89670383699E+03  0.94830284216E+03  0.12699999809E+01 0. -1.
       -4    1    3    3    0  502 -0.19500486668E+03 -0.23910666707E+03  0.26066435670E+03  0.40391387203E+03  0.12699999809E+01 0.  1.
</event>
<event>
 5   0  0.6689415E-03  0.7007507E+03  0.7818609E-02  0.9715949E-01
        1   -1    0    0  501    0  0.00000000000E+00  0.00000000000E+00  0.59002440174E+03  0.59002440176E+03  0.50400001928E-02 0. -1.
       -1   -1    0    0    0  501  0.00000000000E+00  0.00000000000E+00 -0.20806407960E+03  0.20806407966E+03  0.50400001928E-02 0.  1.
    10030    2    1    2    0    0  0.00000000000E+00  0.00000000000E+00  0.38196032214E+03  0.79808848142E+03  0.70075069496E+03 0.  0.
        1    1    3    3  502    0  0.15181960034E+03 -0.22792418543E+03 -0.57927937268E+02  0.27991832969E+03  0.50400001928E-02 0.  1.
       -1    1    3    3    0  502 -0.15181960034E+03  0.22792418543E+03  0.43988825941E+03  0.51817015173E+03  0.50400001928E-02 0. -1.
</event>
<event>
 5   0  0.1119786E-02  0.6973136E+03  0.7818609E-02  0.9721837E-01
        2   -1    0    0  501    0  0.00000000000E+00  0.00000000000E+00  0.84147173256E+03  0.84147173256E+03  0.25500000920E-02 0. -1.
       -2   -1    0    0    0  501  0.00000000000E+00  0.00000000000E+00 -0.14446304693E+03  0.14446304695E+03  0.25500000920E-02 0.  1.
    10030    2    1    2    0    0  0.00000000000E+00  0.00000000000E+00  0.69700868563E+03  0.98593477951E+03  0.69731361782E+03 0.  0.
        3    1    3    3  502    0  0.31978038520E+03 -0.12367852970E+03  0.43799105071E+03  0.55623020789E+03  0.10100000352E+00 0. -1.
       -3    1    3    3    0  502 -0.31978038520E+03  0.12367852970E+03  0.25901763492E+03  0.42970457162E+03  0.10100000352E+00 0.  1.
</event>
<event>
 5   0  0.1109788E-02  0.6990143E+03  0.7818609E-02  0.9718919E-01
        2   -1    0    0  501    0  0.00000000000E+00  0.00000000000E+00  0.70405006852E+03  0.70405006853E+03  0.25500000920E-02 0. -1.
       -2   -1    0    0    0  501  0.00000000000E+00  0.00000000000E+00 -0.17350362319E+03  0.17350362321E+03  0.25500000920E-02 0.  1.
    10030    2    1    2    0    0  0.00000000000E+00  0.00000000000E+00  0.53054644533E+03  0.87755369173E+03  0.69901427111E+03 0.  0.
        1    1    3    3  502    0  0.60224802065E+02 -0.22859657170E+03 -0.57912449388E+02  0.24338708099E+03  0.50400001928E-02 0.  1.
       -1    1    3    3    0  502 -0.60224802065E+02  0.22859657170E+03  0.58845889472E+03  0.63416661074E+03  0.50400001928E-02 0. -1.
</event>
<event>
 5   0  0.6246998E-03  0.7062582E+03  0.7818609E-02  0.9706589E-01
       -1   -1    0    0    0  501  0.00000000000E+00  0.00000000000E+00  0.21902279292E+03  0.21902279298E+03  0.50400001928E-02 0.  1.
        1   -1    0    0  501    0  0.00000000000E+00  0.00000000000E+00 -0.56934795062E+03  0.56934795064E+03  0.50400001928E-02 0. -1.
    10030    2    1    2    0    0  0.00000000000E+00  0.00000000000E+00 -0.35032515770E+03  0.78837074362E+03  0.70625824829E+03 0.  0.
        4    1    3    3  502    0  0.66931909796E+02 -0.25199986065E+03 -0.44099931544E+03  0.51231418039E+03  0.12699999809E+01 0. -1.
       -4    1    3    3    0  502 -0.66931909796E+02  0.25199986065E+03  0.90674157744E+02  0.27605656322E+03  0.12699999809E+01 0.  1.
</event>
<event>
 5   0  0.1119786E-02  0.6978398E+03  0.7818609E-02  0.9720934E-01
        2   -1    0    0  501    0  0.00000000000E+00  0.00000000000E+00  0.17065265485E+04  0.17065265485E+04  0.25500000920E-02 0.  1.
       -2   -1    0    0    0  501  0.00000000000E+00  0.00000000000E+00 -0.71340872837E+02  0.71340872883E+02  0.25500000920E-02 0. -1.
    10030    2    1    2    0    0  0.00000000000E+00  0.00000000000E+00  0.16351856756E+04  0.17778674214E+04  0.69783979116E+03 0.  0.
        3    1    3    3  502    0 -0.18020502753E+02  0.15027289097E+03  0.16640815693E+02  0.15226164069E+03  0.10100000352E+00 0. -1.
       -3    1    3    3    0  502  0.18020502753E+02 -0.15027289097E+03  0.16185448599E+04  0.16256057807E+04  0.10100000352E+00 0.  1.
</event>
<event>
 5   0  0.1109788E-02  0.6985089E+03  0.7818609E-02  0.9719786E-01
        2   -1    0    0  501    0  0.00000000000E+00  0.00000000000E+00  0.11141333059E+04  0.11141333059E+04  0.25500000920E-02 0. -1.
       -2   -1    0    0    0  501  0.00000000000E+00  0.00000000000E+00 -0.10948301634E+03  0.10948301637E+03  0.25500000920E-02 0.  1.
    10030    2    1    2    0    0  0.00000000000E+00  0.00000000000E+00  0.10046502896E+04  0.12236163223E+04  0.69850891179E+03 0.  0.
        1    1    3    3  502    0  0.32639364820E+03 -0.93957669197E+02  0.64483034468E+03  0.72881206811E+03  0.50400001928E-02 0.  1.
       -1    1    3    3    0  502 -0.32639364820E+03  0.93957669197E+02  0.35981994491E+03  0.49480425419E+03  0.50400001928E-02 0. -1.
</event>
<event>
 5   0  0.6609285E-03  0.7031709E+03  0.7818609E-02  0.9711825E-01
        1   -1    0    0  501    0  0.00000000000E+00  0.00000000000E+00  0.47550169989E+03  0.47550169991E+03  0.50400001928E-02 0.  1.
       -1   -1    0    0    0  501  0.00000000000E+00  0.00000000000E+00 -0.25996187317E+03  0.25996187322E+03  0.50400001928E-02 0. -1.
    10030    2    1    2    0    0  0.00000000000E+00  0.00000000000E+00  0.21553982671E+03  0.73546357314E+03  0.70317085442E+03 0.  0.
        2    1    3    3  502    0 -0.69372846113E+02  0.33727757742E+03  0.18204937644E+03  0.38950061807E+03  0.25500000920E-02 0.  1.
       -2    1    3    3    0  502  0.69372846113E+02 -0.33727757742E+03  0.33490450273E+02  0.34596295506E+03  0.25500000920E-02 0. -1.
</event>
<event>
 5   0  0.1099980E-02  0.6992796E+03  0.7818609E-02  0.9718465E-01
        2   -1    0    0  501    0  0.00000000000E+00  0.00000000000E+00  0.54163357204E+03  0.54163357205E+03  0.25500000920E-02 0.  1.
       -2   -1    0    0    0  501  0.00000000000E+00  0.00000000000E+00 -0.22570241539E+03  0.22570241541E+03  0.25500000920E-02 0. -1.
    10030    2    1    2    0    0  0.00000000000E+00  0.00000000000E+00  0.31593115665E+03  0.76733598746E+03  0.69927964499E+03 0.  0.
        5    1    3    3  502    0 -0.44360792860E+02  0.12217903778E+03  0.51409788957E+03  0.53029645225E+03  0.46999998093E+01 0.  1.
       -5    1    3    3    0  502  0.44360792860E+02 -0.12217903778E+03 -0.19816673292E+03  0.23703953520E+03  0.46999998093E+01 0. -1.
</event>
<event>
 5   0  0.6689415E-03  0.7006845E+03  0.7818609E-02  0.9716062E-01
        1   -1    0    0  501    0  0.00000000000E+00  0.00000000000E+00  0.42482401061E+03  0.42482401064E+03  0.50400001928E-02 0.  1.
       -1   -1    0    0    0  501  0.00000000000E+00  0.00000000000E+00 -0.28891892023E+03  0.28891892027E+03  0.50400001928E-02 0. -1.
    10030    2    1    2    0    0  0.00000000000E+00  0.00000000000E+00  0.13590509039E+03  0.71374293091E+03  0.70068450663E+03 0.  0.
        1    1    3    3  502    0 -0.67197694801E+02  0.18040150015E+03  0.36611823905E+03  0.41364573785E+03  0.50400001928E-02 0.  1.
       -1    1    3    3    0  502  0.67197694801E+02 -0.18040150015E+03 -0.23021314867E+03  0.30009719307E+03  0.50400001928E-02 0. -1.
</event>
<event>
 5   0  0.1109788E-02  0.7007487E+03  0.7818609E-02  0.9715953E-01
        2   -1    0    0  501    0  0.00000000000E+00  0.00000000000E+00  0.45001425244E+03  0.45001425244E+03  0.25500000920E-02 0. -1.
       -2   -1    0    0    0  501  0.00000000000E+00  0.00000000000E+00 -0.27279621415E+03  0.27279621416E+03  0.25500000920E-02 0.  1.
    10030    2    1    2    0    0  0.00000000000E+00  0.00000000000E+00  0.17721803828E+03  0.72281046661E+03  0.70074869785E+03 0.  0.
        1    1    3    3  502    0 -0.30923189346E+03  0.37998258998E+01  0.25848581134E+03  0.40305547670E+03  0.50400001928E-02 0. -1.
       -1    1    3    3    0  502  0.30923189346E+03 -0.37998258998E+01 -0.81267773055E+02  0.31975498991E+03  0.50400001928E-02 0.  1.
</event>
<event>
 5   0  0.1079446E-02  0.7009654E+03  0.7818609E-02  0.9715583E-01
       -2   -1    0    0    0  501  0.00000000000E+00  0.00000000000E+00  0.18528563509E+03  0.18528563510E+03  0.25500000920E-02 0.  1.
        2   -1    0    0  501    0  0.00000000000E+00  0.00000000000E+00 -0.66296621347E+03  0.66296621348E+03  0.25500000920E-02 0. -1.
    10030    2    1    2    0    0  0.00000000000E+00  0.00000000000E+00 -0.47768057838E+03  0.84825184858E+03  0.70096537978E+03 0.  0.
        2    1    3    3  502    0 -0.26254756649E+02 -0.19706729782E+03  0.11044908337E+03  0.22742874080E+03  0.25500000920E-02 0.  1.
       -2    1    3    3    0  502  0.26254756649E+02  0.19706729782E+03 -0.58812966175E+03  0.62082310778E+03  0.25500000920E-02 0. -1.
</event>
<event>
 5   0  0.6990118E-03  0.6979006E+03  0.7818609E-02  0.9720829E-01
        1   -1    0    0  501    0  0.00000000000E+00  0.00000000000E+00  0.44287774338E+03  0.44287774341E+03  0.50400001928E-02 0.  1.
       -1   -1    0    0    0  501  0.00000000000E+00  0.00000000000E+00 -0.27494342755E+03  0.27494342759E+03  0.50400001928E-02 0. -1.
    10030    2    1    2    0    0  0.00000000000E+00  0.00000000000E+00  0.16793431583E+03  0.71782117100E+03  0.69790063699E+03 0.  0.
        5    1    3    3  502    0 -0.71221218765E+02  0.55053219434E+02 -0.26276173329E+03  0.27779333586E+03  0.46999998093E+01 0. -1.
       -5    1    3    3    0  502  0.71221218765E+02 -0.55053219434E+02  0.43069604912E+03  0.44002783514E+03  0.46999998093E+01 0.  1.
</event>
<event>
 5   0  0.6785252E-03  0.6995251E+03  0.7818609E-02  0.9718045E-01
        1   -1    0    0  501    0  0.00000000000E+00  0.00000000000E+00  0.82466980448E+02  0.82466980602E+02  0.50400001928E-02 0.  1.
       -1   -1    0    0    0  501  0.00000000000E+00  0.00000000000E+00 -0.14834282087E+04  0.14834282087E+04  0.50400001928E-02 0. -1.
    10030    2    1    2    0    0  0.00000000000E+00  0.00000000000E+00 -0.14009612283E+04  0.15658951893E+04  0.69952511095E+03 0.  0.
        3    1    3    3  502    0 -0.15657781598E+03  0.27524446474E+03 -0.10329407396E+04  0.10803900729E+04  0.10100000352E+00 0. -1.
       -3    1    3    3    0  502  0.15657781598E+03 -0.27524446474E+03 -0.36802048866E+03  0.48550511645E+03  0.10100000352E+00 0.  1.
</event>
<event>
 5   0  0.1109788E-02  0.6999533E+03  0.7818609E-02  0.9717312E-01
       -2   -1    0    0    0  501  0.00000000000E+00  0.00000000000E+00  0.97168483347E+02  0.97168483381E+02  0.25500000920E-02 0.  1.
        2   -1    0    0  501    0  0.00000000000E+00  0.00000000000E+00 -0.12605287513E+04  0.12605287513E+04  0.25500000920E-02 0. -1.
    10030    2    1    2    0    0  0.00000000000E+00  0.00000000000E+00 -0.11633602680E+04  0.13576972347E+04  0.69995333275E+03 0.  0.
        1    1    3    3  502    0  0.79105020590E+02  0.14228380190E+03  0.19254656984E+02  0.16392994359E+03  0.50400001928E-02 0.  1.
       -1    1    3    3    0  502 -0.79105020590E+02 -0.14228380190E+03 -0.11826149250E+04  0.11937672911E+04  0.50400001928E-02 0. -1.
</event>
<event>
 5   0  0.1099980E-02  0.6993620E+03  0.7818609E-02  0.9718324E-01
        2   -1    0    0  501    0  0.00000000000E+00  0.00000000000E+00  0.82170510887E+03  0.82170510887E+03  0.25500000920E-02 0. -1.
       -2   -1    0    0    0  501  0.00000000000E+00  0.00000000000E+00 -0.14880860020E+03  0.14880860023E+03  0.25500000920E-02 0.  1.
    10030    2    1    2    0    0  0.00000000000E+00  0.00000000000E+00  0.67289650867E+03  0.97051370910E+03  0.69936195791E+03 0.  0.
        5    1    3    3  502    0  0.17978531992E+03  0.28073980470E+03  0.48276545492E+03  0.58670450285E+03  0.46999998093E+01 0.  1.
       -5    1    3    3    0  502 -0.17978531992E+03 -0.28073980470E+03  0.19013105374E+03  0.38380920624E+03  0.46999998093E+01 0. -1.
</event>
<event>
 5   0  0.6990118E-03  0.7024653E+03  0.7818609E-02  0.9713025E-01
       -1   -1    0    0    0  501  0.00000000000E+00  0.00000000000E+00  0.13426774519E+03  0.13426774528E+03  0.50400001928E-02 0.  1.
        1   -1    0    0  501    0  0.00000000000E+00  0.00000000000E+00 -0.91879384584E+03  0.91879384585E+03  0.50400001928E-02 0. -1.
    10030    2    1    2    0    0  0.00000000000E+00  0.00000000000E+00 -0.78452610065E+03  0.10530615911E+04  0.70246531027E+03 0.  0.
        5    1    3    3  502    0 -0.10883464956E+03 -0.10578850404E+03 -0.86704320958E+03  0.88023985698E+03  0.46999998093E+01 0. -1.
       -5    1    3    3    0  502  0.10883464956E+03  0.10578850404E+03  0.82517108935E+02  0.17282173416E+03  0.46999998093E+01 0.  1.
</event>
<event>
 5   0  0.1109788E-02  0.6660455E+03  0.7818609E-02  0.9777128E-01
       -2   -1    0    0    0  501  0.00000000000E+00  0.00000000000E+00  0.82763149213E+02  0.82763149252E+02  0.25500000920E-02 0.  1.
        2   -1    0    0  501    0  0.00000000000E+00  0.00000000000E+00 -0.13400185527E+04  0.13400185527E+04  0.25500000920E-02 0. -1.
    10030    2    1    2    0    0  0.00000000000E+00  0.00000000000E+00 -0.12572554035E+04  0.14227817019E+04  0.66604551032E+03 0.  0.
        1    1    3    3  502    0  0.16739376123E+03 -0.20952330245E+03 -0.10503966593E+04  0.10840912450E+04  0.50400001928E-02 0. -1.
       -1    1    3    3    0  502 -0.16739376123E+03  0.20952330245E+03 -0.20685874419E+03  0.33869045697E+03  0.50400001928E-02 0.  1.
</event>
<event>
 5   0  0.6246998E-03  0.7001905E+03  0.7818609E-02  0.9716907E-01
       -1   -1    0    0    0  501  0.00000000000E+00  0.00000000000E+00  0.36170984767E+03  0.36170984770E+03  0.50400001928E-02 0.  1.
        1   -1    0    0  501    0  0.00000000000E+00  0.00000000000E+00 -0.33885355463E+03  0.33885355467E+03  0.50400001928E-02 0. -1.
    10030    2    1    2    0    0  0.00000000000E+00  0.00000000000E+00  0.22856293039E+02  0.70056340237E+03  0.70019045309E+03 0.  0.
        4    1    3    3  502    0 -0.71965128986E+02  0.33444441098E+03  0.85851978041E+02  0.35270982246E+03  0.12699999809E+01 0.  1.
       -4    1    3    3    0  502  0.71965128986E+02 -0.33444441098E+03 -0.62995685002E+02  0.34785357991E+03  0.12699999809E+01 0. -1.
</event>
<event>
 5   0  0.1119786E-02  0.7006530E+03  0.7818609E-02  0.9716116E-01
       -2   -1    0    0    0  501  0.00000000000E+00  0.00000000000E+00  0.92158803362E+02  0.92158803397E+02  0.25500000920E-02 0. -1.
        2   -1    0    0  501    0  0.00000000000E+00  0.00000000000E+00 -0.13317083208E+04  0.13317083208E+04  0.25500000920E-02 0.  1.
    10030    2    1    2    0    0  0.00000000000E+00  0.00000000000E+00 -0.12395495174E+04  0.14238671242E+04  0.70065296773E+03 0.  0.
        3    1    3    3  502    0  0.21344041383E+03 -0.26396753309E+03 -0.79568591646E+03  0.86507326663E+03  0.10100000352E+00 0. -1.
       -3    1    3    3    0  502 -0.21344041383E+03  0.26396753309E+03 -0.44386360096E+03  0.55879385755E+03  0.10100000352E+00 0.  1.
</event>
<event>
 5   0  0.4440500E-03  0.6988414E+03  0.7818609E-02  0.9719216E-01
       -3   -1    0    0    0  501  0.00000000000E+00  0.00000000000E+00  0.53071360351E+03  0.53071361312E+03  0.10100000352E+00 0.  1.
        3   -1    0    0  501    0  0.00000000000E+00  0.00000000000E+00 -0.23005784814E+03  0.23005787031E+03  0.10100000352E+00 0. -1.
    10030    2    1    2    0    0  0.00000000000E+00  0.00000000000E+00  0.30065575537E+03  0.76077148344E+03  0.69884144609E+03 0.  0.
        3    1    3    3  502    0 -0.25151791224E+03  0.18142103912E+03 -0.24936189130E+02  0.31112164396E+03  0.10100000352E+00 0. -1.
       -3    1    3    3    0  502  0.25151791224E+03 -0.18142103912E+03  0.32559194450E+03  0.44964983947E+03  0.10100000352E+00 0.  1.
</event>
<event>
 5   0  0.1100119E-02  0.6982766E+03  0.7818609E-02  0.9720184E-01
       -2   -1    0    0    0  501  0.00000000000E+00  0.00000000000E+00  0.80717141510E+02  0.80717141550E+02  0.25500000920E-02 0. -1.
        2   -1    0    0  501    0  0.00000000000E+00  0.00000000000E+00 -0.15101815958E+04  0.15101815958E+04  0.25500000920E-02 0.  1.
    10030    2    1    2    0    0  0.00000000000E+00  0.00000000000E+00 -0.14294644543E+04  0.15908987373E+04  0.69827656871E+03 0.  0.
        4    1    3    3  502    0 -0.11176420731E+03  0.28195259281E+03 -0.11087398162E+04  0.11494755741E+04  0.12699999809E+01 0.  1.
       -4    1    3    3    0  502  0.11176420731E+03 -0.28195259281E+03 -0.32072463807E+03  0.44142316318E+03  0.12699999809E+01 0. -1.
</event>
<event>
 5   0  0.1079446E-02  0.7006800E+03  0.7818609E-02  0.9716070E-01
        2   -1    0    0  501    0  0.00000000000E+00  0.00000000000E+00  0.55779891817E+03  0.55779891818E+03  0.25500000920E-02 0. -1.
       -2   -1    0    0    0  501  0.00000000000E+00  0.00000000000E+00 -0.22004007117E+03  0.22004007119E+03  0.25500000920E-02 0.  1.
    10030    2    1    2    0    0  0.00000000000E+00  0.00000000000E+00  0.33775884700E+03  0.77783898937E+03  0.70067999447E+03 0.  0.
        2    1    3    3  502    0 -0.22697931418E+03  0.80516264826E+02 -0.11357065457E+03  0.26627198793E+03  0.25500000920E-02 0.  1.
       -2    1    3    3    0  502  0.22697931418E+03 -0.80516264826E+02  0.45132950157E+03  0.51156700144E+03  0.25500000920E-02 0. -1.
</event>
<event>
 5   0  0.1079446E-02  0.6780607E+03  0.7818609E-02  0.9755505E-01
        2   -1    0    0  501    0  0.00000000000E+00  0.00000000000E+00  0.57898424806E+03  0.57898424807E+03  0.25500000920E-02 0. -1.
       -2   -1    0    0    0  501  0.00000000000E+00  0.00000000000E+00 -0.19852281636E+03  0.19852281638E+03  0.25500000920E-02 0.  1.
    10030    2    1    2    0    0  0.00000000000E+00  0.00000000000E+00  0.38046143170E+03  0.77750706444E+03  0.67806071575E+03 0.  0.
        2    1    3    3  502    0 -0.17130681685E+02  0.64588681513E+02  0.57135846238E+03  0.57525268411E+03  0.25500000920E-02 0. -1.
       -2    1    3    3    0  502  0.17130681685E+02 -0.64588681513E+02 -0.19089703068E+03  0.20225438033E+03  0.25500000920E-02 0.  1.
</event>
<event>
 5   0  0.1109788E-02  0.7014021E+03  0.7818609E-02  0.9714837E-01
        2   -1    0    0  501    0  0.00000000000E+00  0.00000000000E+00  0.67374499826E+03  0.67374499827E+03  0.25500000920E-02 0.  1.
       -2   -1    0    0    0  501  0.00000000000E+00  0.00000000000E+00 -0.18254862758E+03  0.18254862760E+03  0.25500000920E-02 0. -1.
    10030    2    1    2    0    0  0.00000000000E+00  0.00000000000E+00  0.49119637068E+03  0.85629362587E+03  0.70140209518E+03 0.  0.
        1    1    3    3  502    0 -0.10669618610E+03 -0.13810288673E+03  0.61696924764E+03  0.64117668080E+03  0.50400001928E-02 0.  1.
       -1    1    3    3    0  502  0.10669618610E+03  0.13810288673E+03 -0.12577287695E+03  0.21511694506E+03  0.50400001928E-02 0. -1.
</event>
<event>
 5   0  0.6990118E-03  0.6987968E+03  0.7818609E-02  0.9719292E-01
       -1   -1    0    0    0  501  0.00000000000E+00  0.00000000000E+00  0.19306624193E+03  0.19306624199E+03  0.50400001928E-02 0.  1.
        1   -1    0    0  501    0  0.00000000000E+00  0.00000000000E+00 -0.63231786089E+03  0.63231786091E+03  0.50400001928E-02 0. -1.
    10030    2    1    2    0    0  0.00000000000E+00  0.00000000000E+00 -0.43925161896E+03  0.82538410290E+03  0.69879677486E+03 0.  0.
        5    1    3    3  502    0  0.19063752973E+03  0.26446669161E+03 -0.36796177078E+03  0.49163325097E+03  0.46999998093E+01 0. -1.
       -5    1    3    3    0  502 -0.19063752973E+03 -0.26446669161E+03 -0.71289848185E+02  0.33375085193E+03  0.46999998093E+01 0.  1.
</event>
<event>
 5   0  0.6689415E-03  0.7098383E+03  0.7818609E-02  0.9700554E-01
        1   -1    0    0  501    0  0.00000000000E+00  0.00000000000E+00  0.52186178139E+03  0.52186178141E+03  0.50400001928E-02 0. -1.
       -1   -1    0    0    0  501  0.00000000000E+00  0.00000000000E+00 -0.24138115073E+03  0.24138115078E+03  0.50400001928E-02 0.  1.
    10030    2    1    2    0    0  0.00000000000E+00  0.00000000000E+00  0.28048063066E+03  0.76324293219E+03  0.70983828396E+03 0.  0.
        1    1    3    3  502    0 -0.59809524873E+02  0.23276689935E+02 -0.23509002194E+03  0.24369304873E+03  0.50400001928E-02 0.  1.
       -1    1    3    3    0  502  0.59809524873E+02 -0.23276689935E+02  0.51557065260E+03  0.51954988346E+03  0.50400001928E-02 0. -1.
</event>
<event>
 5   0  0.1109788E-02  0.7041422E+03  0.7818609E-02  0.9710175E-01
       -2   -1    0    0    0  501  0.00000000000E+00  0.00000000000E+00  0.11278896940E+03  0.11278896943E+03  0.25500000920E-02 0. -1.
        2   -1    0    0  501    0  0.00000000000E+00  0.00000000000E+00 -0.10989910774E+04  0.10989910774E+04  0.25500000920E-02 0.  1.
    10030    2    1    2    0    0  0.00000000000E+00  0.00000000000E+00 -0.98620210804E+03  0.12117800469E+04  0.70414223285E+03 0.  0.
        1    1    3    3  502    0  0.91542118262E+02 -0.16011482388E+03  0.22998470553E+02  0.18586459027E+03  0.50400001928E-02 0. -1.
       -1    1    3    3    0  502 -0.91542118262E+02  0.16011482388E+03 -0.10092005786E+04  0.10259154566E+04  0.50400001928E-02 0.  1.
</event>
<event>
 5   0  0.6609285E-03  0.6991159E+03  0.7818609E-02  0.9718745E-01
        1   -1    0    0  501    0  0.00000000000E+00  0.00000000000E+00  0.35234825608E+03  0.35234825612E+03  0.50400001928E-02 0. -1.
       -1   -1    0    0    0  501  0.00000000000E+00  0.00000000000E+00 -0.34678974362E+03  0.34678974365E+03  0.50400001928E-02 0.  1.
    10030    2    1    2    0    0  0.00000000000E+00  0.00000000000E+00  0.55585124630E+01  0.69913799977E+03  0.69911590288E+03 0.  0.
        2    1    3    3  502    0 -0.33486414375E+03 -0.81901119897E+02  0.60651398985E+02  0.35002911366E+03  0.25500000920E-02 0. -1.
       -2    1    3    3    0  502  0.33486414375E+03  0.81901119897E+02 -0.55092886522E+02  0.34910888611E+03  0.25500000920E-02 0.  1.
</event>
<event>
 5   0  0.6785252E-03  0.6920925E+03  0.7818609E-02  0.9730851E-01
        1   -1    0    0  501    0  0.00000000000E+00  0.00000000000E+00  0.67308287495E+03  0.67308287497E+03  0.50400001928E-02 0.  1.
       -1   -1    0    0    0  501  0.00000000000E+00  0.00000000000E+00 -0.17790976869E+03  0.17790976876E+03  0.50400001928E-02 0. -1.
    10030    2    1    2    0    0  0.00000000000E+00  0.00000000000E+00  0.49517310626E+03  0.85099264373E+03  0.69209253320E+03 0.  0.
        3    1    3    3  502    0  0.28737995653E+03 -0.19201017241E+03  0.22654423050E+03  0.41325227682E+03  0.10100000352E+00 0. -1.
       -3    1    3    3    0  502 -0.28737995653E+03  0.19201017241E+03  0.26862887576E+03  0.43774036691E+03  0.10100000352E+00 0.  1.
</event>
<event>
 5   0  0.6246998E-03  0.6983173E+03  0.7818609E-02  0.9720114E-01
        1   -1    0    0  501    0  0.00000000000E+00  0.00000000000E+00  0.65863796945E+03  0.65863796947E+03  0.50400001928E-02 0.  1.
       -1   -1    0    0    0  501  0.00000000000E+00  0.00000000000E+00 -0.18509677107E+03  0.18509677114E+03  0.50400001928E-02 0. -1.
    10030    2    1    2    0    0  0.00000000000E+00  0.00000000000E+00  0.47354119838E+03  0.84373474061E+03  0.69831729604E+03 0.  0.
        4    1    3    3  502    0  0.19960806230E+03  0.14774760603E+03 -0.59771457775E+02  0.25543487172E+03  0.12699999809E+01 0. -1.
       -4    1    3    3    0  502 -0.19960806230E+03 -0.14774760603E+03  0.53331265616E+03  0.58829986890E+03  0.12699999809E+01 0.  1.
</event>
<event>
 5   0  0.1109788E-02  0.7005882E+03  0.7818609E-02  0.9716227E-01
        2   -1    0    0  501    0  0.00000000000E+00  0.00000000000E+00  0.39509133005E+03  0.39509133005E+03  0.25500000920E-02 0.  1.
       -2   -1    0    0    0  501  0.00000000000E+00  0.00000000000E+00 -0.31057614134E+03  0.31057614135E+03  0.25500000920E-02 0. -1.
    10030    2    1    2    0    0  0.00000000000E+00  0.00000000000E+00  0.84515188704E+02  0.70566747141E+03  0.70058815511E+03 0.  0.
        1    1    3    3  502    0  0.15484986987E+03 -0.27296064722E+03 -0.11449829706E+03  0.33405966112E+03  0.50400001928E-02 0. -1.
       -1    1    3    3    0  502 -0.15484986987E+03  0.27296064722E+03  0.19901348576E+03  0.37160781029E+03  0.50400001928E-02 0.  1.
</event>
<event>
 5   0  0.6609285E-03  0.6888774E+03  0.7818609E-02  0.9736445E-01
       -1   -1    0    0    0  501  0.00000000000E+00  0.00000000000E+00  0.73804862411E+02  0.73804862583E+02  0.50400001928E-02 0.  1.
        1   -1    0    0  501    0  0.00000000000E+00  0.00000000000E+00 -0.16074555239E+04  0.16074555239E+04  0.50400001928E-02 0. -1.
    10030    2    1    2    0    0  0.00000000000E+00  0.00000000000E+00 -0.15336506615E+04  0.16812603865E+04  0.68887744607E+03 0.  0.
        2    1    3    3  502    0  0.55637223048E+02  0.26968367250E+03 -0.12718145576E+04  0.13012828489E+04  0.25500000920E-02 0.  1.
       -2    1    3    3    0  502 -0.55637223048E+02 -0.26968367250E+03 -0.26183610389E+03  0.37997753763E+03  0.25500000920E-02 0. -1.
</event>
<event>
 5   0  0.6785252E-03  0.7025509E+03  0.7818609E-02  0.9712880E-01
       -1   -1    0    0    0  501  0.00000000000E+00  0.00000000000E+00  0.48295602677E+03  0.48295602679E+03  0.50400001928E-02 0. -1.
        1   -1    0    0  501    0  0.00000000000E+00  0.00000000000E+00 -0.25549826462E+03  0.25549826467E+03  0.50400001928E-02 0.  1.
    10030    2    1    2    0    0  0.00000000000E+00  0.00000000000E+00  0.22745776214E+03  0.73845429147E+03  0.70255085725E+03 0.  0.
        3    1    3    3  502    0 -0.26524773454E+03  0.21100337751E+03  0.21072497749E+03  0.39910376137E+03  0.10100000352E+00 0. -1.
       -3    1    3    3    0  502  0.26524773454E+03 -0.21100337751E+03  0.16732784654E+02  0.33935053010E+03  0.10100000352E+00 0.  1.
</event>
<event>
 5   0  0.6990118E-03  0.6992574E+03  0.7818609E-02  0.9718503E-01
        1   -1    0    0  501    0  0.00000000000E+00  0.00000000000E+00  0.11456950584E+04  0.11456950584E+04  0.50400001928E-02 0. -1.
       -1   -1    0    0    0  501  0.00000000000E+00  0.00000000000E+00 -0.10669526133E+03  0.10669526144E+03  0.50400001928E-02 0.  1.
    10030    2    1    2    0    0  0.00000000000E+00  0.00000000000E+00  0.10389997970E+04  0.12523903198E+04  0.69925741679E+03 0.  0.
        5    1    3    3  502    0  0.20150833266E+03  0.18783451808E+01  0.10311483553E+04  0.10506655780E+04  0.46999998093E+01 0. -1.
       -5    1    3    3    0  502 -0.20150833266E+03 -0.18783451808E+01  0.78514417813E+01  0.20172474179E+03  0.46999998093E+01 0.  1.
</event>
<event>
 5   0  0.1109788E-02  0.7022209E+03  0.7818609E-02  0.9713442E-01
       -2   -1    0    0    0  501  0.00000000000E+00  0.00000000000E+00  0.11200451894E+03  0.11200451897E+03  0.25500000920E-02 0.  1.
        2   -1    0    0  501    0  0.00000000000E+00  0.00000000000E+00 -0.11006567998E+04  0.11006567998E+04  0.25500000920E-02 0. -1.
    10030    2    1    2    0    0  0.00000000000E+00  0.00000000000E+00 -0.98865228083E+03  0.12126613187E+04  0.70222086382E+03 0.  0.
        1    1    3    3  502    0  0.12026335077E+03 -0.22337185630E+03 -0.91350385064E+03  0.94807570631E+03  0.50400001928E-02 0. -1.
       -1    1    3    3    0  502 -0.12026335077E+03  0.22337185630E+03 -0.75148430190E+02  0.26458561244E+03  0.50400001928E-02 0.  1.
</event>
<event>
 5   0  0.6990118E-03  0.6998072E+03  0.7818609E-02  0.9717562E-01
       -1   -1    0    0    0  501  0.00000000000E+00  0.00000000000E+00  0.13164697165E+03  0.13164697175E+03  0.50400001928E-02 0. -1.
        1   -1    0    0  501    0  0.00000000000E+00  0.00000000000E+00 -0.93000649902E+03  0.93000649904E+03  0.50400001928E-02 0.  1.
    10030    2    1    2    0    0  0.00000000000E+00  0.00000000000E+00 -0.79835952737E+03  0.10616534708E+04  0.69980722851E+03 0.  0.
        5    1    3    3  502    0  0.16676750487E+03  0.26406871979E+03 -0.15995068948E+03  0.35092734649E+03  0.46999998093E+01 0. -1.
       -5    1    3    3    0  502 -0.16676750487E+03 -0.26406871979E+03 -0.63840883790E+03  0.71072612429E+03  0.46999998093E+01 0.  1.
</event>
<event>
 5   0  0.6785252E-03  0.6963789E+03  0.7818609E-02  0.9723445E-01
        1   -1    0    0  501    0  0.00000000000E+00  0.00000000000E+00  0.31896593023E+03  0.31896593027E+03  0.50400001928E-02 0. -1.
       -1   -1    0    0    0  501  0.00000000000E+00  0.00000000000E+00 -0.38009037487E+03  0.38009037490E+03  0.50400001928E-02 0.  1.
    10030    2    1    2    0    0  0.00000000000E+00  0.00000000000E+00 -0.61124444639E+02  0.69905630517E+03  0.69637886245E+03 0.  0.
        3    1    3    3  502    0 -0.89155478088E+02 -0.10843510592E+03  0.28929902592E+03  0.32155996030E+03  0.10100000352E+00 0. -1.
       -3    1    3    3    0  502  0.89155478088E+02  0.10843510592E+03 -0.35042347056E+03  0.37749634487E+03  0.10100000352E+00 0.  1.
</event>
<event>
 5   0  0.4440500E-03  0.6998047E+03  0.7818609E-02  0.9717566E-01
       -3   -1    0    0    0  501  0.00000000000E+00  0.00000000000E+00  0.43979529801E+03  0.43979530961E+03  0.10100000352E+00 0. -1.
        3   -1    0    0  501    0  0.00000000000E+00  0.00000000000E+00 -0.27838326919E+03  0.27838328752E+03  0.10100000352E+00 0.  1.
    10030    2    1    2    0    0  0.00000000000E+00  0.00000000000E+00  0.16141202882E+03  0.71817859713E+03  0.69980472585E+03 0.  0.
        1    1    3    3  502    0  0.77184551856E+02  0.20779174181E+03 -0.19713611336E+03  0.29664374294E+03  0.50400001928E-02 0.  1.
       -1    1    3    3    0  502 -0.77184551856E+02 -0.20779174181E+03  0.35854814218E+03  0.42153485419E+03  0.50400001928E-02 0. -1.
</event>
<event>
 5   0  0.1079446E-02  0.7022172E+03  0.7818609E-02  0.9713448E-01
       -2   -1    0    0    0  501  0.00000000000E+00  0.00000000000E+00  0.19634669528E+03  0.19634669530E+03  0.25500000920E-02 0.  1.
        2   -1    0    0  501    0  0.00000000000E+00  0.00000000000E+00 -0.62785494208E+03  0.62785494209E+03  0.25500000920E-02 0. -1.
    10030    2    1    2    0    0  0.00000000000E+00  0.00000000000E+00 -0.43150824680E+03  0.82420163739E+03  0.70221718294E+03 0.  0.
        2    1    3    3  502    0  0.73471888411E+02 -0.30878704455E+03 -0.39192721982E+03  0.50433570458E+03  0.25500000920E-02 0.  1.
       -2    1    3    3    0  502 -0.73471888411E+02  0.30878704455E+03 -0.39581026978E+02  0.31986593281E+03  0.25500000920E-02 0. -1.
</event>
<event>
 5   0  0.6609285E-03  0.7005837E+03  0.7818609E-02  0.9716235E-01
       -1   -1    0    0    0  501  0.00000000000E+00  0.00000000000E+00  0.78714771014E+02  0.78714771176E+02  0.50400001928E-02 0.  1.
        1   -1    0    0  501    0  0.00000000000E+00  0.00000000000E+00 -0.15588480946E+04  0.15588480946E+04  0.50400001928E-02 0. -1.
    10030    2    1    2    0    0  0.00000000000E+00  0.00000000000E+00 -0.14801333236E+04  0.16375628658E+04  0.70058367367E+03 0.  0.
        2    1    3    3  502    0  0.18220312485E+03 -0.26078068041E+03 -0.10827993061E+04  0.11285649646E+04  0.25500000920E-02 0. -1.
       -2    1    3    3    0  502 -0.18220312485E+03  0.26078068041E+03 -0.39733401753E+03  0.50899790124E+03  0.25500000920E-02 0.  1.
</event>
<event>
 5   0  0.1099980E-02  0.6981783E+03  0.7818609E-02  0.9720353E-01
       -2   -1    0    0    0  501  0.00000000000E+00  0.00000000000E+00  0.81339260273E+02  0.81339260313E+02  0.25500000920E-02 0. -1.
        2   -1    0    0  501    0  0.00000000000E+00  0.00000000000E+00 -0.14982094390E+04  0.14982094390E+04  0.25500000920E-02 0.  1.
    10030    2    1    2    0    0  0.00000000000E+00  0.00000000000E+00 -0.14168701787E+04  0.15795486993E+04  0.69817833692E+03 0.  0.
        5    1    3    3  502    0  0.43817233995E+02 -0.85419995643E+02  0.50812362607E+02  0.10872217733E+03  0.46999998093E+01 0. -1.
       -5    1    3    3    0  502 -0.43817233995E+02  0.85419995643E+02 -0.14676825413E+04  0.14708265220E+04  0.46999998093E+01 0.  1.
</event>
<event>
 5   0  0.1100119E-02  0.7042664E+03  0.7818609E-02  0.9709964E-01
       -2   -1    0    0    0  501  0.00000000000E+00  0.00000000000E+00  0.12171394111E+03  0.12171394114E+03  0.25500000920E-02 0.  1.
        2   -1    0    0  501    0  0.00000000000E+00  0.00000000000E+00 -0.10187640543E+04  0.10187640544E+04  0.25500000920E-02 0. -1.
    10030    2    1    2    0    0  0.00000000000E+00  0.00000000000E+00 -0.89705011324E+03  0.11404779955E+04  0.70426639316E+03 0.  0.
        4    1    3    3  502    0  0.13259157433E+02 -0.15219991728E+03 -0.96229514937E+03  0.97434808332E+03  0.12699999809E+01 0. -1.
       -4    1    3    3    0  502 -0.13259157433E+02  0.15219991728E+03  0.65245036136E+02  0.16612991216E+03  0.12699999809E+01 0.  1.
</event>
<event>
 5   0  0.1100119E-02  0.7022925E+03  0.7818609E-02  0.9713320E-01
        2   -1    0    0  501    0  0.00000000000E+00  0.00000000000E+00  0.58620026896E+03  0.58620026896E+03  0.25500000920E-02 0. -1.
       -2   -1    0    0    0  501  0.00000000000E+00  0.00000000000E+00 -0.21034397000E+03  0.21034397001E+03  0.25500000920E-02 0.  1.
    10030    2    1    2    0    0  0.00000000000E+00  0.00000000000E+00  0.37585629896E+03  0.79654423898E+03  0.70229250828E+03 0.  0.
        4    1    3    3  502    0  0.26342027486E+03 -0.40353273959E+02  0.44727082566E+03  0.52064520772E+03  0.12699999809E+01 0. -1.
       -4    1    3    3    0  502 -0.26342027486E+03  0.40353273959E+02 -0.71414526704E+02  0.27589903126E+03  0.12699999809E+01 0.  1.
</event>
<event>
 5   0  0.6990118E-03  0.7011968E+03  0.7818609E-02  0.9715188E-01
        1   -1    0    0  501    0  0.00000000000E+00  0.00000000000E+00  0.27920530416E+03  0.27920530420E+03  0.50400001928E-02 0. -1.
       -1   -1    0    0    0  501  0.00000000000E+00  0.00000000000E+00 -0.44024678954E+03  0.44024678957E+03  0.50400001928E-02 0.  1.
    10030    2    1    2    0    0  0.00000000000E+00  0.00000000000E+00 -0.16104148538E+03  0.71945209377E+03  0.70119680205E+03 0.  0.
        5    1    3    3  502    0  0.39799559868E+02 -0.15735440418E+03 -0.39933977919E+03  0.43109020254E+03  0.46999998093E+01 0.  1.
       -5    1    3    3    0  502 -0.39799559868E+02  0.15735440418E+03  0.23829829381E+03  0.28836189123E+03  0.46999998093E+01 0. -1.
</event>
<event>
 5   0  0.6990118E-03  0.7048932E+03  0.7818609E-02  0.9708901E-01
        1   -1    0    0  501    0  0.00000000000E+00  0.00000000000E+00  0.41079585932E+03  0.41079585935E+03  0.50400001928E-02 0. -1.
       -1   -1    0    0    0  501  0.00000000000E+00  0.00000000000E+00 -0.30238520486E+03  0.30238520490E+03  0.50400001928E-02 0.  1.
    10030    2    1    2    0    0  0.00000000000E+00  0.00000000000E+00  0.10841065446E+03  0.71318106425E+03  0.70489315531E+03 0.  0.
        5    1    3    3  502    0  0.18198265309E+03 -0.18884367379E+03  0.29238108161E+03  0.39279562885E+03  0.46999998093E+01 0. -1.
       -5    1    3    3    0  502 -0.18198265309E+03  0.18884367379E+03 -0.18397042715E+03  0.32038543541E+03  0.46999998093E+01 0.  1.
</event>
<event>
 5   0  0.6990118E-03  0.7000692E+03  0.7818609E-02  0.9717114E-01
       -1   -1    0    0    0  501  0.00000000000E+00  0.00000000000E+00  0.50196068103E+03  0.50196068105E+03  0.50400001928E-02 0. -1.
        1   -1    0    0  501    0  0.00000000000E+00  0.00000000000E+00 -0.24409123856E+03  0.24409123861E+03  0.50400001928E-02 0.  1.
    10030    2    1    2    0    0  0.00000000000E+00  0.00000000000E+00  0.25786944247E+03  0.74605191966E+03  0.70006915192E+03 0.  0.
        5    1    3    3  502    0  0.80513928104E+02 -0.26168745291E+03 -0.10342160249E+03  0.29271305657E+03  0.46999998093E+01 0.  1.
       -5    1    3    3    0  502 -0.80513928104E+02  0.26168745291E+03  0.36129104496E+03  0.45333886309E+03  0.46999998093E+01 0. -1.
</event>
<event>
 5   0  0.1100119E-02  0.6977327E+03  0.7818609E-02  0.9721118E-01
        2   -1    0    0  501    0  0.00000000000E+00  0.00000000000E+00  0.15014517014E+03  0.15014517016E+03  0.25500000920E-02 0.  1.
       -2   -1    0    0    0  501  0.00000000000E+00  0.00000000000E+00 -0.81060029137E+03  0.81060029137E+03  0.25500000920E-02 0. -1.
    10030    2    1    2    0    0  0.00000000000E+00  0.00000000000E+00 -0.66045512123E+03  0.96074546153E+03  0.69773266707E+03 0.  0.
        4    1    3    3  502    0  0.14890695572E+01 -0.10499955544E+03 -0.78831866941E+03  0.79528300711E+03  0.12699999809E+01 0. -1.
       -4    1    3    3    0  502 -0.14890695572E+01  0.10499955544E+03  0.12786354817E+03  0.16546245442E+03  0.12699999809E+01 0.  1.
</event>
<event>
 5   0  0.1099980E-02  0.7048981E+03  0.7818609E-02  0.9708892E-01
       -2   -1    0    0    0  501  0.00000000000E+00  0.00000000000E+00  0.90415672122E+02  0.90415672158E+02  0.25500000920E-02 0. -1.
        2   -1    0    0  501    0  0.00000000000E+00  0.00000000000E+00 -0.13738804206E+04  0.13738804206E+04  0.25500000920E-02 0.  1.
    10030    2    1    2    0    0  0.00000000000E+00  0.00000000000E+00 -0.12834647485E+04  0.14642960928E+04  0.70489806831E+03 0.  0.
        5    1    3    3  502    0 -0.10275101454E+03 -0.13911339516E+03 -0.38646613851E+01  0.17305297832E+03  0.46999998093E+01 0. -1.
       -5    1    3    3    0  502  0.10275101454E+03  0.13911339516E+03 -0.12796000871E+04  0.12912431145E+04  0.46999998093E+01 0.  1.
</event>
<event>
 5   0  0.6785252E-03  0.6981091E+03  0.7818609E-02  0.9720471E-01
       -1   -1    0    0    0  501  0.00000000000E+00  0.00000000000E+00  0.20258564091E+03  0.20258564097E+03  0.50400001928E-02 0. -1.
        1   -1    0    0  501    0  0.00000000000E+00  0.00000000000E+00 -0.60142016938E+03  0.60142016940E+03  0.50400001928E-02 0.  1.
    10030    2    1    2    0    0  0.00000000000E+00  0.00000000000E+00 -0.39883452847E+03  0.80400581036E+03  0.69810913330E+03 0.  0.
        3    1    3    3  502    0  0.21818569704E+03  0.23768508750E+03 -0.46022258639E+02  0.32590989200E+03  0.10100000352E+00 0. -1.
       -3    1    3    3    0  502 -0.21818569704E+03 -0.23768508750E+03 -0.35281226983E+03  0.47809591837E+03  0.10100000352E+00 0.  1.
</event>
<event>
 5   0  0.1100119E-02  0.6995863E+03  0.7818609E-02  0.9717940E-01
       -2   -1    0    0    0  501  0.00000000000E+00  0.00000000000E+00  0.72968155060E+02  0.72968155105E+02  0.25500000920E-02 0.  1.
        2   -1    0    0  501    0  0.00000000000E+00  0.00000000000E+00 -0.16768307749E+04  0.16768307749E+04  0.25500000920E-02 0. -1.
    10030    2    1    2    0    0  0.00000000000E+00  0.00000000000E+00 -0.16038626198E+04  0.17497989300E+04  0.69958630070E+03 0.  0.
        4    1    3    3  502    0  0.15877714121E+03 -0.80013272745E+02 -0.15553726093E+04  0.15655024341E+04  0.12699999809E+01 0. -1.
       -4    1    3    3    0  502 -0.15877714121E+03  0.80013272745E+02 -0.48490010500E+02  0.18429649591E+03  0.12699999809E+01 0.  1.
</event>
<event>
 5   0  0.1109788E-02  0.6772981E+03  0.7818609E-02  0.9756863E-01
       -2   -1    0    0    0  501  0.00000000000E+00  0.00000000000E+00  0.48949981227E+03  0.48949981228E+03  0.25500000920E-02 0.  1.
        2   -1    0    0  501    0  0.00000000000E+00  0.00000000000E+00 -0.23428649014E+03  0.23428649016E+03  0.25500000920E-02 0. -1.
    10030    2    1    2    0    0  0.00000000000E+00  0.00000000000E+00  0.25521332213E+03  0.72378630244E+03  0.67729814100E+03 0.  0.
        1    1    3    3  502    0 -0.29469638120E+03 -0.13010301191E+03  0.23922913694E+03  0.40125220346E+03  0.50400001928E-02 0. -1.
       -1    1    3    3    0  502  0.29469638120E+03  0.13010301191E+03  0.15984185188E+02  0.32253409897E+03  0.50400001928E-02 0.  1.
</event>
<event>
 5   0  0.4440500E-03  0.6988462E+03  0.7818609E-02  0.9719207E-01
        3   -1    0    0  501    0  0.00000000000E+00  0.00000000000E+00  0.20166681880E+03  0.20166684409E+03  0.10100000352E+00 0.  1.
       -3   -1    0    0    0  501  0.00000000000E+00  0.00000000000E+00 -0.60543669672E+03  0.60543670515E+03  0.10100000352E+00 0. -1.
    10030    2    1    2    0    0  0.00000000000E+00  0.00000000000E+00 -0.40376987792E+03  0.80710354924E+03  0.69884620975E+03 0.  0.
        1    1    3    3  502    0  0.19047940867E+03 -0.11162731922E+03 -0.51467856431E+03  0.56003311340E+03  0.50400001928E-02 0. -1.
       -1    1    3    3    0  502 -0.19047940867E+03  0.11162731922E+03  0.11090868639E+03  0.24707043584E+03  0.50400001928E-02 0.  1.
</event>
<event>
 5   0  0.6689415E-03  0.6987764E+03  0.7818609E-02  0.9719327E-01
        1   -1    0    0  501    0  0.00000000000E+00  0.00000000000E+00  0.14510561366E+04  0.14510561366E+04  0.50400001928E-02 0.  1.
       -1   -1    0    0    0  501  0.00000000000E+00  0.00000000000E+00 -0.84126390115E+02  0.84126390266E+02  0.50400001928E-02 0. -1.
    10030    2    1    2    0    0  0.00000000000E+00  0.00000000000E+00  0.13669297465E+04  0.15351825269E+04  0.69877640129E+03 0.  0.
        1    1    3    3  502    0  0.15074733572E+03  0.30864365404E+03  0.82390619255E+03  0.89264050913E+03  0.50400001928E-02 0.  1.
       -1    1    3    3    0  502 -0.15074733572E+03 -0.30864365404E+03  0.54302355392E+03  0.64254201773E+03  0.50400001928E-02 0. -1.
</event>
<event>
 5   0  0.1119786E-02  0.7017934E+03  0.7818609E-02  0.9714170E-01
        2   -1    0    0  501    0  0.00000000000E+00  0.00000000000E+00  0.97838063153E+03  0.97838063153E+03  0.25500000920E-02 0.  1.
       -2   -1    0    0    0  501  0.00000000000E+00  0.00000000000E+00 -0.12584926805E+03  0.12584926808E+03  0.25500000920E-02 0. -1.
    10030    2    1    2    0    0  0.00000000000E+00  0.00000000000E+00  0.85253136348E+03  0.11042298996E+04  0.70179337805E+03 0.  0.
        3    1    3    3  502    0 -0.43015449639E+02 -0.27310302223E+03  0.86268280369E+02  0.28961667089E+03  0.10100000352E+00 0. -1.
       -3    1    3    3    0  502  0.43015449639E+02  0.27310302223E+03  0.76626308311E+03  0.81461322872E+03  0.10100000352E+00 0.  1.
</event>
<event>
 5   0  0.6785252E-03  0.7009160E+03  0.7818609E-02  0.9715667E-01
        1   -1    0    0  501    0  0.00000000000E+00  0.00000000000E+00  0.32953051379E+03  0.32953051382E+03  0.50400001928E-02 0. -1.
       -1   -1    0    0    0  501  0.00000000000E+00  0.00000000000E+00 -0.37271449098E+03  0.37271449102E+03  0.50400001928E-02 0.  1.
    10030    2    1    2    0    0  0.00000000000E+00  0.00000000000E+00 -0.43183977196E+02  0.70224500484E+03  0.70091596567E+03 0.  0.
        3    1    3    3  502    0  0.20682739232E+03 -0.12791397233E+03 -0.27442189154E+03  0.36667006871E+03  0.10100000352E+00 0.  1.
       -3    1    3    3    0  502 -0.20682739232E+03  0.12791397233E+03  0.23123791434E+03  0.33557493613E+03  0.10100000352E+00 0. -1.
</event>
<event>
 5   0  0.6990118E-03  0.6994358E+03  0.7818609E-02  0.9718198E-01
       -1   -1    0    0    0  501  0.00000000000E+00  0.00000000000E+00  0.76453312357E+02  0.76453312523E+02  0.50400001928E-02 0.  1.
        1   -1    0    0  501    0  0.00000000000E+00  0.00000000000E+00 -0.15997032420E+04  0.15997032420E+04  0.50400001928E-02 0. -1.
    10030    2    1    2    0    0  0.00000000000E+00  0.00000000000E+00 -0.15232499297E+04  0.16761565546E+04  0.69943580631E+03 0.  0.
        5    1    3    3  502    0 -0.42986650578E+02  0.18980428301E+03 -0.14578601393E+04  0.14707997123E+04  0.46999998093E+01 0. -1.
       -5    1    3    3    0  502  0.42986650578E+02 -0.18980428301E+03 -0.65389790375E+02  0.20535684225E+03  0.46999998093E+01 0.  1.
</event>
<event>
 5   0  0.4440500E-03  0.7457859E+03  0.7818609E-02  0.9641985E-01
       -3   -1    0    0    0  501  0.00000000000E+00  0.00000000000E+00  0.59211392315E+03  0.59211393176E+03  0.10100000352E+00 0.  1.
        3   -1    0    0  501    0  0.00000000000E+00  0.00000000000E+00 -0.23483512247E+03  0.23483514419E+03  0.10100000352E+00 0. -1.
    10030    2    1    2    0    0  0.00000000000E+00  0.00000000000E+00  0.35727880068E+03  0.82694907596E+03  0.74578591621E+03 0.  0.
        4    1    3    3  502    0  0.18949273365E+03 -0.29657050908E+03  0.31528197415E+03  0.47251021057E+03  0.12699999809E+01 0.  1.
       -4    1    3    3    0  502 -0.18949273365E+03  0.29657050908E+03  0.41996826522E+02  0.35443886539E+03  0.12699999809E+01 0. -1.
</event>
<event>
 5   0  0.6689415E-03  0.6979611E+03  0.7818609E-02  0.9720725E-01
        1   -1    0    0  501    0  0.00000000000E+00  0.00000000000E+00  0.62949001836E+03  0.62949001838E+03  0.50400001928E-02 0. -1.
       -1   -1    0    0    0  501  0.00000000000E+00  0.00000000000E+00 -0.19346997950E+03  0.19346997956E+03  0.50400001928E-02 0.  1.
    10030    2    1    2    0    0  0.00000000000E+00  0.00000000000E+00  0.43602003886E+03  0.82295999794E+03  0.69796109055E+03 0.  0.
        1    1    3    3  502    0  0.12197885773E+03 -0.14348984775E+03  0.56442871675E+03  0.59501928915E+03  0.50400001928E-02 0. -1.
       -1    1    3    3    0  502 -0.12197885773E+03  0.14348984775E+03 -0.12840867789E+03  0.22794070879E+03  0.50400001928E-02 0.  1.
</event>
<event>
 5   0  0.6246998E-03  0.7049240E+03  0.7818609E-02  0.9708848E-01
        1   -1    0    0  501    0  0.00000000000E+00  0.00000000000E+00  0.17320696370E+03  0.17320696377E+03  0.50400001928E-02 0.  1.
       -1   -1    0    0    0  501  0.00000000000E+00  0.00000000000E+00 -0.71723136486E+03  0.71723136488E+03  0.50400001928E-02 0. -1.
    10030    2    1    2    0    0  0.00000000000E+00  0.00000000000E+00 -0.54402440116E+03  0.89043832865E+03  0.70492401582E+03 0.  0.
        4    1    3    3  502    0  0.21979333907E+03 -0.18401938905E+03 -0.12968228785E+02  0.28695301933E+03  0.12699999809E+01 0. -1.
       -4    1    3    3    0  502 -0.21979333907E+03  0.18401938905E+03 -0.53105617237E+03  0.60348530932E+03  0.12699999809E+01 0.  1.
</event>
<event>
 5   0  0.4440500E-03  0.6969074E+03  0.7818609E-02  0.9722536E-01
        3   -1    0    0  501    0  0.00000000000E+00  0.00000000000E+00  0.11831998489E+04  0.11831998532E+04  0.10100000352E+00 0. -1.
       -3   -1    0    0    0  501  0.00000000000E+00  0.00000000000E+00 -0.10261998541E+03  0.10262003511E+03  0.10100000352E+00 0.  1.
    10030    2    1    2    0    0  0.00000000000E+00  0.00000000000E+00  0.10805798635E+04  0.12858198883E+04  0.69690741409E+03 0.  0.
        1    1    3    3  502    0 -0.16250864667E+03 -0.30819421758E+03  0.54992129639E+03  0.65100396945E+03  0.50400001928E-02 0. -1.
       -1    1    3    3    0  502  0.16250864667E+03  0.30819421758E+03  0.53065856708E+03  0.63481591885E+03  0.50400001928E-02 0.  1.
</event>
<event>
 5   0  0.1119786E-02  0.6633659E+03  0.7818609E-02  0.9782017E-01
        2   -1    0    0  501    0  0.00000000000E+00  0.00000000000E+00  0.17056147157E+04  0.17056147157E+04  0.25500000920E-02 0. -1.
       -2   -1    0    0    0  501  0.00000000000E+00  0.00000000000E+00 -0.64500828924E+02  0.64500828974E+02  0.25500000920E-02 0.  1.
    10030    2    1    2    0    0  0.00000000000E+00  0.00000000000E+00  0.16411138867E+04  0.17701155446E+04  0.66336585089E+03 0.  0.
        3    1    3    3  502    0  0.30536647872E+03 -0.10261624768E+03  0.10312541611E+04  0.10803998962E+04  0.10100000352E+00 0.  1.
       -3    1    3    3    0  502 -0.30536647872E+03  0.10261624768E+03  0.60985972562E+03  0.68971564848E+03  0.10100000352E+00 0. -1.
</event>
<event>
 5   0  0.4440500E-03  0.7040075E+03  0.7818609E-02  0.9710403E-01
       -3   -1    0    0    0  501  0.00000000000E+00  0.00000000000E+00  0.11908774138E+03  0.11908778421E+03  0.10100000352E+00 0. -1.
        3   -1    0    0  501    0  0.00000000000E+00  0.00000000000E+00 -0.10404647539E+04  0.10404647588E+04  0.10100000352E+00 0.  1.
    10030    2    1    2    0    0  0.00000000000E+00  0.00000000000E+00 -0.92137701253E+03  0.11595525430E+04  0.70400745792E+03 0.  0.
        3    1    3    3  502    0  0.35568540101E+02 -0.25265883881E+03 -0.61277232679E+02  0.26240525780E+03  0.10100000352E+00 0. -1.
       -3    1    3    3    0  502 -0.35568540101E+02  0.25265883881E+03 -0.86009977985E+03  0.89714728522E+03  0.10100000352E+00 0.  1.
</event>
<event>
 5   0  0.6689415E-03  0.7009099E+03  0.7818609E-02  0.9715677E-01
       -1   -1    0    0    0  501  0.00000000000E+00  0.00000000000E+00  0.13972546574E+04  0.13972546574E+04  0.50400001928E-02 0. -1.
        1   -1    0    0  501    0  0.00000000000E+00  0.00000000000E+00 -0.87899992870E+02  0.87899993015E+02  0.50400001928E-02 0.  1.
    10030    2    1    2    0    0  0.00000000000E+00  0.00000000000E+00  0.13093546645E+04  0.14851546504E+04  0.70090990729E+03 0.  0.
        1    1    3    3  502    0  0.18787650280E+02 -0.55213550808E+02  0.13868994691E+04  0.13881252283E+04  0.50400001928E-02 0. -1.
       -1    1    3    3    0  502 -0.18787650280E+02  0.55213550808E+02 -0.77544804636E+02  0.97029422070E+02  0.50400001928E-02 0.  1.
</event>
<event>
 5   0  0.6609285E-03  0.6990730E+03  0.7818609E-02  0.9718819E-01
       -1   -1    0    0    0  501  0.00000000000E+00  0.00000000000E+00  0.26007306219E+03  0.26007306224E+03  0.50400001928E-02 0. -1.
        1   -1    0    0  501    0  0.00000000000E+00  0.00000000000E+00 -0.46977478606E+03  0.46977478609E+03  0.50400001928E-02 0.  1.
    10030    2    1    2    0    0  0.00000000000E+00  0.00000000000E+00 -0.20970172387E+03  0.72984784833E+03  0.69907300672E+03 0.  0.
        2    1    3    3  502    0 -0.27234771489E+03  0.53703522380E+02 -0.32661266568E+03  0.42864108472E+03  0.25500000920E-02 0.  1.
       -2    1    3    3    0  502  0.27234771489E+03 -0.53703522380E+02  0.11691094181E+03  0.30120676361E+03  0.25500000920E-02 0. -1.
</event>
<event>
 5   0  0.6785252E-03  0.6982381E+03  0.7818609E-02  0.9720250E-01
       -1   -1    0    0    0  501  0.00000000000E+00  0.00000000000E+00  0.17299151857E+03  0.17299151864E+03  0.50400001928E-02 0. -1.
        1   -1    0    0  501    0  0.00000000000E+00  0.00000000000E+00 -0.70456701441E+03  0.70456701443E+03  0.50400001928E-02 0.  1.
    10030    2    1    2    0    0  0.00000000000E+00  0.00000000000E+00 -0.53157549584E+03  0.87755853307E+03  0.69823811926E+03 0.  0.
        3    1    3    3  502    0 -0.14212372510E+02  0.32984680172E+03 -0.40844191799E+03  0.52519112208E+03  0.10100000352E+00 0. -1.
       -3    1    3    3    0  502  0.14212372510E+02 -0.32984680172E+03 -0.12313357785E+03  0.35236741100E+03  0.10100000352E+00 0.  1.
</event>
<event>
 5   0  0.1100119E-02  0.6845343E+03  0.7818609E-02  0.9744052E-01
        2   -1    0    0  501    0  0.00000000000E+00  0.00000000000E+00  0.55250918558E+03  0.55250918558E+03  0.25500000920E-02 0. -1.
       -2   -1    0    0    0  501  0.00000000000E+00  0.00000000000E+00 -0.21202691324E+03  0.21202691325E+03  0.25500000920E-02 0.  1.
    10030    2    1    2    0    0  0.00000000000E+00  0.00000000000E+00  0.34048227234E+03  0.76453609883E+03  0.68453434439E+03 0.  0.
        4    1    3    3  502    0 -0.24577876584E+03  0.11658462455E+03 -0.61750946356E+02  0.27895155260E+03  0.12699999809E+01 0.  1.
       -4    1    3    3    0  502  0.24577876584E+03 -0.11658462455E+03  0.40223321869E+03  0.48558454624E+03  0.12699999809E+01 0. -1.
</event>
<event>
 5   0  0.1119786E-02  0.6991452E+03  0.7818609E-02  0.9718695E-01
       -2   -1    0    0    0  501  0.00000000000E+00  0.00000000000E+00  0.15000882733E+03  0.15000882735E+03  0.25500000920E-02 0. -1.
        2   -1    0    0  501    0  0.00000000000E+00  0.00000000000E+00 -0.81462533189E+03  0.81462533189E+03  0.25500000920E-02 0.  1.
    10030    2    1    2    0    0  0.00000000000E+00  0.00000000000E+00 -0.66461650456E+03  0.96463415924E+03  0.69914516592E+03 0.  0.
        3    1    3    3  502    0 -0.17919915990E+03 -0.18271041409E+03 -0.37532778934E+01  0.25594829873E+03  0.10100000352E+00 0. -1.
       -3    1    3    3    0  502  0.17919915990E+03  0.18271041409E+03 -0.66086322667E+03  0.70868586051E+03  0.10100000352E+00 0.  1.
</event>
<event>
 5   0  0.6246998E-03  0.7070870E+03  0.7818609E-02  0.9705189E-01
       -1   -1    0    0    0  501  0.00000000000E+00  0.00000000000E+00  0.24412105851E+03  0.24412105856E+03  0.50400001928E-02 0. -1.
        1   -1    0    0  501    0  0.00000000000E+00  0.00000000000E+00 -0.51201234551E+03  0.51201234553E+03  0.50400001928E-02 0.  1.
    10030    2    1    2    0    0  0.00000000000E+00  0.00000000000E+00 -0.26789128700E+03  0.75613340409E+03  0.70708696999E+03 0.  0.
        4    1    3    3  502    0 -0.33794111152E+03 -0.81595206332E+02 -0.65227786045E+02  0.35372058115E+03  0.12699999809E+01 0.  1.
       -4    1    3    3    0  502  0.33794111152E+03  0.81595206332E+02 -0.20266350095E+03  0.40241282295E+03  0.12699999809E+01 0. -1.
</event>
<event>
 5   0  0.6609285E-03  0.7270222E+03  0.7818609E-02  0.9672105E-01
        1   -1    0    0  501    0  0.00000000000E+00  0.00000000000E+00  0.13181560499E+03  0.13181560509E+03  0.50400001928E-02 0. -1.
       -1   -1    0    0    0  501  0.00000000000E+00  0.00000000000E+00 -0.10024632831E+04  0.10024632832E+04  0.50400001928E-02 0.  1.
    10030    2    1    2    0    0  0.00000000000E+00  0.00000000000E+00 -0.87064767815E+03  0.11342788882E+04  0.72702215705E+03 0.  0.
        2    1    3    3  502    0 -0.85035785886E+02  0.33363399245E+03 -0.25339439691E+03  0.42749438148E+03  0.25500000920E-02 0. -1.
       -2    1    3    3    0  502  0.85035785886E+02 -0.33363399245E+03 -0.61725328124E+03  0.70678450676E+03  0.25500000920E-02 0.  1.
</event>
<event>
 5   0  0.6609285E-03  0.6994648E+03  0.7818609E-02  0.9718148E-01
        1   -1    0    0  501    0  0.00000000000E+00  0.00000000000E+00  0.44853078845E+03  0.44853078848E+03  0.50400001928E-02 0. -1.
       -1   -1    0    0    0  501  0.00000000000E+00  0.00000000000E+00 -0.27269645583E+03  0.27269645587E+03  0.50400001928E-02 0.  1.
    10030    2    1    2    0    0  0.00000000000E+00  0.00000000000E+00  0.17583433263E+03  0.72122724436E+03  0.69946481360E+03 0.  0.
        2    1    3    3  502    0  0.90536219952E+02 -0.18883002679E+03 -0.20090339447E+03  0.29019951768E+03  0.25500000920E-02 0.  1.
       -2    1    3    3    0  502 -0.90536219952E+02  0.18883002679E+03  0.37673772710E+03  0.43102772668E+03  0.25500000920E-02 0. -1.
</event>
<event>
 5   0  0.6689415E-03  0.7007265E+03  0.7818609E-02  0.9715991E-01
        1   -1    0    0  501    0  0.00000000000E+00  0.00000000000E+00  0.64148689328E+03  0.64148689329E+03  0.50400001928E-02 0. -1.
       -1   -1    0    0    0  501  0.00000000000E+00  0.00000000000E+00 -0.19135917886E+03  0.19135917893E+03  0.50400001928E-02 0.  1.
    10030    2    1    2    0    0  0.00000000000E+00  0.00000000000E+00  0.45012771442E+03  0.83284607222E+03  0.70072649495E+03 0.  0.
        1    1    3    3  502    0 -0.30573877919E+03 -0.12958522437E+03  0.92255418392E+02  0.34464415522E+03  0.50400001928E-02 0.  1.
       -1    1    3    3    0  502  0.30573877919E+03  0.12958522437E+03  0.35787229602E+03  0.48820191700E+03  0.50400001928E-02 0. -1.
</event>
<event>
 5   0  0.6990118E-03  0.6982953E+03  0.7818609E-02  0.9720152E-01
       -1   -1    0    0    0  501  0.00000000000E+00  0.00000000000E+00  0.20120491153E+03  0.20120491159E+03  0.50400001928E-02 0. -1.
        1   -1    0    0  501    0  0.00000000000E+00  0.00000000000E+00 -0.60587034911E+03  0.60587034914E+03  0.50400001928E-02 0.  1.
    10030    2    1    2    0    0  0.00000000000E+00  0.00000000000E+00 -0.40466543759E+03  0.80707526073E+03  0.69829532441E+03 0.  0.
        5    1    3    3  502    0  0.19697276542E+03 -0.79797445232E+01  0.13068428195E+03  0.23656377193E+03  0.46999998093E+01 0. -1.
       -5    1    3    3    0  502 -0.19697276542E+03  0.79797445232E+01 -0.53534971954E+03  0.57051148880E+03  0.46999998093E+01 0.  1.
</event>
<event>
 5   0  0.6246998E-03  0.7000615E+03  0.7818609E-02  0.9717127E-01
       -1   -1    0    0    0  501  0.00000000000E+00  0.00000000000E+00  0.16181490168E+03  0.16181490176E+03  0.50400001928E-02 0. -1.
        1   -1    0    0  501    0  0.00000000000E+00  0.00000000000E+00 -0.75717092654E+03  0.75717092655E+03  0.50400001928E-02 0.  1.
    10030    2    1    2    0    0  0.00000000000E+00  0.00000000000E+00 -0.59535602486E+03  0.91898582831E+03  0.70006153751E+03 0.  0.
        4    1    3    3  502    0 -0.23820601765E+03 -0.24412493770E+03 -0.40088191996E+03  0.52635256122E+03  0.12699999809E+01 0.  1.
       -4    1    3    3    0  502  0.23820601765E+03  0.24412493770E+03 -0.19447410490E+03  0.39263326709E+03  0.12699999809E+01 0. -1.
</event>
<event>
 5   0  0.1100119E-02  0.7021293E+03  0.7818609E-02  0.9713598E-01
       -2   -1    0    0    0  501  0.00000000000E+00  0.00000000000E+00  0.97920614183E+02  0.97920614216E+02  0.25500000920E-02 0. -1.
        2   -1    0    0  501    0  0.00000000000E+00  0.00000000000E+00 -0.12586358444E+04  0.12586358444E+04  0.25500000920E-02 0.  1.
    10030    2    1    2    0    0  0.00000000000E+00  0.00000000000E+00 -0.11607152302E+04  0.13565564586E+04  0.70212931840E+03 0.  0.
        4    1    3    3  502    0 -0.51557927706E+02  0.50699767613E+02  0.83372291718E+02  0.11036864714E+03  0.12699999809E+01 0. -1.
       -4    1    3    3    0  502  0.51557927706E+02 -0.50699767613E+02 -0.12440875219E+04  0.12461878115E+04  0.12699999809E+01 0.  1.
</event>
<event>
 5   0  0.4440500E-03  0.6989413E+03  0.7818609E-02  0.9719044E-01
       -3   -1    0    0    0  501  0.00000000000E+00  0.00000000000E+00  0.34061488775E+03  0.34061490272E+03  0.10100000352E+00 0.  1.
        3   -1    0    0  501    0  0.00000000000E+00  0.00000000000E+00 -0.35855667160E+03  0.35855668583E+03  0.10100000352E+00 0. -1.
    10030    2    1    2    0    0  0.00000000000E+00  0.00000000000E+00 -0.17941783854E+02  0.69917158855E+03  0.69894134419E+03 0.  0.
        2    1    3    3  502    0 -0.23095028874E+03  0.12693590661E+02  0.25308980979E+03  0.34286092652E+03  0.25500000920E-02 0.  1.
       -2    1    3    3    0  502  0.23095028874E+03 -0.12693590661E+02 -0.27103159364E+03  0.35631066202E+03  0.25500000920E-02 0. -1.
</event>
<event>
 5   0  0.1100119E-02  0.7043509E+03  0.7818609E-02  0.9709820E-01
        2   -1    0    0  501    0  0.00000000000E+00  0.00000000000E+00  0.99891416184E+03  0.99891416185E+03  0.25500000920E-02 0.  1.
       -2   -1    0    0    0  501  0.00000000000E+00  0.00000000000E+00 -0.12416237214E+03  0.12416237217E+03  0.25500000920E-02 0. -1.
    10030    2    1    2    0    0  0.00000000000E+00  0.00000000000E+00  0.87475178970E+03  0.11230765340E+04  0.70435091231E+03 0.  0.
        4    1    3    3  502    0 -0.51017628206E+02  0.27943390346E+03  0.76931918513E+03  0.82008519454E+03  0.12699999809E+01 0. -1.
       -4    1    3    3    0  502  0.51017628206E+02 -0.27943390346E+03  0.10543260457E+03  0.30299133948E+03  0.12699999809E+01 0.  1.
</event>
<event>
 5   0  0.6689415E-03  0.7012658E+03  0.7818609E-02  0.9715070E-01
        1   -1    0    0  501    0  0.00000000000E+00  0.00000000000E+00  0.93773548459E+03  0.93773548460E+03  0.50400001928E-02 0. -1.
       -1   -1    0    0    0  501  0.00000000000E+00  0.00000000000E+00 -0.13110671969E+03  0.13110671978E+03  0.50400001928E-02 0.  1.
    10030    2    1    2    0    0  0.00000000000E+00  0.00000000000E+00  0.80662876490E+03  0.10688422044E+04  0.70126577951E+03 0.  0.
        1    1    3    3  502    0  0.25227660066E+03 -0.23802948576E+03  0.32497331850E+03  0.47529903965E+03  0.50400001928E-02 0.  1.
       -1    1    3    3    0  502 -0.25227660066E+03  0.23802948576E+03  0.48165544640E+03  0.59354316473E+03  0.50400001928E-02 0. -1.
</event>
<event>
 5   0  0.6246998E-03  0.6993710E+03  0.7818609E-02  0.9718308E-01
        1   -1    0    0  501    0  0.00000000000E+00  0.00000000000E+00  0.82328951145E+03  0.82328951147E+03  0.50400001928E-02 0. -1.
       -1   -1    0    0    0  501  0.00000000000E+00  0.00000000000E+00 -0.14852605703E+03  0.14852605711E+03  0.50400001928E-02 0.  1.
    10030    2    1    2    0    0  0.00000000000E+00  0.00000000000E+00  0.67476345443E+03  0.97181556858E+03  0.69937098875E+03 0.  0.
        4    1    3    3  502    0  0.74639523537E+02 -0.33825493685E+03  0.40389014023E+03  0.53208675895E+03  0.12699999809E+01 0. -1.
       -4    1    3    3    0  502 -0.74639523537E+02  0.33825493685E+03  0.27087331420E+03  0.43972880963E+03  0.12699999809E+01 0.  1.
</event>
<event>
 5   0  0.1100119E-02  0.6989697E+03  0.7818609E-02  0.9718996E-01
       -2   -1    0    0    0  501  0.00000000000E+00  0.00000000000E+00  0.52599436445E+03  0.52599436446E+03  0.25500000920E-02 0. -1.
        2   -1    0    0  501    0  0.00000000000E+00  0.00000000000E+00 -0.23220713307E+03  0.23220713309E+03  0.25500000920E-02 0.  1.
    10030    2    1    2    0    0  0.00000000000E+00  0.00000000000E+00  0.29378723138E+03  0.75820149754E+03  0.69896965138E+03 0.  0.
        4    1    3    3  502    0  0.24538471623E+02  0.34184012276E+03  0.72676162523E+02  0.35034303706E+03  0.12699999809E+01 0. -1.
       -4    1    3    3    0  502 -0.24538471623E+02 -0.34184012276E+03  0.22111106885E+03  0.40785846048E+03  0.12699999809E+01 0.  1.
</event>
<event>
 5   0  0.1100119E-02  0.7072891E+03  0.7818609E-02  0.9704847E-01
       -2   -1    0    0    0  501  0.00000000000E+00  0.00000000000E+00  0.11330712685E+04  0.11330712685E+04  0.25500000920E-02 0.  1.
        2   -1    0    0  501    0  0.00000000000E+00  0.00000000000E+00 -0.11037652755E+03  0.11037652758E+03  0.25500000920E-02 0. -1.
    10030    2    1    2    0    0  0.00000000000E+00  0.00000000000E+00  0.10226947410E+04  0.12434477961E+04  0.70728911235E+03 0.  0.
        4    1    3    3  502    0 -0.10583822050E+03 -0.89321915775E+02 -0.60714682491E+02  0.15122175481E+03  0.12699999809E+01 0. -1.
       -4    1    3    3    0  502  0.10583822050E+03  0.89321915775E+02  0.10834094235E+04  0.10922260413E+04  0.12699999809E+01 0.  1.
</event>
<event>
 5   0  0.1099980E-02  0.6767905E+03  0.7818609E-02  0.9757768E-01
        2   -1    0    0  501    0  0.00000000000E+00  0.00000000000E+00  0.14879363823E+04  0.14879363823E+04  0.25500000920E-02 0. -1.
       -2   -1    0    0    0  501  0.00000000000E+00  0.00000000000E+00 -0.76959840714E+02  0.76959840757E+02  0.25500000920E-02 0.  1.
    10030    2    1    2    0    0  0.00000000000E+00  0.00000000000E+00  0.14109765416E+04  0.15648962231E+04  0.67679050529E+03 0.  0.
        5    1    3    3  502    0  0.24516320789E+03 -0.18323703222E+03  0.10390307368E+04  0.10831840889E+04  0.46999998093E+01 0. -1.
       -5    1    3    3    0  502 -0.24516320789E+03  0.18323703222E+03  0.37194580479E+03  0.48171213415E+03  0.46999998093E+01 0.  1.
</event>
<event>
 5   0  0.1109788E-02  0.6997336E+03  0.7818609E-02  0.9717688E-01
        2   -1    0    0  501    0  0.00000000000E+00  0.00000000000E+00  0.15033916584E+03  0.15033916586E+03  0.25500000920E-02 0. -1.
       -2   -1    0    0    0  501  0.00000000000E+00  0.00000000000E+00 -0.81420419205E+03  0.81420419205E+03  0.25500000920E-02 0.  1.
    10030    2    1    2    0    0  0.00000000000E+00  0.00000000000E+00 -0.66386502621E+03  0.96454335792E+03  0.69973360379E+03 0.  0.
        1    1    3    3  502    0  0.52962899332E+01  0.33839323435E+03 -0.20965634421E+03  0.39811281622E+03  0.50400001928E-02 0. -1.
       -1    1    3    3    0  502 -0.52962899332E+01 -0.33839323435E+03 -0.45420868200E+03  0.56643054170E+03  0.50400001928E-02 0.  1.
</event>
<event>
 5   0  0.6990118E-03  0.6961022E+03  0.7818609E-02  0.9723921E-01
       -1   -1    0    0    0  501  0.00000000000E+00  0.00000000000E+00  0.14703878245E+03  0.14703878253E+03  0.50400001928E-02 0.  1.
        1   -1    0    0  501    0  0.00000000000E+00  0.00000000000E+00 -0.82386128000E+03  0.82386128001E+03  0.50400001928E-02 0. -1.
    10030    2    1    2    0    0  0.00000000000E+00  0.00000000000E+00 -0.67682249755E+03  0.97090006255E+03  0.69610217516E+03 0.  0.
        5    1    3    3  502    0  0.12040728970E+03 -0.27072950553E+03 -0.59302813171E+03  0.66294557512E+03  0.46999998093E+01 0. -1.
       -5    1    3    3    0  502 -0.12040728970E+03  0.27072950553E+03 -0.83794365845E+02  0.30795448743E+03  0.46999998093E+01 0.  1.
</event>
<event>
 5   0  0.1099980E-02  0.6921363E+03  0.7818609E-02  0.9730775E-01
       -2   -1    0    0    0  501  0.00000000000E+00  0.00000000000E+00  0.95047794633E+02  0.95047794667E+02  0.25500000920E-02 0. -1.
        2   -1    0    0  501    0  0.00000000000E+00  0.00000000000E+00 -0.12600311149E+04  0.12600311149E+04  0.25500000920E-02 0.  1.
    10030    2    1    2    0    0  0.00000000000E+00  0.00000000000E+00 -0.11649833202E+04  0.13550789095E+04  0.69213634108E+03 0.  0.
        5    1    3    3  502    0  0.23941597267E+03  0.18060779627E+03 -0.24450859248E+03  0.38696992885E+03  0.46999998093E+01 0. -1.
       -5    1    3    3    0  502 -0.23941597267E+03 -0.18060779627E+03 -0.92047472775E+03  0.96810898068E+03  0.46999998093E+01 0.  1.
</event>
<event>
 5   0  0.4440500E-03  0.7075508E+03  0.7818609E-02  0.9704406E-01
       -4   -1    0    0    0  501  0.00000000000E+00  0.00000000000E+00  0.68533347842E+03  0.68533465514E+03  0.12699999809E+01 0.  1.
        4   -1    0    0  501    0  0.00000000000E+00  0.00000000000E+00 -0.18261855018E+03  0.18262296616E+03  0.12699999809E+01 0. -1.
    10030    2    1    2    0    0  0.00000000000E+00  0.00000000000E+00  0.50271492824E+03  0.86795762131E+03  0.70755079910E+03 0.  0.
        4    1    3    3  502    0  0.24314565308E+03  0.38539211595E+02  0.56302399398E+03  0.61449386501E+03  0.12699999809E+01 0.  1.
       -4    1    3    3    0  502 -0.24314565308E+03 -0.38539211595E+02 -0.60309065741E+02  0.25346375629E+03  0.12699999809E+01 0. -1.
</event>
<event>
 5   0  0.1099980E-02  0.7202543E+03  0.7818609E-02  0.9683208E-01
       -2   -1    0    0    0  501  0.00000000000E+00  0.00000000000E+00  0.28225814375E+03  0.28225814376E+03  0.25500000920E-02 0. -1.
        2   -1    0    0  501    0  0.00000000000E+00  0.00000000000E+00 -0.45947851918E+03  0.45947851919E+03  0.25500000920E-02 0.  1.
    10030    2    1    2    0    0  0.00000000000E+00  0.00000000000E+00 -0.17722037543E+03  0.74173666294E+03  0.72025427155E+03 0.  0.
        5    1    3    3  502    0 -0.30416666020E+03  0.21438793132E+02 -0.28587629089E+03  0.41800038603E+03  0.46999998093E+01 0.  1.
       -5    1    3    3    0  502  0.30416666020E+03 -0.21438793132E+02  0.10865591546E+03  0.32373627691E+03  0.46999998093E+01 0. -1.
</event>
<event>
 5   0  0.6689415E-03  0.7019320E+03  0.7818609E-02  0.9713934E-01
       -1   -1    0    0    0  501  0.00000000000E+00  0.00000000000E+00  0.96291330785E+03  0.96291330787E+03  0.50400001928E-02 0. -1.
        1   -1    0    0  501    0  0.00000000000E+00  0.00000000000E+00 -0.12792131787E+03  0.12792131797E+03  0.50400001928E-02 0.  1.
    10030    2    1    2    0    0  0.00000000000E+00  0.00000000000E+00  0.83499198998E+03  0.10908346258E+04  0.70193201777E+03 0.  0.
        1    1    3    3  502    0  0.10024640997E+03  0.30921689564E+03  0.62315158416E+03  0.70283876397E+03  0.50400001928E-02 0. -1.
       -1    1    3    3    0  502 -0.10024640997E+03 -0.30921689564E+03  0.21184040582E+03  0.38799586187E+03  0.50400001928E-02 0.  1.
</event>
<event>
 5   0  0.6609285E-03  0.6997369E+03  0.7818609E-02  0.9717682E-01
        1   -1    0    0  501    0  0.00000000000E+00  0.00000000000E+00  0.89584532887E+03  0.89584532888E+03  0.50400001928E-02 0.  1.
       -1   -1    0    0    0  501  0.00000000000E+00  0.00000000000E+00 -0.13663959867E+03  0.13663959877E+03  0.50400001928E-02 0. -1.
    10030    2    1    2    0    0  0.00000000000E+00  0.00000000000E+00  0.75920573020E+03  0.10324849276E+04  0.69973693990E+03 0.  0.
        2    1    3    3  502    0  0.28680879750E+03  0.15830577028E+03  0.56084698968E+03  0.64951470273E+03  0.25500000920E-02 0.  1.
       -2    1    3    3    0  502 -0.28680879750E+03 -0.15830577028E+03  0.19835874052E+03  0.38297022492E+03  0.25500000920E-02 0. -1.
</event>
<event>
 5   0  0.6785252E-03  0.7149442E+03  0.7818609E-02  0.9692012E-01
        1   -1    0    0  501    0  0.00000000000E+00  0.00000000000E+00  0.56442090986E+03  0.56442090988E+03  0.50400001928E-02 0.  1.
       -1   -1    0    0    0  501  0.00000000000E+00  0.00000000000E+00 -0.22640246608E+03  0.22640246614E+03  0.50400001928E-02 0. -1.
    10030    2    1    2    0    0  0.00000000000E+00  0.00000000000E+00  0.33801844378E+03  0.79082337602E+03  0.71494415427E+03 0.  0.
        3    1    3    3  502    0  0.61306873336E+02  0.93164184470E+02  0.54468461338E+03  0.55598510434E+03  0.10100000352E+00 0.  1.
       -3    1    3    3    0  502 -0.61306873336E+02 -0.93164184470E+02 -0.20666616960E+03  0.23483827168E+03  0.10100000352E+00 0. -1.
</event>
<event>
 5   0  0.6785252E-03  0.6969030E+03  0.7818609E-02  0.9722543E-01
        1   -1    0    0  501    0  0.00000000000E+00  0.00000000000E+00  0.25306075462E+03  0.25306075467E+03  0.50400001928E-02 0. -1.
       -1   -1    0    0    0  501  0.00000000000E+00  0.00000000000E+00 -0.47979956498E+03  0.47979956501E+03  0.50400001928E-02 0.  1.
    10030    2    1    2    0    0  0.00000000000E+00  0.00000000000E+00 -0.22673881036E+03  0.73286031969E+03  0.69690297750E+03 0.  0.
        3    1    3    3  502    0 -0.25309603551E+03  0.37556383096E+01 -0.36519692370E+03  0.44434278580E+03  0.10100000352E+00 0.  1.
       -3    1    3    3    0  502  0.25309603551E+03 -0.37556383096E+01  0.13845811334E+03  0.28851753389E+03  0.10100000352E+00 0. -1.
</event>
<event>
 5   0  0.1079446E-02  0.6934243E+03  0.7818609E-02  0.9728544E-01
        2   -1    0    0  501    0  0.00000000000E+00  0.00000000000E+00  0.86642557190E+03  0.86642557191E+03  0.25500000920E-02 0.  1.
       -2   -1    0    0    0  501  0.00000000000E+00  0.00000000000E+00 -0.13874166103E+03  0.13874166105E+03  0.25500000920E-02 0. -1.
    10030    2    1    2    0    0  0.00000000000E+00  0.00000000000E+00  0.72768391088E+03  0.10051672330E+04  0.69342432324E+03 0.  0.
        2    1    3    3  502    0  0.61981526437E+02 -0.34459030762E+02  0.85580008775E+03  0.85873332567E+03  0.25500000920E-02 0.  1.
       -2    1    3    3    0  502 -0.61981526437E+02  0.34459030762E+02 -0.12811617687E+03  0.14643390729E+03  0.25500000920E-02 0. -1.
</event>
<event>
 5   0  0.6785252E-03  0.7022632E+03  0.7818609E-02  0.9713370E-01
        1   -1    0    0  501    0  0.00000000000E+00  0.00000000000E+00  0.81294489580E+03  0.81294489581E+03  0.50400001928E-02 0.  1.
       -1   -1    0    0    0  501  0.00000000000E+00  0.00000000000E+00 -0.15166269374E+03  0.15166269383E+03  0.50400001928E-02 0. -1.
    10030    2    1    2    0    0  0.00000000000E+00  0.00000000000E+00  0.66128220205E+03  0.96460758964E+03  0.70226323501E+03 0.  0.
        3    1    3    3  502    0  0.34736250871E+03 -0.16466743028E+02  0.26389159196E+03  0.43654398242E+03  0.10100000352E+00 0. -1.
       -3    1    3    3    0  502 -0.34736250871E+03  0.16466743028E+02  0.39739061009E+03  0.52806360722E+03  0.10100000352E+00 0.  1.
</event>
<event>
 5   0  0.6609285E-03  0.7009468E+03  0.7818609E-02  0.9715614E-01
        1   -1    0    0  501    0  0.00000000000E+00  0.00000000000E+00  0.46775582460E+03  0.46775582463E+03  0.50400001928E-02 0.  1.
       -1   -1    0    0    0  501  0.00000000000E+00  0.00000000000E+00 -0.26259767161E+03  0.26259767166E+03  0.50400001928E-02 0. -1.
    10030    2    1    2    0    0  0.00000000000E+00  0.00000000000E+00  0.20515815298E+03  0.73035349629E+03  0.70094676103E+03 0.  0.
        2    1    3    3  502    0  0.54440702942E+02 -0.39441908040E+02 -0.25581657143E+03  0.26450249993E+03  0.25500000920E-02 0. -1.
       -2    1    3    3    0  502 -0.54440702942E+02  0.39441908040E+02  0.46097472441E+03  0.46585099635E+03  0.25500000920E-02 0.  1.
</event>
<event>
 5   0  0.6689415E-03  0.6968795E+03  0.7818609E-02  0.9722584E-01
        1   -1    0    0  501    0  0.00000000000E+00  0.00000000000E+00  0.47887264883E+03  0.47887264885E+03  0.50400001928E-02 0. -1.
       -1   -1    0    0    0  501  0.00000000000E+00  0.00000000000E+00 -0.25353351826E+03  0.25353351831E+03  0.50400001928E-02 0.  1.
    10030    2    1    2    0    0  0.00000000000E+00  0.00000000000E+00  0.22533913057E+03  0.73240616716E+03  0.69687952325E+03 0.  0.
        1    1    3    3  502    0 -0.26579547110E+03 -0.21927404683E+03  0.16709699132E+03  0.38294874932E+03  0.50400001928E-02 0. -1.
       -1    1    3    3    0  502  0.26579547110E+03  0.21927404683E+03  0.58242139245E+02  0.34945741784E+03  0.50400001928E-02 0.  1.
</event>
<event>
 5   0  0.1109788E-02  0.6980908E+03  0.7818609E-02  0.9720503E-01
        2   -1    0    0  501    0  0.00000000000E+00  0.00000000000E+00  0.22746954277E+03  0.22746954279E+03  0.25500000920E-02 0. -1.
       -2   -1    0    0    0  501  0.00000000000E+00  0.00000000000E+00 -0.53559999716E+03  0.53559999716E+03  0.25500000920E-02 0.  1.
    10030    2    1    2    0    0  0.00000000000E+00  0.00000000000E+00 -0.30813045439E+03  0.76306953995E+03  0.69809078627E+03 0.  0.
        1    1    3    3  502    0  0.15558941906E+03 -0.19319632073E+03 -0.42248230899E+03  0.48992263379E+03  0.50400001928E-02 0.  1.
       -1    1    3    3    0  502 -0.15558941906E+03  0.19319632073E+03  0.11435185460E+03  0.27314690616E+03  0.50400001928E-02 0. -1.
</event>
<event>
 5   0  0.1079446E-02  0.7005620E+03  0.7818609E-02  0.9716272E-01
        2   -1    0    0  501    0  0.00000000000E+00  0.00000000000E+00  0.14126665148E+04  0.14126665148E+04  0.25500000920E-02 0.  1.
       -2   -1    0    0    0  501  0.00000000000E+00  0.00000000000E+00 -0.86854730817E+02  0.86854730854E+02  0.25500000920E-02 0. -1.
    10030    2    1    2    0    0  0.00000000000E+00  0.00000000000E+00  0.13258117840E+04  0.14995212457E+04  0.70056197416E+03 0.  0.
        2    1    3    3  502    0  0.32049462443E+03  0.68586266735E+02  0.92745683796E+03  0.98366511912E+03  0.25500000920E-02 0.  1.
       -2    1    3    3    0  502 -0.32049462443E+03 -0.68586266735E+02  0.39835494607E+03  0.51585612659E+03  0.25500000920E-02 0. -1.
</event>
<event>
 5   0  0.4440500E-03  0.6689531E+03  0.7818609E-02  0.9771851E-01
        3   -1    0    0  501    0  0.00000000000E+00  0.00000000000E+00  0.37839861297E+03  0.37839862644E+03  0.10100000352E+00 0. -1.
       -3   -1    0    0    0  501  0.00000000000E+00  0.00000000000E+00 -0.29565262178E+03  0.29565263903E+03  0.10100000352E+00 0.  1.
    10030    2    1    2    0    0  0.00000000000E+00  0.00000000000E+00  0.82745991185E+02  0.67405126548E+03  0.66895306968E+03 0.  0.
        5    1    3    3  502    0 -0.22877586290E+03  0.21553523028E+03 -0.73772276267E+02  0.32289049178E+03  0.46999998093E+01 0. -1.
       -5    1    3    3    0  502  0.22877586290E+03 -0.21553523028E+03  0.15651826745E+03  0.35116077370E+03  0.46999998093E+01 0.  1.
</event>
<event>
 5   0  0.6785252E-03  0.6973915E+03  0.7818609E-02  0.9721703E-01
        1   -1    0    0  501    0  0.00000000000E+00  0.00000000000E+00  0.19227235654E+04  0.19227235654E+04  0.50400001928E-02 0.  1.
       -1   -1    0    0    0  501  0.00000000000E+00  0.00000000000E+00 -0.63237757243E+02  0.63237757444E+02  0.50400001928E-02 0. -1.
    10030    2    1    2    0    0  0.00000000000E+00  0.00000000000E+00  0.18594858082E+04  0.19859613229E+04  0.69739150062E+03 0.  0.
        3    1    3    3  502    0  0.14975284696E+03  0.30711323766E+03  0.73154098030E+03  0.80740118404E+03  0.10100000352E+00 0. -1.
       -3    1    3    3    0  502 -0.14975284696E+03 -0.30711323766E+03  0.11279448279E+04  0.11785601388E+04  0.10100000352E+00 0.  1.
</event>
<event>
 5   0  0.1109788E-02  0.6958227E+03  0.7818609E-02  0.9724403E-01
       -2   -1    0    0    0  501  0.00000000000E+00  0.00000000000E+00  0.15441715245E+03  0.15441715247E+03  0.25500000920E-02 0. -1.
        2   -1    0    0  501    0  0.00000000000E+00  0.00000000000E+00 -0.78386563522E+03  0.78386563523E+03  0.25500000920E-02 0.  1.
    10030    2    1    2    0    0  0.00000000000E+00  0.00000000000E+00 -0.62944848278E+03  0.93828278769E+03  0.69582267656E+03 0.  0.
        1    1    3    3  502    0 -0.68595059112E+02 -0.92710581170E+02 -0.75734034919E+03  0.76607110541E+03  0.50400001928E-02 0.  1.
       -1    1    3    3    0  502  0.68595059112E+02  0.92710581170E+02  0.12789186642E+03  0.17221168229E+03  0.50400001928E-02 0. -1.
</event>
<event>
 5   0  0.6689415E-03  0.7007624E+03  0.7818609E-02  0.9715929E-01
        1   -1    0    0  501    0  0.00000000000E+00  0.00000000000E+00  0.50414047267E+03  0.50414047270E+03  0.50400001928E-02 0.  1.
       -1   -1    0    0    0  501  0.00000000000E+00  0.00000000000E+00 -0.24351744169E+03  0.24351744175E+03  0.50400001928E-02 0. -1.
    10030    2    1    2    0    0  0.00000000000E+00  0.00000000000E+00  0.26062303098E+03  0.74765791444E+03  0.70076243675E+03 0.  0.
        1    1    3    3  502    0 -0.51154440602E+01  0.20058015926E+03  0.43677679769E+03  0.48065844327E+03  0.50400001928E-02 0.  1.
       -1    1    3    3    0  502  0.51154440602E+01 -0.20058015926E+03 -0.17615376671E+03  0.26699947118E+03  0.50400001928E-02 0. -1.
</event>
<event>
 5   0  0.6785252E-03  0.6973537E+03  0.7818609E-02  0.9721768E-01
        1   -1    0    0  501    0  0.00000000000E+00  0.00000000000E+00  0.11998583029E+03  0.11998583039E+03  0.50400001928E-02 0.  1.
       -1   -1    0    0    0  501  0.00000000000E+00  0.00000000000E+00 -0.10132491156E+04  0.10132491156E+04  0.50400001928E-02 0. -1.
    10030    2    1    2    0    0  0.00000000000E+00  0.00000000000E+00 -0.89326328530E+03  0.11332349460E+04  0.69735367350E+03 0.  0.
        3    1    3    3  502    0  0.22717430512E+03  0.19082021785E+03 -0.14895447492E+03  0.33197585190E+03  0.10100000352E+00 0.  1.
       -3    1    3    3    0  502 -0.22717430512E+03 -0.19082021785E+03 -0.74430881038E+03  0.80125909409E+03  0.10100000352E+00 0. -1.
</event>
<event>
 5   0  0.1100119E-02  0.7070555E+03  0.7818609E-02  0.9705242E-01
       -2   -1    0    0    0  501  0.00000000000E+00  0.00000000000E+00  0.10880732192E+03  0.10880732195E+03  0.25500000920E-02 0. -1.
        2   -1    0    0  501    0  0.00000000000E+00  0.00000000000E+00 -0.11486532513E+04  0.11486532513E+04  0.25500000920E-02 0.  1.
    10030    2    1    2    0    0  0.00000000000E+00  0.00000000000E+00 -0.10398459294E+04  0.12574605733E+04  0.70705553986E+03 0.  0.
        4    1    3    3  502    0 -0.18052243266E+03  0.72811344749E+02 -0.10447619250E+04  0.10627412354E+04  0.12699999809E+01 0.  1.
       -4    1    3    3    0  502  0.18052243266E+03 -0.72811344749E+02  0.49159956049E+01  0.19471933785E+03  0.12699999809E+01 0. -1.
</event>
<event>
 5   0  0.1099980E-02  0.6998075E+03  0.7818609E-02  0.9717561E-01
       -2   -1    0    0    0  501  0.00000000000E+00  0.00000000000E+00  0.81153075603E+02  0.81153075643E+02  0.25500000920E-02 0. -1.
        2   -1    0    0  501    0  0.00000000000E+00  0.00000000000E+00 -0.15086630095E+04  0.15086630095E+04  0.25500000920E-02 0.  1.
    10030    2    1    2    0    0  0.00000000000E+00  0.00000000000E+00 -0.14275099339E+04  0.15898160851E+04  0.69980752583E+03 0.  0.
        5    1    3    3  502    0 -0.14215445313E+03  0.31584008974E+03 -0.82615012212E+03  0.89582864718E+03  0.46999998093E+01 0.  1.
       -5    1    3    3    0  502  0.14215445313E+03 -0.31584008974E+03 -0.60135981174E+03  0.69398743793E+03  0.46999998093E+01 0. -1.
</event>
<event>
 5   0  0.6990118E-03  0.6979680E+03  0.7818609E-02  0.9720713E-01
       -1   -1    0    0    0  501  0.00000000000E+00  0.00000000000E+00  0.18631822531E+03  0.18631822537E+03  0.50400001928E-02 0. -1.
        1   -1    0    0  501    0  0.00000000000E+00  0.00000000000E+00 -0.65366577222E+03  0.65366577224E+03  0.50400001928E-02 0.  1.
    10030    2    1    2    0    0  0.00000000000E+00  0.00000000000E+00 -0.46734754692E+03  0.83998399761E+03  0.69796804127E+03 0.  0.
        5    1    3    3  502    0  0.16043149183E+03  0.22424001420E+03 -0.49107558937E+03  0.56320437854E+03  0.46999998093E+01 0.  1.
       -5    1    3    3    0  502 -0.16043149183E+03 -0.22424001420E+03  0.23728042451E+02  0.27677961907E+03  0.46999998093E+01 0. -1.
</event>
<event>
 5   0  0.1109788E-02  0.6961012E+03  0.7818609E-02  0.9723923E-01
        2   -1    0    0  501    0  0.00000000000E+00  0.00000000000E+00  0.62539133671E+03  0.62539133671E+03  0.25500000920E-02 0. -1.
       -2   -1    0    0    0  501  0.00000000000E+00  0.00000000000E+00 -0.19370144115E+03  0.19370144116E+03  0.25500000920E-02 0.  1.
    10030    2    1    2    0    0  0.00000000000E+00  0.00000000000E+00  0.43168989556E+03  0.81909277788E+03  0.69610115130E+03 0.  0.
        1    1    3    3  502    0 -0.20091325098E+03 -0.10141360040E+03 -0.96561089630E+02  0.24489772727E+03  0.50400001928E-02 0.  1.
       -1    1    3    3    0  502  0.20091325098E+03  0.10141360040E+03  0.52825098519E+03  0.57419505061E+03  0.50400001928E-02 0. -1.
</event>
<event>
 5   0  0.1099980E-02  0.7020406E+03  0.7818609E-02  0.9713749E-01
        2   -1    0    0  501    0  0.00000000000E+00  0.00000000000E+00  0.24515167653E+03  0.24515167654E+03  0.25500000920E-02 0. -1.
       -2   -1    0    0    0  501  0.00000000000E+00  0.00000000000E+00 -0.50260821065E+03  0.50260821065E+03  0.25500000920E-02 0.  1.
    10030    2    1    2    0    0  0.00000000000E+00  0.00000000000E+00 -0.25745653412E+03  0.74775988719E+03  0.70204058425E+03 0.  0.
        5    1    3    3  502    0  0.22890893011E+03  0.13945878688E+03 -0.37007946789E+03  0.45697806739E+03  0.46999998093E+01 0.  1.
       -5    1    3    3    0  502 -0.22890893011E+03 -0.13945878688E+03  0.11262293377E+03  0.29078181981E+03  0.46999998093E+01 0. -1.
</event>
<event>
 5   0  0.1100119E-02  0.6978967E+03  0.7818609E-02  0.9720836E-01
       -2   -1    0    0    0  501  0.00000000000E+00  0.00000000000E+00  0.15802044120E+03  0.15802044122E+03  0.25500000920E-02 0.  1.
        2   -1    0    0  501    0  0.00000000000E+00  0.00000000000E+00 -0.77056454195E+03  0.77056454195E+03  0.25500000920E-02 0. -1.
    10030    2    1    2    0    0  0.00000000000E+00  0.00000000000E+00 -0.61254410074E+03  0.92858498317E+03  0.69789669409E+03 0.  0.
        4    1    3    3  502    0  0.13971109769E+03 -0.15632190457E+02  0.11867041395E+03  0.18397781453E+03  0.12699999809E+01 0.  1.
       -4    1    3    3    0  502 -0.13971109769E+03  0.15632190457E+02 -0.73121451469E+03  0.74460716864E+03  0.12699999809E+01 0. -1.
</event>
<event>
 5   0  0.6785252E-03  0.7011787E+03  0.7818609E-02  0.9715219E-01
        1   -1    0    0  501    0  0.00000000000E+00  0.00000000000E+00  0.15756524975E+03  0.15756524983E+03  0.50400001928E-02 0. -1.
       -1   -1    0    0    0  501  0.00000000000E+00  0.00000000000E+00 -0.78007613200E+03  0.78007613201E+03  0.50400001928E-02 0.  1.
    10030    2    1    2    0    0  0.00000000000E+00  0.00000000000E+00 -0.62251088225E+03  0.93764138184E+03  0.70117869507E+03 0.  0.
        3    1    3    3  502    0  0.30112541572E+03 -0.15906255639E+03 -0.19989115771E+03  0.39488466414E+03  0.10100000352E+00 0.  1.
       -3    1    3    3    0  502 -0.30112541572E+03  0.15906255639E+03 -0.42261972454E+03  0.54275671770E+03  0.10100000352E+00 0. -1.
</event>
<event>
 5   0  0.6785252E-03  0.6977239E+03  0.7818609E-02  0.9721132E-01
        1   -1    0    0  501    0  0.00000000000E+00  0.00000000000E+00  0.44428223170E+03  0.44428223173E+03  0.50400001928E-02 0. -1.
       -1   -1    0    0    0  501  0.00000000000E+00  0.00000000000E+00 -0.27393549588E+03  0.27393549593E+03  0.50400001928E-02 0.  1.
    10030    2    1    2    0    0  0.00000000000E+00  0.00000000000E+00  0.17034673581E+03  0.71821772766E+03  0.69772393819E+03 0.  0.
        3    1    3    3  502    0  0.28498619301E+03  0.88840151227E+02 -0.10067028246E+03  0.31503050431E+03  0.10100000352E+00 0.  1.
       -3    1    3    3    0  502 -0.28498619301E+03 -0.88840151227E+02  0.27101701828E+03  0.40318722335E+03  0.10100000352E+00 0. -1.
</event>
<event>
 5   0  0.1119786E-02  0.6970879E+03  0.7818609E-02  0.9722225E-01
        2   -1    0    0  501    0  0.00000000000E+00  0.00000000000E+00  0.53583082974E+03  0.53583082975E+03  0.25500000920E-02 0.  1.
       -2   -1    0    0    0  501  0.00000000000E+00  0.00000000000E+00 -0.22671874395E+03  0.22671874396E+03  0.25500000920E-02 0. -1.
    10030    2    1    2    0    0  0.00000000000E+00  0.00000000000E+00  0.30911208579E+03  0.76254957371E+03  0.69708792185E+03 0.  0.
        3    1    3    3  502    0 -0.31401190811E+03  0.29299887083E+02  0.31688584566E+03  0.44707785809E+03  0.10100000352E+00 0. -1.
       -3    1    3    3    0  502  0.31401190811E+03 -0.29299887083E+02 -0.77737598617E+01  0.31547171562E+03  0.10100000352E+00 0.  1.
</event>
<event>
 5   0  0.1100119E-02  0.7003222E+03  0.7818609E-02  0.9716681E-01
       -2   -1    0    0    0  501  0.00000000000E+00  0.00000000000E+00  0.16443965315E+03  0.16443965317E+03  0.25500000920E-02 0.  1.
        2   -1    0    0  501    0  0.00000000000E+00  0.00000000000E+00 -0.74564017552E+03  0.74564017553E+03  0.25500000920E-02 0. -1.
    10030    2    1    2    0    0  0.00000000000E+00  0.00000000000E+00 -0.58120052238E+03  0.91007982869E+03  0.70032224539E+03 0.  0.
        4    1    3    3  502    0  0.17929081542E+03 -0.98371880585E+02 -0.65996685754E+03  0.69092697829E+03  0.12699999809E+01 0. -1.
       -4    1    3    3    0  502 -0.17929081542E+03  0.98371880585E+02  0.78766335160E+02  0.21915285040E+03  0.12699999809E+01 0.  1.
</event>
<event>
 5   0  0.6609285E-03  0.7038237E+03  0.7818609E-02  0.9710715E-01
       -1   -1    0    0    0  501  0.00000000000E+00  0.00000000000E+00  0.38166094123E+03  0.38166094126E+03  0.50400001928E-02 0. -1.
        1   -1    0    0  501    0  0.00000000000E+00  0.00000000000E+00 -0.32448157596E+03  0.32448157600E+03  0.50400001928E-02 0.  1.
    10030    2    1    2    0    0  0.00000000000E+00  0.00000000000E+00  0.57179365265E+02  0.70614251726E+03  0.70382368166E+03 0.  0.
        2    1    3    3  502    0  0.14462108205E+03  0.49682569866E+02 -0.28940617301E+03  0.32732178067E+03  0.25500000920E-02 0.  1.
       -2    1    3    3    0  502 -0.14462108205E+03 -0.49682569866E+02  0.34658553827E+03  0.37882073659E+03  0.25500000920E-02 0. -1.
</event>
<event>
 5   0  0.6689415E-03  0.7007270E+03  0.7818609E-02  0.9715990E-01
       -1   -1    0    0    0  501  0.00000000000E+00  0.00000000000E+00  0.92802997670E+02  0.92802997807E+02  0.50400001928E-02 0.  1.
        1   -1    0    0  501    0  0.00000000000E+00  0.00000000000E+00 -0.13227437054E+04  0.13227437055E+04  0.50400001928E-02 0. -1.
    10030    2    1    2    0    0  0.00000000000E+00  0.00000000000E+00 -0.12299407078E+04  0.14155467033E+04  0.70072699711E+03 0.  0.
        1    1    3    3  502    0  0.19539615831E+03  0.17222257327E+03 -0.10883592959E+04  0.11190916989E+04  0.50400001928E-02 0. -1.
       -1    1    3    3    0  502 -0.19539615831E+03 -0.17222257327E+03 -0.14158141186E+03  0.29645500440E+03  0.50400001928E-02 0.  1.
</event>
<event>
 5   0  0.6609285E-03  0.7004772E+03  0.7818609E-02  0.9716417E-01
       -1   -1    0    0    0  501  0.00000000000E+00  0.00000000000E+00  0.22780735827E+03  0.22780735833E+03  0.50400001928E-02 0.  1.
        1   -1    0    0  501    0  0.00000000000E+00  0.00000000000E+00 -0.53846841014E+03  0.53846841017E+03  0.50400001928E-02 0. -1.
    10030    2    1    2    0    0  0.00000000000E+00  0.00000000000E+00 -0.31066105187E+03  0.76627576849E+03  0.70047716896E+03 0.  0.
        2    1    3    3  502    0  0.39030185790E+02  0.23179706843E+03  0.12870038557E+03  0.26798698772E+03  0.25500000920E-02 0.  1.
       -2    1    3    3    0  502 -0.39030185790E+02 -0.23179706843E+03 -0.43936143744E+03  0.49828878078E+03  0.25500000920E-02 0. -1.
</event>
<event>
 5   0  0.4440500E-03  0.7002418E+03  0.7818609E-02  0.9716819E-01
        3   -1    0    0  501    0  0.00000000000E+00  0.00000000000E+00  0.13369743070E+03  0.13369746885E+03  0.10100000352E+00 0. -1.
       -3   -1    0    0    0  501  0.00000000000E+00  0.00000000000E+00 -0.91688090041E+03  0.91688090598E+03  0.10100000352E+00 0.  1.
    10030    2    1    2    0    0  0.00000000000E+00  0.00000000000E+00 -0.78318346971E+03  0.10505783748E+04  0.70024179712E+03 0.  0.
        2    1    3    3  502    0 -0.45975731850E+02 -0.84206569916E+02 -0.89677493639E+03  0.90189234440E+03  0.25500000920E-02 0.  1.
       -2    1    3    3    0  502  0.45975731850E+02  0.84206569916E+02  0.11359146668E+03  0.14868603043E+03  0.25500000920E-02 0. -1.
</event>
<event>
 5   0  0.1100119E-02  0.6911325E+03  0.7818609E-02  0.9732518E-01
       -2   -1    0    0    0  501  0.00000000000E+00  0.00000000000E+00  0.24726548529E+03  0.24726548530E+03  0.25500000920E-02 0.  1.
        2   -1    0    0  501    0  0.00000000000E+00  0.00000000000E+00 -0.48294663858E+03  0.48294663858E+03  0.25500000920E-02 0. -1.
    10030    2    1    2    0    0  0.00000000000E+00  0.00000000000E+00 -0.23568115329E+03  0.73021212389E+03  0.69113250528E+03 0.  0.
        4    1    3    3  502    0 -0.21935775947E+03  0.65265834506E+02  0.15571457402E+03  0.27681419265E+03  0.12699999809E+01 0.  1.
       -4    1    3    3    0  502  0.21935775947E+03 -0.65265834506E+02 -0.39139572730E+03  0.45339793123E+03  0.12699999809E+01 0. -1.
</event>
<event>
 5   0  0.1100119E-02  0.7007670E+03  0.7818609E-02  0.9715921E-01
       -2   -1    0    0    0  501  0.00000000000E+00  0.00000000000E+00  0.81311770686E+02  0.81311770726E+02  0.25500000920E-02 0. -1.
        2   -1    0    0  501    0  0.00000000000E+00  0.00000000000E+00 -0.15098503433E+04  0.15098503433E+04  0.25500000920E-02 0.  1.
    10030    2    1    2    0    0  0.00000000000E+00  0.00000000000E+00 -0.14285385726E+04  0.15911621140E+04  0.70076702238E+03 0.  0.
        4    1    3    3  502    0 -0.30746695136E+03  0.15841721936E+03 -0.84140367533E+03  0.90972177028E+03  0.12699999809E+01 0.  1.
       -4    1    3    3    0  502  0.30746695136E+03 -0.15841721936E+03 -0.58713489726E+03  0.68144034372E+03  0.12699999809E+01 0. -1.
</event>
<event>
 5   0  0.1099980E-02  0.7018497E+03  0.7818609E-02  0.9714074E-01
       -2   -1    0    0    0  501  0.00000000000E+00  0.00000000000E+00  0.35407153736E+03  0.35407153737E+03  0.25500000920E-02 0.  1.
        2   -1    0    0  501    0  0.00000000000E+00  0.00000000000E+00 -0.34780608788E+03  0.34780608789E+03  0.25500000920E-02 0. -1.
    10030    2    1    2    0    0  0.00000000000E+00  0.00000000000E+00  0.62654494855E+01  0.70187762526E+03  0.70184965982E+03 0.  0.
        5    1    3    3  502    0  0.30314855974E+03  0.78539714622E+02  0.16143814847E+03  0.35235195732E+03  0.46999998093E+01 0.  1.
       -5    1    3    3    0  502 -0.30314855974E+03 -0.78539714622E+02 -0.15517269898E+03  0.34952566795E+03  0.46999998093E+01 0. -1.
</event>
<event>
 5   0  0.4440500E-03  0.7039492E+03  0.7818609E-02  0.9710502E-01
        3   -1    0    0  501    0  0.00000000000E+00  0.00000000000E+00  0.12570559833E+04  0.12570559873E+04  0.10100000352E+00 0.  1.
       -3   -1    0    0    0  501  0.00000000000E+00  0.00000000000E+00 -0.98552563027E+02  0.98552614781E+02  0.10100000352E+00 0. -1.
    10030    2    1    2    0    0  0.00000000000E+00  0.00000000000E+00  0.11585034203E+04  0.13556086021E+04  0.70394922217E+03 0.  0.
        4    1    3    3  502    0  0.15251430583E+03 -0.26589305438E+03  0.91237768361E+03  0.96249383391E+03  0.12699999809E+01 0.  1.
       -4    1    3    3    0  502 -0.15251430583E+03  0.26589305438E+03  0.24612573664E+03  0.39311476821E+03  0.12699999809E+01 0. -1.
</event>
<event>
 5   0  0.6785252E-03  0.6998488E+03  0.7818609E-02  0.9717491E-01
        1   -1    0    0  501    0  0.00000000000E+00  0.00000000000E+00  0.28811744204E+03  0.28811744208E+03  0.50400001928E-02 0. -1.
       -1   -1    0    0    0  501  0.00000000000E+00  0.00000000000E+00 -0.42499015157E+03  0.42499015160E+03  0.50400001928E-02 0.  1.
    10030    2    1    2    0    0  0.00000000000E+00  0.00000000000E+00 -0.13687270954E+03  0.71310759368E+03  0.69984877049E+03 0.  0.
        3    1    3    3  502    0  0.28262844711E+03  0.14637708303E+03  0.79721145247E+02  0.32811668771E+03  0.10100000352E+00 0. -1.
       -3    1    3    3    0  502 -0.28262844711E+03 -0.14637708303E+03 -0.21659385478E+03  0.38499090597E+03  0.10100000352E+00 0.  1.
</event>
<event>
 5   0  0.6609285E-03  0.7027235E+03  0.7818609E-02  0.9712586E-01
        1   -1    0    0  501    0  0.00000000000E+00  0.00000000000E+00  0.44469580703E+03  0.44469580706E+03  0.50400001928E-02 0.  1.
       -1   -1    0    0    0  501  0.00000000000E+00  0.00000000000E+00 -0.27761687852E+03  0.27761687857E+03  0.50400001928E-02 0. -1.
    10030    2    1    2    0    0  0.00000000000E+00  0.00000000000E+00  0.16707892851E+03  0.72231268562E+03  0.70272345020E+03 0.  0.
        2    1    3    3  502    0 -0.10565123772E+03  0.19682378028E+03  0.36230675230E+03  0.42563830570E+03  0.25500000920E-02 0.  1.
       -2    1    3    3    0  502  0.10565123772E+03 -0.19682378028E+03 -0.19522782379E+03  0.29667437992E+03  0.25500000920E-02 0. -1.
</event>
<event>
 5   0  0.1109788E-02  0.6987756E+03  0.7818609E-02  0.9719328E-01
       -2   -1    0    0    0  501  0.00000000000E+00  0.00000000000E+00  0.11331496344E+03  0.11331496347E+03  0.25500000920E-02 0.  1.
        2   -1    0    0  501    0  0.00000000000E+00  0.00000000000E+00 -0.10772789532E+04  0.10772789532E+04  0.25500000920E-02 0. -1.
    10030    2    1    2    0    0  0.00000000000E+00  0.00000000000E+00 -0.96396398973E+03  0.11905939166E+04  0.69877557259E+03 0.  0.
        1    1    3    3  502    0 -0.19760520435E+02  0.10807973684E+03 -0.10470783667E+04  0.10528270579E+04  0.50400001928E-02 0. -1.
       -1    1    3    3    0  502  0.19760520435E+02 -0.10807973684E+03  0.83114377007E+02  0.13776685876E+03  0.50400001928E-02 0.  1.
</event>
<event>
 5   0  0.6609285E-03  0.6997035E+03  0.7818609E-02  0.9717739E-01
       -1   -1    0    0    0  501  0.00000000000E+00  0.00000000000E+00  0.11793761541E+03  0.11793761552E+03  0.50400001928E-02 0. -1.
        1   -1    0    0  501    0  0.00000000000E+00  0.00000000000E+00 -0.10378050742E+04  0.10378050742E+04  0.50400001928E-02 0.  1.
    10030    2    1    2    0    0  0.00000000000E+00  0.00000000000E+00 -0.91986745879E+03  0.11557426897E+04  0.69970352517E+03 0.  0.
        2    1    3    3  502    0 -0.32852875517E+03  0.77946006422E+02 -0.30864172256E+03  0.45745648515E+03  0.25500000920E-02 0. -1.
       -2    1    3    3    0  502  0.32852875517E+03 -0.77946006422E+02 -0.61122573623E+03  0.69828620459E+03  0.25500000920E-02 0.  1.
</event>
<event>
 5   0  0.1100119E-02  0.6998454E+03  0.7818609E-02  0.9717497E-01
        2   -1    0    0  501    0  0.00000000000E+00  0.00000000000E+00  0.22110896603E+04  0.22110896603E+04  0.25500000920E-02 0. -1.
       -2   -1    0    0    0  501  0.00000000000E+00  0.00000000000E+00 -0.55378076694E+02  0.55378076752E+02  0.25500000920E-02 0.  1.
    10030    2    1    2    0    0  0.00000000000E+00  0.00000000000E+00  0.21557115836E+04  0.22664677370E+04  0.69984539107E+03 0.  0.
        4    1    3    3  502    0  0.11287545746E+03  0.33090272962E+03  0.11244269470E+04  0.11775292172E+04  0.12699999809E+01 0. -1.
       -4    1    3    3    0  502 -0.11287545746E+03 -0.33090272962E+03  0.10312846366E+04  0.10889385198E+04  0.12699999809E+01 0.  1.
</event>
<event>
 5   0  0.6990118E-03  0.6988444E+03  0.7818609E-02  0.9719210E-01
        1   -1    0    0  501    0  0.00000000000E+00  0.00000000000E+00  0.34091447102E+03  0.34091447105E+03  0.50400001928E-02 0. -1.
       -1   -1    0    0    0  501  0.00000000000E+00  0.00000000000E+00 -0.35814222598E+03  0.35814222602E+03  0.50400001928E-02 0.  1.
    10030    2    1    2    0    0  0.00000000000E+00  0.00000000000E+00 -0.17227754965E+02  0.69905669707E+03  0.69884438194E+03 0.  0.
        5    1    3    3  502    0 -0.34670994152E+03  0.30711763158E+02 -0.39000426920E+02  0.35027720343E+03  0.46999998093E+01 0. -1.
       -5    1    3    3    0  502  0.34670994152E+03 -0.30711763158E+02  0.21772671956E+02  0.34877949364E+03  0.46999998093E+01 0.  1.
</event>
<event>
 5   0  0.1079446E-02  0.6986457E+03  0.7818609E-02  0.9719551E-01
        2   -1    0    0  501    0  0.00000000000E+00  0.00000000000E+00  0.20520480409E+04  0.20520480409E+04  0.25500000920E-02 0. -1.
       -2   -1    0    0    0  501  0.00000000000E+00  0.00000000000E+00 -0.59465684991E+02  0.59465685045E+02  0.25500000920E-02 0.  1.
    10030    2    1    2    0    0  0.00000000000E+00  0.00000000000E+00  0.19925823559E+04  0.21115137259E+04  0.69864566826E+03 0.  0.
        2    1    3    3  502    0 -0.79447292744E+02  0.34016716314E+03  0.99347016742E+03  0.10530947463E+04  0.25500000920E-02 0.  1.
       -2    1    3    3    0  502  0.79447292744E+02 -0.34016716314E+03  0.99911218846E+03  0.10584189796E+04  0.25500000920E-02 0. -1.
</event>
<event>
 5   0  0.6246998E-03  0.7061505E+03  0.7818609E-02  0.9706771E-01
       -1   -1    0    0    0  501  0.00000000000E+00  0.00000000000E+00  0.32891083438E+03  0.32891083442E+03  0.50400001928E-02 0.  1.
        1   -1    0    0  501    0  0.00000000000E+00  0.00000000000E+00 -0.37901501362E+03  0.37901501365E+03  0.50400001928E-02 0. -1.
    10030    2    1    2    0    0  0.00000000000E+00  0.00000000000E+00 -0.50104179239E+02  0.70792584808E+03  0.70615053466E+03 0.  0.
        4    1    3    3  502    0  0.11995369599E+03 -0.31479076942E+03 -0.13104591555E+03  0.36146474597E+03  0.12699999809E+01 0. -1.
       -4    1    3    3    0  502 -0.11995369599E+03  0.31479076942E+03  0.80941736309E+02  0.34646110211E+03  0.12699999809E+01 0.  1.
</event>
<event>
 5   0  0.1100119E-02  0.7008940E+03  0.7818609E-02  0.9715705E-01
       -2   -1    0    0    0  501  0.00000000000E+00  0.00000000000E+00  0.23853528970E+03  0.23853528971E+03  0.25500000920E-02 0.  1.
        2   -1    0    0  501    0  0.00000000000E+00  0.00000000000E+00 -0.51486344504E+03  0.51486344504E+03  0.25500000920E-02 0. -1.
    10030    2    1    2    0    0  0.00000000000E+00  0.00000000000E+00 -0.27632815534E+03  0.75339873475E+03  0.70089400346E+03 0.  0.
        4    1    3    3  502    0  0.30124277597E+03 -0.85190522312E+02  0.31136475981E+02  0.31460408167E+03  0.12699999809E+01 0. -1.
       -4    1    3    3    0  502 -0.30124277597E+03  0.85190522312E+02 -0.30746463132E+03  0.43879465309E+03  0.12699999809E+01 0.  1.
</event>
<event>
 5   0  0.6785252E-03  0.6922412E+03  0.7818609E-02  0.9730593E-01
       -1   -1    0    0    0  501  0.00000000000E+00  0.00000000000E+00  0.69151109189E+03  0.69151109191E+03  0.50400001928E-02 0. -1.
        1   -1    0    0  501    0  0.00000000000E+00  0.00000000000E+00 -0.17324303721E+03  0.17324303729E+03  0.50400001928E-02 0.  1.
    10030    2    1    2    0    0  0.00000000000E+00  0.00000000000E+00  0.51826805468E+03  0.86475412920E+03  0.69224123502E+03 0.  0.
        3    1    3    3  502    0 -0.30214737467E+03 -0.15980962516E+03  0.32718233412E+03  0.47316005989E+03  0.10100000352E+00 0. -1.
       -3    1    3    3    0  502  0.30214737467E+03  0.15980962516E+03  0.19108572056E+03  0.39159406931E+03  0.10100000352E+00 0.  1.
</event>
<event>
 5   0  0.1099980E-02  0.6994792E+03  0.7818609E-02  0.9718123E-01
       -2   -1    0    0    0  501  0.00000000000E+00  0.00000000000E+00  0.87418161659E+02  0.87418161696E+02  0.25500000920E-02 0.  1.
        2   -1    0    0  501    0  0.00000000000E+00  0.00000000000E+00 -0.13992261674E+04  0.13992261674E+04  0.25500000920E-02 0. -1.
    10030    2    1    2    0    0  0.00000000000E+00  0.00000000000E+00 -0.13118080058E+04  0.14866443291E+04  0.69947917576E+03 0.  0.
        5    1    3    3  502    0  0.21800744261E+03 -0.26404447416E+03 -0.80692358092E+03  0.87658113419E+03  0.46999998093E+01 0.  1.
       -5    1    3    3    0  502 -0.21800744261E+03  0.26404447416E+03 -0.50488442484E+03  0.61006319493E+03  0.46999998093E+01 0. -1.
</event>
<event>
 5   0  0.1099980E-02  0.7061149E+03  0.7818609E-02  0.9706832E-01
        2   -1    0    0  501    0  0.00000000000E+00  0.00000000000E+00  0.18979069229E+03  0.18979069231E+03  0.25500000920E-02 0. -1.
       -2   -1    0    0    0  501  0.00000000000E+00  0.00000000000E+00 -0.65677380939E+03  0.65677380940E+03  0.25500000920E-02 0.  1.
    10030    2    1    2    0    0  0.00000000000E+00  0.00000000000E+00 -0.46698311710E+03  0.84656450170E+03  0.70611488009E+03 0.  0.
        5    1    3    3  502    0 -0.21224650042E+02 -0.29713114475E+03 -0.46062014629E+03  0.54857124616E+03  0.46999998093E+01 0.  1.
       -5    1    3    3    0  502  0.21224650042E+02  0.29713114475E+03 -0.63629708121E+01  0.29799325554E+03  0.46999998093E+01 0. -1.
</event>
<event>
 5   0  0.1109788E-02  0.6963460E+03  0.7818609E-02  0.9723502E-01
       -2   -1    0    0    0  501  0.00000000000E+00  0.00000000000E+00  0.58830871479E+02  0.58830871534E+02  0.25500000920E-02 0.  1.
        2   -1    0    0  501    0  0.00000000000E+00  0.00000000000E+00 -0.20605580456E+04  0.20605580456E+04  0.25500000920E-02 0. -1.
    10030    2    1    2    0    0  0.00000000000E+00  0.00000000000E+00 -0.20017271742E+04  0.21193889172E+04  0.69634596464E+03 0.  0.
        1    1    3    3  502    0 -0.54883788083E+02  0.23351121618E+03 -0.23278939201E+03  0.33426130397E+03  0.50400001928E-02 0.  1.
       -1    1    3    3    0  502  0.54883788083E+02 -0.23351121618E+03 -0.17689377821E+04  0.17851276132E+04  0.50400001928E-02 0. -1.
</event>
<event>
 5   0  0.6609285E-03  0.7055155E+03  0.7818609E-02  0.9707846E-01
        1   -1    0    0  501    0  0.00000000000E+00  0.00000000000E+00  0.11845820142E+04  0.11845820143E+04  0.50400001928E-02 0. -1.
       -1   -1    0    0    0  501  0.00000000000E+00  0.00000000000E+00 -0.10504804552E+03  0.10504804564E+03  0.50400001928E-02 0.  1.
    10030    2    1    2    0    0  0.00000000000E+00  0.00000000000E+00  0.10795339687E+04  0.12896300599E+04  0.70551548654E+03 0.  0.
        2    1    3    3  502    0 -0.24711874849E+03  0.11568004432E+03  0.94845654889E+03  0.98692419853E+03  0.25500000920E-02 0. -1.
       -2    1    3    3    0  502  0.24711874849E+03 -0.11568004432E+03  0.13107741984E+03  0.30270586137E+03  0.25500000920E-02 0.  1.
</event>
<event>
 5   0  0.6785252E-03  0.6997644E+03  0.7818609E-02  0.9717635E-01
       -1   -1    0    0    0  501  0.00000000000E+00  0.00000000000E+00  0.67014028829E+03  0.67014028831E+03  0.50400001928E-02 0. -1.
        1   -1    0    0  501    0  0.00000000000E+00  0.00000000000E+00 -0.18267453046E+03  0.18267453053E+03  0.50400001928E-02 0.  1.
    10030    2    1    2    0    0  0.00000000000E+00  0.00000000000E+00  0.48746575783E+03  0.85281481884E+03  0.69976442477E+03 0.  0.
        3    1    3    3  502    0 -0.31210977471E+03 -0.12379386936E+03  0.36363951569E+03  0.49494559412E+03  0.10100000352E+00 0. -1.
       -3    1    3    3    0  502  0.31210977471E+03  0.12379386936E+03  0.12382624213E+03  0.35786922472E+03  0.10100000352E+00 0.  1.
</event>
<event>
 5   0  0.6689415E-03  0.7010596E+03  0.7818609E-02  0.9715422E-01
       -1   -1    0    0    0  501  0.00000000000E+00  0.00000000000E+00  0.49098504526E+02  0.49098504784E+02  0.50400001928E-02 0.  1.
        1   -1    0    0  501    0  0.00000000000E+00  0.00000000000E+00 -0.25025437568E+04  0.25025437568E+04  0.50400001928E-02 0. -1.
    10030    2    1    2    0    0  0.00000000000E+00  0.00000000000E+00 -0.24534452523E+04  0.25516422616E+04  0.70105964456E+03 0.  0.
        1    1    3    3  502    0 -0.16650370738E+03 -0.42078642095E+02 -0.23389278108E+04  0.23452243817E+04  0.50400001928E-02 0. -1.
       -1    1    3    3    0  502  0.16650370738E+03  0.42078642095E+02 -0.11451744154E+03  0.20641787988E+03  0.50400001928E-02 0.  1.
</event>
<event>
 5   0  0.1100119E-02  0.6841658E+03  0.7818609E-02  0.9744701E-01
        2   -1    0    0  501    0  0.00000000000E+00  0.00000000000E+00  0.44714809402E+03  0.44714809403E+03  0.25500000920E-02 0. -1.
       -2   -1    0    0    0  501  0.00000000000E+00  0.00000000000E+00 -0.26170460232E+03  0.26170460233E+03  0.25500000920E-02 0.  1.
    10030    2    1    2    0    0  0.00000000000E+00  0.00000000000E+00  0.18544349170E+03  0.70885269636E+03  0.68416581069E+03 0.  0.
        4    1    3    3  502    0 -0.16387251748E+03 -0.24548096225E+02 -0.21734645065E+03  0.27330917204E+03  0.12699999809E+01 0.  1.
       -4    1    3    3    0  502  0.16387251748E+03  0.24548096225E+02  0.40278994235E+03  0.43554352432E+03  0.12699999809E+01 0. -1.
</event>
<event>
 5   0  0.6990118E-03  0.7010817E+03  0.7818609E-02  0.9715384E-01
        1   -1    0    0  501    0  0.00000000000E+00  0.00000000000E+00  0.45468755916E+03  0.45468755918E+03  0.50400001928E-02 0.  1.
       -1   -1    0    0    0  501  0.00000000000E+00  0.00000000000E+00 -0.27024909238E+03  0.27024909243E+03  0.50400001928E-02 0. -1.
    10030    2    1    2    0    0  0.00000000000E+00  0.00000000000E+00  0.18443846677E+03  0.72493665161E+03  0.70108173619E+03 0.  0.
        5    1    3    3  502    0  0.19690482085E+03 -0.26127135254E+03  0.22228711966E+03  0.39556021248E+03  0.46999998093E+01 0.  1.
       -5    1    3    3    0  502 -0.19690482085E+03  0.26127135254E+03 -0.37848652887E+02  0.32937643913E+03  0.46999998093E+01 0. -1.
</event>
<event>
 5   0  0.6246998E-03  0.6996923E+03  0.7818609E-02  0.9717759E-01
       -1   -1    0    0    0  501  0.00000000000E+00  0.00000000000E+00  0.15320458012E+03  0.15320458020E+03  0.50400001928E-02 0.  1.
        1   -1    0    0  501    0  0.00000000000E+00  0.00000000000E+00 -0.79888156170E+03  0.79888156172E+03  0.50400001928E-02 0. -1.
    10030    2    1    2    0    0  0.00000000000E+00  0.00000000000E+00 -0.64567698158E+03  0.95208614192E+03  0.69969225885E+03 0.  0.
        4    1    3    3  502    0  0.78558166051E+02  0.19792515058E+03 -0.70053351684E+03  0.73218479348E+03  0.12699999809E+01 0. -1.
       -4    1    3    3    0  502 -0.78558166051E+02 -0.19792515058E+03  0.54856535265E+02  0.21990134844E+03  0.12699999809E+01 0.  1.
</event>
<event>
 5   0  0.6609285E-03  0.6998753E+03  0.7818609E-02  0.9717445E-01
        1   -1    0    0  501    0  0.00000000000E+00  0.00000000000E+00  0.58116830327E+03  0.58116830329E+03  0.50400001928E-02 0.  1.
       -1   -1    0    0    0  501  0.00000000000E+00  0.00000000000E+00 -0.21070725016E+03  0.21070725022E+03  0.50400001928E-02 0. -1.
    10030    2    1    2    0    0  0.00000000000E+00  0.00000000000E+00  0.37046105310E+03  0.79187555351E+03  0.69987534632E+03 0.  0.
        2    1    3    3  502    0  0.33252775174E+03  0.10831717235E+03  0.19904442302E+03  0.40240029553E+03  0.25500000920E-02 0.  1.
       -2    1    3    3    0  502 -0.33252775174E+03 -0.10831717235E+03  0.17141663009E+03  0.38947525798E+03  0.25500000920E-02 0. -1.
</event>
<event>
 5   0  0.1119786E-02  0.7059422E+03  0.7818609E-02  0.9707124E-01
       -2   -1    0    0    0  501  0.00000000000E+00  0.00000000000E+00  0.24497524463E+03  0.24497524465E+03  0.25500000920E-02 0. -1.
        2   -1    0    0  501    0  0.00000000000E+00  0.00000000000E+00 -0.50857627320E+03  0.50857627321E+03  0.25500000920E-02 0.  1.
    10030    2    1    2    0    0  0.00000000000E+00  0.00000000000E+00 -0.26360102857E+03  0.75355151786E+03  0.70594219863E+03 0.  0.
        3    1    3    3  502    0 -0.65406132257E+00  0.12667724832E+03  0.21987390779E+03  0.25375598233E+03  0.10100000352E+00 0. -1.
       -3    1    3    3    0  502  0.65406132257E+00 -0.12667724832E+03 -0.48347493636E+03  0.49979553553E+03  0.10100000352E+00 0.  1.
</event>
<event>
 5   0  0.1100119E-02  0.7088440E+03  0.7818609E-02  0.9702226E-01
       -2   -1    0    0    0  501  0.00000000000E+00  0.00000000000E+00  0.80991813609E+02  0.80991813649E+02  0.25500000920E-02 0. -1.
        2   -1    0    0  501    0  0.00000000000E+00  0.00000000000E+00 -0.15509587649E+04  0.15509587649E+04  0.25500000920E-02 0.  1.
    10030    2    1    2    0    0  0.00000000000E+00  0.00000000000E+00 -0.14699669513E+04  0.16319505786E+04  0.70884402583E+03 0.  0.
        4    1    3    3  502    0  0.50261871755E+02 -0.35043142759E+03 -0.69612287479E+03  0.78097190148E+03  0.12699999809E+01 0. -1.
       -4    1    3    3    0  502 -0.50261871755E+02  0.35043142759E+03 -0.77384407652E+03  0.85097867709E+03  0.12699999809E+01 0.  1.
</event>
<event>
 5   0  0.1109788E-02  0.7063909E+03  0.7818609E-02  0.9706365E-01
       -2   -1    0    0    0  501  0.00000000000E+00  0.00000000000E+00  0.24594077173E+03  0.24594077174E+03  0.25500000920E-02 0.  1.
        2   -1    0    0  501    0  0.00000000000E+00  0.00000000000E+00 -0.50722379616E+03  0.50722379616E+03  0.25500000920E-02 0. -1.
    10030    2    1    2    0    0  0.00000000000E+00  0.00000000000E+00 -0.26128302443E+03  0.75316456791E+03  0.70639086029E+03 0.  0.
        1    1    3    3  502    0  0.24499083656E+03 -0.84255462014E+01  0.14046976749E+03  0.28253009651E+03  0.50400001928E-02 0.  1.
       -1    1    3    3    0  502 -0.24499083656E+03  0.84255462014E+01 -0.40175279192E+03  0.47063447140E+03  0.50400001928E-02 0. -1.
</event>
<event>
 5   0  0.1119786E-02  0.7011754E+03  0.7818609E-02  0.9715224E-01
       -2   -1    0    0    0  501  0.00000000000E+00  0.00000000000E+00  0.32045285203E+03  0.32045285204E+03  0.25500000920E-02 0.  1.
        2   -1    0    0  501    0  0.00000000000E+00  0.00000000000E+00 -0.38355642105E+03  0.38355642106E+03  0.25500000920E-02 0. -1.
    10030    2    1    2    0    0  0.00000000000E+00  0.00000000000E+00 -0.63103569021E+02  0.70400927309E+03  0.70117543894E+03 0.  0.
        3    1    3    3  502    0  0.83054887191E+02  0.26058755566E+03 -0.25177302724E+03  0.37174407312E+03  0.10100000352E+00 0. -1.
       -3    1    3    3    0  502 -0.83054887191E+02 -0.26058755566E+03  0.18866945822E+03  0.33226519998E+03  0.10100000352E+00 0.  1.
</event>
<event>
 5   0  0.6990118E-03  0.6990431E+03  0.7818609E-02  0.9718870E-01
       -1   -1    0    0    0  501  0.00000000000E+00  0.00000000000E+00  0.16955228371E+03  0.16955228378E+03  0.50400001928E-02 0.  1.
        1   -1    0    0  501    0  0.00000000000E+00  0.00000000000E+00 -0.72051699233E+03  0.72051699234E+03  0.50400001928E-02 0. -1.
    10030    2    1    2    0    0  0.00000000000E+00  0.00000000000E+00 -0.55096470862E+03  0.89006927613E+03  0.69904306460E+03 0.  0.
        5    1    3    3  502    0  0.18535055593E+03 -0.28431035612E+03 -0.16928839783E+03  0.37929916796E+03  0.46999998093E+01 0.  1.
       -5    1    3    3    0  502 -0.18535055593E+03  0.28431035612E+03 -0.38167631079E+03  0.51077010816E+03  0.46999998093E+01 0. -1.
</event>
<event>
 5   0  0.6246998E-03  0.7000853E+03  0.7818609E-02  0.9717086E-01
       -1   -1    0    0    0  501  0.00000000000E+00  0.00000000000E+00  0.51954668995E+02  0.51954669239E+02  0.50400001928E-02 0.  1.
        1   -1    0    0  501    0  0.00000000000E+00  0.00000000000E+00 -0.23583990494E+04  0.23583990494E+04  0.50400001928E-02 0. -1.
    10030    2    1    2    0    0  0.00000000000E+00  0.00000000000E+00 -0.23064443804E+04  0.24103537187E+04  0.70008525844E+03 0.  0.
        4    1    3    3  502    0  0.13229998167E+03  0.31844109319E+02 -0.22635961485E+04  0.22676830618E+04  0.12699999809E+01 0. -1.
       -4    1    3    3    0  502 -0.13229998167E+03 -0.31844109319E+02 -0.42848231942E+02  0.14267065686E+03  0.12699999809E+01 0.  1.
</event>
<event>
 5   0  0.6785252E-03  0.6988835E+03  0.7818609E-02  0.9719144E-01
        1   -1    0    0  501    0  0.00000000000E+00  0.00000000000E+00  0.28821488789E+03  0.28821488793E+03  0.50400001928E-02 0.  1.
       -1   -1    0    0    0  501  0.00000000000E+00  0.00000000000E+00 -0.42367526969E+03  0.42367526972E+03  0.50400001928E-02 0. -1.
    10030    2    1    2    0    0  0.00000000000E+00  0.00000000000E+00 -0.13546038181E+03  0.71189015766E+03  0.69888345347E+03 0.  0.
        3    1    3    3  502    0 -0.25272993796E+03  0.10769291145E+03 -0.28771077990E+03  0.39780357941E+03  0.10100000352E+00 0. -1.
       -3    1    3    3    0  502  0.25272993796E+03 -0.10769291145E+03  0.15225039810E+03  0.31408657825E+03  0.10100000352E+00 0.  1.
</event>
<event>
 5   0  0.6689415E-03  0.7247921E+03  0.7818609E-02  0.9675749E-01
        1   -1    0    0  501    0  0.00000000000E+00  0.00000000000E+00  0.49953746114E+03  0.49953746117E+03  0.50400001928E-02 0.  1.
       -1   -1    0    0    0  501  0.00000000000E+00  0.00000000000E+00 -0.26290498112E+03  0.26290498116E+03  0.50400001928E-02 0. -1.
    10030    2    1    2    0    0  0.00000000000E+00  0.00000000000E+00  0.23663248003E+03  0.76244244233E+03  0.72479207175E+03 0.  0.
        1    1    3    3  502    0 -0.22278048804E+02  0.16583024138E+03 -0.21983980459E+03  0.27627073700E+03  0.50400001928E-02 0. -1.
       -1    1    3    3    0  502  0.22278048804E+02 -0.16583024138E+03  0.45647228462E+03  0.48617170533E+03  0.50400001928E-02 0.  1.
</event>
<event>
 5   0  0.1100119E-02  0.6969394E+03  0.7818609E-02  0.9722481E-01
        2   -1    0    0  501    0  0.00000000000E+00  0.00000000000E+00  0.46390033218E+03  0.46390033219E+03  0.25500000920E-02 0. -1.
       -2   -1    0    0    0  501  0.00000000000E+00  0.00000000000E+00 -0.26176126023E+03  0.26176126024E+03  0.25500000920E-02 0.  1.
    10030    2    1    2    0    0  0.00000000000E+00  0.00000000000E+00  0.20213907195E+03  0.72566159243E+03  0.69693941079E+03 0.  0.
        4    1    3    3  502    0  0.27909209625E+03 -0.67775591234E+02 -0.10440458280E+03  0.30559427149E+03  0.12699999809E+01 0.  1.
       -4    1    3    3    0  502 -0.27909209625E+03  0.67775591234E+02  0.30654365475E+03  0.42006732094E+03  0.12699999809E+01 0. -1.
</event>
<event>
 5   0  0.1109788E-02  0.6987788E+03  0.7818609E-02  0.9719323E-01
        2   -1    0    0  501    0  0.00000000000E+00  0.00000000000E+00  0.20455023811E+04  0.20455023811E+04  0.25500000920E-02 0. -1.
       -2   -1    0    0    0  501  0.00000000000E+00  0.00000000000E+00 -0.59678710005E+02  0.59678710060E+02  0.25500000920E-02 0.  1.
    10030    2    1    2    0    0  0.00000000000E+00  0.00000000000E+00  0.19858236711E+04  0.21051810912E+04  0.69877877323E+03 0.  0.
        1    1    3    3  502    0  0.36333547827E+02  0.16415799340E+03  0.70207245814E+02  0.18220052383E+03  0.50400001928E-02 0.  1.
       -1    1    3    3    0  502 -0.36333547827E+02 -0.16415799340E+03  0.19156164253E+04  0.19229805674E+04  0.50400001928E-02 0. -1.
</event>
<event>
 5   0  0.1079446E-02  0.6995082E+03  0.7818609E-02  0.9718074E-01
        2   -1    0    0  501    0  0.00000000000E+00  0.00000000000E+00  0.55617131015E+03  0.55617131015E+03  0.25500000920E-02 0.  1.
       -2   -1    0    0    0  501  0.00000000000E+00  0.00000000000E+00 -0.21994647024E+03  0.21994647026E+03  0.25500000920E-02 0. -1.
    10030    2    1    2    0    0  0.00000000000E+00  0.00000000000E+00  0.33622483990E+03  0.77611778041E+03  0.69950816014E+03 0.  0.
        2    1    3    3  502    0  0.31043567602E+01 -0.33122324925E+03  0.29270228754E+03  0.44203292526E+03  0.25500000920E-02 0.  1.
       -2    1    3    3    0  502 -0.31043567602E+01  0.33122324925E+03  0.43522552360E+02  0.33408485515E+03  0.25500000920E-02 0. -1.
</event>
<event>
 5   0  0.6689415E-03  0.6999831E+03  0.7818609E-02  0.9717261E-01
       -1   -1    0    0    0  501  0.00000000000E+00  0.00000000000E+00  0.19532322407E+03  0.19532322414E+03  0.50400001928E-02 0.  1.
        1   -1    0    0  501    0  0.00000000000E+00  0.00000000000E+00 -0.62713519498E+03  0.62713519500E+03  0.50400001928E-02 0. -1.
    10030    2    1    2    0    0  0.00000000000E+00  0.00000000000E+00 -0.43181197091E+03  0.82245841914E+03  0.69998305194E+03 0.  0.
        1    1    3    3  502    0 -0.74962848843E+02 -0.34077855406E+03 -0.24796814603E+03  0.42806267425E+03  0.50400001928E-02 0. -1.
       -1    1    3    3    0  502  0.74962848843E+02  0.34077855406E+03 -0.18384382488E+03  0.39439574489E+03  0.50400001928E-02 0.  1.
</event>
<event>
 5   0  0.1119786E-02  0.6964422E+03  0.7818609E-02  0.9723336E-01
       -2   -1    0    0    0  501  0.00000000000E+00  0.00000000000E+00  0.90159165102E+02  0.90159165138E+02  0.25500000920E-02 0.  1.
        2   -1    0    0  501    0  0.00000000000E+00  0.00000000000E+00 -0.13449318986E+04  0.13449318986E+04  0.25500000920E-02 0. -1.
    10030    2    1    2    0    0  0.00000000000E+00  0.00000000000E+00 -0.12547727335E+04  0.14350910637E+04  0.69644220757E+03 0.  0.
        3    1    3    3  502    0 -0.93205037892E+02  0.27319747060E+03 -0.10287223190E+04  0.10684538628E+04  0.10100000352E+00 0. -1.
       -3    1    3    3    0  502  0.93205037892E+02 -0.27319747060E+03 -0.22605041442E+03  0.36663720091E+03  0.10100000352E+00 0.  1.
</event>
<event>
 5   0  0.1099980E-02  0.6992976E+03  0.7818609E-02  0.9718434E-01
       -2   -1    0    0    0  501  0.00000000000E+00  0.00000000000E+00  0.84049705146E+02  0.84049705184E+02  0.25500000920E-02 0.  1.
        2   -1    0    0  501    0  0.00000000000E+00  0.00000000000E+00 -0.14545472715E+04  0.14545472715E+04  0.25500000920E-02 0. -1.
    10030    2    1    2    0    0  0.00000000000E+00  0.00000000000E+00 -0.13704975663E+04  0.15385969767E+04  0.69929755990E+03 0.  0.
        5    1    3    3  502    0 -0.57277284759E+02  0.19564804081E+03 -0.13101737420E+04  0.13259472717E+04  0.46999998093E+01 0. -1.
       -5    1    3    3    0  502  0.57277284759E+02 -0.19564804081E+03 -0.60323824337E+02  0.21264970492E+03  0.46999998093E+01 0.  1.
</event>
<event>
 5   0  0.1109788E-02  0.6933256E+03  0.7818609E-02  0.9728715E-01
       -2   -1    0    0    0  501  0.00000000000E+00  0.00000000000E+00  0.83056837460E+03  0.83056837460E+03  0.25500000920E-02 0.  1.
        2   -1    0    0  501    0  0.00000000000E+00  0.00000000000E+00 -0.14469019188E+03  0.14469019190E+03  0.25500000920E-02 0. -1.
    10030    2    1    2    0    0  0.00000000000E+00  0.00000000000E+00  0.68587818271E+03  0.97525856650E+03  0.69332560173E+03 0.  0.
        1    1    3    3  502    0 -0.23156866832E+03  0.25539027636E+03  0.29170082291E+03  0.45159452113E+03  0.50400001928E-02 0. -1.
       -1    1    3    3    0  502  0.23156866832E+03 -0.25539027636E+03  0.39417735981E+03  0.52366404537E+03  0.50400001928E-02 0.  1.
</event>
<event>
 5   0  0.6689415E-03  0.6994542E+03  0.7818609E-02  0.9718166E-01
       -1   -1    0    0    0  501  0.00000000000E+00  0.00000000000E+00  0.73192296353E+03  0.73192296354E+03  0.50400001928E-02 0. -1.
        1   -1    0    0  501    0  0.00000000000E+00  0.00000000000E+00 -0.16710642389E+03  0.16710642396E+03  0.50400001928E-02 0.  1.
    10030    2    1    2    0    0  0.00000000000E+00  0.00000000000E+00  0.56481653964E+03  0.89902938751E+03  0.69945415586E+03 0.  0.
        1    1    3    3  502    0  0.97293323608E+02 -0.29983114025E+03  0.47710214132E+03  0.57183140588E+03  0.50400001928E-02 0. -1.
       -1    1    3    3    0  502 -0.97293323608E+02  0.29983114025E+03  0.87714398319E+02  0.32719798162E+03  0.50400001928E-02 0.  1.
</event>
<event>
 5   0  0.6246998E-03  0.6994076E+03  0.7818609E-02  0.9718246E-01
        1   -1    0    0  501    0  0.00000000000E+00  0.00000000000E+00  0.69964962115E+03  0.69964962117E+03  0.50400001928E-02 0. -1.
       -1   -1    0    0    0  501  0.00000000000E+00  0.00000000000E+00 -0.17479142974E+03  0.17479142981E+03  0.50400001928E-02 0.  1.
    10030    2    1    2    0    0  0.00000000000E+00  0.00000000000E+00  0.52485819141E+03  0.87444105098E+03  0.69940762831E+03 0.  0.
        4    1    3    3  502    0 -0.19446178110E+03  0.28445479700E+03  0.33703962431E+03  0.48200335797E+03  0.12699999809E+01 0. -1.
       -4    1    3    3    0  502  0.19446178110E+03 -0.28445479700E+03  0.18781856710E+03  0.39243769301E+03  0.12699999809E+01 0.  1.
</event>
<event>
 5   0  0.6785252E-03  0.7028152E+03  0.7818609E-02  0.9712430E-01
        1   -1    0    0  501    0  0.00000000000E+00  0.00000000000E+00  0.51614129920E+03  0.51614129923E+03  0.50400001928E-02 0. -1.
       -1   -1    0    0    0  501  0.00000000000E+00  0.00000000000E+00 -0.23925097589E+03  0.23925097594E+03  0.50400001928E-02 0.  1.
    10030    2    1    2    0    0  0.00000000000E+00  0.00000000000E+00  0.27689032331E+03  0.75539227517E+03  0.70281522340E+03 0.  0.
        3    1    3    3  502    0 -0.97082560020E+02 -0.26917166119E+03 -0.80797193441E+02  0.29733247941E+03  0.10100000352E+00 0.  1.
       -3    1    3    3    0  502  0.97082560020E+02  0.26917166119E+03  0.35768751676E+03  0.45805979576E+03  0.10100000352E+00 0. -1.
</event>
<event>
 5   0  0.1100119E-02  0.7019530E+03  0.7818609E-02  0.9713898E-01
       -2   -1    0    0    0  501  0.00000000000E+00  0.00000000000E+00  0.14359076726E+03  0.14359076729E+03  0.25500000920E-02 0.  1.
        2   -1    0    0  501    0  0.00000000000E+00  0.00000000000E+00 -0.85788605727E+03  0.85788605728E+03  0.25500000920E-02 0. -1.
    10030    2    1    2    0    0  0.00000000000E+00  0.00000000000E+00 -0.71429529001E+03  0.10014768246E+04  0.70195303889E+03 0.  0.
        4    1    3    3  502    0  0.28707572045E+03  0.19682777184E+03 -0.42141671887E+03  0.54657781228E+03  0.12699999809E+01 0. -1.
       -4    1    3    3    0  502 -0.28707572045E+03 -0.19682777184E+03 -0.29287857114E+03  0.45489901228E+03  0.12699999809E+01 0.  1.
</event>
<event>
 5   0  0.1099980E-02  0.7002620E+03  0.7818609E-02  0.9716784E-01
        2   -1    0    0  501    0  0.00000000000E+00  0.00000000000E+00  0.15976296137E+04  0.15976296137E+04  0.25500000920E-02 0. -1.
       -2   -1    0    0    0  501  0.00000000000E+00  0.00000000000E+00 -0.76733495501E+02  0.76733495544E+02  0.25500000920E-02 0.  1.
    10030    2    1    2    0    0  0.00000000000E+00  0.00000000000E+00  0.15208961182E+04  0.16743631093E+04  0.70026196474E+03 0.  0.
        5    1    3    3  502    0 -0.26042208699E+03 -0.26517232222E+02  0.13163191042E+04  0.13421031634E+04  0.46999998093E+01 0. -1.
       -5    1    3    3    0  502  0.26042208699E+03  0.26517232222E+02  0.20457701402E+03  0.33225994592E+03  0.46999998093E+01 0.  1.
</event>
<event>
 5   0  0.1079446E-02  0.6993076E+03  0.7818609E-02  0.9718417E-01
        2   -1    0    0  501    0  0.00000000000E+00  0.00000000000E+00  0.74938351124E+03  0.74938351125E+03  0.25500000920E-02 0. -1.
       -2   -1    0    0    0  501  0.00000000000E+00  0.00000000000E+00 -0.16314449554E+03  0.16314449556E+03  0.25500000920E-02 0.  1.
    10030    2    1    2    0    0  0.00000000000E+00  0.00000000000E+00  0.58623901570E+03  0.91252800681E+03  0.69930764309E+03 0.  0.
        2    1    3    3  502    0 -0.11681958968E+03 -0.37289020431E+02 -0.13416471439E+03  0.18176209223E+03  0.25500000920E-02 0.  1.
       -2    1    3    3    0  502  0.11681958968E+03  0.37289020431E+02  0.72040373009E+03  0.73076591458E+03  0.25500000920E-02 0. -1.
</event>
<event>
 5   0  0.1119786E-02  0.6933609E+03  0.7818609E-02  0.9728654E-01
       -2   -1    0    0    0  501  0.00000000000E+00  0.00000000000E+00  0.10403564726E+03  0.10403564729E+03  0.25500000920E-02 0. -1.
        2   -1    0    0  501    0  0.00000000000E+00  0.00000000000E+00 -0.11552515864E+04  0.11552515864E+04  0.25500000920E-02 0.  1.
    10030    2    1    2    0    0  0.00000000000E+00  0.00000000000E+00 -0.10512159392E+04  0.12592872337E+04  0.69336093504E+03 0.  0.
        3    1    3    3  502    0 -0.46724119078E+02 -0.31269380961E+03 -0.78391055170E+03  0.84526701411E+03  0.10100000352E+00 0.  1.
       -3    1    3    3    0  502  0.46724119078E+02  0.31269380961E+03 -0.26730538745E+03  0.41402021960E+03  0.10100000352E+00 0. -1.
</event>
<event>
 5   0  0.1079446E-02  0.6784592E+03  0.7818609E-02  0.9754796E-01
        2   -1    0    0  501    0  0.00000000000E+00  0.00000000000E+00  0.19540587398E+04  0.19540587398E+04  0.25500000920E-02 0.  1.
       -2   -1    0    0    0  501  0.00000000000E+00  0.00000000000E+00 -0.58891120739E+02  0.58891120794E+02  0.25500000920E-02 0. -1.
    10030    2    1    2    0    0  0.00000000000E+00  0.00000000000E+00  0.18951676190E+04  0.20129498606E+04  0.67845916378E+03 0.  0.
        2    1    3    3  502    0  0.91828600078E+02  0.27879774531E+03  0.14521040718E+04  0.14814745728E+04  0.25500000920E-02 0.  1.
       -2    1    3    3    0  502 -0.91828600078E+02 -0.27879774531E+03  0.44306354721E+03  0.53147528771E+03  0.25500000920E-02 0. -1.
</event>
<event>
 5   0  0.1119786E-02  0.6917544E+03  0.7818609E-02  0.9731438E-01
        2   -1    0    0  501    0  0.00000000000E+00  0.00000000000E+00  0.13928637928E+04  0.13928637928E+04  0.25500000920E-02 0. -1.
       -2   -1    0    0    0  501  0.00000000000E+00  0.00000000000E+00 -0.85888527520E+02  0.85888527558E+02  0.25500000920E-02 0.  1.
    10030    2    1    2    0    0  0.00000000000E+00  0.00000000000E+00  0.13069752653E+04  0.14787523204E+04  0.69175435013E+03 0.  0.
        3    1    3    3  502    0  0.20899738638E+03 -0.16064502512E+03  0.11321774985E+04  0.11624597326E+04  0.10100000352E+00 0. -1.
       -3    1    3    3    0  502 -0.20899738638E+03  0.16064502512E+03  0.17479776680E+03  0.31629258778E+03  0.10100000352E+00 0.  1.
</event>
<event>
 5   0  0.1119786E-02  0.6992224E+03  0.7818609E-02  0.9718563E-01
        2   -1    0    0  501    0  0.00000000000E+00  0.00000000000E+00  0.50526221422E+03  0.50526221423E+03  0.25500000920E-02 0.  1.
       -2   -1    0    0    0  501  0.00000000000E+00  0.00000000000E+00 -0.24191004773E+03  0.24191004774E+03  0.25500000920E-02 0. -1.
    10030    2    1    2    0    0  0.00000000000E+00  0.00000000000E+00  0.26335216649E+03  0.74717226197E+03  0.69922244348E+03 0.  0.
        3    1    3    3  502    0 -0.21206825882E+03 -0.31927651321E+02  0.42671853315E+03  0.47757830567E+03  0.10100000352E+00 0.  1.
       -3    1    3    3    0  502  0.21206825882E+03  0.31927651321E+02 -0.16336636666E+03  0.26959395630E+03  0.10100000352E+00 0. -1.
</event>
<event>
 5   0  0.1079446E-02  0.7011746E+03  0.7818609E-02  0.9715226E-01
        2   -1    0    0  501    0  0.00000000000E+00  0.00000000000E+00  0.38299977587E+03  0.38299977588E+03  0.25500000920E-02 0. -1.
       -2   -1    0    0    0  501  0.00000000000E+00  0.00000000000E+00 -0.32091785681E+03  0.32091785682E+03  0.25500000920E-02 0.  1.
    10030    2    1    2    0    0  0.00000000000E+00  0.00000000000E+00  0.62081919062E+02  0.70391763269E+03  0.70117463512E+03 0.  0.
        2    1    3    3  502    0 -0.32465283405E+03  0.13079898667E+03  0.51210090322E+02  0.35373763007E+03  0.25500000920E-02 0.  1.
       -2    1    3    3    0  502  0.32465283405E+03 -0.13079898667E+03  0.10871828740E+02  0.35018000262E+03  0.25500000920E-02 0. -1.
</event>
<event>
 5   0  0.6785252E-03  0.7004289E+03  0.7818609E-02  0.9716499E-01
        1   -1    0    0  501    0  0.00000000000E+00  0.00000000000E+00  0.28329102117E+03  0.28329102121E+03  0.50400001928E-02 0.  1.
       -1   -1    0    0    0  501  0.00000000000E+00  0.00000000000E+00 -0.43294756498E+03  0.43294756500E+03  0.50400001928E-02 0. -1.
    10030    2    1    2    0    0  0.00000000000E+00  0.00000000000E+00 -0.14965654381E+03  0.71623858622E+03  0.70042889095E+03 0.  0.
        3    1    3    3  502    0  0.30638332469E+03 -0.15850511847E+03 -0.13002572153E+02  0.34520094338E+03  0.10100000352E+00 0.  1.
       -3    1    3    3    0  502 -0.30638332469E+03  0.15850511847E+03 -0.13665397165E+03  0.37103764283E+03  0.10100000352E+00 0. -1.
</event>
<event>
 5   0  0.6609285E-03  0.7101632E+03  0.7818609E-02  0.9700008E-01
        1   -1    0    0  501    0  0.00000000000E+00  0.00000000000E+00  0.10573771798E+04  0.10573771798E+04  0.50400001928E-02 0.  1.
       -1   -1    0    0    0  501  0.00000000000E+00  0.00000000000E+00 -0.11924121041E+03  0.11924121051E+03  0.50400001928E-02 0. -1.
    10030    2    1    2    0    0  0.00000000000E+00  0.00000000000E+00  0.93813596942E+03  0.11766183904E+04  0.71016317801E+03 0.  0.
        2    1    3    3  502    0 -0.41372234154E+02 -0.24292350453E+03  0.89264428854E+03  0.92603310777E+03  0.25500000920E-02 0.  1.
       -2    1    3    3    0  502  0.41372234154E+02  0.24292350453E+03  0.45491680880E+02  0.25058528259E+03  0.25500000920E-02 0. -1.
</event>
<event>
 5   0  0.6609285E-03  0.6770633E+03  0.7818609E-02  0.9757282E-01
       -1   -1    0    0    0  501  0.00000000000E+00  0.00000000000E+00  0.12743193235E+03  0.12743193245E+03  0.50400001928E-02 0. -1.
        1   -1    0    0  501    0  0.00000000000E+00  0.00000000000E+00 -0.89933239320E+03  0.89933239321E+03  0.50400001928E-02 0.  1.
    10030    2    1    2    0    0  0.00000000000E+00  0.00000000000E+00 -0.77190046085E+03  0.10267643257E+04  0.67706326070E+03 0.  0.
        2    1    3    3  502    0  0.21573604563E+03 -0.86696161333E+02 -0.75909906984E+03  0.79390784327E+03  0.25500000920E-02 0.  1.
       -2    1    3    3    0  502 -0.21573604563E+03  0.86696161333E+02 -0.12801391011E+02  0.23285648239E+03  0.25500000920E-02 0. -1.
</event>
<event>
 5   0  0.6785252E-03  0.6949086E+03  0.7818609E-02  0.9725979E-01
        1   -1    0    0  501    0  0.00000000000E+00  0.00000000000E+00  0.40358370297E+03  0.40358370300E+03  0.50400001928E-02 0.  1.
       -1   -1    0    0    0  501  0.00000000000E+00  0.00000000000E+00 -0.29913123268E+03  0.29913123273E+03  0.50400001928E-02 0. -1.
    10030    2    1    2    0    0  0.00000000000E+00  0.00000000000E+00  0.10445247029E+03  0.70271493573E+03  0.69490859999E+03 0.  0.
        3    1    3    3  502    0  0.16839320225E+03  0.27110473145E+03 -0.86686622935E+02  0.33070927833E+03  0.10100000352E+00 0. -1.
       -3    1    3    3    0  502 -0.16839320225E+03 -0.27110473145E+03  0.19113909322E+03  0.37200565740E+03  0.10100000352E+00 0.  1.
</event>
<event>
 5   0  0.1109788E-02  0.7058440E+03  0.7818609E-02  0.9707290E-01
        2   -1    0    0  501    0  0.00000000000E+00  0.00000000000E+00  0.19381132900E+03  0.19381132901E+03  0.25500000920E-02 0. -1.
       -2   -1    0    0    0  501  0.00000000000E+00  0.00000000000E+00 -0.64265555230E+03  0.64265555230E+03  0.25500000920E-02 0.  1.
    10030    2    1    2    0    0  0.00000000000E+00  0.00000000000E+00 -0.44884422330E+03  0.83646688132E+03  0.70584396771E+03 0.  0.
        1    1    3    3  502    0 -0.31523622584E+03  0.47590449622E+02 -0.40381360575E+03  0.51449407887E+03  0.50400001928E-02 0.  1.
       -1    1    3    3    0  502  0.31523622584E+03 -0.47590449622E+02 -0.45030617548E+02  0.32197280245E+03  0.50400001928E-02 0. -1.
</event>
<event>
 5   0  0.6785252E-03  0.7192526E+03  0.7818609E-02  0.9684863E-01
        1   -1    0    0  501    0  0.00000000000E+00  0.00000000000E+00  0.40810363576E+03  0.40810363579E+03  0.50400001928E-02 0. -1.
       -1   -1    0    0    0  501  0.00000000000E+00  0.00000000000E+00 -0.31690743619E+03  0.31690743623E+03  0.50400001928E-02 0.  1.
    10030    2    1    2    0    0  0.00000000000E+00  0.00000000000E+00  0.91196199564E+02  0.72501107202E+03  0.71925260357E+03 0.  0.
        3    1    3    3  502    0  0.15150967429E+02  0.25399286550E+03  0.30177675681E+03  0.39472920932E+03  0.10100000352E+00 0. -1.
       -3    1    3    3    0  502 -0.15150967429E+02 -0.25399286550E+03 -0.21058055724E+03  0.33028186270E+03  0.10100000352E+00 0.  1.
</event>
<event>
 5   0  0.1119786E-02  0.6995995E+03  0.7818609E-02  0.9717917E-01
        2   -1    0    0  501    0  0.00000000000E+00  0.00000000000E+00  0.11387934053E+03  0.11387934056E+03  0.25500000920E-02 0. -1.
       -2   -1    0    0    0  501  0.00000000000E+00  0.00000000000E+00 -0.10744694378E+04  0.10744694378E+04  0.25500000920E-02 0.  1.
    10030    2    1    2    0    0  0.00000000000E+00  0.00000000000E+00 -0.96059009730E+03  0.11883487784E+04  0.69959951692E+03 0.  0.
        3    1    3    3  502    0  0.33489880324E+03  0.65904811798E+02 -0.61031616425E+03  0.69927568467E+03  0.10100000352E+00 0.  1.
       -3    1    3    3    0  502 -0.33489880324E+03 -0.65904811798E+02 -0.35027393304E+03  0.48907309372E+03  0.10100000352E+00 0. -1.
</event>
<event>
 5   0  0.6689415E-03  0.6997920E+03  0.7818609E-02  0.9717588E-01
       -1   -1    0    0    0  501  0.00000000000E+00  0.00000000000E+00  0.93500226390E+02  0.93500226526E+02  0.50400001928E-02 0. -1.
        1   -1    0    0  501    0  0.00000000000E+00  0.00000000000E+00 -0.13093787363E+04  0.13093787363E+04  0.50400001928E-02 0.  1.
    10030    2    1    2    0    0  0.00000000000E+00  0.00000000000E+00 -0.12158785099E+04  0.14028789628E+04  0.69979199303E+03 0.  0.
        1    1    3    3  502    0  0.22413379424E+03 -0.16346903809E+03 -0.18046542885E+03  0.33094690687E+03  0.50400001928E-02 0. -1.
       -1    1    3    3    0  502 -0.22413379424E+03  0.16346903809E+03 -0.10354130811E+04  0.10719320560E+04  0.50400001928E-02 0.  1.
</event>
<event>
 5   0  0.1100119E-02  0.6982612E+03  0.7818609E-02  0.9720210E-01
       -2   -1    0    0    0  501  0.00000000000E+00  0.00000000000E+00  0.83014843024E+02  0.83014843063E+02  0.25500000920E-02 0. -1.
        2   -1    0    0  501    0  0.00000000000E+00  0.00000000000E+00 -0.14683178361E+04  0.14683178361E+04  0.25500000920E-02 0.  1.
    10030    2    1    2    0    0  0.00000000000E+00  0.00000000000E+00 -0.13853029931E+04  0.15513326792E+04  0.69826119670E+03 0.  0.
        4    1    3    3  502    0 -0.21912061523E+03 -0.17397658141E+03 -0.22869801936E+03  0.36136697671E+03  0.12699999809E+01 0. -1.
       -4    1    3    3    0  502  0.21912061523E+03  0.17397658141E+03 -0.11566049737E+04  0.11899657024E+04  0.12699999809E+01 0.  1.
</event>
<event>
 5   0  0.1100119E-02  0.6998238E+03  0.7818609E-02  0.9717534E-01
       -2   -1    0    0    0  501  0.00000000000E+00  0.00000000000E+00  0.21721551359E+03  0.21721551360E+03  0.25500000920E-02 0.  1.
        2   -1    0    0  501    0  0.00000000000E+00  0.00000000000E+00 -0.56367220513E+03  0.56367220514E+03  0.25500000920E-02 0. -1.
    10030    2    1    2    0    0  0.00000000000E+00  0.00000000000E+00 -0.34645669155E+03  0.78088771874E+03  0.69982382795E+03 0.  0.
        4    1    3    3  502    0  0.21751189723E+03  0.26186144215E+03 -0.26356200110E+03  0.43052221969E+03  0.12699999809E+01 0. -1.
       -4    1    3    3    0  502 -0.21751189723E+03 -0.26186144215E+03 -0.82894690442E+02  0.35036549905E+03  0.12699999809E+01 0.  1.
</event>
<event>
 5   0  0.6785252E-03  0.7004560E+03  0.7818609E-02  0.9716453E-01
        1   -1    0    0  501    0  0.00000000000E+00  0.00000000000E+00  0.21379798036E+03  0.21379798042E+03  0.50400001928E-02 0. -1.
       -1   -1    0    0    0  501  0.00000000000E+00  0.00000000000E+00 -0.57371752084E+03  0.57371752086E+03  0.50400001928E-02 0.  1.
    10030    2    1    2    0    0  0.00000000000E+00  0.00000000000E+00 -0.35991954048E+03  0.78751550128E+03  0.70045598658E+03 0.  0.
        3    1    3    3  502    0  0.68469400998E+02 -0.28088979788E+03 -0.40219548678E+03  0.49532651576E+03  0.10100000352E+00 0.  1.
       -3    1    3    3    0  502 -0.68469400998E+02  0.28088979788E+03  0.42275946301E+02  0.29218898552E+03  0.10100000352E+00 0. -1.
</event>
<event>
 5   0  0.6689415E-03  0.6999188E+03  0.7818609E-02  0.9717371E-01
       -1   -1    0    0    0  501  0.00000000000E+00  0.00000000000E+00  0.42613207727E+03  0.42613207730E+03  0.50400001928E-02 0.  1.
        1   -1    0    0  501    0  0.00000000000E+00  0.00000000000E+00 -0.28740289487E+03  0.28740289491E+03  0.50400001928E-02 0. -1.
    10030    2    1    2    0    0  0.00000000000E+00  0.00000000000E+00  0.13872918240E+03  0.71353497221E+03  0.69991883138E+03 0.  0.
        1    1    3    3  502    0 -0.12348086904E+03 -0.28884511684E+02  0.40188437151E+03  0.42141771216E+03  0.50400001928E-02 0.  1.
       -1    1    3    3    0  502  0.12348086904E+03  0.28884511684E+02 -0.26315518911E+03  0.29211726005E+03  0.50400001928E-02 0. -1.
</event>
<event>
 5   0  0.6609285E-03  0.7016579E+03  0.7818609E-02  0.9714401E-01
       -1   -1    0    0    0  501  0.00000000000E+00  0.00000000000E+00  0.54655861897E+03  0.54655861899E+03  0.50400001928E-02 0.  1.
        1   -1    0    0  501    0  0.00000000000E+00  0.00000000000E+00 -0.22519258991E+03  0.22519258997E+03  0.50400001928E-02 0. -1.
    10030    2    1    2    0    0  0.00000000000E+00  0.00000000000E+00  0.32136602906E+03  0.77175120896E+03  0.70165789663E+03 0.  0.
        2    1    3    3  502    0 -0.23998478092E+03  0.25534831962E+03  0.17926741446E+03  0.39361436114E+03  0.25500000920E-02 0.  1.
       -2    1    3    3    0  502  0.23998478092E+03 -0.25534831962E+03  0.14209861459E+03  0.37813684782E+03  0.25500000920E-02 0. -1.
</event>
<event>
 5   0  0.1100119E-02  0.6977808E+03  0.7818609E-02  0.9721035E-01
       -2   -1    0    0    0  501  0.00000000000E+00  0.00000000000E+00  0.14135180246E+03  0.14135180248E+03  0.25500000920E-02 0. -1.
        2   -1    0    0  501    0  0.00000000000E+00  0.00000000000E+00 -0.86114584653E+03  0.86114584653E+03  0.25500000920E-02 0.  1.
    10030    2    1    2    0    0  0.00000000000E+00  0.00000000000E+00 -0.71979404407E+03  0.10024976490E+04  0.69778081831E+03 0.  0.
        4    1    3    3  502    0  0.11097945440E+02 -0.22747757955E+03  0.19819081602E+02  0.22861238481E+03  0.12699999809E+01 0. -1.
       -4    1    3    3    0  502 -0.11097945440E+02  0.22747757955E+03 -0.73961312567E+03  0.77388526421E+03  0.12699999809E+01 0.  1.
</event>
<event>
 5   0  0.6785252E-03  0.6994308E+03  0.7818609E-02  0.9718206E-01
       -1   -1    0    0    0  501  0.00000000000E+00  0.00000000000E+00  0.85286569958E+02  0.85286570107E+02  0.50400001928E-02 0.  1.
        1   -1    0    0  501    0  0.00000000000E+00  0.00000000000E+00 -0.14339992210E+04  0.14339992210E+04  0.50400001928E-02 0. -1.
    10030    2    1    2    0    0  0.00000000000E+00  0.00000000000E+00 -0.13487126510E+04  0.15192857911E+04  0.69943084004E+03 0.  0.
        3    1    3    3  502    0 -0.37625430638E+02  0.31440887974E+03 -0.99677790802E+03  0.10458655864E+04  0.10100000352E+00 0. -1.
       -3    1    3    3    0  502  0.37625430638E+02 -0.31440887974E+03 -0.35193474302E+03  0.47342020472E+03  0.10100000352E+00 0.  1.
</event>
<event>
 5   0  0.1079446E-02  0.7001834E+03  0.7818609E-02  0.9716919E-01
       -2   -1    0    0    0  501  0.00000000000E+00  0.00000000000E+00  0.12766858189E+03  0.12766858192E+03  0.25500000920E-02 0. -1.
        2   -1    0    0  501    0  0.00000000000E+00  0.00000000000E+00 -0.96001859381E+03  0.96001859382E+03  0.25500000920E-02 0.  1.
    10030    2    1    2    0    0  0.00000000000E+00  0.00000000000E+00 -0.83235001192E+03  0.10876871757E+04  0.70018344018E+03 0.  0.
        2    1    3    3  502    0  0.29868047803E+03  0.66943496039E+02 -0.15221613047E+03  0.34184968920E+03  0.25500000920E-02 0. -1.
       -2    1    3    3    0  502 -0.29868047803E+03 -0.66943496039E+02 -0.68013388145E+03  0.74583748654E+03  0.25500000920E-02 0.  1.
</event>
<event>
 5   0  0.1100119E-02  0.7006453E+03  0.7818609E-02  0.9716129E-01
       -2   -1    0    0    0  501  0.00000000000E+00  0.00000000000E+00  0.14100262545E+03  0.14100262548E+03  0.25500000920E-02 0.  1.
        2   -1    0    0  501    0  0.00000000000E+00  0.00000000000E+00 -0.87038069943E+03  0.87038069943E+03  0.25500000920E-02 0. -1.
    10030    2    1    2    0    0  0.00000000000E+00  0.00000000000E+00 -0.72937807397E+03  0.10113833249E+04  0.70064531334E+03 0.  0.
        4    1    3    3  502    0  0.12883019824E+03  0.17254263286E+03  0.34188553632E+02  0.21803359886E+03  0.12699999809E+01 0.  1.
       -4    1    3    3    0  502 -0.12883019824E+03 -0.17254263286E+03 -0.76356662760E+03  0.79334972605E+03  0.12699999809E+01 0. -1.
</event>
<event>
 5   0  0.6990118E-03  0.7051922E+03  0.7818609E-02  0.9708394E-01
       -1   -1    0    0    0  501  0.00000000000E+00  0.00000000000E+00  0.36159417647E+03  0.36159417651E+03  0.50400001928E-02 0. -1.
        1   -1    0    0  501    0  0.00000000000E+00  0.00000000000E+00 -0.34382192701E+03  0.34382192705E+03  0.50400001928E-02 0.  1.
    10030    2    1    2    0    0  0.00000000000E+00  0.00000000000E+00  0.17772249459E+02  0.70541610356E+03  0.70519219105E+03 0.  0.
        5    1    3    3  502    0 -0.94829695288E+02  0.13417393921E+03  0.32092522944E+03  0.36056956328E+03  0.46999998093E+01 0. -1.
       -5    1    3    3    0  502  0.94829695288E+02 -0.13417393921E+03 -0.30315297999E+03  0.34484654028E+03  0.46999998093E+01 0.  1.
</event>
<event>
 5   0  0.4440500E-03  0.6962012E+03  0.7818609E-02  0.9723751E-01
        4   -1    0    0  501    0  0.00000000000E+00  0.00000000000E+00  0.14237072735E+04  0.14237078400E+04  0.12699999809E+01 0. -1.
       -4   -1    0    0    0  501  0.00000000000E+00  0.00000000000E+00 -0.85106287534E+02  0.85115762804E+02  0.12699999809E+01 0.  1.
    10030    2    1    2    0    0  0.00000000000E+00  0.00000000000E+00  0.13386009860E+04  0.15088236028E+04  0.69620116676E+03 0.  0.
        4    1    3    3  502    0  0.16239702944E+02 -0.34733533700E+03  0.70470253773E+03  0.78581985459E+03  0.12699999809E+01 0.  1.
       -4    1    3    3    0  502 -0.16239702944E+02  0.34733533700E+03  0.63389844828E+03  0.72300374820E+03  0.12699999809E+01 0. -1.
</event>
<event>
 5   0  0.1079446E-02  0.6989607E+03  0.7818609E-02  0.9719011E-01
        2   -1    0    0  501    0  0.00000000000E+00  0.00000000000E+00  0.25631312236E+03  0.25631312237E+03  0.25500000920E-02 0. -1.
       -2   -1    0    0    0  501  0.00000000000E+00  0.00000000000E+00 -0.47651293430E+03  0.47651293431E+03  0.25500000920E-02 0.  1.
    10030    2    1    2    0    0  0.00000000000E+00  0.00000000000E+00 -0.22019981194E+03  0.73282605668E+03  0.69896070860E+03 0.  0.
        2    1    3    3  502    0 -0.26677824408E+03 -0.21433134458E+03 -0.18444359387E+03  0.38875184387E+03  0.25500000920E-02 0. -1.
       -2    1    3    3    0  502  0.26677824408E+03  0.21433134458E+03 -0.35756218074E+02  0.34407421281E+03  0.25500000920E-02 0.  1.
</event>
<event>
 5   0  0.1119786E-02  0.7007427E+03  0.7818609E-02  0.9715963E-01
        2   -1    0    0  501    0  0.00000000000E+00  0.00000000000E+00  0.37980124538E+03  0.37980124539E+03  0.25500000920E-02 0.  1.
       -2   -1    0    0    0  501  0.00000000000E+00  0.00000000000E+00 -0.32322189687E+03  0.32322189688E+03  0.25500000920E-02 0. -1.
    10030    2    1    2    0    0  0.00000000000E+00  0.00000000000E+00  0.56579348511E+02  0.70302314227E+03  0.70074268878E+03 0.  0.
        3    1    3    3  502    0  0.14879538768E+03 -0.28769337553E+03 -0.10575848280E+03  0.34072336668E+03  0.10100000352E+00 0. -1.
       -3    1    3    3    0  502 -0.14879538768E+03  0.28769337553E+03  0.16233783131E+03  0.36229977559E+03  0.10100000352E+00 0.  1.
</event>
<event>
 5   0  0.1099980E-02  0.6935827E+03  0.7818609E-02  0.9728270E-01
        2   -1    0    0  501    0  0.00000000000E+00  0.00000000000E+00  0.49172590218E+03  0.49172590219E+03  0.25500000920E-02 0. -1.
       -2   -1    0    0    0  501  0.00000000000E+00  0.00000000000E+00 -0.24457579591E+03  0.24457579592E+03  0.25500000920E-02 0.  1.
    10030    2    1    2    0    0  0.00000000000E+00  0.00000000000E+00  0.24715010628E+03  0.73630169811E+03  0.69358273883E+03 0.  0.
        5    1    3    3  502    0 -0.32409715307E+03 -0.81216541032E+02  0.25086612273E+02  0.33509180724E+03  0.46999998093E+01 0.  1.
       -5    1    3    3    0  502  0.32409715307E+03  0.81216541032E+02  0.22206349400E+03  0.40120989087E+03  0.46999998093E+01 0. -1.
</event>
<event>
 5   0  0.6609285E-03  0.7054492E+03  0.7818609E-02  0.9707958E-01
       -1   -1    0    0    0  501  0.00000000000E+00  0.00000000000E+00  0.26982077687E+03  0.26982077691E+03  0.50400001928E-02 0. -1.
        1   -1    0    0  501    0  0.00000000000E+00  0.00000000000E+00 -0.46110108620E+03  0.46110108622E+03  0.50400001928E-02 0.  1.
    10030    2    1    2    0    0  0.00000000000E+00  0.00000000000E+00 -0.19128030933E+03  0.73092186314E+03  0.70544922799E+03 0.  0.
        2    1    3    3  502    0 -0.17846983695E+03 -0.29793145451E+03 -0.15951032517E+03  0.38217558547E+03  0.25500000920E-02 0.  1.
       -2    1    3    3    0  502  0.17846983695E+03  0.29793145451E+03 -0.31769984156E+02  0.34874627767E+03  0.25500000920E-02 0. -1.
</event>
<event>
 5   0  0.1079446E-02  0.6989839E+03  0.7818609E-02  0.9718971E-01
       -2   -1    0    0    0  501  0.00000000000E+00  0.00000000000E+00  0.10774061130E+03  0.10774061133E+03  0.25500000920E-02 0.  1.
        2   -1    0    0  501    0  0.00000000000E+00  0.00000000000E+00 -0.11336915075E+04  0.11336915075E+04  0.25500000920E-02 0. -1.
    10030    2    1    2    0    0  0.00000000000E+00  0.00000000000E+00 -0.10259508962E+04  0.12414321188E+04  0.69898387980E+03 0.  0.
        2    1    3    3  502    0  0.26124507323E+03  0.22443389248E+03 -0.40752733638E+03  0.53357107333E+03  0.25500000920E-02 0.  1.
       -2    1    3    3    0  502 -0.26124507323E+03 -0.22443389248E+03 -0.61842355978E+03  0.70786104546E+03  0.25500000920E-02 0. -1.
</event>
<event>
 5   0  0.4440500E-03  0.7000502E+03  0.7818609E-02  0.9717146E-01
       -4   -1    0    0    0  501  0.00000000000E+00  0.00000000000E+00  0.26464351640E+03  0.26464656369E+03  0.12699999809E+01 0.  1.
        4   -1    0    0  501    0  0.00000000000E+00  0.00000000000E+00 -0.46294659162E+03  0.46294833361E+03  0.12699999809E+01 0. -1.
    10030    2    1    2    0    0  0.00000000000E+00  0.00000000000E+00 -0.19830307522E+03  0.72759489730E+03  0.70005015887E+03 0.  0.
        1    1    3    3  502    0 -0.10665003930E+03 -0.13655256317E+03  0.21694785335E+03  0.27764582563E+03  0.50400001928E-02 0.  1.
       -1    1    3    3    0  502  0.10665003930E+03  0.13655256317E+03 -0.41525092857E+03  0.44994907167E+03  0.50400001928E-02 0. -1.
</event>
<event>
 5   0  0.1099980E-02  0.6993725E+03  0.7818609E-02  0.9718306E-01
        2   -1    0    0  501    0  0.00000000000E+00  0.00000000000E+00  0.33079336167E+03  0.33079336168E+03  0.25500000920E-02 0.  1.
       -2   -1    0    0    0  501  0.00000000000E+00  0.00000000000E+00 -0.36965814182E+03  0.36965814183E+03  0.25500000920E-02 0. -1.
    10030    2    1    2    0    0  0.00000000000E+00  0.00000000000E+00 -0.38864780153E+02  0.70045150351E+03  0.69937245988E+03 0.  0.
        5    1    3    3  502    0 -0.26693188922E+02 -0.55508695163E+02 -0.36415033542E+03  0.36935253940E+03  0.46999998093E+01 0. -1.
       -5    1    3    3    0  502  0.26693188922E+02  0.55508695163E+02  0.32528555527E+03  0.33109896412E+03  0.46999998093E+01 0.  1.
</event>
<event>
 5   0  0.6246998E-03  0.7002562E+03  0.7818609E-02  0.9716794E-01
       -1   -1    0    0    0  501  0.00000000000E+00  0.00000000000E+00  0.40285282235E+03  0.40285282239E+03  0.50400001928E-02 0.  1.
        1   -1    0    0  501    0  0.00000000000E+00  0.00000000000E+00 -0.30430386863E+03  0.30430386867E+03  0.50400001928E-02 0. -1.
    10030    2    1    2    0    0  0.00000000000E+00  0.00000000000E+00  0.98548953722E+02  0.70715669106E+03  0.70025615987E+03 0.  0.
        4    1    3    3  502    0  0.17809734509E+03 -0.14690778279E+03  0.31509356154E+03  0.39062274178E+03  0.12699999809E+01 0.  1.
       -4    1    3    3    0  502 -0.17809734509E+03  0.14690778279E+03 -0.21654460782E+03  0.31653394928E+03  0.12699999809E+01 0. -1.
</event>
<event>
 5   0  0.6609285E-03  0.6774375E+03  0.7818609E-02  0.9756614E-01
        1   -1    0    0  501    0  0.00000000000E+00  0.00000000000E+00  0.10739607028E+04  0.10739607028E+04  0.50400001928E-02 0.  1.
       -1   -1    0    0    0  501  0.00000000000E+00  0.00000000000E+00 -0.10682923800E+03  0.10682923811E+03  0.50400001928E-02 0. -1.
    10030    2    1    2    0    0  0.00000000000E+00  0.00000000000E+00  0.96713146481E+03  0.11807899409E+04  0.67743753541E+03 0.  0.
        2    1    3    3  502    0  0.50833702894E+02 -0.19109815879E+03  0.42251340452E+01  0.19778883540E+03  0.25500000920E-02 0. -1.
       -2    1    3    3    0  502 -0.50833702894E+02  0.19109815879E+03  0.96290633076E+03  0.98300110553E+03  0.25500000920E-02 0.  1.
</event>
<event>
 5   0  0.6689415E-03  0.6902159E+03  0.7818609E-02  0.9734112E-01
       -1   -1    0    0    0  501  0.00000000000E+00  0.00000000000E+00  0.16525647628E+03  0.16525647636E+03  0.50400001928E-02 0. -1.
        1   -1    0    0  501    0  0.00000000000E+00  0.00000000000E+00 -0.72069486868E+03  0.72069486869E+03  0.50400001928E-02 0.  1.
    10030    2    1    2    0    0  0.00000000000E+00  0.00000000000E+00 -0.55543839239E+03  0.88595134505E+03  0.69021589235E+03 0.  0.
        1    1    3    3  502    0  0.54142468166E+02  0.21949654138E+03 -0.61241123390E+03  0.65280751985E+03  0.50400001928E-02 0.  1.
       -1    1    3    3    0  502 -0.54142468166E+02 -0.21949654138E+03  0.56972841508E+02  0.23314382521E+03  0.50400001928E-02 0. -1.
</event>
<event>
 5   0  0.1099980E-02  0.6998904E+03  0.7818609E-02  0.9717420E-01
        2   -1    0    0  501    0  0.00000000000E+00  0.00000000000E+00  0.32030302829E+03  0.32030302830E+03  0.25500000920E-02 0.  1.
       -2   -1    0    0    0  501  0.00000000000E+00  0.00000000000E+00 -0.38233059320E+03  0.38233059321E+03  0.25500000920E-02 0. -1.
    10030    2    1    2    0    0  0.00000000000E+00  0.00000000000E+00 -0.62027564911E+02  0.70263362151E+03  0.69989041090E+03 0.  0.
        5    1    3    3  502    0  0.44219231994E+02 -0.17197667192E+03  0.27167791608E+03  0.32459558876E+03  0.46999998093E+01 0.  1.
       -5    1    3    3    0  502 -0.44219231994E+02  0.17197667192E+03 -0.33370548099E+03  0.37803803274E+03  0.46999998093E+01 0. -1.
</event>
<event>
 5   0  0.6990118E-03  0.6992770E+03  0.7818609E-02  0.9718469E-01
       -1   -1    0    0    0  501  0.00000000000E+00  0.00000000000E+00  0.67653303667E+03  0.67653303669E+03  0.50400001928E-02 0.  1.
        1   -1    0    0  501    0  0.00000000000E+00  0.00000000000E+00 -0.18069637104E+03  0.18069637111E+03  0.50400001928E-02 0. -1.
    10030    2    1    2    0    0  0.00000000000E+00  0.00000000000E+00  0.49583666563E+03  0.85722940779E+03  0.69927695415E+03 0.  0.
        5    1    3    3  502    0 -0.56809642483E+02  0.16785588798E+03  0.61735795565E+03  0.64230512221E+03  0.46999998093E+01 0.  1.
       -5    1    3    3    0  502  0.56809642483E+02 -0.16785588798E+03 -0.12152129002E+03  0.21492428559E+03  0.46999998093E+01 0. -1.
</event>
<event>
 5   0  0.6689415E-03  0.7010536E+03  0.7818609E-02  0.9715432E-01
        1   -1    0    0  501    0  0.00000000000E+00  0.00000000000E+00  0.65858465155E+03  0.65858465157E+03  0.50400001928E-02 0.  1.
       -1   -1    0    0    0  501  0.00000000000E+00  0.00000000000E+00 -0.18656531539E+03  0.18656531546E+03  0.50400001928E-02 0. -1.
    10030    2    1    2    0    0  0.00000000000E+00  0.00000000000E+00  0.47201933616E+03  0.84514996703E+03  0.70105364493E+03 0.  0.
        1    1    3    3  502    0 -0.23832345488E+03 -0.22609991743E+03  0.38341065273E+03  0.50489897055E+03  0.50400001928E-02 0.  1.
       -1    1    3    3    0  502  0.23832345488E+03  0.22609991743E+03  0.88608683428E+02  0.34025099648E+03  0.50400001928E-02 0. -1.
</event>
<event>
 5   0  0.1109788E-02  0.7017459E+03  0.7818609E-02  0.9714251E-01
        2   -1    0    0  501    0  0.00000000000E+00  0.00000000000E+00  0.72329948646E+03  0.72329948646E+03  0.25500000920E-02 0. -1.
       -2   -1    0    0    0  501  0.00000000000E+00  0.00000000000E+00 -0.17020866748E+03  0.17020866749E+03  0.25500000920E-02 0.  1.
    10030    2    1    2    0    0  0.00000000000E+00  0.00000000000E+00  0.55309081898E+03  0.89350815396E+03  0.70174594202E+03 0.  0.
        1    1    3    3  502    0  0.21876979743E+02 -0.35018011465E+03  0.27314628887E+03  0.44464998604E+03  0.50400001928E-02 0.  1.
       -1    1    3    3    0  502 -0.21876979743E+02  0.35018011465E+03  0.27994453012E+03  0.44885816792E+03  0.50400001928E-02 0. -1.
</event>
<event>
 5   0  0.6689415E-03  0.6964126E+03  0.7818609E-02  0.9723387E-01
       -1   -1    0    0    0  501  0.00000000000E+00  0.00000000000E+00  0.30570298317E+03  0.30570298322E+03  0.50400001928E-02 0.  1.
        1   -1    0    0  501    0  0.00000000000E+00  0.00000000000E+00 -0.39661904414E+03  0.39661904417E+03  0.50400001928E-02 0. -1.
    10030    2    1    2    0    0  0.00000000000E+00  0.00000000000E+00 -0.90916060968E+02  0.70232202739E+03  0.69641259323E+03 0.  0.
        1    1    3    3  502    0 -0.53661681049E+02  0.30072782792E+03  0.12308528627E+03  0.32934296747E+03  0.50400001928E-02 0.  1.
       -1    1    3    3    0  502  0.53661681049E+02 -0.30072782792E+03 -0.21400134724E+03  0.37297905993E+03  0.50400001928E-02 0. -1.
</event>
<event>
 5   0  0.1119786E-02  0.7025679E+03  0.7818609E-02  0.9712851E-01
       -2   -1    0    0    0  501  0.00000000000E+00  0.00000000000E+00  0.21334299609E+03  0.21334299611E+03  0.25500000920E-02 0. -1.
        2   -1    0    0  501    0  0.00000000000E+00  0.00000000000E+00 -0.57841323298E+03  0.57841323298E+03  0.25500000920E-02 0.  1.
    10030    2    1    2    0    0  0.00000000000E+00  0.00000000000E+00 -0.36507023689E+03  0.79175622909E+03  0.70256789597E+03 0.  0.
        3    1    3    3  502    0  0.74401976312E+01  0.11514667144E+03 -0.55644746430E+03  0.56828505453E+03  0.10100000352E+00 0.  1.
       -3    1    3    3    0  502 -0.74401976312E+01 -0.11514667144E+03  0.19137722741E+03  0.22347117456E+03  0.10100000352E+00 0. -1.
</event>
<event>
 5   0  0.6689415E-03  0.7048795E+03  0.7818609E-02  0.9708924E-01
        1   -1    0    0  501    0  0.00000000000E+00  0.00000000000E+00  0.11665341733E+03  0.11665341744E+03  0.50400001928E-02 0. -1.
       -1   -1    0    0    0  501  0.00000000000E+00  0.00000000000E+00 -0.10648103658E+04  0.10648103658E+04  0.50400001928E-02 0.  1.
    10030    2    1    2    0    0  0.00000000000E+00  0.00000000000E+00 -0.94815694845E+03  0.11814637832E+04  0.70487947352E+03 0.  0.
        1    1    3    3  502    0  0.58569081958E+02 -0.22275312908E+03 -0.26945012818E+02  0.23189507890E+03  0.50400001928E-02 0. -1.
       -1    1    3    3    0  502 -0.58569081958E+02  0.22275312908E+03 -0.92121193563E+03  0.94956870433E+03  0.50400001928E-02 0.  1.
</event>
<event>
 5   0  0.6246998E-03  0.6978861E+03  0.7818609E-02  0.9720854E-01
       -1   -1    0    0    0  501  0.00000000000E+00  0.00000000000E+00  0.51381902028E+03  0.51381902030E+03  0.50400001928E-02 0.  1.
        1   -1    0    0  501    0  0.00000000000E+00  0.00000000000E+00 -0.23697305091E+03  0.23697305097E+03  0.50400001928E-02 0. -1.
    10030    2    1    2    0    0  0.00000000000E+00  0.00000000000E+00  0.27684596937E+03  0.75079207127E+03  0.69788612504E+03 0.  0.
        4    1    3    3  502    0 -0.12785174017E+03  0.28284608714E+03 -0.33072120896E+02  0.31215918144E+03  0.12699999809E+01 0. -1.
       -4    1    3    3    0  502  0.12785174017E+03 -0.28284608714E+03  0.30991809026E+03  0.43863288984E+03  0.12699999809E+01 0.  1.
</event>
<event>
 5   0  0.1109788E-02  0.7025178E+03  0.7818609E-02  0.9712936E-01
        2   -1    0    0  501    0  0.00000000000E+00  0.00000000000E+00  0.10255860562E+03  0.10255860566E+03  0.25500000920E-02 0.  1.
       -2   -1    0    0    0  501  0.00000000000E+00  0.00000000000E+00 -0.12030467772E+04  0.12030467772E+04  0.25500000920E-02 0. -1.
    10030    2    1    2    0    0  0.00000000000E+00  0.00000000000E+00 -0.11004881716E+04  0.13056053829E+04  0.70251775777E+03 0.  0.
        1    1    3    3  502    0 -0.98337095685E+01 -0.34398345702E+03 -0.68115028780E+03  0.76314286680E+03  0.50400001928E-02 0. -1.
       -1    1    3    3    0  502  0.98337095685E+01  0.34398345702E+03 -0.41933788380E+03  0.54246251609E+03  0.50400001928E-02 0.  1.
</event>
<event>
 5   0  0.6689415E-03  0.7007071E+03  0.7818609E-02  0.9716024E-01
       -1   -1    0    0    0  501  0.00000000000E+00  0.00000000000E+00  0.20997575442E+03  0.20997575448E+03  0.50400001928E-02 0.  1.
        1   -1    0    0  501    0  0.00000000000E+00  0.00000000000E+00 -0.58457997557E+03  0.58457997559E+03  0.50400001928E-02 0. -1.
    10030    2    1    2    0    0  0.00000000000E+00  0.00000000000E+00 -0.37460422115E+03  0.79455573007E+03  0.70070713261E+03 0.  0.
        1    1    3    3  502    0 -0.25882680458E+03  0.21812701749E+03 -0.28983954752E+03  0.44562054920E+03  0.50400001928E-02 0.  1.
       -1    1    3    3    0  502  0.25882680458E+03 -0.21812701749E+03 -0.84764673621E+02  0.34893518087E+03  0.50400001928E-02 0. -1.
</event>
<event>
 5   0  0.6689415E-03  0.6937136E+03  0.7818609E-02  0.9728044E-01
        1   -1    0    0  501    0  0.00000000000E+00  0.00000000000E+00  0.32951544878E+03  0.32951544882E+03  0.50400001928E-02 0.  1.
       -1   -1    0    0    0  501  0.00000000000E+00  0.00000000000E+00 -0.36511073135E+03  0.36511073138E+03  0.50400001928E-02 0. -1.
    10030    2    1    2    0    0  0.00000000000E+00  0.00000000000E+00 -0.35595282568E+02  0.69462618020E+03  0.69371356198E+03 0.  0.
        1    1    3    3  502    0 -0.96532778952E+02  0.24816482162E+03 -0.24036301725E+03  0.35871818492E+03  0.50400001928E-02 0. -1.
       -1    1    3    3    0  502  0.96532778952E+02 -0.24816482162E+03  0.20476773468E+03  0.33590799528E+03  0.50400001928E-02 0.  1.
</event>
<event>
 5   0  0.1119786E-02  0.7008094E+03  0.7818609E-02  0.9715849E-01
       -2   -1    0    0    0  501  0.00000000000E+00  0.00000000000E+00  0.58965208514E+02  0.58965208569E+02  0.25500000920E-02 0. -1.
        2   -1    0    0  501    0  0.00000000000E+00  0.00000000000E+00 -0.20823034835E+04  0.20823034835E+04  0.25500000920E-02 0.  1.
    10030    2    1    2    0    0  0.00000000000E+00  0.00000000000E+00 -0.20233382750E+04  0.21412686921E+04  0.70080941534E+03 0.  0.
        3    1    3    3  502    0  0.29645491425E+03  0.10493732544E+03 -0.53944979092E+03  0.62442248965E+03  0.10100000352E+00 0. -1.
       -3    1    3    3    0  502 -0.29645491425E+03 -0.10493732544E+03 -0.14838884841E+04  0.15168462025E+04  0.10100000352E+00 0.  1.
</event>
<event>
 5   0  0.1099980E-02  0.7007391E+03  0.7818609E-02  0.9715969E-01
        2   -1    0    0  501    0  0.00000000000E+00  0.00000000000E+00  0.15909535579E+04  0.15909535579E+04  0.25500000920E-02 0. -1.
       -2   -1    0    0    0  501  0.00000000000E+00  0.00000000000E+00 -0.77160531617E+02  0.77160531659E+02  0.25500000920E-02 0.  1.
    10030    2    1    2    0    0  0.00000000000E+00  0.00000000000E+00  0.15137930263E+04  0.16681140895E+04  0.70073910221E+03 0.  0.
        5    1    3    3  502    0  0.17401985525E+03 -0.29809119574E+03  0.89963684769E+03  0.96359214334E+03  0.46999998093E+01 0.  1.
       -5    1    3    3    0  502 -0.17401985525E+03  0.29809119574E+03  0.61415617857E+03  0.70452194619E+03  0.46999998093E+01 0. -1.
</event>
<event>
 5   0  0.4440500E-03  0.7054884E+03  0.7818609E-02  0.9707892E-01
        3   -1    0    0  501    0  0.00000000000E+00  0.00000000000E+00  0.22706419937E+03  0.22706422184E+03  0.10100000352E+00 0. -1.
       -3   -1    0    0    0  501  0.00000000000E+00  0.00000000000E+00 -0.54798795670E+03  0.54798796601E+03  0.10100000352E+00 0.  1.
    10030    2    1    2    0    0  0.00000000000E+00  0.00000000000E+00 -0.32092375733E+03  0.77505218785E+03  0.70548836693E+03 0.  0.
        3    1    3    3  502    0  0.32449399089E+03 -0.20527207470E+02 -0.10186966310E+02  0.32530216854E+03  0.10100000352E+00 0.  1.
       -3    1    3    3    0  502 -0.32449399089E+03  0.20527207470E+02 -0.31073679102E+03  0.44975001931E+03  0.10100000352E+00 0. -1.
</event>
<event>
 5   0  0.1079446E-02  0.6984054E+03  0.7818609E-02  0.9719963E-01
       -2   -1    0    0    0  501  0.00000000000E+00  0.00000000000E+00  0.13141279424E+03  0.13141279427E+03  0.25500000920E-02 0. -1.
        2   -1    0    0  501    0  0.00000000000E+00  0.00000000000E+00 -0.92793483989E+03  0.92793483989E+03  0.25500000920E-02 0.  1.
    10030    2    1    2    0    0  0.00000000000E+00  0.00000000000E+00 -0.79652204565E+03  0.10593476342E+04  0.69840535564E+03 0.  0.
        2    1    3    3  502    0 -0.28646215288E+02  0.16166646608E+03 -0.86573820292E+03  0.88116927313E+03  0.25500000920E-02 0.  1.
       -2    1    3    3    0  502  0.28646215288E+02 -0.16166646608E+03  0.69216157271E+02  0.17817836103E+03  0.25500000920E-02 0. -1.
</event>
<event>
 5   0  0.1079446E-02  0.6742609E+03  0.7818609E-02  0.9762291E-01
        2   -1    0    0  501    0  0.00000000000E+00  0.00000000000E+00  0.10284865905E+04  0.10284865905E+04  0.25500000920E-02 0. -1.
       -2   -1    0    0    0  501  0.00000000000E+00  0.00000000000E+00 -0.11050891570E+03  0.11050891573E+03  0.25500000920E-02 0.  1.
    10030    2    1    2    0    0  0.00000000000E+00  0.00000000000E+00  0.91797767476E+03  0.11389955062E+04  0.67426089294E+03 0.  0.
        2    1    3    3  502    0  0.99407832105E+02 -0.99582585583E+02  0.97651278320E+03  0.98659810672E+03  0.25500000920E-02 0. -1.
       -2    1    3    3    0  502 -0.99407832105E+02  0.99582585583E+02 -0.58535108442E+02  0.15239739946E+03  0.25500000920E-02 0.  1.
</event>
<event>
 5   0  0.1119786E-02  0.6916295E+03  0.7818609E-02  0.9731655E-01
       -2   -1    0    0    0  501  0.00000000000E+00  0.00000000000E+00  0.25149543962E+03  0.25149543964E+03  0.25500000920E-02 0.  1.
        2   -1    0    0  501    0  0.00000000000E+00  0.00000000000E+00 -0.47550699551E+03  0.47550699552E+03  0.25500000920E-02 0. -1.
    10030    2    1    2    0    0  0.00000000000E+00  0.00000000000E+00 -0.22401155589E+03  0.72700243516E+03  0.69162949876E+03 0.  0.
        3    1    3    3  502    0 -0.22435519108E+03 -0.13129080632E+03 -0.35173883537E+03  0.43737026202E+03  0.10100000352E+00 0. -1.
       -3    1    3    3    0  502  0.22435519108E+03  0.13129080632E+03  0.12772727948E+03  0.28963217314E+03  0.10100000352E+00 0.  1.
</event>
<event>
 5   0  0.6609285E-03  0.6915369E+03  0.7818609E-02  0.9731816E-01
        1   -1    0    0  501    0  0.00000000000E+00  0.00000000000E+00  0.38622568384E+03  0.38622568387E+03  0.50400001928E-02 0. -1.
       -1   -1    0    0    0  501  0.00000000000E+00  0.00000000000E+00 -0.30954915636E+03  0.30954915640E+03  0.50400001928E-02 0.  1.
    10030    2    1    2    0    0  0.00000000000E+00  0.00000000000E+00  0.76676527486E+02  0.69577484027E+03  0.69153693935E+03 0.  0.
        2    1    3    3  502    0  0.67964919015E+02  0.26525196733E+03  0.25076717249E+03  0.37129773928E+03  0.25500000920E-02 0. -1.
       -2    1    3    3    0  502 -0.67964919015E+02 -0.26525196733E+03 -0.17409064500E+03  0.32447710100E+03  0.25500000920E-02 0.  1.
</event>
<event>
 5   0  0.1109788E-02  0.7002073E+03  0.7818609E-02  0.9716878E-01
       -2   -1    0    0    0  501  0.00000000000E+00  0.00000000000E+00  0.51413437003E+02  0.51413437066E+02  0.25500000920E-02 0.  1.
        2   -1    0    0  501    0  0.00000000000E+00  0.00000000000E+00 -0.23840568430E+04  0.23840568430E+04  0.25500000920E-02 0. -1.
    10030    2    1    2    0    0  0.00000000000E+00  0.00000000000E+00 -0.23326434060E+04  0.24354702800E+04  0.70020727327E+03 0.  0.
        1    1    3    3  502    0  0.16442679479E+03 -0.30593679581E+03 -0.10131593187E+04  0.10710393545E+04  0.50400001928E-02 0.  1.
       -1    1    3    3    0  502 -0.16442679479E+03  0.30593679581E+03 -0.13194840873E+04  0.13644309255E+04  0.50400001928E-02 0. -1.
</event>
<event>
 5   0  0.6689415E-03  0.6992499E+03  0.7818609E-02  0.9718516E-01
        1   -1    0    0  501    0  0.00000000000E+00  0.00000000000E+00  0.82536029287E+03  0.82536029289E+03  0.50400001928E-02 0.  1.
       -1   -1    0    0    0  501  0.00000000000E+00  0.00000000000E+00 -0.14810213638E+03  0.14810213646E+03  0.50400001928E-02 0. -1.
    10030    2    1    2    0    0  0.00000000000E+00  0.00000000000E+00  0.67725815650E+03  0.97346242935E+03  0.69924994874E+03 0.  0.
        1    1    3    3  502    0  0.18276258084E+03 -0.97378650023E+02  0.73079336762E+03  0.75956810663E+03  0.50400001928E-02 0.  1.
       -1    1    3    3    0  502 -0.18276258084E+03  0.97378650023E+02 -0.53535211121E+02  0.21389432272E+03  0.50400001928E-02 0. -1.
</event>
<event>
 5   0  0.6785252E-03  0.6991337E+03  0.7818609E-02  0.9718715E-01
       -1   -1    0    0    0  501  0.00000000000E+00  0.00000000000E+00  0.81858117484E+02  0.81858117640E+02  0.50400001928E-02 0. -1.
        1   -1    0    0  501    0  0.00000000000E+00  0.00000000000E+00 -0.14927901386E+04  0.14927901386E+04  0.50400001928E-02 0.  1.
    10030    2    1    2    0    0  0.00000000000E+00  0.00000000000E+00 -0.14109320211E+04  0.15746482563E+04  0.69913372305E+03 0.  0.
        3    1    3    3  502    0  0.24159442387E+03 -0.61912956786E+02 -0.15379000658E+03  0.29300589787E+03  0.10100000352E+00 0. -1.
       -3    1    3    3    0  502 -0.24159442387E+03  0.61912956786E+02 -0.12571420146E+04  0.12816423584E+04  0.10100000352E+00 0.  1.
</event>
<event>
 5   0  0.6609285E-03  0.6956675E+03  0.7818609E-02  0.9724670E-01
       -1   -1    0    0    0  501  0.00000000000E+00  0.00000000000E+00  0.86542465261E+03  0.86542465263E+03  0.50400001928E-02 0. -1.
        1   -1    0    0  501    0  0.00000000000E+00  0.00000000000E+00 -0.13980224085E+03  0.13980224094E+03  0.50400001928E-02 0.  1.
    10030    2    1    2    0    0  0.00000000000E+00  0.00000000000E+00  0.72562241176E+03  0.10052268936E+04  0.69566746588E+03 0.  0.
        2    1    3    3  502    0 -0.25674322682E+03 -0.23396932297E+02  0.25403122441E+02  0.25905563031E+03  0.25500000920E-02 0.  1.
       -2    1    3    3    0  502  0.25674322682E+03  0.23396932297E+02  0.70021928932E+03  0.74617126325E+03  0.25500000920E-02 0. -1.
</event>
<event>
 5   0  0.1100119E-02  0.6990142E+03  0.7818609E-02  0.9718920E-01
       -2   -1    0    0    0  501  0.00000000000E+00  0.00000000000E+00  0.75317817153E+02  0.75317817196E+02  0.25500000920E-02 0.  1.
        2   -1    0    0  501    0  0.00000000000E+00  0.00000000000E+00 -0.16218633081E+04  0.16218633081E+04  0.25500000920E-02 0. -1.
    10030    2    1    2    0    0  0.00000000000E+00  0.00000000000E+00 -0.15465454910E+04  0.16971811253E+04  0.69901417475E+03 0.  0.
        4    1    3    3  502    0  0.13189805629E+03 -0.23359990412E+03 -0.13171993892E+04  0.13442402524E+04  0.12699999809E+01 0. -1.
       -4    1    3    3    0  502 -0.13189805629E+03  0.23359990412E+03 -0.22934610179E+03  0.35294087290E+03  0.12699999809E+01 0.  1.
</event>
<event>
 5   0  0.6785252E-03  0.6632316E+03  0.7818609E-02  0.9782263E-01
        1   -1    0    0  501    0  0.00000000000E+00  0.00000000000E+00  0.59649213423E+03  0.59649213425E+03  0.50400001928E-02 0.  1.
       -1   -1    0    0    0  501  0.00000000000E+00  0.00000000000E+00 -0.18435955449E+03  0.18435955456E+03  0.50400001928E-02 0. -1.
    10030    2    1    2    0    0  0.00000000000E+00  0.00000000000E+00  0.41213257974E+03  0.78085168881E+03  0.66323155581E+03 0.  0.
        3    1    3    3  502    0 -0.16937831480E+03 -0.21775254882E+03 -0.10590047441E+02  0.27607489083E+03  0.10100000352E+00 0. -1.
       -3    1    3    3    0  502  0.16937831480E+03  0.21775254882E+03  0.42272262718E+03  0.50477679798E+03  0.10100000352E+00 0.  1.
</event>
<event>
 5   0  0.1099980E-02  0.7013889E+03  0.7818609E-02  0.9714860E-01
       -2   -1    0    0    0  501  0.00000000000E+00  0.00000000000E+00  0.29833948493E+03  0.29833948494E+03  0.25500000920E-02 0. -1.
        2   -1    0    0  501    0  0.00000000000E+00  0.00000000000E+00 -0.41223712476E+03  0.41223712476E+03  0.25500000920E-02 0.  1.
    10030    2    1    2    0    0  0.00000000000E+00  0.00000000000E+00 -0.11389763983E+03  0.71057660970E+03  0.70138894053E+03 0.  0.
        5    1    3    3  502    0  0.11230723803E+03 -0.32080779383E+03  0.30401048524E+02  0.34128707864E+03  0.46999998093E+01 0. -1.
       -5    1    3    3    0  502 -0.11230723803E+03  0.32080779383E+03 -0.14429868835E+03  0.36928953106E+03  0.46999998093E+01 0.  1.
</event>
<event>
 5   0  0.6785252E-03  0.7003518E+03  0.7818609E-02  0.9716631E-01
       -1   -1    0    0    0  501  0.00000000000E+00  0.00000000000E+00  0.25332806871E+03  0.25332806876E+03  0.50400001928E-02 0. -1.
        1   -1    0    0  501    0  0.00000000000E+00  0.00000000000E+00 -0.48404887418E+03  0.48404887421E+03  0.50400001928E-02 0.  1.
    10030    2    1    2    0    0  0.00000000000E+00  0.00000000000E+00 -0.23072080547E+03  0.73737694297E+03  0.70035181583E+03 0.  0.
        3    1    3    3  502    0 -0.25199409660E+03  0.20674927825E+03  0.19377167787E+02  0.32652989696E+03  0.10100000352E+00 0. -1.
       -3    1    3    3    0  502  0.25199409660E+03 -0.20674927825E+03 -0.25009797326E+03  0.41084704600E+03  0.10100000352E+00 0.  1.
</event>
<event>
 5   0  0.1109788E-02  0.7046949E+03  0.7818609E-02  0.9709237E-01
        2   -1    0    0  501    0  0.00000000000E+00  0.00000000000E+00  0.23571253180E+03  0.23571253181E+03  0.25500000920E-02 0.  1.
       -2   -1    0    0    0  501  0.00000000000E+00  0.00000000000E+00 -0.52669546194E+03  0.52669546194E+03  0.25500000920E-02 0. -1.
    10030    2    1    2    0    0  0.00000000000E+00  0.00000000000E+00 -0.29098293014E+03  0.76240799375E+03  0.70469488668E+03 0.  0.
        1    1    3    3  502    0  0.24170125898E+03 -0.22074863537E+02  0.13085231651E+03  0.27573379726E+03  0.50400001928E-02 0.  1.
       -1    1    3    3    0  502 -0.24170125898E+03  0.22074863537E+02 -0.42183524665E+03  0.48667419649E+03  0.50400001928E-02 0. -1.
</event>
<event>
 5   0  0.6785252E-03  0.6955196E+03  0.7818609E-02  0.9724925E-01
       -1   -1    0    0    0  501  0.00000000000E+00  0.00000000000E+00  0.10236858385E+03  0.10236858398E+03  0.50400001928E-02 0.  1.
        1   -1    0    0  501    0  0.00000000000E+00  0.00000000000E+00 -0.11813867681E+04  0.11813867681E+04  0.50400001928E-02 0. -1.
    10030    2    1    2    0    0  0.00000000000E+00  0.00000000000E+00 -0.10790181843E+04  0.12837553521E+04  0.69551963458E+03 0.  0.
        3    1    3    3  502    0  0.16324752814E+03  0.11050843428E+02  0.26883593864E+02  0.16581500054E+03  0.10100000352E+00 0.  1.
       -3    1    3    3    0  502 -0.16324752814E+03 -0.11050843428E+02 -0.11059017781E+04  0.11179403516E+04  0.10100000352E+00 0. -1.
</event>
<event>
 5   0  0.1099980E-02  0.7006456E+03  0.7818609E-02  0.9716129E-01
       -2   -1    0    0    0  501  0.00000000000E+00  0.00000000000E+00  0.18684950010E+03  0.18684950012E+03  0.25500000920E-02 0.  1.
        2   -1    0    0  501    0  0.00000000000E+00  0.00000000000E+00 -0.65681776650E+03  0.65681776650E+03  0.25500000920E-02 0. -1.
    10030    2    1    2    0    0  0.00000000000E+00  0.00000000000E+00 -0.46996826639E+03  0.84366726662E+03  0.70064562038E+03 0.  0.
        5    1    3    3  502    0  0.46085285532E+02  0.27571003819E+03  0.19209910873E+02  0.28023381198E+03  0.46999998093E+01 0.  1.
       -5    1    3    3    0  502 -0.46085285532E+02 -0.27571003819E+03 -0.48917817726E+03  0.56343345464E+03  0.46999998093E+01 0. -1.
</event>
<event>
 5   0  0.1119786E-02  0.7008873E+03  0.7818609E-02  0.9715716E-01
        2   -1    0    0  501    0  0.00000000000E+00  0.00000000000E+00  0.88805558327E+03  0.88805558327E+03  0.25500000920E-02 0. -1.
       -2   -1    0    0    0  501  0.00000000000E+00  0.00000000000E+00 -0.13829174771E+03  0.13829174773E+03  0.25500000920E-02 0.  1.
    10030    2    1    2    0    0  0.00000000000E+00  0.00000000000E+00  0.74976383556E+03  0.10263473310E+04  0.70088731957E+03 0.  0.
        3    1    3    3  502    0  0.20885913839E+02 -0.33734573453E+03  0.23930151350E+03  0.41412991991E+03  0.10100000352E+00 0. -1.
       -3    1    3    3    0  502 -0.20885913839E+02  0.33734573453E+03  0.51046232206E+03  0.61221741109E+03  0.10100000352E+00 0.  1.
</event>
<event>
 5   0  0.4440500E-03  0.6952545E+03  0.7818609E-02  0.9725382E-01
        3   -1    0    0  501    0  0.00000000000E+00  0.00000000000E+00  0.69105303375E+03  0.69105304113E+03  0.10100000352E+00 0. -1.
       -3   -1    0    0    0  501  0.00000000000E+00  0.00000000000E+00 -0.17487033817E+03  0.17487036734E+03  0.10100000352E+00 0.  1.
    10030    2    1    2    0    0  0.00000000000E+00  0.00000000000E+00  0.51618269558E+03  0.86592340847E+03  0.69525446717E+03 0.  0.
        4    1    3    3  502    0 -0.27377983689E+03  0.32524805915E+02  0.52179684463E+03  0.59015830253E+03  0.12699999809E+01 0. -1.
       -4    1    3    3    0  502  0.27377983689E+03 -0.32524805915E+02 -0.56141490419E+01  0.27576510594E+03  0.12699999809E+01 0.  1.
</event>
<event>
 5   0  0.1119786E-02  0.6892824E+03  0.7818609E-02  0.9735738E-01
        2   -1    0    0  501    0  0.00000000000E+00  0.00000000000E+00  0.67655860615E+03  0.67655860615E+03  0.25500000920E-02 0.  1.
       -2   -1    0    0    0  501  0.00000000000E+00  0.00000000000E+00 -0.17556139468E+03  0.17556139470E+03  0.25500000920E-02 0. -1.
    10030    2    1    2    0    0  0.00000000000E+00  0.00000000000E+00  0.50099721147E+03  0.85212000085E+03  0.68928244569E+03 0.  0.
        3    1    3    3  502    0 -0.12696544141E+03 -0.10655260193E+03  0.62404810826E+03  0.64568547445E+03  0.10100000352E+00 0.  1.
       -3    1    3    3    0  502  0.12696544141E+03  0.10655260193E+03 -0.12305089679E+03  0.20643452640E+03  0.10100000352E+00 0. -1.
</event>
<event>
 5   0  0.6246998E-03  0.6854405E+03  0.7818609E-02  0.9742460E-01
        1   -1    0    0  501    0  0.00000000000E+00  0.00000000000E+00  0.34712989448E+03  0.34712989452E+03  0.50400001928E-02 0. -1.
       -1   -1    0    0    0  501  0.00000000000E+00  0.00000000000E+00 -0.33836659737E+03  0.33836659741E+03  0.50400001928E-02 0.  1.
    10030    2    1    2    0    0  0.00000000000E+00  0.00000000000E+00  0.87632971088E+01  0.68549649192E+03  0.68544047521E+03 0.  0.
        4    1    3    3  502    0 -0.32967468240E+03  0.86304743704E+02  0.40739032843E+02  0.34321303399E+03  0.12699999809E+01 0. -1.
       -4    1    3    3    0  502  0.32967468240E+03 -0.86304743704E+02 -0.31975735735E+02  0.34228345794E+03  0.12699999809E+01 0.  1.
</event>
<event>
 5   0  0.6246998E-03  0.7008562E+03  0.7818609E-02  0.9715769E-01
       -1   -1    0    0    0  501  0.00000000000E+00  0.00000000000E+00  0.13357222683E+04  0.13357222683E+04  0.50400001928E-02 0.  1.
        1   -1    0    0  501    0  0.00000000000E+00  0.00000000000E+00 -0.91935178265E+02  0.91935178403E+02  0.50400001928E-02 0. -1.
    10030    2    1    2    0    0  0.00000000000E+00  0.00000000000E+00  0.12437870901E+04  0.14276574467E+04  0.70085623335E+03 0.  0.
        4    1    3    3  502    0  0.52269765809E+02  0.25208099083E+03  0.13760841198E+03  0.29191547116E+03  0.12699999809E+01 0. -1.
       -4    1    3    3    0  502 -0.52269765809E+02 -0.25208099083E+03  0.11061786781E+04  0.11357419756E+04  0.12699999809E+01 0.  1.
</event>
<event>
 5   0  0.6689415E-03  0.6946396E+03  0.7818609E-02  0.9726443E-01
       -1   -1    0    0    0  501  0.00000000000E+00  0.00000000000E+00  0.52204286521E+03  0.52204286524E+03  0.50400001928E-02 0. -1.
        1   -1    0    0  501    0  0.00000000000E+00  0.00000000000E+00 -0.23107494846E+03  0.23107494852E+03  0.50400001928E-02 0.  1.
    10030    2    1    2    0    0  0.00000000000E+00  0.00000000000E+00  0.29096791675E+03  0.75311781376E+03  0.69463955604E+03 0.  0.
        1    1    3    3  502    0 -0.59634255355E+02 -0.14364007727E+03 -0.19121146742E+03  0.24647624938E+03  0.50400001928E-02 0.  1.
       -1    1    3    3    0  502  0.59634255355E+02  0.14364007727E+03  0.48217938417E+03  0.50664156438E+03  0.50400001928E-02 0. -1.
</event>
<event>
 5   0  0.6990118E-03  0.6988701E+03  0.7818609E-02  0.9719166E-01
       -1   -1    0    0    0  501  0.00000000000E+00  0.00000000000E+00  0.97682424063E+02  0.97682424193E+02  0.50400001928E-02 0.  1.
        1   -1    0    0  501    0  0.00000000000E+00  0.00000000000E+00 -0.12500186995E+04  0.12500186995E+04  0.50400001928E-02 0. -1.
    10030    2    1    2    0    0  0.00000000000E+00  0.00000000000E+00 -0.11523362754E+04  0.13477011237E+04  0.69887010748E+03 0.  0.
        5    1    3    3  502    0 -0.97487042149E+02 -0.22851689908E+03 -0.10239722217E+03  0.26875821413E+03  0.46999998093E+01 0.  1.
       -5    1    3    3    0  502  0.97487042149E+02  0.22851689908E+03 -0.10499390532E+04  0.10789429095E+04  0.46999998093E+01 0. -1.
</event>
<event>
 5   0  0.6785252E-03  0.7005063E+03  0.7818609E-02  0.9716367E-01
        1   -1    0    0  501    0  0.00000000000E+00  0.00000000000E+00  0.43056815204E+03  0.43056815207E+03  0.50400001928E-02 0. -1.
       -1   -1    0    0    0  501  0.00000000000E+00  0.00000000000E+00 -0.28491948938E+03  0.28491948942E+03  0.50400001928E-02 0.  1.
    10030    2    1    2    0    0  0.00000000000E+00  0.00000000000E+00  0.14564866267E+03  0.71548764149E+03  0.70050626849E+03 0.  0.
        3    1    3    3  502    0  0.25371705389E+03  0.19910596742E+03 -0.66705131973E+02  0.32934042346E+03  0.10100000352E+00 0.  1.
       -3    1    3    3    0  502 -0.25371705389E+03 -0.19910596742E+03  0.21235379464E+03  0.38614721803E+03  0.10100000352E+00 0. -1.
</event>
<event>
 5   0  0.6609285E-03  0.7067166E+03  0.7818609E-02  0.9705814E-01
        1   -1    0    0  501    0  0.00000000000E+00  0.00000000000E+00  0.28618566269E+03  0.28618566273E+03  0.50400001928E-02 0. -1.
       -1   -1    0    0    0  501  0.00000000000E+00  0.00000000000E+00 -0.43629744380E+03  0.43629744382E+03  0.50400001928E-02 0.  1.
    10030    2    1    2    0    0  0.00000000000E+00  0.00000000000E+00 -0.15011178111E+03  0.72248310656E+03  0.70671655735E+03 0.  0.
        2    1    3    3  502    0 -0.71469569386E+02 -0.34184412746E+03 -0.20033537635E+02  0.34980944736E+03  0.25500000920E-02 0.  1.
       -2    1    3    3    0  502  0.71469569386E+02  0.34184412746E+03 -0.13007824347E+03  0.37267365920E+03  0.25500000920E-02 0. -1.
</event>
<event>
 5   0  0.4440500E-03  0.7016993E+03  0.7818609E-02  0.9714331E-01
       -4   -1    0    0    0  501  0.00000000000E+00  0.00000000000E+00  0.19780209812E+03  0.19780617513E+03  0.12699999809E+01 0. -1.
        4   -1    0    0  501    0  0.00000000000E+00  0.00000000000E+00 -0.62230522534E+03  0.62230652125E+03  0.12699999809E+01 0.  1.
    10030    2    1    2    0    0  0.00000000000E+00  0.00000000000E+00 -0.42450312723E+03  0.82011269638E+03  0.70169931576E+03 0.  0.
        5    1    3    3  502    0  0.30135050827E+03  0.46895620342E+02 -0.41489469260E+03  0.51494759344E+03  0.46999998093E+01 0.  1.
       -5    1    3    3    0  502 -0.30135050827E+03 -0.46895620342E+02 -0.96084346209E+01  0.30516510294E+03  0.46999998093E+01 0. -1.
</event>
<event>
 5   0  0.1079446E-02  0.7000493E+03  0.7818609E-02  0.9717148E-01
       -2   -1    0    0    0  501  0.00000000000E+00  0.00000000000E+00  0.11571626688E+03  0.11571626691E+03  0.25500000920E-02 0.  1.
        2   -1    0    0  501    0  0.00000000000E+00  0.00000000000E+00 -0.10587729682E+04  0.10587729682E+04  0.25500000920E-02 0. -1.
    10030    2    1    2    0    0  0.00000000000E+00  0.00000000000E+00 -0.94305670135E+03  0.11744892352E+04  0.70004929935E+03 0.  0.
        2    1    3    3  502    0  0.19601584372E+03  0.49109160001E+02 -0.95102673179E+03  0.97225807539E+03  0.25500000920E-02 0. -1.
       -2    1    3    3    0  502 -0.19601584372E+03 -0.49109160001E+02  0.79700304363E+01  0.20223115976E+03  0.25500000920E-02 0.  1.
</event>
<event>
 5   0  0.6785252E-03  0.7002819E+03  0.7818609E-02  0.9716750E-01
       -1   -1    0    0    0  501  0.00000000000E+00  0.00000000000E+00  0.10405241519E+03  0.10405241531E+03  0.50400001928E-02 0.  1.
        1   -1    0    0  501    0  0.00000000000E+00  0.00000000000E+00 -0.11782396106E+04  0.11782396107E+04  0.50400001928E-02 0. -1.
    10030    2    1    2    0    0  0.00000000000E+00  0.00000000000E+00 -0.10741871955E+04  0.12822920260E+04  0.70028187822E+03 0.  0.
        3    1    3    3  502    0  0.12581963971E+03 -0.21779699103E+03 -0.91067179735E+02  0.26750579894E+03  0.10100000352E+00 0.  1.
       -3    1    3    3    0  502 -0.12581963971E+03  0.21779699103E+03 -0.98312001572E+03  0.10147862270E+04  0.10100000352E+00 0. -1.
</event>
<event>
 5   0  0.6689415E-03  0.7000633E+03  0.7818609E-02  0.9717124E-01
       -1   -1    0    0    0  501  0.00000000000E+00  0.00000000000E+00  0.28812375294E+03  0.28812375298E+03  0.50400001928E-02 0. -1.
        1   -1    0    0  501    0  0.00000000000E+00  0.00000000000E+00 -0.42524144365E+03  0.42524144368E+03  0.50400001928E-02 0.  1.
    10030    2    1    2    0    0  0.00000000000E+00  0.00000000000E+00 -0.13711769071E+03  0.71336519667E+03  0.70006331336E+03 0.  0.
        1    1    3    3  502    0 -0.92840662408E+02  0.20125620634E+03 -0.34462859164E+03  0.40974664780E+03  0.50400001928E-02 0.  1.
       -1    1    3    3    0  502  0.92840662408E+02 -0.20125620634E+03  0.20751090092E+03  0.30361854886E+03  0.50400001928E-02 0. -1.
</event>
<event>
 5   0  0.1079446E-02  0.7038665E+03  0.7818609E-02  0.9710643E-01
        2   -1    0    0  501    0  0.00000000000E+00  0.00000000000E+00  0.14543807723E+04  0.14543807723E+04  0.25500000920E-02 0.  1.
       -2   -1    0    0    0  501  0.00000000000E+00  0.00000000000E+00 -0.85161347149E+02  0.85161347187E+02  0.25500000920E-02 0. -1.
    10030    2    1    2    0    0  0.00000000000E+00  0.00000000000E+00  0.13692194252E+04  0.15395421195E+04  0.70386653812E+03 0.  0.
        2    1    3    3  502    0 -0.30823083876E+03 -0.12038490710E+03  0.94670065462E+03  0.10028663447E+04  0.25500000920E-02 0.  1.
       -2    1    3    3    0  502  0.30823083876E+03  0.12038490710E+03  0.42251877056E+03  0.53667577484E+03  0.25500000920E-02 0. -1.
</event>
<event>
 5   0  0.6609285E-03  0.6848327E+03  0.7818609E-02  0.9743528E-01
        1   -1    0    0  501    0  0.00000000000E+00  0.00000000000E+00  0.13657442693E+04  0.13657442693E+04  0.50400001928E-02 0. -1.
       -1   -1    0    0    0  501  0.00000000000E+00  0.00000000000E+00 -0.85849851047E+02  0.85849851195E+02  0.50400001928E-02 0.  1.
    10030    2    1    2    0    0  0.00000000000E+00  0.00000000000E+00  0.12798944183E+04  0.14515941205E+04  0.68483265753E+03 0.  0.
        2    1    3    3  502    0  0.16057042024E+03 -0.10373156890E+03  0.12421090488E+04  0.12567330613E+04  0.25500000920E-02 0. -1.
       -2    1    3    3    0  502 -0.16057042024E+03  0.10373156890E+03  0.37785369449E+02  0.19486105920E+03  0.25500000920E-02 0.  1.
</event>
<event>
 5   0  0.6785252E-03  0.6990734E+03  0.7818609E-02  0.9718818E-01
       -1   -1    0    0    0  501  0.00000000000E+00  0.00000000000E+00  0.96168583846E+02  0.96168583978E+02  0.50400001928E-02 0. -1.
        1   -1    0    0  501    0  0.00000000000E+00  0.00000000000E+00 -0.12704347455E+04  0.12704347455E+04  0.50400001928E-02 0.  1.
    10030    2    1    2    0    0  0.00000000000E+00  0.00000000000E+00 -0.11742661616E+04  0.13666033295E+04  0.69907341657E+03 0.  0.
        3    1    3    3  502    0 -0.26118449541E+00  0.33986795972E+03 -0.74673546525E+03  0.82044144430E+03  0.10100000352E+00 0. -1.
       -3    1    3    3    0  502  0.26118449541E+00 -0.33986795972E+03 -0.42753069637E+03  0.54616188516E+03  0.10100000352E+00 0.  1.
</event>
<event>
 5   0  0.1109788E-02  0.6980153E+03  0.7818609E-02  0.9720632E-01
       -2   -1    0    0    0  501  0.00000000000E+00  0.00000000000E+00  0.18351844124E+03  0.18351844126E+03  0.25500000920E-02 0.  1.
        2   -1    0    0  501    0  0.00000000000E+00  0.00000000000E+00 -0.66372798031E+03  0.66372798031E+03  0.25500000920E-02 0. -1.
    10030    2    1    2    0    0  0.00000000000E+00  0.00000000000E+00 -0.48020953906E+03  0.84724642158E+03  0.69801525590E+03 0.  0.
        1    1    3    3  502    0 -0.20646329958E+03 -0.48633618339E+02 -0.57651176879E+03  0.61429483351E+03  0.50400001928E-02 0. -1.
       -1    1    3    3    0  502  0.20646329958E+03  0.48633618339E+02  0.96302229724E+02  0.23295158806E+03  0.50400001928E-02 0.  1.
</event>
<event>
 5   0  0.1079446E-02  0.6953753E+03  0.7818609E-02  0.9725174E-01
       -2   -1    0    0    0  501  0.00000000000E+00  0.00000000000E+00  0.54088089023E+03  0.54088089023E+03  0.25500000920E-02 0. -1.
        2   -1    0    0  501    0  0.00000000000E+00  0.00000000000E+00 -0.22349969827E+03  0.22349969829E+03  0.25500000920E-02 0.  1.
    10030    2    1    2    0    0  0.00000000000E+00  0.00000000000E+00  0.31738119195E+03  0.76438058852E+03  0.69537533973E+03 0.  0.
        2    1    3    3  502    0  0.28197769152E+03 -0.15490217519E+03  0.30360879025E+03  0.44236229487E+03  0.25500000920E-02 0. -1.
       -2    1    3    3    0  502 -0.28197769152E+03  0.15490217519E+03  0.13772401700E+02  0.32201829365E+03  0.25500000920E-02 0.  1.
</event>
<event>
 5   0  0.1100119E-02  0.6993946E+03  0.7818609E-02  0.9718268E-01
        2   -1    0    0  501    0  0.00000000000E+00  0.00000000000E+00  0.12464178329E+04  0.12464178329E+04  0.25500000920E-02 0.  1.
       -2   -1    0    0    0  501  0.00000000000E+00  0.00000000000E+00 -0.98111724911E+02  0.98111724944E+02  0.25500000920E-02 0. -1.
    10030    2    1    2    0    0  0.00000000000E+00  0.00000000000E+00  0.11483061080E+04  0.13445295578E+04  0.69939460555E+03 0.  0.
        4    1    3    3  502    0  0.30666133100E+03 -0.24493302550E+02  0.89379243118E+03  0.94525531828E+03  0.12699999809E+01 0.  1.
       -4    1    3    3    0  502 -0.30666133100E+03  0.24493302550E+02  0.25451367680E+03  0.39927423956E+03  0.12699999809E+01 0. -1.
</event>
<event>
 5   0  0.1099980E-02  0.6997919E+03  0.7818609E-02  0.9717588E-01
       -2   -1    0    0    0  501  0.00000000000E+00  0.00000000000E+00  0.16969269270E+03  0.16969269272E+03  0.25500000920E-02 0. -1.
        2   -1    0    0  501    0  0.00000000000E+00  0.00000000000E+00 -0.72146404328E+03  0.72146404329E+03  0.25500000920E-02 0.  1.
    10030    2    1    2    0    0  0.00000000000E+00  0.00000000000E+00 -0.55177135058E+03  0.89115673601E+03  0.69979190108E+03 0.  0.
        5    1    3    3  502    0  0.85350848449E+02  0.40575556833E+02  0.15309058156E+03  0.17997210702E+03  0.46999998093E+01 0. -1.
       -5    1    3    3    0  502 -0.85350848449E+02 -0.40575556833E+02 -0.70486193214E+03  0.71118462900E+03  0.46999998093E+01 0.  1.
</event>
<event>
 5   0  0.1100119E-02  0.7347874E+03  0.7818609E-02  0.9659523E-01
       -2   -1    0    0    0  501  0.00000000000E+00  0.00000000000E+00  0.11268300851E+03  0.11268300854E+03  0.25500000920E-02 0.  1.
        2   -1    0    0  501    0  0.00000000000E+00  0.00000000000E+00 -0.11978569674E+04  0.11978569674E+04  0.25500000920E-02 0. -1.
    10030    2    1    2    0    0  0.00000000000E+00  0.00000000000E+00 -0.10851739589E+04  0.13105399759E+04  0.73478738930E+03 0.  0.
        4    1    3    3  502    0 -0.71551891232E+02  0.31375305639E+03 -0.85871504820E+03  0.91703533217E+03  0.12699999809E+01 0. -1.
       -4    1    3    3    0  502  0.71551891232E+02 -0.31375305639E+03 -0.22645891067E+03  0.39350464376E+03  0.12699999809E+01 0.  1.
</event>
<event>
 5   0  0.1109788E-02  0.7005150E+03  0.7818609E-02  0.9716352E-01
       -2   -1    0    0    0  501  0.00000000000E+00  0.00000000000E+00  0.10258002929E+03  0.10258002932E+03  0.25500000920E-02 0. -1.
        2   -1    0    0  501    0  0.00000000000E+00  0.00000000000E+00 -0.11959474086E+04  0.11959474086E+04  0.25500000920E-02 0.  1.
    10030    2    1    2    0    0  0.00000000000E+00  0.00000000000E+00 -0.10933673793E+04  0.12985274379E+04  0.70051501118E+03 0.  0.
        1    1    3    3  502    0  0.17149778201E+03  0.13377285922E+02  0.18884426175E+02  0.17305219615E+03  0.50400001928E-02 0. -1.
       -1    1    3    3    0  502 -0.17149778201E+03 -0.13377285922E+02 -0.11122518055E+04  0.11254752418E+04  0.50400001928E-02 0.  1.
</event>
<event>
 5   0  0.6609285E-03  0.7008586E+03  0.7818609E-02  0.9715765E-01
       -1   -1    0    0    0  501  0.00000000000E+00  0.00000000000E+00  0.41110116095E+03  0.41110116098E+03  0.50400001928E-02 0. -1.
        1   -1    0    0  501    0  0.00000000000E+00  0.00000000000E+00 -0.29871165235E+03  0.29871165239E+03  0.50400001928E-02 0.  1.
    10030    2    1    2    0    0  0.00000000000E+00  0.00000000000E+00  0.11238950860E+03  0.70981281337E+03  0.70085863652E+03 0.  0.
        2    1    3    3  502    0  0.80451598992E+02 -0.22923931173E+02  0.40084042259E+03  0.40947650822E+03  0.25500000920E-02 0. -1.
       -2    1    3    3    0  502 -0.80451598992E+02  0.22923931173E+02 -0.28845091399E+03  0.30033630515E+03  0.25500000920E-02 0.  1.
</event>
<event>
 5   0  0.1079446E-02  0.7016693E+03  0.7818609E-02  0.9714382E-01
        2   -1    0    0  501    0  0.00000000000E+00  0.00000000000E+00  0.17377168621E+03  0.17377168623E+03  0.25500000920E-02 0. -1.
       -2   -1    0    0    0  501  0.00000000000E+00  0.00000000000E+00 -0.70831410117E+03  0.70831410118E+03  0.25500000920E-02 0.  1.
    10030    2    1    2    0    0  0.00000000000E+00  0.00000000000E+00 -0.53454241497E+03  0.88208578741E+03  0.70166925467E+03 0.  0.
        2    1    3    3  502    0  0.92683128516E+02 -0.26172024433E+03  0.23440631392E+01  0.27765652026E+03  0.25500000920E-02 0. -1.
       -2    1    3    3    0  502 -0.92683128516E+02  0.26172024433E+03 -0.53688647811E+03  0.60442926715E+03  0.25500000920E-02 0.  1.
</event>
<event>
 5   0  0.1119786E-02  0.7043866E+03  0.7818609E-02  0.9709760E-01
        2   -1    0    0  501    0  0.00000000000E+00  0.00000000000E+00  0.12724871154E+04  0.12724871154E+04  0.25500000920E-02 0.  1.
       -2   -1    0    0    0  501  0.00000000000E+00  0.00000000000E+00 -0.97478481062E+02  0.97478481096E+02  0.25500000920E-02 0. -1.
    10030    2    1    2    0    0  0.00000000000E+00  0.00000000000E+00  0.11750086344E+04  0.13699655965E+04  0.70438657343E+03 0.  0.
        3    1    3    3  502    0 -0.29575134649E+03 -0.16960863792E+03  0.75931946558E+03  0.83234728931E+03  0.10100000352E+00 0.  1.
       -3    1    3    3    0  502  0.29575134649E+03  0.16960863792E+03  0.41568916878E+03  0.53761830721E+03  0.10100000352E+00 0. -1.
</event>
<event>
 5   0  0.1099980E-02  0.7021116E+03  0.7818609E-02  0.9713628E-01
       -2   -1    0    0    0  501  0.00000000000E+00  0.00000000000E+00  0.25579413049E+03  0.25579413050E+03  0.25500000920E-02 0. -1.
        2   -1    0    0  501    0  0.00000000000E+00  0.00000000000E+00 -0.48179431592E+03  0.48179431593E+03  0.25500000920E-02 0.  1.
    10030    2    1    2    0    0  0.00000000000E+00  0.00000000000E+00 -0.22600018544E+03  0.73758844643E+03  0.70211155274E+03 0.  0.
        5    1    3    3  502    0  0.30634555392E+03 -0.14993325476E+03 -0.20020340934E+03  0.39551368421E+03  0.46999998093E+01 0. -1.
       -5    1    3    3    0  502 -0.30634555392E+03  0.14993325476E+03 -0.25796776099E+02  0.34207476222E+03  0.46999998093E+01 0.  1.
</event>
<event>
 5   0  0.1109788E-02  0.6993368E+03  0.7818609E-02  0.9718367E-01
       -2   -1    0    0    0  501  0.00000000000E+00  0.00000000000E+00  0.11305318896E+03  0.11305318899E+03  0.25500000920E-02 0. -1.
        2   -1    0    0  501    0  0.00000000000E+00  0.00000000000E+00 -0.10815084575E+04  0.10815084575E+04  0.25500000920E-02 0.  1.
    10030    2    1    2    0    0  0.00000000000E+00  0.00000000000E+00 -0.96845526850E+03  0.11945616465E+04  0.69933677158E+03 0.  0.
        1    1    3    3  502    0  0.20092098057E+03 -0.26181436077E+03 -0.68160395085E+03  0.75729779200E+03  0.50400001928E-02 0. -1.
       -1    1    3    3    0  502 -0.20092098057E+03  0.26181436077E+03 -0.28685131766E+03  0.43726385445E+03  0.50400001928E-02 0.  1.
</event>
<event>
 5   0  0.6689415E-03  0.6957341E+03  0.7818609E-02  0.9724555E-01
        1   -1    0    0  501    0  0.00000000000E+00  0.00000000000E+00  0.41020951535E+03  0.41020951539E+03  0.50400001928E-02 0.  1.
       -1   -1    0    0    0  501  0.00000000000E+00  0.00000000000E+00 -0.29499924799E+03  0.29499924804E+03  0.50400001928E-02 0. -1.
    10030    2    1    2    0    0  0.00000000000E+00  0.00000000000E+00  0.11521026736E+03  0.70520876342E+03  0.69573414053E+03 0.  0.
        1    1    3    3  502    0 -0.18321446541E+03 -0.16147431915E+02 -0.24168392096E+03  0.30370939658E+03  0.50400001928E-02 0. -1.
       -1    1    3    3    0  502  0.18321446541E+03  0.16147431915E+02  0.35689418832E+03  0.40149936684E+03  0.50400001928E-02 0.  1.
</event>
<event>
 5   0  0.1079446E-02  0.7094465E+03  0.7818609E-02  0.9701213E-01
       -2   -1    0    0    0  501  0.00000000000E+00  0.00000000000E+00  0.12421664203E+03  0.12421664205E+03  0.25500000920E-02 0.  1.
        2   -1    0    0  501    0  0.00000000000E+00  0.00000000000E+00 -0.10129767258E+04  0.10129767258E+04  0.25500000920E-02 0. -1.
    10030    2    1    2    0    0  0.00000000000E+00  0.00000000000E+00 -0.88876008381E+03  0.11371933679E+04  0.70944645281E+03 0.  0.
        2    1    3    3  502    0 -0.12503526786E+03  0.26698237872E+03 -0.12817113495E+03  0.32146733674E+03  0.25500000920E-02 0.  1.
       -2    1    3    3    0  502  0.12503526786E+03 -0.26698237872E+03 -0.76058894886E+03  0.81572603114E+03  0.25500000920E-02 0. -1.
</event>
<event>
 5   0  0.6785252E-03  0.6905072E+03  0.7818609E-02  0.9733605E-01
       -1   -1    0    0    0  501  0.00000000000E+00  0.00000000000E+00  0.14995107010E+03  0.14995107018E+03  0.50400001928E-02 0. -1.
        1   -1    0    0  501    0  0.00000000000E+00  0.00000000000E+00 -0.79492630506E+03  0.79492630508E+03  0.50400001928E-02 0.  1.
    10030    2    1    2    0    0  0.00000000000E+00  0.00000000000E+00 -0.64497523496E+03  0.94487737526E+03  0.69050720529E+03 0.  0.
        3    1    3    3  502    0 -0.26083705654E+03 -0.21755645016E+03 -0.40720868575E+03  0.53026946265E+03  0.10100000352E+00 0. -1.
       -3    1    3    3    0  502  0.26083705654E+03  0.21755645016E+03 -0.23776654921E+03  0.41460791260E+03  0.10100000352E+00 0.  1.
</event>
<event>
 5   0  0.1099980E-02  0.6996983E+03  0.7818609E-02  0.9717748E-01
       -2   -1    0    0    0  501  0.00000000000E+00  0.00000000000E+00  0.12587377923E+03  0.12587377926E+03  0.25500000920E-02 0. -1.
        2   -1    0    0  501    0  0.00000000000E+00  0.00000000000E+00 -0.97235850651E+03  0.97235850651E+03  0.25500000920E-02 0.  1.
    10030    2    1    2    0    0  0.00000000000E+00  0.00000000000E+00 -0.84648472728E+03  0.10982322858E+04  0.69969833499E+03 0.  0.
        5    1    3    3  502    0 -0.22356591889E+02 -0.20985239930E+03 -0.86113681846E+03  0.88663214289E+03  0.46999998093E+01 0.  1.
       -5    1    3    3    0  502  0.22356591889E+02  0.20985239930E+03  0.14652091183E+02  0.21160014288E+03  0.46999998093E+01 0. -1.
</event>
<event>
 5   0  0.6609285E-03  0.6896001E+03  0.7818609E-02  0.9735184E-01
        1   -1    0    0  501    0  0.00000000000E+00  0.00000000000E+00  0.85865571943E+02  0.85865572091E+02  0.50400001928E-02 0. -1.
       -1   -1    0    0    0  501  0.00000000000E+00  0.00000000000E+00 -0.13845722851E+04  0.13845722851E+04  0.50400001928E-02 0.  1.
    10030    2    1    2    0    0  0.00000000000E+00  0.00000000000E+00 -0.12987067131E+04  0.14704378572E+04  0.68960014869E+03 0.  0.
        2    1    3    3  502    0  0.44040267329E+02  0.31542565976E+02  0.76735210043E+02  0.93929607056E+02  0.25500000920E-02 0. -1.
       -2    1    3    3    0  502 -0.44040267329E+02 -0.31542565976E+02 -0.13754419232E+04  0.13765082501E+04  0.25500000920E-02 0.  1.
</event>
<event>
 5   0  0.1100119E-02  0.7004285E+03  0.7818609E-02  0.9716500E-01
       -2   -1    0    0    0  501  0.00000000000E+00  0.00000000000E+00  0.51000848201E+03  0.51000848201E+03  0.25500000920E-02 0. -1.
        2   -1    0    0  501    0  0.00000000000E+00  0.00000000000E+00 -0.24048626015E+03  0.24048626016E+03  0.25500000920E-02 0.  1.
    10030    2    1    2    0    0  0.00000000000E+00  0.00000000000E+00  0.26952222186E+03  0.75049474217E+03  0.70042853308E+03 0.  0.
        4    1    3    3  502    0  0.10572636846E+03  0.33360977908E+03  0.14893018141E+03  0.38033585358E+03  0.12699999809E+01 0.  1.
       -4    1    3    3    0  502 -0.10572636846E+03 -0.33360977908E+03  0.12059204045E+03  0.37015888859E+03  0.12699999809E+01 0. -1.
</event>
<event>
 5   0  0.6689415E-03  0.7113867E+03  0.7818609E-02  0.9697955E-01
       -1   -1    0    0    0  501  0.00000000000E+00  0.00000000000E+00  0.55861232791E+03  0.55861232793E+03  0.50400001928E-02 0. -1.
        1   -1    0    0  501    0  0.00000000000E+00  0.00000000000E+00 -0.22648578876E+03  0.22648578881E+03  0.50400001928E-02 0.  1.
    10030    2    1    2    0    0  0.00000000000E+00  0.00000000000E+00  0.33212653916E+03  0.78509811675E+03  0.71138668452E+03 0.  0.
        1    1    3    3  502    0 -0.12117342682E+03  0.14962819573E+03  0.49612794529E+03  0.53217904360E+03  0.50400001928E-02 0. -1.
       -1    1    3    3    0  502  0.12117342682E+03 -0.14962819573E+03 -0.16400140613E+03  0.25291907315E+03  0.50400001928E-02 0.  1.
</event>
<event>
 5   0  0.1109788E-02  0.7104203E+03  0.7818609E-02  0.9699576E-01
        2   -1    0    0  501    0  0.00000000000E+00  0.00000000000E+00  0.45307625896E+03  0.45307625897E+03  0.25500000920E-02 0. -1.
       -2   -1    0    0    0  501  0.00000000000E+00  0.00000000000E+00 -0.27848343986E+03  0.27848343987E+03  0.25500000920E-02 0.  1.
    10030    2    1    2    0    0  0.00000000000E+00  0.00000000000E+00  0.17459281910E+03  0.73155969884E+03  0.71042025624E+03 0.  0.
        1    1    3    3  502    0 -0.49497795594E+02 -0.94419594173E+02  0.43621384768E+03  0.44905190398E+03  0.50400001928E-02 0. -1.
       -1    1    3    3    0  502  0.49497795594E+02  0.94419594173E+02 -0.26162102858E+03  0.28250779486E+03  0.50400001928E-02 0.  1.
</event>
<event>
 5   0  0.6246998E-03  0.6944155E+03  0.7818609E-02  0.9726830E-01
        1   -1    0    0  501    0  0.00000000000E+00  0.00000000000E+00  0.30401458082E+03  0.30401458086E+03  0.50400001928E-02 0.  1.
       -1   -1    0    0    0  501  0.00000000000E+00  0.00000000000E+00 -0.39653759180E+03  0.39653759184E+03  0.50400001928E-02 0. -1.
    10030    2    1    2    0    0  0.00000000000E+00  0.00000000000E+00 -0.92523010988E+02  0.70055217269E+03  0.69441546577E+03 0.  0.
        4    1    3    3  502    0 -0.16072342414E+03 -0.12393842690E+03 -0.33045803256E+03  0.38781036205E+03  0.12699999809E+01 0. -1.
       -4    1    3    3    0  502  0.16072342414E+03  0.12393842690E+03  0.23793502158E+03  0.31274181064E+03  0.12699999809E+01 0.  1.
</event>
<event>
 5   0  0.6990118E-03  0.7015429E+03  0.7818609E-02  0.9714597E-01
       -1   -1    0    0    0  501  0.00000000000E+00  0.00000000000E+00  0.42673481215E+03  0.42673481218E+03  0.50400001928E-02 0. -1.
        1   -1    0    0  501    0  0.00000000000E+00  0.00000000000E+00 -0.28833039620E+03  0.28833039624E+03  0.50400001928E-02 0.  1.
    10030    2    1    2    0    0  0.00000000000E+00  0.00000000000E+00  0.13840441595E+03  0.71506520842E+03  0.70154292095E+03 0.  0.
        5    1    3    3  502    0 -0.23244877665E+03 -0.15775098911E+03  0.28325171752E+03  0.39896294791E+03  0.46999998093E+01 0. -1.
       -5    1    3    3    0  502  0.23244877665E+03  0.15775098911E+03 -0.14484730157E+03  0.31610226051E+03  0.46999998093E+01 0.  1.
</event>
<event>
 5   0  0.1119786E-02  0.6973378E+03  0.7818609E-02  0.9721796E-01
        2   -1    0    0  501    0  0.00000000000E+00  0.00000000000E+00  0.11040334078E+04  0.11040334078E+04  0.25500000920E-02 0. -1.
       -2   -1    0    0    0  501  0.00000000000E+00  0.00000000000E+00 -0.11011443671E+03  0.11011443674E+03  0.25500000920E-02 0.  1.
    10030    2    1    2    0    0  0.00000000000E+00  0.00000000000E+00  0.99391897104E+03  0.12141478445E+04  0.69733784300E+03 0.  0.
        3    1    3    3  502    0 -0.16934805155E+02  0.27565075877E+03  0.12638385502E+03  0.30371535596E+03  0.10100000352E+00 0.  1.
       -3    1    3    3    0  502  0.16934805155E+02 -0.27565075877E+03  0.86753511603E+03  0.91043248853E+03  0.10100000352E+00 0. -1.
</event>
<event>
 5   0  0.6785252E-03  0.6989730E+03  0.7818609E-02  0.9718990E-01
       -1   -1    0    0    0  501  0.00000000000E+00  0.00000000000E+00  0.10737686823E+03  0.10737686834E+03  0.50400001928E-02 0.  1.
        1   -1    0    0  501    0  0.00000000000E+00  0.00000000000E+00 -0.11374963955E+04  0.11374963955E+04  0.50400001928E-02 0. -1.
    10030    2    1    2    0    0  0.00000000000E+00  0.00000000000E+00 -0.10301195272E+04  0.12448732638E+04  0.69897296270E+03 0.  0.
        3    1    3    3  502    0  0.11073345488E+03 -0.33343783056E+02  0.72312597079E+02  0.13639218377E+03  0.10100000352E+00 0.  1.
       -3    1    3    3    0  502 -0.11073345488E+03  0.33343783056E+02 -0.11024321243E+04  0.11084810801E+04  0.10100000352E+00 0. -1.
</event>
<event>
 5   0  0.1109788E-02  0.6989791E+03  0.7818609E-02  0.9718980E-01
       -2   -1    0    0    0  501  0.00000000000E+00  0.00000000000E+00  0.52687703936E+03  0.52687703937E+03  0.25500000920E-02 0.  1.
        2   -1    0    0  501    0  0.00000000000E+00  0.00000000000E+00 -0.23182439991E+03  0.23182439993E+03  0.25500000920E-02 0. -1.
    10030    2    1    2    0    0  0.00000000000E+00  0.00000000000E+00  0.29505263945E+03  0.75870143929E+03  0.69897912268E+03 0.  0.
        1    1    3    3  502    0  0.34253879105E+03 -0.55256277983E+02  0.10202992422E+03  0.36165755224E+03  0.50400001928E-02 0. -1.
       -1    1    3    3    0  502 -0.34253879105E+03  0.55256277983E+02  0.19302271523E+03  0.39704388706E+03  0.50400001928E-02 0.  1.
</event>
<event>
 5   0  0.6246998E-03  0.7047715E+03  0.7818609E-02  0.9709107E-01
        1   -1    0    0  501    0  0.00000000000E+00  0.00000000000E+00  0.76245111704E+03  0.76245111706E+03  0.50400001928E-02 0.  1.
       -1   -1    0    0    0  501  0.00000000000E+00  0.00000000000E+00 -0.16286385736E+03  0.16286385744E+03  0.50400001928E-02 0. -1.
    10030    2    1    2    0    0  0.00000000000E+00  0.00000000000E+00  0.59958725968E+03  0.92531497450E+03  0.70477153749E+03 0.  0.
        4    1    3    3  502    0  0.24764385173E+03  0.24890417242E+02  0.62730851205E+03  0.67488116906E+03  0.12699999809E+01 0.  1.
       -4    1    3    3    0  502 -0.24764385173E+03 -0.24890417242E+02 -0.27721252365E+02  0.25043380543E+03  0.12699999809E+01 0. -1.
</event>
<event>
 5   0  0.1119786E-02  0.6956079E+03  0.7818609E-02  0.9724773E-01
        2   -1    0    0  501    0  0.00000000000E+00  0.00000000000E+00  0.39265451747E+03  0.39265451748E+03  0.25500000920E-02 0. -1.
       -2   -1    0    0    0  501  0.00000000000E+00  0.00000000000E+00 -0.30807637850E+03  0.30807637851E+03  0.25500000920E-02 0.  1.
    10030    2    1    2    0    0  0.00000000000E+00  0.00000000000E+00  0.84578138978E+02  0.70073089599E+03  0.69560788308E+03 0.  0.
        3    1    3    3  502    0 -0.23758976387E+02  0.28652434206E+03 -0.15487382471E+03  0.32656790922E+03  0.10100000352E+00 0.  1.
       -3    1    3    3    0  502  0.23758976387E+02 -0.28652434206E+03  0.23945196368E+03  0.37416298677E+03  0.10100000352E+00 0. -1.
</event>
<event>
 5   0  0.6246998E-03  0.6996906E+03  0.7818609E-02  0.9717761E-01
       -1   -1    0    0    0  501  0.00000000000E+00  0.00000000000E+00  0.86576623214E+02  0.86576623361E+02  0.50400001928E-02 0.  1.
        1   -1    0    0  501    0  0.00000000000E+00  0.00000000000E+00 -0.14136810502E+04  0.14136810502E+04  0.50400001928E-02 0. -1.
    10030    2    1    2    0    0  0.00000000000E+00  0.00000000000E+00 -0.13271044270E+04  0.15002576736E+04  0.69969059375E+03 0.  0.
        4    1    3    3  502    0  0.10110065291E+03 -0.31502674069E+02  0.51381938292E+02  0.11770929010E+03  0.12699999809E+01 0.  1.
       -4    1    3    3    0  502 -0.10110065291E+03  0.31502674069E+02 -0.13784863653E+04  0.13825483835E+04  0.12699999809E+01 0. -1.
</event>
<event>
 5   0  0.6990118E-03  0.6985295E+03  0.7818609E-02  0.9719750E-01
       -1   -1    0    0    0  501  0.00000000000E+00  0.00000000000E+00  0.58753714628E+02  0.58753714845E+02  0.50400001928E-02 0.  1.
        1   -1    0    0  501    0  0.00000000000E+00  0.00000000000E+00 -0.20762240628E+04  0.20762240628E+04  0.50400001928E-02 0. -1.
    10030    2    1    2    0    0  0.00000000000E+00  0.00000000000E+00 -0.20174703482E+04  0.21349777777E+04  0.69852953074E+03 0.  0.
        5    1    3    3  502    0 -0.11529681834E+03  0.25503676252E+03 -0.16471231069E+04  0.16707404723E+04  0.46999998093E+01 0. -1.
       -5    1    3    3    0  502  0.11529681834E+03 -0.25503676252E+03 -0.37034724132E+03  0.46423730538E+03  0.46999998093E+01 0.  1.
</event>
<event>
 5   0  0.6246998E-03  0.6960581E+03  0.7818609E-02  0.9723997E-01
        1   -1    0    0  501    0  0.00000000000E+00  0.00000000000E+00  0.34018923412E+03  0.34018923416E+03  0.50400001928E-02 0.  1.
       -1   -1    0    0    0  501  0.00000000000E+00  0.00000000000E+00 -0.35604950943E+03  0.35604950946E+03  0.50400001928E-02 0. -1.
    10030    2    1    2    0    0  0.00000000000E+00  0.00000000000E+00 -0.15860275305E+02  0.69623874362E+03  0.69605807214E+03 0.  0.
        4    1    3    3  502    0 -0.13957600180E+03 -0.15511244192E+03  0.27067629970E+03  0.34177273449E+03  0.12699999809E+01 0.  1.
       -4    1    3    3    0  502  0.13957600180E+03  0.15511244192E+03 -0.28653657500E+03  0.35446600914E+03  0.12699999809E+01 0. -1.
</event>
<event>
 5   0  0.6785252E-03  0.6983852E+03  0.7818609E-02  0.9719998E-01
        1   -1    0    0  501    0  0.00000000000E+00  0.00000000000E+00  0.62039075148E+03  0.62039075150E+03  0.50400001928E-02 0.  1.
       -1   -1    0    0    0  501  0.00000000000E+00  0.00000000000E+00 -0.19654626243E+03  0.19654626250E+03  0.50400001928E-02 0. -1.
    10030    2    1    2    0    0  0.00000000000E+00  0.00000000000E+00  0.42384448904E+03  0.81693701399E+03  0.69838523319E+03 0.  0.
        3    1    3    3  502    0  0.10729637131E+02 -0.33135314326E+03  0.83646642680E+02  0.34191636652E+03  0.10100000352E+00 0.  1.
       -3    1    3    3    0  502 -0.10729637131E+02  0.33135314326E+03  0.34019784636E+03  0.47502064748E+03  0.10100000352E+00 0. -1.
</event>
<event>
 5   0  0.1079446E-02  0.7002873E+03  0.7818609E-02  0.9716741E-01
       -2   -1    0    0    0  501  0.00000000000E+00  0.00000000000E+00  0.25998723504E+03  0.25998723505E+03  0.25500000920E-02 0.  1.
        2   -1    0    0  501    0  0.00000000000E+00  0.00000000000E+00 -0.47156387723E+03  0.47156387724E+03  0.25500000920E-02 0. -1.
    10030    2    1    2    0    0  0.00000000000E+00  0.00000000000E+00 -0.21157664220E+03  0.73155111229E+03  0.70028733701E+03 0.  0.
        2    1    3    3  502    0  0.21478553071E+03  0.61843887781E+02  0.17576819330E+03  0.28434477038E+03  0.25500000920E-02 0.  1.
       -2    1    3    3    0  502 -0.21478553071E+03 -0.61843887781E+02 -0.38734483550E+03  0.44720634192E+03  0.25500000920E-02 0. -1.
</event>
<event>
 5   0  0.1100119E-02  0.7015485E+03  0.7818609E-02  0.9714588E-01
       -2   -1    0    0    0  501  0.00000000000E+00  0.00000000000E+00  0.13987943439E+03  0.13987943441E+03  0.25500000920E-02 0.  1.
        2   -1    0    0  501    0  0.00000000000E+00  0.00000000000E+00 -0.87963295210E+03  0.87963295211E+03  0.25500000920E-02 0. -1.
    10030    2    1    2    0    0  0.00000000000E+00  0.00000000000E+00 -0.73975351772E+03  0.10195123865E+04  0.70154845826E+03 0.  0.
        4    1    3    3  502    0 -0.65915312639E+02  0.67482815280E+02 -0.86085011976E+03  0.86600421499E+03  0.12699999809E+01 0. -1.
       -4    1    3    3    0  502  0.65915312639E+02 -0.67482815280E+02  0.12109660204E+03  0.15350817152E+03  0.12699999809E+01 0.  1.
</event>
<event>
 5   0  0.1099980E-02  0.7000729E+03  0.7818609E-02  0.9717108E-01
        2   -1    0    0  501    0  0.00000000000E+00  0.00000000000E+00  0.26943692564E+03  0.26943692566E+03  0.25500000920E-02 0. -1.
       -2   -1    0    0    0  501  0.00000000000E+00  0.00000000000E+00 -0.45474651381E+03  0.45474651382E+03  0.25500000920E-02 0.  1.
    10030    2    1    2    0    0  0.00000000000E+00  0.00000000000E+00 -0.18530958817E+03  0.72418343947E+03  0.70007286088E+03 0.  0.
        5    1    3    3  502    0  0.34254371799E+03 -0.46341394048E+02 -0.35810554269E+02  0.34754598160E+03  0.46999998093E+01 0.  1.
       -5    1    3    3    0  502 -0.34254371799E+03  0.46341394048E+02 -0.14949903390E+03  0.37663745787E+03  0.46999998093E+01 0. -1.
</event>
<event>
 5   0  0.1099980E-02  0.7085430E+03  0.7818609E-02  0.9702733E-01
        2   -1    0    0  501    0  0.00000000000E+00  0.00000000000E+00  0.10827761210E+04  0.10827761210E+04  0.25500000920E-02 0.  1.
       -2   -1    0    0    0  501  0.00000000000E+00  0.00000000000E+00 -0.11591342175E+03  0.11591342178E+03  0.25500000920E-02 0. -1.
    10030    2    1    2    0    0  0.00000000000E+00  0.00000000000E+00  0.96686269922E+03  0.11986895428E+04  0.70854297031E+03 0.  0.
        5    1    3    3  502    0 -0.30742140725E+03 -0.57796147464E+02  0.76468157410E+03  0.82620113535E+03  0.46999998093E+01 0.  1.
       -5    1    3    3    0  502  0.30742140725E+03  0.57796147464E+02  0.20218112512E+03  0.37248840740E+03  0.46999998093E+01 0. -1.
</event>
<event>
 5   0  0.6609285E-03  0.7036050E+03  0.7818609E-02  0.9711087E-01
        1   -1    0    0  501    0  0.00000000000E+00  0.00000000000E+00  0.22892132315E+03  0.22892132321E+03  0.50400001928E-02 0.  1.
       -1   -1    0    0    0  501  0.00000000000E+00  0.00000000000E+00 -0.54064427556E+03  0.54064427558E+03  0.50400001928E-02 0. -1.
    10030    2    1    2    0    0  0.00000000000E+00  0.00000000000E+00 -0.31172295240E+03  0.76956559879E+03  0.70360501120E+03 0.  0.
        2    1    3    3  502    0 -0.34332147338E+03 -0.76413014777E+02 -0.16407696451E+03  0.38811059403E+03  0.25500000920E-02 0. -1.
       -2    1    3    3    0  502  0.34332147338E+03  0.76413014777E+02 -0.14764598789E+03  0.38145500476E+03  0.25500000920E-02 0.  1.
</event>
<event>
 5   0  0.6246998E-03  0.6991954E+03  0.7818609E-02  0.9718609E-01
       -1   -1    0    0    0  501  0.00000000000E+00  0.00000000000E+00  0.29546454355E+03  0.29546454359E+03  0.50400001928E-02 0. -1.
        1   -1    0    0  501    0  0.00000000000E+00  0.00000000000E+00 -0.41364881953E+03  0.41364881956E+03  0.50400001928E-02 0.  1.
    10030    2    1    2    0    0  0.00000000000E+00  0.00000000000E+00 -0.11818427597E+03  0.70911336315E+03  0.69919542241E+03 0.  0.
        4    1    3    3  502    0  0.19392936149E+03 -0.25818361102E+03 -0.19496857448E+03  0.37720250819E+03  0.12699999809E+01 0.  1.
       -4    1    3    3    0  502 -0.19392936149E+03  0.25818361102E+03  0.76784298503E+02  0.33191085497E+03  0.12699999809E+01 0. -1.
</event>
<event>
 5   0  0.1119786E-02  0.7017007E+03  0.7818609E-02  0.9714328E-01
       -2   -1    0    0    0  501  0.00000000000E+00  0.00000000000E+00  0.18676587783E+04  0.18676587783E+04  0.25500000920E-02 0.  1.
        2   -1    0    0  501    0  0.00000000000E+00  0.00000000000E+00 -0.65909246760E+02  0.65909246809E+02  0.25500000920E-02 0. -1.
    10030    2    1    2    0    0  0.00000000000E+00  0.00000000000E+00  0.18017495316E+04  0.19335680251E+04  0.70170074343E+03 0.  0.
        3    1    3    3  502    0  0.30980559730E+02 -0.10383751494E+03 -0.18643434412E+02  0.10995277367E+03  0.10100000352E+00 0. -1.
       -3    1    3    3    0  502 -0.30980559730E+02  0.10383751494E+03  0.18203929660E+04  0.18236152515E+04  0.10100000352E+00 0.  1.
</event>
<event>
 5   0  0.1109788E-02  0.6987837E+03  0.7818609E-02  0.9719314E-01
       -2   -1    0    0    0  501  0.00000000000E+00  0.00000000000E+00  0.95928312577E+03  0.95928312577E+03  0.25500000920E-02 0. -1.
        2   -1    0    0  501    0  0.00000000000E+00  0.00000000000E+00 -0.12725614112E+03  0.12725614115E+03  0.25500000920E-02 0.  1.
    10030    2    1    2    0    0  0.00000000000E+00  0.00000000000E+00  0.83202698464E+03  0.10865392669E+04  0.69878371145E+03 0.  0.
        1    1    3    3  502    0 -0.15712994184E+03  0.15769741274E+03  0.83473059454E+03  0.86390593128E+03  0.50400001928E-02 0. -1.
       -1    1    3    3    0  502  0.15712994184E+03 -0.15769741274E+03 -0.27036098973E+01  0.22263333564E+03  0.50400001928E-02 0.  1.
</event>
<event>
 5   0  0.6990118E-03  0.7006000E+03  0.7818609E-02  0.9716207E-01
        1   -1    0    0  501    0  0.00000000000E+00  0.00000000000E+00  0.26799173188E+03  0.26799173192E+03  0.50400001928E-02 0.  1.
       -1   -1    0    0    0  501  0.00000000000E+00  0.00000000000E+00 -0.45788761253E+03  0.45788761256E+03  0.50400001928E-02 0. -1.
    10030    2    1    2    0    0  0.00000000000E+00  0.00000000000E+00 -0.18989588066E+03  0.72587934448E+03  0.70060001231E+03 0.  0.
        5    1    3    3  502    0 -0.50258014853E+02  0.33615157152E+03 -0.18264396013E+03  0.38588165707E+03  0.46999998093E+01 0. -1.
       -5    1    3    3    0  502  0.50258014853E+02 -0.33615157152E+03 -0.72519205261E+01  0.33999768741E+03  0.46999998093E+01 0.  1.
</event>
<event>
 5   0  0.1119786E-02  0.6993989E+03  0.7818609E-02  0.9718261E-01
        2   -1    0    0  501    0  0.00000000000E+00  0.00000000000E+00  0.82160239034E+03  0.82160239035E+03  0.25500000920E-02 0.  1.
       -2   -1    0    0    0  501  0.00000000000E+00  0.00000000000E+00 -0.14884293142E+03  0.14884293144E+03  0.25500000920E-02 0. -1.
    10030    2    1    2    0    0  0.00000000000E+00  0.00000000000E+00  0.67275945892E+03  0.97044532179E+03  0.69939890835E+03 0.  0.
        3    1    3    3  502    0  0.32938923673E+03  0.11389198432E+03  0.37613818606E+03  0.51278513881E+03  0.10100000352E+00 0. -1.
       -3    1    3    3    0  502 -0.32938923673E+03 -0.11389198432E+03  0.29662127286E+03  0.45766018298E+03  0.10100000352E+00 0.  1.
</event>
<event>
 5   0  0.6785252E-03  0.7001601E+03  0.7818609E-02  0.9716958E-01
        1   -1    0    0  501    0  0.00000000000E+00  0.00000000000E+00  0.17513414396E+04  0.17513414396E+04  0.50400001928E-02 0.  1.
       -1   -1    0    0    0  501  0.00000000000E+00  0.00000000000E+00 -0.69978385236E+02  0.69978385418E+02  0.50400001928E-02 0. -1.
    10030    2    1    2    0    0  0.00000000000E+00  0.00000000000E+00  0.16813630544E+04  0.18213198251E+04  0.70016011344E+03 0.  0.
        3    1    3    3  502    0 -0.31113033448E+02  0.20761157560E+03  0.15694396717E+04  0.15834176583E+04  0.10100000352E+00 0.  1.
       -3    1    3    3    0  502  0.31113033448E+02 -0.20761157560E+03  0.11192338270E+03  0.23790216680E+03  0.10100000352E+00 0. -1.
</event>
<event>
 5   0  0.4440500E-03  0.7056137E+03  0.7818609E-02  0.9707680E-01
        3   -1    0    0  501    0  0.00000000000E+00  0.00000000000E+00  0.44424239120E+03  0.44424240268E+03  0.10100000352E+00 0. -1.
       -3   -1    0    0    0  501  0.00000000000E+00  0.00000000000E+00 -0.28019086822E+03  0.28019088642E+03  0.10100000352E+00 0.  1.
    10030    2    1    2    0    0  0.00000000000E+00  0.00000000000E+00  0.16405152298E+03  0.72443328910E+03  0.70561369613E+03 0.  0.
        2    1    3    3  502    0  0.14209604264E+03  0.21650104165E+03 -0.16396579408E+03  0.30651063278E+03  0.25500000920E-02 0.  1.
       -2    1    3    3    0  502 -0.14209604264E+03 -0.21650104165E+03  0.32801731706E+03  0.41792265633E+03  0.25500000920E-02 0. -1.
</event>
<event>
 5   0  0.1079446E-02  0.6880623E+03  0.7818609E-02  0.9737868E-01
       -2   -1    0    0    0  501  0.00000000000E+00  0.00000000000E+00  0.52161241400E+03  0.52161241400E+03  0.25500000920E-02 0. -1.
        2   -1    0    0  501    0  0.00000000000E+00  0.00000000000E+00 -0.22690684205E+03  0.22690684206E+03  0.25500000920E-02 0.  1.
    10030    2    1    2    0    0  0.00000000000E+00  0.00000000000E+00  0.29470557195E+03  0.74851925607E+03  0.68806228102E+03 0.  0.
        2    1    3    3  502    0  0.60667495114E+02 -0.78515307891E+02 -0.21100311882E+03  0.23316842560E+03  0.25500000920E-02 0.  1.
       -2    1    3    3    0  502 -0.60667495114E+02  0.78515307891E+02  0.50570869077E+03  0.51535083047E+03  0.25500000920E-02 0. -1.
</event>
<event>
 5   0  0.6689415E-03  0.6982386E+03  0.7818609E-02  0.9720249E-01
       -1   -1    0    0    0  501  0.00000000000E+00  0.00000000000E+00  0.17375499039E+03  0.17375499046E+03  0.50400001928E-02 0.  1.
        1   -1    0    0  501    0  0.00000000000E+00  0.00000000000E+00 -0.70147205073E+03  0.70147205074E+03  0.50400001928E-02 0. -1.
    10030    2    1    2    0    0  0.00000000000E+00  0.00000000000E+00 -0.52771706033E+03  0.87522704121E+03  0.69823855371E+03 0.  0.
        1    1    3    3  502    0  0.20412150447E+03 -0.23542244545E+03 -0.46123644077E+03  0.55662228730E+03  0.50400001928E-02 0.  1.
       -1    1    3    3    0  502 -0.20412150447E+03  0.23542244545E+03 -0.66480619568E+02  0.31860475390E+03  0.50400001928E-02 0. -1.
</event>
<event>
 5   0  0.1119786E-02  0.7006634E+03  0.7818609E-02  0.9716098E-01
       -2   -1    0    0    0  501  0.00000000000E+00  0.00000000000E+00  0.85632755650E+03  0.85632755650E+03  0.25500000920E-02 0. -1.
        2   -1    0    0  501    0  0.00000000000E+00  0.00000000000E+00 -0.14332400003E+03  0.14332400006E+03  0.25500000920E-02 0.  1.
    10030    2    1    2    0    0  0.00000000000E+00  0.00000000000E+00  0.71300355647E+03  0.99965155656E+03  0.70066337352E+03 0.  0.
        3    1    3    3  502    0  0.13328832851E+03  0.25910161288E+03  0.78994871955E+02  0.30189339892E+03  0.10100000352E+00 0.  1.
       -3    1    3    3    0  502 -0.13328832851E+03 -0.25910161288E+03  0.63400868451E+03  0.69775815764E+03  0.10100000352E+00 0. -1.
</event>
<event>
 5   0  0.1079446E-02  0.7055472E+03  0.7818609E-02  0.9707792E-01
       -2   -1    0    0    0  501  0.00000000000E+00  0.00000000000E+00  0.11881710734E+03  0.11881710736E+03  0.25500000920E-02 0.  1.
        2   -1    0    0  501    0  0.00000000000E+00  0.00000000000E+00 -0.10474016058E+04  0.10474016058E+04  0.25500000920E-02 0. -1.
    10030    2    1    2    0    0  0.00000000000E+00  0.00000000000E+00 -0.92858449844E+03  0.11662187131E+04  0.70554724586E+03 0.  0.
        2    1    3    3  502    0  0.24399939881E+02 -0.28441460334E+03 -0.80690000361E+03  0.85590574218E+03  0.25500000920E-02 0. -1.
       -2    1    3    3    0  502 -0.24399939881E+02  0.28441460334E+03 -0.12168449483E+03  0.31031297097E+03  0.25500000920E-02 0.  1.
</event>
<event>
 5   0  0.6689415E-03  0.7008397E+03  0.7818609E-02  0.9715797E-01
       -1   -1    0    0    0  501  0.00000000000E+00  0.00000000000E+00  0.46887767715E+03  0.46887767717E+03  0.50400001928E-02 0. -1.
        1   -1    0    0  501    0  0.00000000000E+00  0.00000000000E+00 -0.26188936041E+03  0.26188936046E+03  0.50400001928E-02 0.  1.
    10030    2    1    2    0    0  0.00000000000E+00  0.00000000000E+00  0.20698831674E+03  0.73076703763E+03  0.70083971065E+03 0.  0.
        1    1    3    3  502    0  0.28324203093E+03  0.17095011230E+03  0.22394356477E+03  0.39950057473E+03  0.50400001928E-02 0. -1.
       -1    1    3    3    0  502 -0.28324203093E+03 -0.17095011230E+03 -0.16955248036E+02  0.33126646290E+03  0.50400001928E-02 0.  1.
</event>
<event>
 5   0  0.1099980E-02  0.7002368E+03  0.7818609E-02  0.9716827E-01
       -2   -1    0    0    0  501  0.00000000000E+00  0.00000000000E+00  0.34598491308E+03  0.34598491309E+03  0.25500000920E-02 0.  1.
        2   -1    0    0  501    0  0.00000000000E+00  0.00000000000E+00 -0.35430124938E+03  0.35430124939E+03  0.25500000920E-02 0. -1.
    10030    2    1    2    0    0  0.00000000000E+00  0.00000000000E+00 -0.83163362995E+01  0.70028616248E+03  0.70023677989E+03 0.  0.
        5    1    3    3  502    0  0.83885632530E+02  0.15854107198E+02  0.33538402977E+03  0.34611080521E+03  0.46999998093E+01 0.  1.
       -5    1    3    3    0  502 -0.83885632530E+02 -0.15854107198E+02 -0.34370036607E+03  0.35417535727E+03  0.46999998093E+01 0. -1.
</event>
<event>
 5   0  0.1079446E-02  0.6957519E+03  0.7818609E-02  0.9724525E-01
       -2   -1    0    0    0  501  0.00000000000E+00  0.00000000000E+00  0.47927899564E+03  0.47927899564E+03  0.25500000920E-02 0. -1.
        2   -1    0    0  501    0  0.00000000000E+00  0.00000000000E+00 -0.25249947214E+03  0.25249947215E+03  0.25500000920E-02 0.  1.
    10030    2    1    2    0    0  0.00000000000E+00  0.00000000000E+00  0.22677952350E+03  0.73177846780E+03  0.69575194837E+03 0.  0.
        2    1    3    3  502    0 -0.13534765708E+03  0.29376605998E+03 -0.21304738060E+02  0.32414715508E+03  0.25500000920E-02 0.  1.
       -2    1    3    3    0  502  0.13534765708E+03 -0.29376605998E+03  0.24808426156E+03  0.40763131272E+03  0.25500000920E-02 0. -1.
</event>
<event>
 5   0  0.1099980E-02  0.6996946E+03  0.7818609E-02  0.9717755E-01
        2   -1    0    0  501    0  0.00000000000E+00  0.00000000000E+00  0.52384107768E+03  0.52384107768E+03  0.25500000920E-02 0. -1.
       -2   -1    0    0    0  501  0.00000000000E+00  0.00000000000E+00 -0.23364554163E+03  0.23364554164E+03  0.25500000920E-02 0.  1.
    10030    2    1    2    0    0  0.00000000000E+00  0.00000000000E+00  0.29019553605E+03  0.75748661932E+03  0.69969459717E+03 0.  0.
        5    1    3    3  502    0 -0.90358022771E+02 -0.31264866789E+03  0.28397961424E+03  0.43194938721E+03  0.46999998093E+01 0. -1.
       -5    1    3    3    0  502  0.90358022771E+02  0.31264866789E+03  0.62159218107E+01  0.32553723211E+03  0.46999998093E+01 0.  1.
</event>
<event>
 5   0  0.6246998E-03  0.6995690E+03  0.7818609E-02  0.9717969E-01
        1   -1    0    0  501    0  0.00000000000E+00  0.00000000000E+00  0.22883737785E+03  0.22883737791E+03  0.50400001928E-02 0. -1.
       -1   -1    0    0    0  501  0.00000000000E+00  0.00000000000E+00 -0.53465572158E+03  0.53465572160E+03  0.50400001928E-02 0.  1.
    10030    2    1    2    0    0  0.00000000000E+00  0.00000000000E+00 -0.30581834372E+03  0.76349309951E+03  0.69956904851E+03 0.  0.
        4    1    3    3  502    0  0.27675868747E+02 -0.19164406785E+02  0.22706282239E+03  0.22954817884E+03  0.12699999809E+01 0. -1.
       -4    1    3    3    0  502 -0.27675868747E+02  0.19164406785E+02 -0.53288116612E+03  0.53394492066E+03  0.12699999809E+01 0.  1.
</event>
<event>
 5   0  0.1100119E-02  0.6980973E+03  0.7818609E-02  0.9720492E-01
        2   -1    0    0  501    0  0.00000000000E+00  0.00000000000E+00  0.61359852151E+03  0.61359852151E+03  0.25500000920E-02 0. -1.
       -2   -1    0    0    0  501  0.00000000000E+00  0.00000000000E+00 -0.19855811062E+03  0.19855811064E+03  0.25500000920E-02 0.  1.
    10030    2    1    2    0    0  0.00000000000E+00  0.00000000000E+00  0.41504041089E+03  0.81215663215E+03  0.69809730874E+03 0.  0.
        4    1    3    3  502    0  0.10382474370E+03 -0.29668262914E+03  0.30956725434E+02  0.31584820972E+03  0.12699999809E+01 0.  1.
       -4    1    3    3    0  502 -0.10382474370E+03  0.29668262914E+03  0.38408368546E+03  0.49630842243E+03  0.12699999809E+01 0. -1.
</event>
<event>
 5   0  0.1119786E-02  0.7003244E+03  0.7818609E-02  0.9716678E-01
        2   -1    0    0  501    0  0.00000000000E+00  0.00000000000E+00  0.48101243880E+03  0.48101243880E+03  0.25500000920E-02 0. -1.
       -2   -1    0    0    0  501  0.00000000000E+00  0.00000000000E+00 -0.25490727044E+03  0.25490727045E+03  0.25500000920E-02 0.  1.
    10030    2    1    2    0    0  0.00000000000E+00  0.00000000000E+00  0.22610516836E+03  0.73591970926E+03  0.70032440434E+03 0.  0.
        3    1    3    3  502    0 -0.20750720656E+02  0.21544780039E+03 -0.17619256939E+03  0.27909170322E+03  0.10100000352E+00 0.  1.
       -3    1    3    3    0  502  0.20750720656E+02 -0.21544780039E+03  0.40229773775E+03  0.45682800603E+03  0.10100000352E+00 0. -1.
</event>
<event>
 5   0  0.1099980E-02  0.6967845E+03  0.7818609E-02  0.9722747E-01
       -2   -1    0    0    0  501  0.00000000000E+00  0.00000000000E+00  0.24038770309E+03  0.24038770311E+03  0.25500000920E-02 0. -1.
        2   -1    0    0  501    0  0.00000000000E+00  0.00000000000E+00 -0.50492243978E+03  0.50492243978E+03  0.25500000920E-02 0.  1.
    10030    2    1    2    0    0  0.00000000000E+00  0.00000000000E+00 -0.26453473668E+03  0.74531014289E+03  0.69678445891E+03 0.  0.
        5    1    3    3  502    0  0.81473433655E+01 -0.12724403893E+03  0.21449745816E+03  0.24957699054E+03  0.46999998093E+01 0. -1.
       -5    1    3    3    0  502 -0.81473433655E+01  0.12724403893E+03 -0.47903219485E+03  0.49573315236E+03  0.46999998093E+01 0.  1.
</event>
<event>
 5   0  0.1119786E-02  0.7025960E+03  0.7818609E-02  0.9712803E-01
        2   -1    0    0  501    0  0.00000000000E+00  0.00000000000E+00  0.10783631353E+04  0.10783631353E+04  0.25500000920E-02 0. -1.
       -2   -1    0    0    0  501  0.00000000000E+00  0.00000000000E+00 -0.11444222550E+03  0.11444222553E+03  0.25500000920E-02 0.  1.
    10030    2    1    2    0    0  0.00000000000E+00  0.00000000000E+00  0.96392090976E+03  0.11928053608E+04  0.70259597812E+03 0.  0.
        3    1    3    3  502    0  0.46867693016E+02 -0.33585409486E+03  0.63770376010E+03  0.72226079053E+03  0.10100000352E+00 0.  1.
       -3    1    3    3    0  502 -0.46867693016E+02  0.33585409486E+03  0.32621714966E+03  0.47054457027E+03  0.10100000352E+00 0. -1.
</event>
<event>
 5   0  0.6689415E-03  0.6953753E+03  0.7818609E-02  0.9725174E-01
       -1   -1    0    0    0  501  0.00000000000E+00  0.00000000000E+00  0.11727962492E+03  0.11727962503E+03  0.50400001928E-02 0.  1.
        1   -1    0    0  501    0  0.00000000000E+00  0.00000000000E+00 -0.10307562433E+04  0.10307562434E+04  0.50400001928E-02 0. -1.
    10030    2    1    2    0    0  0.00000000000E+00  0.00000000000E+00 -0.91347661843E+03  0.11480358684E+04  0.69537531068E+03 0.  0.
        1    1    3    3  502    0  0.31920985415E+03  0.13537701037E+03 -0.49930742922E+03  0.60788960743E+03  0.50400001928E-02 0. -1.
       -1    1    3    3    0  502 -0.31920985415E+03 -0.13537701037E+03 -0.41416918921E+03  0.54014626097E+03  0.50400001928E-02 0.  1.
</event>
<event>
 5   0  0.6785252E-03  0.6971419E+03  0.7818609E-02  0.9722132E-01
        1   -1    0    0  501    0  0.00000000000E+00  0.00000000000E+00  0.33999117809E+03  0.33999117813E+03  0.50400001928E-02 0.  1.
       -1   -1    0    0    0  501  0.00000000000E+00  0.00000000000E+00 -0.35736727134E+03  0.35736727138E+03  0.50400001928E-02 0. -1.
    10030    2    1    2    0    0  0.00000000000E+00  0.00000000000E+00 -0.17376093253E+02  0.69735844950E+03  0.69714193568E+03 0.  0.
        3    1    3    3  502    0 -0.25526917816E+03 -0.16771555843E+03  0.15932496884E+03  0.34449284137E+03  0.10100000352E+00 0.  1.
       -3    1    3    3    0  502  0.25526917816E+03  0.16771555843E+03 -0.17670106210E+03  0.35286560813E+03  0.10100000352E+00 0. -1.
</event>
<event>
 5   0  0.1100119E-02  0.6999271E+03  0.7818609E-02  0.9717357E-01
        2   -1    0    0  501    0  0.00000000000E+00  0.00000000000E+00  0.56221100044E+03  0.56221100045E+03  0.25500000920E-02 0. -1.
       -2   -1    0    0    0  501  0.00000000000E+00  0.00000000000E+00 -0.21784435341E+03  0.21784435343E+03  0.25500000920E-02 0.  1.
    10030    2    1    2    0    0  0.00000000000E+00  0.00000000000E+00  0.34436664703E+03  0.78005535388E+03  0.69992711587E+03 0.  0.
        4    1    3    3  502    0 -0.96725333728E+02 -0.25317840063E+03  0.41892894224E+03  0.49895707659E+03  0.12699999809E+01 0. -1.
       -4    1    3    3    0  502  0.96725333728E+02  0.25317840063E+03 -0.74562295210E+02  0.28109827729E+03  0.12699999809E+01 0.  1.
</event>
<event>
 5   0  0.6990118E-03  0.6989468E+03  0.7818609E-02  0.9719035E-01
        1   -1    0    0  501    0  0.00000000000E+00  0.00000000000E+00  0.91252931230E+03  0.91252931231E+03  0.50400001928E-02 0. -1.
       -1   -1    0    0    0  501  0.00000000000E+00  0.00000000000E+00 -0.13383860799E+03  0.13383860808E+03  0.50400001928E-02 0.  1.
    10030    2    1    2    0    0  0.00000000000E+00  0.00000000000E+00  0.77869070431E+03  0.10463679204E+04  0.69894678757E+03 0.  0.
        5    1    3    3  502    0 -0.16917374863E+03 -0.10426661706E+03  0.81965231510E+03  0.84341169799E+03  0.46999998093E+01 0. -1.
       -5    1    3    3    0  502  0.16917374863E+03  0.10426661706E+03 -0.40961610786E+02  0.20295622241E+03  0.46999998093E+01 0.  1.
</event>
<event>
 5   0  0.6990118E-03  0.7104008E+03  0.7818609E-02  0.9699609E-01
       -1   -1    0    0    0  501  0.00000000000E+00  0.00000000000E+00  0.55989253306E+03  0.55989253309E+03  0.50400001928E-02 0.  1.
        1   -1    0    0  501    0  0.00000000000E+00  0.00000000000E+00 -0.22534200708E+03  0.22534200714E+03  0.50400001928E-02 0. -1.
    10030    2    1    2    0    0  0.00000000000E+00  0.00000000000E+00  0.33455052598E+03  0.78523454022E+03  0.71040075220E+03 0.  0.
        5    1    3    3  502    0  0.35377888472E+03  0.23798459676E+02  0.14464003142E+03  0.38297349078E+03  0.46999998093E+01 0. -1.
       -5    1    3    3    0  502 -0.35377888472E+03 -0.23798459676E+02  0.18991049456E+03  0.40226104944E+03  0.46999998093E+01 0.  1.
</event>
<event>
 5   0  0.6785252E-03  0.7012408E+03  0.7818609E-02  0.9715113E-01
       -1   -1    0    0    0  501  0.00000000000E+00  0.00000000000E+00  0.35673824898E+03  0.35673824902E+03  0.50400001928E-02 0.  1.
        1   -1    0    0  501    0  0.00000000000E+00  0.00000000000E+00 -0.34460745680E+03  0.34460745684E+03  0.50400001928E-02 0. -1.
    10030    2    1    2    0    0  0.00000000000E+00  0.00000000000E+00  0.12130792181E+02  0.70134570586E+03  0.70124078818E+03 0.  0.
        3    1    3    3  502    0 -0.15152816303E+03  0.31485079486E+03  0.35101503979E+02  0.35117507457E+03  0.10100000352E+00 0. -1.
       -3    1    3    3    0  502  0.15152816303E+03 -0.31485079486E+03 -0.22970711798E+02  0.35017063129E+03  0.10100000352E+00 0.  1.
</event>
<event>
 5   0  0.6990118E-03  0.6905877E+03  0.7818609E-02  0.9733465E-01
        1   -1    0    0  501    0  0.00000000000E+00  0.00000000000E+00  0.20961651535E+04  0.20961651535E+04  0.50400001928E-02 0.  1.
       -1   -1    0    0    0  501  0.00000000000E+00  0.00000000000E+00 -0.56879033924E+02  0.56879034147E+02  0.50400001928E-02 0. -1.
    10030    2    1    2    0    0  0.00000000000E+00  0.00000000000E+00  0.20392861195E+04  0.21530441876E+04  0.69058771817E+03 0.  0.
        5    1    3    3  502    0 -0.21058449223E+03 -0.26159390972E+03  0.76967135767E+03  0.83975787629E+03  0.46999998093E+01 0. -1.
       -5    1    3    3    0  502  0.21058449223E+03  0.26159390972E+03  0.12696147619E+04  0.13132863113E+04  0.46999998093E+01 0.  1.
</event>
<event>
 5   0  0.6689415E-03  0.7070680E+03  0.7818609E-02  0.9705221E-01
        1   -1    0    0  501    0  0.00000000000E+00  0.00000000000E+00  0.64318586632E+03  0.64318586634E+03  0.50400001928E-02 0.  1.
       -1   -1    0    0    0  501  0.00000000000E+00  0.00000000000E+00 -0.19432372258E+03  0.19432372264E+03  0.50400001928E-02 0. -1.
    10030    2    1    2    0    0  0.00000000000E+00  0.00000000000E+00  0.44886214374E+03  0.83750958899E+03  0.70706795116E+03 0.  0.
        1    1    3    3  502    0  0.13875234129E+03  0.32345013152E+03  0.18489574996E+03  0.39756589161E+03  0.50400001928E-02 0.  1.
       -1    1    3    3    0  502 -0.13875234129E+03 -0.32345013152E+03  0.26396639379E+03  0.43994369738E+03  0.50400001928E-02 0. -1.
</event>
<event>
 5   0  0.1109788E-02  0.7022890E+03  0.7818609E-02  0.9713326E-01
       -2   -1    0    0    0  501  0.00000000000E+00  0.00000000000E+00  0.12678000057E+03  0.12678000060E+03  0.25500000920E-02 0. -1.
        2   -1    0    0  501    0  0.00000000000E+00  0.00000000000E+00 -0.97257031821E+03  0.97257031821E+03  0.25500000920E-02 0.  1.
    10030    2    1    2    0    0  0.00000000000E+00  0.00000000000E+00 -0.84579031764E+03  0.10993503188E+04  0.70228901605E+03 0.  0.
        1    1    3    3  502    0 -0.16266439022E+02  0.29902059665E+03 -0.13585115506E+03  0.32883651047E+03  0.50400001928E-02 0. -1.
       -1    1    3    3    0  502  0.16266439022E+02 -0.29902059665E+03 -0.70993916258E+03  0.77051380834E+03  0.50400001928E-02 0.  1.
</event>
<event>
 5   0  0.6609285E-03  0.7000307E+03  0.7818609E-02  0.9717180E-01
       -1   -1    0    0    0  501  0.00000000000E+00  0.00000000000E+00  0.17448501822E+03  0.17448501829E+03  0.50400001928E-02 0. -1.
        1   -1    0    0  501    0  0.00000000000E+00  0.00000000000E+00 -0.70212763243E+03  0.70212763245E+03  0.50400001928E-02 0.  1.
    10030    2    1    2    0    0  0.00000000000E+00  0.00000000000E+00 -0.52764261421E+03  0.87661265074E+03  0.70003072155E+03 0.  0.
        2    1    3    3  502    0  0.13853927725E+03  0.26660923687E+03 -0.38983748265E+02  0.30297417243E+03  0.25500000920E-02 0. -1.
       -2    1    3    3    0  502 -0.13853927725E+03 -0.26660923687E+03 -0.48865886594E+03  0.57363847831E+03  0.25500000920E-02 0.  1.
</event>
<event>
 5   0  0.6785252E-03  0.7012062E+03  0.7818609E-02  0.9715172E-01
        1   -1    0    0  501    0  0.00000000000E+00  0.00000000000E+00  0.17127916195E+04  0.17127916195E+04  0.50400001928E-02 0. -1.
       -1   -1    0    0    0  501  0.00000000000E+00  0.00000000000E+00 -0.71767359056E+02  0.71767359233E+02  0.50400001928E-02 0.  1.
    10030    2    1    2    0    0  0.00000000000E+00  0.00000000000E+00  0.16410242604E+04  0.17845589787E+04  0.70120619309E+03 0.  0.
        3    1    3    3  502    0 -0.12261450195E+03  0.14007501382E+03  0.64402400505E+02  0.19698478362E+03  0.10100000352E+00 0.  1.
       -3    1    3    3    0  502  0.12261450195E+03 -0.14007501382E+03  0.15766218599E+04  0.15875741951E+04  0.10100000352E+00 0. -1.
</event>
<event>
 5   0  0.4440500E-03  0.7169555E+03  0.7818609E-02  0.9688667E-01
       -3   -1    0    0    0  501  0.00000000000E+00  0.00000000000E+00  0.95286494507E+02  0.95286548035E+02  0.10100000352E+00 0. -1.
        3   -1    0    0  501    0  0.00000000000E+00  0.00000000000E+00 -0.13486304944E+04  0.13486304982E+04  0.10100000352E+00 0.  1.
    10030    2    1    2    0    0  0.00000000000E+00  0.00000000000E+00 -0.12533439999E+04  0.14439170463E+04  0.71695554556E+03 0.  0.
        5    1    3    3  502    0 -0.21056145446E+03  0.12312148585E+03 -0.97690406113E+02  0.26279370584E+03  0.46999998093E+01 0. -1.
       -5    1    3    3    0  502  0.21056145446E+03 -0.12312148585E+03 -0.11556535938E+04  0.11811233404E+04  0.46999998093E+01 0.  1.
</event>
<event>
 5   0  0.6609285E-03  0.6992069E+03  0.7818609E-02  0.9718589E-01
       -1   -1    0    0    0  501  0.00000000000E+00  0.00000000000E+00  0.10008228474E+04  0.10008228474E+04  0.50400001928E-02 0.  1.
        1   -1    0    0  501    0  0.00000000000E+00  0.00000000000E+00 -0.12212207979E+03  0.12212207989E+03  0.50400001928E-02 0. -1.
    10030    2    1    2    0    0  0.00000000000E+00  0.00000000000E+00  0.87870076763E+03  0.11229449273E+04  0.69920688696E+03 0.  0.
        2    1    3    3  502    0 -0.22064954938E+03  0.43655453552E+02  0.86918549629E+03  0.89781704664E+03  0.25500000920E-02 0.  1.
       -2    1    3    3    0  502  0.22064954938E+03 -0.43655453552E+02  0.95152713415E+01  0.22512788069E+03  0.25500000920E-02 0. -1.
</event>
<event>
 5   0  0.6785252E-03  0.6999167E+03  0.7818609E-02  0.9717375E-01
        1   -1    0    0  501    0  0.00000000000E+00  0.00000000000E+00  0.19345355410E+03  0.19345355416E+03  0.50400001928E-02 0. -1.
       -1   -1    0    0    0  501  0.00000000000E+00  0.00000000000E+00 -0.63307629786E+03  0.63307629788E+03  0.50400001928E-02 0.  1.
    10030    2    1    2    0    0  0.00000000000E+00  0.00000000000E+00 -0.43962274377E+03  0.82652985205E+03  0.69991673754E+03 0.  0.
        3    1    3    3  502    0  0.18694271788E+03 -0.79025558460E+02 -0.55647739273E+03  0.59233412655E+03  0.10100000352E+00 0.  1.
       -3    1    3    3    0  502 -0.18694271788E+03  0.79025558460E+02  0.11685464896E+03  0.23419572550E+03  0.10100000352E+00 0. -1.
</event>
<event>
 5   0  0.1099980E-02  0.6996241E+03  0.7818609E-02  0.9717875E-01
       -2   -1    0    0    0  501  0.00000000000E+00  0.00000000000E+00  0.57778625823E+02  0.57778625879E+02  0.25500000920E-02 0. -1.
        2   -1    0    0  501    0  0.00000000000E+00  0.00000000000E+00 -0.21178846844E+04  0.21178846844E+04  0.25500000920E-02 0.  1.
    10030    2    1    2    0    0  0.00000000000E+00  0.00000000000E+00 -0.20601060585E+04  0.21756633102E+04  0.69962408985E+03 0.  0.
        5    1    3    3  502    0  0.15604148865E+03 -0.17377153477E+03 -0.22031485865E+03  0.32110157180E+03  0.46999998093E+01 0. -1.
       -5    1    3    3    0  502 -0.15604148865E+03  0.17377153477E+03 -0.18397911999E+04  0.18545617384E+04  0.46999998093E+01 0.  1.
</event>
<event>
 5   0  0.1109788E-02  0.7057411E+03  0.7818609E-02  0.9707464E-01
       -2   -1    0    0    0  501  0.00000000000E+00  0.00000000000E+00  0.95672896340E+02  0.95672896374E+02  0.25500000920E-02 0. -1.
        2   -1    0    0  501    0  0.00000000000E+00  0.00000000000E+00 -0.13014932050E+04  0.13014932050E+04  0.25500000920E-02 0.  1.
    10030    2    1    2    0    0  0.00000000000E+00  0.00000000000E+00 -0.12058203086E+04  0.13971661013E+04  0.70574109845E+03 0.  0.
        1    1    3    3  502    0 -0.90215234838E+02  0.25698986553E+03 -0.15875177355E+03  0.31525339841E+03  0.50400001928E-02 0. -1.
       -1    1    3    3    0  502  0.90215234838E+02 -0.25698986553E+03 -0.10470685351E+04  0.10819127029E+04  0.50400001928E-02 0.  1.
</event>
<event>
 5   0  0.6689415E-03  0.6976784E+03  0.7818609E-02  0.9721211E-01
        1   -1    0    0  501    0  0.00000000000E+00  0.00000000000E+00  0.94435051392E+03  0.94435051393E+03  0.50400001928E-02 0. -1.
       -1   -1    0    0    0  501  0.00000000000E+00  0.00000000000E+00 -0.12885976974E+03  0.12885976984E+03  0.50400001928E-02 0.  1.
    10030    2    1    2    0    0  0.00000000000E+00  0.00000000000E+00  0.81549074418E+03  0.10732102838E+04  0.69767840682E+03 0.  0.
        1    1    3    3  502    0  0.53905298147E+02  0.27176510186E+03  0.81697036565E+02  0.28885369578E+03  0.50400001928E-02 0.  1.
       -1    1    3    3    0  502 -0.53905298147E+02 -0.27176510186E+03  0.73379370762E+03  0.78435658799E+03  0.50400001928E-02 0. -1.
</event>
<event>
 5   0  0.1079446E-02  0.6995861E+03  0.7818609E-02  0.9717940E-01
        2   -1    0    0  501    0  0.00000000000E+00  0.00000000000E+00  0.96352924398E+03  0.96352924399E+03  0.25500000920E-02 0.  1.
       -2   -1    0    0    0  501  0.00000000000E+00  0.00000000000E+00 -0.12698646437E+03  0.12698646439E+03  0.25500000920E-02 0. -1.
    10030    2    1    2    0    0  0.00000000000E+00  0.00000000000E+00  0.83654277962E+03  0.10905157084E+04  0.69958608341E+03 0.  0.
        2    1    3    3  502    0 -0.24506679732E+02  0.72342893580E+02  0.95037113731E+03  0.95343556166E+03  0.25500000920E-02 0.  1.
       -2    1    3    3    0  502  0.24506679732E+02 -0.72342893580E+02 -0.11382835769E+03  0.13708014672E+03  0.25500000920E-02 0. -1.
</event>
<event>
 5   0  0.1099980E-02  0.7015332E+03  0.7818609E-02  0.9714614E-01
        2   -1    0    0  501    0  0.00000000000E+00  0.00000000000E+00  0.17169508042E+04  0.17169508042E+04  0.25500000920E-02 0.  1.
       -2   -1    0    0    0  501  0.00000000000E+00  0.00000000000E+00 -0.71660305896E+02  0.71660305941E+02  0.25500000920E-02 0. -1.
    10030    2    1    2    0    0  0.00000000000E+00  0.00000000000E+00  0.16452904983E+04  0.17886111101E+04  0.70153323479E+03 0.  0.
        5    1    3    3  502    0  0.26566988797E+03 -0.22825319766E+03  0.86931835707E+03  0.93723876763E+03  0.46999998093E+01 0.  1.
       -5    1    3    3    0  502 -0.26566988797E+03  0.22825319766E+03  0.77597214124E+03  0.85137234251E+03  0.46999998093E+01 0. -1.
</event>
<event>
 5   0  0.6609285E-03  0.6999375E+03  0.7818609E-02  0.9717339E-01
        1   -1    0    0  501    0  0.00000000000E+00  0.00000000000E+00  0.72909240349E+03  0.72909240350E+03  0.50400001928E-02 0.  1.
       -1   -1    0    0    0  501  0.00000000000E+00  0.00000000000E+00 -0.16798708791E+03  0.16798708799E+03  0.50400001928E-02 0. -1.
    10030    2    1    2    0    0  0.00000000000E+00  0.00000000000E+00  0.56110531557E+03  0.89707949149E+03  0.69993745356E+03 0.  0.
        2    1    3    3  502    0  0.13578967370E+03 -0.89163839359E+02 -0.11673833742E+03  0.20004215846E+03  0.25500000920E-02 0. -1.
       -2    1    3    3    0  502 -0.13578967370E+03  0.89163839359E+02  0.67784365299E+03  0.69703733303E+03  0.25500000920E-02 0.  1.
</event>
<event>
 5   0  0.1079446E-02  0.7014479E+03  0.7818609E-02  0.9714759E-01
        2   -1    0    0  501    0  0.00000000000E+00  0.00000000000E+00  0.21324672468E+03  0.21324672470E+03  0.25500000920E-02 0.  1.
       -2   -1    0    0    0  501  0.00000000000E+00  0.00000000000E+00 -0.57683087543E+03  0.57683087543E+03  0.25500000920E-02 0. -1.
    10030    2    1    2    0    0  0.00000000000E+00  0.00000000000E+00 -0.36358415074E+03  0.79007760013E+03  0.70144791650E+03 0.  0.
        2    1    3    3  502    0 -0.16259401896E+03  0.49451748274E+02  0.16377059741E+03  0.23601503975E+03  0.25500000920E-02 0.  1.
       -2    1    3    3    0  502  0.16259401896E+03 -0.49451748274E+02 -0.52735474815E+03  0.55406256038E+03  0.25500000920E-02 0. -1.
</event>
<event>
 5   0  0.1119786E-02  0.6979664E+03  0.7818609E-02  0.9720716E-01
        2   -1    0    0  501    0  0.00000000000E+00  0.00000000000E+00  0.26298580419E+03  0.26298580420E+03  0.25500000920E-02 0. -1.
       -2   -1    0    0    0  501  0.00000000000E+00  0.00000000000E+00 -0.46310206950E+03  0.46310206951E+03  0.25500000920E-02 0.  1.
    10030    2    1    2    0    0  0.00000000000E+00  0.00000000000E+00 -0.20011626531E+03  0.72608787372E+03  0.69796638939E+03 0.  0.
        3    1    3    3  502    0 -0.28019614151E+02 -0.11680569521E+03  0.24080271556E+03  0.26909966041E+03  0.10100000352E+00 0. -1.
       -3    1    3    3    0  502  0.28019614151E+02  0.11680569521E+03 -0.44091898087E+03  0.45698821331E+03  0.10100000352E+00 0.  1.
</event>
<event>
 5   0  0.6990118E-03  0.7013198E+03  0.7818609E-02  0.9714978E-01
       -1   -1    0    0    0  501  0.00000000000E+00  0.00000000000E+00  0.23499190322E+03  0.23499190328E+03  0.50400001928E-02 0. -1.
        1   -1    0    0  501    0  0.00000000000E+00  0.00000000000E+00 -0.52326211953E+03  0.52326211955E+03  0.50400001928E-02 0.  1.
    10030    2    1    2    0    0  0.00000000000E+00  0.00000000000E+00 -0.28827021630E+03  0.75825402283E+03  0.70131978835E+03 0.  0.
        5    1    3    3  502    0 -0.16115464650E+03  0.20857717758E+03 -0.39413134162E+03  0.47416965692E+03  0.46999998093E+01 0.  1.
       -5    1    3    3    0  502  0.16115464650E+03 -0.20857717758E+03  0.10586112532E+03  0.28408436590E+03  0.46999998093E+01 0. -1.
</event>
<event>
 5   0  0.6785252E-03  0.6967460E+03  0.7818609E-02  0.9722813E-01
        1   -1    0    0  501    0  0.00000000000E+00  0.00000000000E+00  0.11119128657E+04  0.11119128657E+04  0.50400001928E-02 0.  1.
       -1   -1    0    0    0  501  0.00000000000E+00  0.00000000000E+00 -0.10914860206E+03  0.10914860218E+03  0.50400001928E-02 0. -1.
    10030    2    1    2    0    0  0.00000000000E+00  0.00000000000E+00  0.10027642636E+04  0.12210614678E+04  0.69674596512E+03 0.  0.
        3    1    3    3  502    0  0.27963283198E+03 -0.19726765494E+03  0.38706894558E+03  0.51665406922E+03  0.10100000352E+00 0. -1.
       -3    1    3    3    0  502 -0.27963283198E+03  0.19726765494E+03  0.61569531802E+03  0.70440739862E+03  0.10100000352E+00 0.  1.
</event>
<event>
 5   0  0.1109788E-02  0.6950810E+03  0.7818609E-02  0.9725682E-01
        2   -1    0    0  501    0  0.00000000000E+00  0.00000000000E+00  0.71823441792E+02  0.71823441837E+02  0.25500000920E-02 0.  1.
       -2   -1    0    0    0  501  0.00000000000E+00  0.00000000000E+00 -0.16816849213E+04  0.16816849213E+04  0.25500000920E-02 0. -1.
    10030    2    1    2    0    0  0.00000000000E+00  0.00000000000E+00 -0.16098614795E+04  0.17535083631E+04  0.69508099988E+03 0.  0.
        1    1    3    3  502    0 -0.69023858726E+02 -0.17610228139E+03 -0.69397066391E+02  0.20147520799E+03  0.50400001928E-02 0.  1.
       -1    1    3    3    0  502  0.69023858726E+02  0.17610228139E+03 -0.15404644131E+04  0.15520331551E+04  0.50400001928E-02 0. -1.
</event>
<event>
 5   0  0.6609285E-03  0.7007187E+03  0.7818609E-02  0.9716004E-01
        1   -1    0    0  501    0  0.00000000000E+00  0.00000000000E+00  0.25249967256E+03  0.25249967261E+03  0.50400001928E-02 0. -1.
       -1   -1    0    0    0  501  0.00000000000E+00  0.00000000000E+00 -0.48614581192E+03  0.48614581195E+03  0.50400001928E-02 0.  1.
    10030    2    1    2    0    0  0.00000000000E+00  0.00000000000E+00 -0.23364613936E+03  0.73864548456E+03  0.70071865497E+03 0.  0.
        2    1    3    3  502    0  0.26024330292E+02 -0.15409896608E+03 -0.44736819154E+03  0.47387979058E+03  0.25500000920E-02 0.  1.
       -2    1    3    3    0  502 -0.26024330292E+02  0.15409896608E+03  0.21372205218E+03  0.26476569398E+03  0.25500000920E-02 0. -1.
</event>
<event>
 5   0  0.6609285E-03  0.6988501E+03  0.7818609E-02  0.9719201E-01
       -1   -1    0    0    0  501  0.00000000000E+00  0.00000000000E+00  0.21275884419E+03  0.21275884425E+03  0.50400001928E-02 0.  1.
        1   -1    0    0  501    0  0.00000000000E+00  0.00000000000E+00 -0.57387911222E+03  0.57387911224E+03  0.50400001928E-02 0. -1.
    10030    2    1    2    0    0  0.00000000000E+00  0.00000000000E+00 -0.36112026803E+03  0.78663795649E+03  0.69885007448E+03 0.  0.
        2    1    3    3  502    0  0.16019562682E+03 -0.31000698040E+03 -0.20103554545E+03  0.40271858324E+03  0.25500000920E-02 0. -1.
       -2    1    3    3    0  502 -0.16019562682E+03  0.31000698040E+03 -0.16008472258E+03  0.38391937325E+03  0.25500000920E-02 0.  1.
</event>
<event>
 5   0  0.1100119E-02  0.7003602E+03  0.7818609E-02  0.9716616E-01
       -2   -1    0    0    0  501  0.00000000000E+00  0.00000000000E+00  0.41102526536E+03  0.41102526537E+03  0.25500000920E-02 0. -1.
        2   -1    0    0  501    0  0.00000000000E+00  0.00000000000E+00 -0.29834200205E+03  0.29834200206E+03  0.25500000920E-02 0.  1.
    10030    2    1    2    0    0  0.00000000000E+00  0.00000000000E+00  0.11268326331E+03  0.70936726743E+03  0.70036019466E+03 0.  0.
        4    1    3    3  502    0 -0.15925877026E+03 -0.12825926310E+03  0.34426976793E+03  0.40042112892E+03  0.12699999809E+01 0. -1.
       -4    1    3    3    0  502  0.15925877026E+03  0.12825926310E+03 -0.23158650462E+03  0.30894613850E+03  0.12699999809E+01 0.  1.
</event>
<event>
 5   0  0.1079446E-02  0.6987550E+03  0.7818609E-02  0.9719364E-01
        2   -1    0    0  501    0  0.00000000000E+00  0.00000000000E+00  0.14732230417E+04  0.14732230417E+04  0.25500000920E-02 0.  1.
       -2   -1    0    0    0  501  0.00000000000E+00  0.00000000000E+00 -0.82855494462E+02  0.82855494501E+02  0.25500000920E-02 0. -1.
    10030    2    1    2    0    0  0.00000000000E+00  0.00000000000E+00  0.13903675473E+04  0.15560785362E+04  0.69875496022E+03 0.  0.
        2    1    3    3  502    0 -0.12066723584E+03 -0.24682106269E+03  0.11758263319E+04  0.12074969075E+04  0.25500000920E-02 0.  1.
       -2    1    3    3    0  502  0.12066723584E+03  0.24682106269E+03  0.21454121533E+03  0.34858162871E+03  0.25500000920E-02 0. -1.
</event>
<event>
 5   0  0.1119786E-02  0.7023498E+03  0.7818609E-02  0.9713222E-01
       -2   -1    0    0    0  501  0.00000000000E+00  0.00000000000E+00  0.46723390458E+03  0.46723390459E+03  0.25500000920E-02 0.  1.
        2   -1    0    0  501    0  0.00000000000E+00  0.00000000000E+00 -0.26394450352E+03  0.26394450353E+03  0.25500000920E-02 0. -1.
    10030    2    1    2    0    0  0.00000000000E+00  0.00000000000E+00  0.20328940107E+03  0.73117840812E+03  0.70234983015E+03 0.  0.
        3    1    3    3  502    0  0.69487829086E+02 -0.34070050449E+03  0.50448749385E+02  0.35135520299E+03  0.10100000352E+00 0. -1.
       -3    1    3    3    0  502 -0.69487829086E+02  0.34070050449E+03  0.15284065168E+03  0.37982320513E+03  0.10100000352E+00 0.  1.
</event>
<event>
 5   0  0.4440500E-03  0.7181485E+03  0.7818609E-02  0.9686690E-01
        4   -1    0    0  501    0  0.00000000000E+00  0.00000000000E+00  0.11608243619E+03  0.11608938320E+03  0.12699999809E+01 0. -1.
       -4   -1    0    0    0  501  0.00000000000E+00  0.00000000000E+00 -0.11106727379E+04  0.11106734639E+04  0.12699999809E+01 0.  1.
    10030    2    1    2    0    0  0.00000000000E+00  0.00000000000E+00 -0.99459030167E+03  0.12267628471E+04  0.71814846305E+03 0.  0.
        2    1    3    3  502    0  0.14062093849E+03 -0.15631373441E+03 -0.99452239347E+03  0.10165052991E+04  0.25500000920E-02 0.  1.
       -2    1    3    3    0  502 -0.14062093849E+03  0.15631373441E+03 -0.67908196660E-01  0.21025754808E+03  0.25500000920E-02 0. -1.
</event>
<event>
 5   0  0.1100119E-02  0.6996578E+03  0.7818609E-02  0.9717818E-01
       -2   -1    0    0    0  501  0.00000000000E+00  0.00000000000E+00  0.10575740466E+03  0.10575740469E+03  0.25500000920E-02 0.  1.
        2   -1    0    0  501    0  0.00000000000E+00  0.00000000000E+00 -0.11571791439E+04  0.11571791439E+04  0.25500000920E-02 0. -1.
    10030    2    1    2    0    0  0.00000000000E+00  0.00000000000E+00 -0.10514217392E+04  0.12629365486E+04  0.69965781066E+03 0.  0.
        4    1    3    3  502    0  0.53156219028E+02  0.23465391639E+03 -0.67311434428E+02  0.24984092179E+03  0.12699999809E+01 0.  1.
       -4    1    3    3    0  502 -0.53156219028E+02 -0.23465391639E+03 -0.98411030481E+03  0.10130956268E+04  0.12699999809E+01 0. -1.
</event>
<event>
 5   0  0.1119786E-02  0.6997889E+03  0.7818609E-02  0.9717593E-01
        2   -1    0    0  501    0  0.00000000000E+00  0.00000000000E+00  0.17743066141E+03  0.17743066143E+03  0.25500000920E-02 0.  1.
       -2   -1    0    0    0  501  0.00000000000E+00  0.00000000000E+00 -0.68999423435E+03  0.68999423436E+03  0.25500000920E-02 0. -1.
    10030    2    1    2    0    0  0.00000000000E+00  0.00000000000E+00 -0.51256357294E+03  0.86742489579E+03  0.69978892070E+03 0.  0.
        3    1    3    3  502    0 -0.31082369111E+02 -0.33517264519E+03 -0.37465290427E+03  0.50365824189E+03  0.10100000352E+00 0. -1.
       -3    1    3    3    0  502  0.31082369111E+02  0.33517264519E+03 -0.13791066867E+03  0.36376665390E+03  0.10100000352E+00 0.  1.
</event>
<event>
 5   0  0.6785252E-03  0.6997736E+03  0.7818609E-02  0.9717619E-01
       -1   -1    0    0    0  501  0.00000000000E+00  0.00000000000E+00  0.89081365151E+03  0.89081365152E+03  0.50400001928E-02 0.  1.
        1   -1    0    0  501    0  0.00000000000E+00  0.00000000000E+00 -0.13742579657E+03  0.13742579667E+03  0.50400001928E-02 0. -1.
    10030    2    1    2    0    0  0.00000000000E+00  0.00000000000E+00  0.75338785493E+03  0.10282394482E+04  0.69977360828E+03 0.  0.
        3    1    3    3  502    0  0.23864417266E+02 -0.10542433094E+03 -0.11227697001E+03  0.15585226390E+03  0.10100000352E+00 0. -1.
       -3    1    3    3    0  502 -0.23864417266E+02  0.10542433094E+03  0.86566482494E+03  0.87238718429E+03  0.10100000352E+00 0.  1.
</event>
<event>
 5   0  0.1109788E-02  0.7045298E+03  0.7818609E-02  0.9709517E-01
        2   -1    0    0  501    0  0.00000000000E+00  0.00000000000E+00  0.95862685019E+03  0.95862685020E+03  0.25500000920E-02 0. -1.
       -2   -1    0    0    0  501  0.00000000000E+00  0.00000000000E+00 -0.12944616019E+03  0.12944616022E+03  0.25500000920E-02 0.  1.
    10030    2    1    2    0    0  0.00000000000E+00  0.00000000000E+00  0.82918069000E+03  0.10880730104E+04  0.70452981435E+03 0.  0.
        1    1    3    3  502    0  0.24638292268E+03  0.10642329752E+03  0.62210412043E+02  0.27550063201E+03  0.50400001928E-02 0.  1.
       -1    1    3    3    0  502 -0.24638292268E+03 -0.10642329752E+03  0.76697027796E+03  0.81257237840E+03  0.50400001928E-02 0. -1.
</event>
<event>
 5   0  0.6609285E-03  0.6964800E+03  0.7818609E-02  0.9723271E-01
        1   -1    0    0  501    0  0.00000000000E+00  0.00000000000E+00  0.28013829991E+03  0.28013829995E+03  0.50400001928E-02 0. -1.
       -1   -1    0    0    0  501  0.00000000000E+00  0.00000000000E+00 -0.43289730049E+03  0.43289730052E+03  0.50400001928E-02 0.  1.
    10030    2    1    2    0    0  0.00000000000E+00  0.00000000000E+00 -0.15275900059E+03  0.71303560047E+03  0.69648004658E+03 0.  0.
        2    1    3    3  502    0  0.33852220682E+03 -0.80125258102E+02 -0.92688399805E+02  0.36001177892E+03  0.25500000920E-02 0.  1.
       -2    1    3    3    0  502 -0.33852220682E+03  0.80125258102E+02 -0.60070600780E+02  0.35302382155E+03  0.25500000920E-02 0. -1.
</event>
<event>
 5   0  0.6689415E-03  0.6936074E+03  0.7818609E-02  0.9728227E-01
        1   -1    0    0  501    0  0.00000000000E+00  0.00000000000E+00  0.21942984000E+03  0.21942984005E+03  0.50400001928E-02 0. -1.
       -1   -1    0    0    0  501  0.00000000000E+00  0.00000000000E+00 -0.54811511226E+03  0.54811511228E+03  0.50400001928E-02 0.  1.
    10030    2    1    2    0    0  0.00000000000E+00  0.00000000000E+00 -0.32868527226E+03  0.76754495233E+03  0.69360741465E+03 0.  0.
        1    1    3    3  502    0 -0.27757559620E+03 -0.16119469326E+03 -0.19041272662E+02  0.32155016845E+03  0.50400001928E-02 0.  1.
       -1    1    3    3    0  502  0.27757559620E+03  0.16119469326E+03 -0.30964399960E+03  0.44599478388E+03  0.50400001928E-02 0. -1.
</event>
<event>
 5   0  0.1100119E-02  0.6987695E+03  0.7818609E-02  0.9719339E-01
        2   -1    0    0  501    0  0.00000000000E+00  0.00000000000E+00  0.52001243381E+03  0.52001243381E+03  0.25500000920E-02 0.  1.
       -2   -1    0    0    0  501  0.00000000000E+00  0.00000000000E+00 -0.23474384880E+03  0.23474384882E+03  0.25500000920E-02 0. -1.
    10030    2    1    2    0    0  0.00000000000E+00  0.00000000000E+00  0.28526858501E+03  0.75475628263E+03  0.69876954754E+03 0.  0.
        4    1    3    3  502    0  0.26444287069E+03 -0.15086752918E+03  0.32776436090E+03  0.44735012283E+03  0.12699999809E+01 0. -1.
       -4    1    3    3    0  502 -0.26444287069E+03  0.15086752918E+03 -0.42495775894E+02  0.30740615980E+03  0.12699999809E+01 0.  1.
</event>
<event>
 5   0  0.1100119E-02  0.6970193E+03  0.7818609E-02  0.9722343E-01
       -2   -1    0    0    0  501  0.00000000000E+00  0.00000000000E+00  0.11636572349E+03  0.11636572352E+03  0.25500000920E-02 0.  1.
        2   -1    0    0  501    0  0.00000000000E+00  0.00000000000E+00 -0.10437694743E+04  0.10437694743E+04  0.25500000920E-02 0. -1.
    10030    2    1    2    0    0  0.00000000000E+00  0.00000000000E+00 -0.92740375085E+03  0.11601351979E+04  0.69701933993E+03 0.  0.
        4    1    3    3  502    0  0.37541191220E+02  0.32309249792E+03 -0.25542090850E+03  0.41356928881E+03  0.12699999809E+01 0.  1.
       -4    1    3    3    0  502 -0.37541191220E+02 -0.32309249792E+03 -0.67198284235E+03  0.74656590905E+03  0.12699999809E+01 0. -1.
</event>
<event>
 5   0  0.1100119E-02  0.7019242E+03  0.7818609E-02  0.9713947E-01
        2   -1    0    0  501    0  0.00000000000E+00  0.00000000000E+00  0.87548168350E+03  0.87548168351E+03  0.25500000920E-02 0.  1.
       -2   -1    0    0    0  501  0.00000000000E+00  0.00000000000E+00 -0.14069329290E+03  0.14069329293E+03  0.25500000920E-02 0. -1.
    10030    2    1    2    0    0  0.00000000000E+00  0.00000000000E+00  0.73478839060E+03  0.10161749764E+04  0.70192421512E+03 0.  0.
        4    1    3    3  502    0 -0.24210101385E+02 -0.53425682205E+02  0.86833226082E+03  0.87031199038E+03  0.12699999809E+01 0.  1.
       -4    1    3    3    0  502  0.24210101385E+02  0.53425682205E+02 -0.13354387022E+03  0.14586298605E+03  0.12699999809E+01 0. -1.
</event>
<event>
 5   0  0.6990118E-03  0.6989475E+03  0.7818609E-02  0.9719034E-01
        1   -1    0    0  501    0  0.00000000000E+00  0.00000000000E+00  0.49106785727E+03  0.49106785730E+03  0.50400001928E-02 0. -1.
       -1   -1    0    0    0  501  0.00000000000E+00  0.00000000000E+00 -0.24870674932E+03  0.24870674937E+03  0.50400001928E-02 0.  1.
    10030    2    1    2    0    0  0.00000000000E+00  0.00000000000E+00  0.24236110795E+03  0.73977460667E+03  0.69894746729E+03 0.  0.
        5    1    3    3  502    0  0.10974741755E+03 -0.30236179865E+03 -0.23333032385E+02  0.32254251401E+03  0.46999998093E+01 0.  1.
       -5    1    3    3    0  502 -0.10974741755E+03  0.30236179865E+03  0.26569414034E+03  0.41723209267E+03  0.46999998093E+01 0. -1.
</event>
<event>
 5   0  0.6689415E-03  0.7063972E+03  0.7818609E-02  0.9706354E-01
       -1   -1    0    0    0  501  0.00000000000E+00  0.00000000000E+00  0.83838724512E+02  0.83838724664E+02  0.50400001928E-02 0.  1.
        1   -1    0    0  501    0  0.00000000000E+00  0.00000000000E+00 -0.14879668664E+04  0.14879668664E+04  0.50400001928E-02 0. -1.
    10030    2    1    2    0    0  0.00000000000E+00  0.00000000000E+00 -0.14041281419E+04  0.15718055911E+04  0.70639718098E+03 0.  0.
        1    1    3    3  502    0 -0.21937604683E+03  0.26812163751E+03 -0.54896507548E+03  0.64913613098E+03  0.50400001928E-02 0.  1.
       -1    1    3    3    0  502  0.21937604683E+03 -0.26812163751E+03 -0.85516306644E+03  0.92266946012E+03  0.50400001928E-02 0. -1.
</event>
<event>
 5   0  0.6990118E-03  0.6990643E+03  0.7818609E-02  0.9718834E-01
        1   -1    0    0  501    0  0.00000000000E+00  0.00000000000E+00  0.55997458703E+03  0.55997458706E+03  0.50400001928E-02 0. -1.
       -1   -1    0    0    0  501  0.00000000000E+00  0.00000000000E+00 -0.21817546087E+03  0.21817546093E+03  0.50400001928E-02 0.  1.
    10030    2    1    2    0    0  0.00000000000E+00  0.00000000000E+00  0.34179912617E+03  0.77815004798E+03  0.69906427067E+03 0.  0.
        5    1    3    3  502    0 -0.67420207280E+02  0.29084777776E+03  0.37314877016E+03  0.47791213507E+03  0.46999998093E+01 0. -1.
       -5    1    3    3    0  502  0.67420207280E+02 -0.29084777776E+03 -0.31349643989E+02  0.30023791292E+03  0.46999998093E+01 0.  1.
</event>
<event>
 5   0  0.1119786E-02  0.7053929E+03  0.7818609E-02  0.9708054E-01
       -2   -1    0    0    0  501  0.00000000000E+00  0.00000000000E+00  0.34335330358E+03  0.34335330359E+03  0.25500000920E-02 0.  1.
        2   -1    0    0  501    0  0.00000000000E+00  0.00000000000E+00 -0.36229384255E+03  0.36229384256E+03  0.25500000920E-02 0. -1.
    10030    2    1    2    0    0  0.00000000000E+00  0.00000000000E+00 -0.18940538971E+02  0.70564714615E+03  0.70539290531E+03 0.  0.
        3    1    3    3  502    0 -0.33172820413E+03  0.11957768304E+03 -0.16708471335E+02  0.35301785636E+03  0.10100000352E+00 0.  1.
       -3    1    3    3    0  502  0.33172820413E+03 -0.11957768304E+03 -0.22320676363E+01  0.35262928979E+03  0.10100000352E+00 0. -1.
</event>
<event>
 5   0  0.4440500E-03  0.7012321E+03  0.7818609E-02  0.9715127E-01
        3   -1    0    0  501    0  0.00000000000E+00  0.00000000000E+00  0.22019105228E+03  0.22019107544E+03  0.10100000352E+00 0.  1.
       -3   -1    0    0    0  501  0.00000000000E+00  0.00000000000E+00 -0.55829517269E+03  0.55829518182E+03  0.10100000352E+00 0. -1.
    10030    2    1    2    0    0  0.00000000000E+00  0.00000000000E+00 -0.33810412041E+03  0.77848625726E+03  0.70123209889E+03 0.  0.
        4    1    3    3  502    0  0.62607214791E+01 -0.31533193980E+03  0.97632784761E+00  0.31539815314E+03  0.12699999809E+01 0.  1.
       -4    1    3    3    0  502 -0.62607214791E+01  0.31533193980E+03 -0.33908044826E+03  0.46308810412E+03  0.12699999809E+01 0. -1.
</event>
<event>
 5   0  0.1109788E-02  0.7072456E+03  0.7818609E-02  0.9704921E-01
        2   -1    0    0  501    0  0.00000000000E+00  0.00000000000E+00  0.10014051990E+04  0.10014051990E+04  0.25500000920E-02 0.  1.
       -2   -1    0    0    0  501  0.00000000000E+00  0.00000000000E+00 -0.12487362243E+03  0.12487362245E+03  0.25500000920E-02 0. -1.
    10030    2    1    2    0    0  0.00000000000E+00  0.00000000000E+00  0.87653157654E+03  0.11262788214E+04  0.70724562842E+03 0.  0.
        1    1    3    3  502    0 -0.29487377420E+03  0.18042221996E+03  0.55686457402E+03  0.65543945105E+03  0.50400001928E-02 0. -1.
       -1    1    3    3    0  502  0.29487377420E+03 -0.18042221996E+03  0.31966700252E+03  0.47083937037E+03  0.50400001928E-02 0.  1.
</event>
<event>
 5   0  0.4440500E-03  0.6990475E+03  0.7818609E-02  0.9718862E-01
        4   -1    0    0  501    0  0.00000000000E+00  0.00000000000E+00  0.39083087319E+03  0.39083293661E+03  0.12699999809E+01 0.  1.
       -4   -1    0    0    0  501  0.00000000000E+00  0.00000000000E+00 -0.31257823455E+03  0.31258081453E+03  0.12699999809E+01 0. -1.
    10030    2    1    2    0    0  0.00000000000E+00  0.00000000000E+00  0.78252638646E+02  0.70341375114E+03  0.69904751615E+03 0.  0.
        2    1    3    3  502    0 -0.31353644306E+03  0.62621784676E+02 -0.10296569051E+03  0.33589957200E+03  0.25500000920E-02 0. -1.
       -2    1    3    3    0  502  0.31353644306E+03 -0.62621784676E+02  0.18121832915E+03  0.36751417914E+03  0.25500000920E-02 0.  1.
</event>
<event>
 5   0  0.6689415E-03  0.7005613E+03  0.7818609E-02  0.9716273E-01
       -1   -1    0    0    0  501  0.00000000000E+00  0.00000000000E+00  0.62871980617E+02  0.62871980819E+02  0.50400001928E-02 0. -1.
        1   -1    0    0  501    0  0.00000000000E+00  0.00000000000E+00 -0.19515296549E+04  0.19515296549E+04  0.50400001928E-02 0.  1.
    10030    2    1    2    0    0  0.00000000000E+00  0.00000000000E+00 -0.18886576743E+04  0.20144016357E+04  0.70056130309E+03 0.  0.
        1    1    3    3  502    0 -0.19123317070E+03 -0.77074078249E+02 -0.13009492931E+03  0.24379341618E+03  0.50400001928E-02 0. -1.
       -1    1    3    3    0  502  0.19123317070E+03  0.77074078249E+02 -0.17585627450E+04  0.17706082195E+04  0.50400001928E-02 0.  1.
</event>
<event>
 5   0  0.4440500E-03  0.7014515E+03  0.7818609E-02  0.9714753E-01
        4   -1    0    0  501    0  0.00000000000E+00  0.00000000000E+00  0.93004054301E+03  0.93004141012E+03  0.12699999809E+01 0. -1.
       -4   -1    0    0    0  501  0.00000000000E+00  0.00000000000E+00 -0.13225749969E+03  0.13226359713E+03  0.12699999809E+01 0.  1.
    10030    2    1    2    0    0  0.00000000000E+00  0.00000000000E+00  0.79778304332E+03  0.10623050072E+04  0.70145145536E+03 0.  0.
        5    1    3    3  502    0  0.17635621268E+03 -0.13878451066E+03  0.80701451984E+03  0.83764979519E+03  0.46999998093E+01 0. -1.
       -5    1    3    3    0  502 -0.17635621268E+03  0.13878451066E+03 -0.92314765212E+01  0.22465521206E+03  0.46999998093E+01 0.  1.
</event>
<event>
 5   0  0.1119786E-02  0.6997667E+03  0.7818609E-02  0.9717631E-01
       -2   -1    0    0    0  501  0.00000000000E+00  0.00000000000E+00  0.55001250866E+03  0.55001250867E+03  0.25500000920E-02 0. -1.
        2   -1    0    0  501    0  0.00000000000E+00  0.00000000000E+00 -0.22257374376E+03  0.22257374377E+03  0.25500000920E-02 0.  1.
    10030    2    1    2    0    0  0.00000000000E+00  0.00000000000E+00  0.32743876490E+03  0.77258625244E+03  0.69976665589E+03 0.  0.
        3    1    3    3  502    0 -0.15627294451E+03 -0.31294591931E+03  0.15502939400E+03  0.38261012115E+03  0.10100000352E+00 0.  1.
       -3    1    3    3    0  502  0.15627294451E+03  0.31294591931E+03  0.17240937090E+03  0.38997613129E+03  0.10100000352E+00 0. -1.
</event>
<event>
 5   0  0.6609285E-03  0.7033336E+03  0.7818609E-02  0.9711548E-01
       -1   -1    0    0    0  501  0.00000000000E+00  0.00000000000E+00  0.20006157093E+03  0.20006157099E+03  0.50400001928E-02 0.  1.
        1   -1    0    0  501    0  0.00000000000E+00  0.00000000000E+00 -0.61815733563E+03  0.61815733565E+03  0.50400001928E-02 0. -1.
    10030    2    1    2    0    0  0.00000000000E+00  0.00000000000E+00 -0.41809576470E+03  0.81821890664E+03  0.70333357002E+03 0.  0.
        2    1    3    3  502    0  0.43068601165E+02 -0.25483811389E+03 -0.48648082059E+03  0.55087290504E+03  0.25500000920E-02 0. -1.
       -2    1    3    3    0  502 -0.43068601165E+02  0.25483811389E+03  0.68385055887E+02  0.26734600160E+03  0.25500000920E-02 0.  1.
</event>
<event>
 5   0  0.1079446E-02  0.7005939E+03  0.7818609E-02  0.9716217E-01
       -2   -1    0    0    0  501  0.00000000000E+00  0.00000000000E+00  0.58501433483E+03  0.58501433483E+03  0.25500000920E-02 0.  1.
        2   -1    0    0  501    0  0.00000000000E+00  0.00000000000E+00 -0.20975204451E+03  0.20975204453E+03  0.25500000920E-02 0. -1.
    10030    2    1    2    0    0  0.00000000000E+00  0.00000000000E+00  0.37526229032E+03  0.79476637936E+03  0.70059389894E+03 0.  0.
        2    1    3    3  502    0  0.18256235885E+03 -0.24678352436E+02  0.52562285070E+03  0.55697164841E+03  0.25500000920E-02 0.  1.
       -2    1    3    3    0  502 -0.18256235885E+03  0.24678352436E+02 -0.15036056038E+03  0.23779473096E+03  0.25500000920E-02 0. -1.
</event>
<event>
 5   0  0.6785252E-03  0.6973271E+03  0.7818609E-02  0.9721814E-01
        1   -1    0    0  501    0  0.00000000000E+00  0.00000000000E+00  0.63136970087E+03  0.63136970089E+03  0.50400001928E-02 0.  1.
       -1   -1    0    0    0  501  0.00000000000E+00  0.00000000000E+00 -0.19254372599E+03  0.19254372606E+03  0.50400001928E-02 0. -1.
    10030    2    1    2    0    0  0.00000000000E+00  0.00000000000E+00  0.43882597488E+03  0.82391342695E+03  0.69732711039E+03 0.  0.
        3    1    3    3  502    0 -0.87707327913E+01  0.22323341242E+03 -0.96867109880E+02  0.24350221632E+03  0.10100000352E+00 0. -1.
       -3    1    3    3    0  502  0.87707327913E+01 -0.22323341242E+03  0.53569308476E+03  0.58041121064E+03  0.10100000352E+00 0.  1.
</event>
<event>
 5   0  0.6246998E-03  0.7024262E+03  0.7818609E-02  0.9713092E-01
       -1   -1    0    0    0  501  0.00000000000E+00  0.00000000000E+00  0.48359016970E+03  0.48359016973E+03  0.50400001928E-02 0.  1.
        1   -1    0    0  501    0  0.00000000000E+00  0.00000000000E+00 -0.25507270006E+03  0.25507270011E+03  0.50400001928E-02 0. -1.
    10030    2    1    2    0    0  0.00000000000E+00  0.00000000000E+00  0.22851746965E+03  0.73866286984E+03  0.70242622484E+03 0.  0.
        4    1    3    3  502    0 -0.16803536152E+03 -0.14910815870E+02  0.43819357231E+03  0.46954598802E+03  0.12699999809E+01 0.  1.
       -4    1    3    3    0  502  0.16803536152E+03  0.14910815870E+02 -0.20967610266E+03  0.26911688182E+03  0.12699999809E+01 0. -1.
</event>
<event>
 5   0  0.1100119E-02  0.7000508E+03  0.7818609E-02  0.9717145E-01
       -2   -1    0    0    0  501  0.00000000000E+00  0.00000000000E+00  0.11900091418E+03  0.11900091421E+03  0.25500000920E-02 0.  1.
        2   -1    0    0  501    0  0.00000000000E+00  0.00000000000E+00 -0.10295534020E+04  0.10295534020E+04  0.25500000920E-02 0. -1.
    10030    2    1    2    0    0  0.00000000000E+00  0.00000000000E+00 -0.91055248781E+03  0.11485543162E+04  0.70005084401E+03 0.  0.
        4    1    3    3  502    0  0.16350467485E+03  0.30778642823E+03 -0.50843806649E+03  0.61642286172E+03  0.12699999809E+01 0. -1.
       -4    1    3    3    0  502 -0.16350467485E+03 -0.30778642823E+03 -0.40211442132E+03  0.53213145447E+03  0.12699999809E+01 0.  1.
</event>
<event>
 5   0  0.1099980E-02  0.7056805E+03  0.7818609E-02  0.9707567E-01
       -2   -1    0    0    0  501  0.00000000000E+00  0.00000000000E+00  0.33171266571E+03  0.33171266572E+03  0.25500000920E-02 0.  1.
        2   -1    0    0  501    0  0.00000000000E+00  0.00000000000E+00 -0.37531353201E+03  0.37531353202E+03  0.25500000920E-02 0. -1.
    10030    2    1    2    0    0  0.00000000000E+00  0.00000000000E+00 -0.43600866300E+02  0.70702619774E+03  0.70568052881E+03 0.  0.
        5    1    3    3  502    0  0.92198337603E+02 -0.27616600332E+03 -0.22144397324E+03  0.36582470957E+03  0.46999998093E+01 0. -1.
       -5    1    3    3    0  502 -0.92198337603E+02  0.27616600332E+03  0.17784310694E+03  0.34120148817E+03  0.46999998093E+01 0.  1.
</event>
<event>
 5   0  0.4440500E-03  0.7012422E+03  0.7818609E-02  0.9715110E-01
        4   -1    0    0  501    0  0.00000000000E+00  0.00000000000E+00  0.18472050864E+03  0.18472487437E+03  0.12699999809E+01 0.  1.
       -4   -1    0    0    0  501  0.00000000000E+00  0.00000000000E+00 -0.66550691536E+03  0.66550812714E+03  0.12699999809E+01 0. -1.
    10030    2    1    2    0    0  0.00000000000E+00  0.00000000000E+00 -0.48078640672E+03  0.85023300151E+03  0.70124217498E+03 0.  0.
        3    1    3    3  502    0 -0.15356384623E+03  0.29490585996E+02  0.14010434211E+03  0.20995424838E+03  0.10100000352E+00 0.  1.
       -3    1    3    3    0  502  0.15356384623E+03 -0.29490585996E+02 -0.62089074883E+03  0.64027875313E+03  0.10100000352E+00 0. -1.
</event>
<event>
 5   0  0.6609285E-03  0.7005209E+03  0.7818609E-02  0.9716342E-01
        1   -1    0    0  501    0  0.00000000000E+00  0.00000000000E+00  0.10362415601E+04  0.10362415601E+04  0.50400001928E-02 0.  1.
       -1   -1    0    0    0  501  0.00000000000E+00  0.00000000000E+00 -0.11839167571E+03  0.11839167582E+03  0.50400001928E-02 0. -1.
    10030    2    1    2    0    0  0.00000000000E+00  0.00000000000E+00  0.91784988436E+03  0.11546332359E+04  0.70052087709E+03 0.  0.
        2    1    3    3  502    0 -0.52088154586E+02  0.22177708381E+03  0.89744645402E+03  0.92590949266E+03  0.25500000920E-02 0.  1.
       -2    1    3    3    0  502  0.52088154586E+02 -0.22177708381E+03  0.20403430343E+02  0.22872374325E+03  0.25500000920E-02 0. -1.
</event>
<event>
 5   0  0.6246998E-03  0.6990635E+03  0.7818609E-02  0.9718835E-01
        1   -1    0    0  501    0  0.00000000000E+00  0.00000000000E+00  0.16206748244E+04  0.16206748244E+04  0.50400001928E-02 0.  1.
       -1   -1    0    0    0  501  0.00000000000E+00  0.00000000000E+00 -0.75383686809E+02  0.75383686978E+02  0.50400001928E-02 0. -1.
    10030    2    1    2    0    0  0.00000000000E+00  0.00000000000E+00  0.15452911376E+04  0.16960585114E+04  0.69906349793E+03 0.  0.
        4    1    3    3  502    0 -0.34377982046E+03 -0.14960589921E+02  0.92146490643E+03  0.98361962713E+03  0.12699999809E+01 0.  1.
       -4    1    3    3    0  502  0.34377982046E+03  0.14960589921E+02  0.62382623119E+03  0.71243888428E+03  0.12699999809E+01 0. -1.
</event>
<event>
 5   0  0.6990118E-03  0.7001040E+03  0.7818609E-02  0.9717054E-01
        1   -1    0    0  501    0  0.00000000000E+00  0.00000000000E+00  0.48146990468E+03  0.48146990471E+03  0.50400001928E-02 0. -1.
       -1   -1    0    0    0  501  0.00000000000E+00  0.00000000000E+00 -0.25450480132E+03  0.25450480137E+03  0.50400001928E-02 0.  1.
    10030    2    1    2    0    0  0.00000000000E+00  0.00000000000E+00  0.22696510336E+03  0.73597470608E+03  0.70010399930E+03 0.  0.
        5    1    3    3  502    0  0.19477123692E+03 -0.87596245540E+02  0.40500948137E+03  0.45789049670E+03  0.46999998093E+01 0. -1.
       -5    1    3    3    0  502 -0.19477123692E+03  0.87596245540E+02 -0.17804437801E+03  0.27808420938E+03  0.46999998093E+01 0.  1.
</event>
<event>
 5   0  0.6785252E-03  0.7041202E+03  0.7818609E-02  0.9710212E-01
       -1   -1    0    0    0  501  0.00000000000E+00  0.00000000000E+00  0.60685033366E+03  0.60685033369E+03  0.50400001928E-02 0.  1.
        1   -1    0    0  501    0  0.00000000000E+00  0.00000000000E+00 -0.20424526144E+03  0.20424526150E+03  0.50400001928E-02 0. -1.
    10030    2    1    2    0    0  0.00000000000E+00  0.00000000000E+00  0.40260507222E+03  0.81109559519E+03  0.70412017465E+03 0.  0.
        3    1    3    3  502    0  0.32060616960E+03  0.14032080921E+03  0.15716626988E+03  0.38363979469E+03  0.10100000352E+00 0. -1.
       -3    1    3    3    0  502 -0.32060616960E+03 -0.14032080921E+03  0.24543880235E+03  0.42745580050E+03  0.10100000352E+00 0.  1.
</event>
<event>
 5   0  0.1109788E-02  0.7020585E+03  0.7818609E-02  0.9713718E-01
       -2   -1    0    0    0  501  0.00000000000E+00  0.00000000000E+00  0.10855680102E+03  0.10855680105E+03  0.25500000920E-02 0. -1.
        2   -1    0    0  501    0  0.00000000000E+00  0.00000000000E+00 -0.11350881401E+04  0.11350881401E+04  0.25500000920E-02 0.  1.
    10030    2    1    2    0    0  0.00000000000E+00  0.00000000000E+00 -0.10265313391E+04  0.12436449412E+04  0.70205850863E+03 0.  0.
        1    1    3    3  502    0  0.93530136484E+02  0.33696487750E+03 -0.45929317611E+03  0.57727241122E+03  0.50400001928E-02 0. -1.
       -1    1    3    3    0  502 -0.93530136484E+02 -0.33696487750E+03 -0.56723816297E+03  0.66637252994E+03  0.50400001928E-02 0.  1.
</event>
<event>
 5   0  0.6785252E-03  0.7035056E+03  0.7818609E-02  0.9711256E-01
       -1   -1    0    0    0  501  0.00000000000E+00  0.00000000000E+00  0.21017041488E+03  0.21017041494E+03  0.50400001928E-02 0.  1.
        1   -1    0    0  501    0  0.00000000000E+00  0.00000000000E+00 -0.58871281773E+03  0.58871281776E+03  0.50400001928E-02 0. -1.
    10030    2    1    2    0    0  0.00000000000E+00  0.00000000000E+00 -0.37854240285E+03  0.79888323270E+03  0.70350555700E+03 0.  0.
        3    1    3    3  502    0 -0.19360908104E+03  0.42061500787E+02 -0.51932396401E+03  0.55583364049E+03  0.10100000352E+00 0. -1.
       -3    1    3    3    0  502  0.19360908104E+03 -0.42061500787E+02  0.14078156116E+03  0.24304959221E+03  0.10100000352E+00 0.  1.
</event>
<event>
 5   0  0.6689415E-03  0.6996548E+03  0.7818609E-02  0.9717823E-01
        1   -1    0    0  501    0  0.00000000000E+00  0.00000000000E+00  0.19793068846E+03  0.19793068853E+03  0.50400001928E-02 0.  1.
       -1   -1    0    0    0  501  0.00000000000E+00  0.00000000000E+00 -0.61829324243E+03  0.61829324245E+03  0.50400001928E-02 0. -1.
    10030    2    1    2    0    0  0.00000000000E+00  0.00000000000E+00 -0.42036255397E+03  0.81622393098E+03  0.69965479254E+03 0.  0.
        1    1    3    3  502    0  0.18641527343E+03  0.80222469716E+02  0.12223674390E+03  0.23691374042E+03  0.50400001928E-02 0.  1.
       -1    1    3    3    0  502 -0.18641527343E+03 -0.80222469716E+02 -0.54259929786E+03  0.57931019056E+03  0.50400001928E-02 0. -1.
</event>
<event>
 5   0  0.6689415E-03  0.7005592E+03  0.7818609E-02  0.9716276E-01
       -1   -1    0    0    0  501  0.00000000000E+00  0.00000000000E+00  0.20881182939E+03  0.20881182945E+03  0.50400001928E-02 0.  1.
        1   -1    0    0  501    0  0.00000000000E+00  0.00000000000E+00 -0.58759020966E+03  0.58759020968E+03  0.50400001928E-02 0. -1.
    10030    2    1    2    0    0  0.00000000000E+00  0.00000000000E+00 -0.37877838026E+03  0.79640203913E+03  0.70055916708E+03 0.  0.
        1    1    3    3  502    0  0.21220304829E+03 -0.25046796505E+03 -0.32830080353E+03  0.46426905222E+03  0.50400001928E-02 0. -1.
       -1    1    3    3    0  502 -0.21220304829E+03  0.25046796505E+03 -0.50477576733E+02  0.33213298692E+03  0.50400001928E-02 0.  1.
</event>
<event>
 5   0  0.6609285E-03  0.6974853E+03  0.7818609E-02  0.9721542E-01
        1   -1    0    0  501    0  0.00000000000E+00  0.00000000000E+00  0.34122030771E+03  0.34122030775E+03  0.50400001928E-02 0.  1.
       -1   -1    0    0    0  501  0.00000000000E+00  0.00000000000E+00 -0.35643078591E+03  0.35643078594E+03  0.50400001928E-02 0. -1.
    10030    2    1    2    0    0  0.00000000000E+00  0.00000000000E+00 -0.15210478195E+02  0.69765109369E+03  0.69748526141E+03 0.  0.
        2    1    3    3  502    0  0.32797348144E+03 -0.11098899540E+03 -0.49283609371E+02  0.34973423594E+03  0.25500000920E-02 0. -1.
       -2    1    3    3    0  502 -0.32797348144E+03  0.11098899540E+03  0.34073131176E+02  0.34791685775E+03  0.25500000920E-02 0.  1.
</event>
<event>
 5   0  0.6785252E-03  0.7008604E+03  0.7818609E-02  0.9715762E-01
       -1   -1    0    0    0  501  0.00000000000E+00  0.00000000000E+00  0.18391273321E+03  0.18391273328E+03  0.50400001928E-02 0. -1.
        1   -1    0    0  501    0  0.00000000000E+00  0.00000000000E+00 -0.66771526356E+03  0.66771526358E+03  0.50400001928E-02 0.  1.
    10030    2    1    2    0    0  0.00000000000E+00  0.00000000000E+00 -0.48380253035E+03  0.85162799686E+03  0.70086044021E+03 0.  0.
        3    1    3    3  502    0 -0.19161990021E+03 -0.18655128455E+03  0.33267952080E+02  0.26949273601E+03  0.10100000352E+00 0. -1.
       -3    1    3    3    0  502  0.19161990021E+03  0.18655128455E+03 -0.51707048243E+03  0.58213526085E+03  0.10100000352E+00 0.  1.
</event>
<event>
 5   0  0.1109788E-02  0.7095692E+03  0.7818609E-02  0.9701006E-01
       -2   -1    0    0    0  501  0.00000000000E+00  0.00000000000E+00  0.74750515700E+03  0.74750515701E+03  0.25500000920E-02 0. -1.
        2   -1    0    0  501    0  0.00000000000E+00  0.00000000000E+00 -0.16838964062E+03  0.16838964064E+03  0.25500000920E-02 0.  1.
    10030    2    1    2    0    0  0.00000000000E+00  0.00000000000E+00  0.57911551638E+03  0.91589479765E+03  0.70956923486E+03 0.  0.
        1    1    3    3  502    0 -0.15434303509E+03  0.12657646838E+03  0.66815079408E+03  0.69732980611E+03  0.50400001928E-02 0. -1.
       -1    1    3    3    0  502  0.15434303509E+03 -0.12657646838E+03 -0.89035277704E+02  0.21856499154E+03  0.50400001928E-02 0.  1.
</event>
<event>
 5   0  0.1119786E-02  0.7029900E+03  0.7818609E-02  0.9712132E-01
        2   -1    0    0  501    0  0.00000000000E+00  0.00000000000E+00  0.46557051950E+03  0.46557051951E+03  0.25500000920E-02 0. -1.
       -2   -1    0    0    0  501  0.00000000000E+00  0.00000000000E+00 -0.26537063297E+03  0.26537063298E+03  0.25500000920E-02 0.  1.
    10030    2    1    2    0    0  0.00000000000E+00  0.00000000000E+00  0.20019988653E+03  0.73094115249E+03  0.70299002399E+03 0.  0.
        3    1    3    3  502    0  0.18780588625E+03 -0.25382789953E+03  0.26067166521E+03  0.40945009553E+03  0.10100000352E+00 0. -1.
       -3    1    3    3    0  502 -0.18780588625E+03  0.25382789953E+03 -0.60471778675E+02  0.32149105696E+03  0.10100000352E+00 0.  1.
</event>
<event>
 5   0  0.6785252E-03  0.6995058E+03  0.7818609E-02  0.9718078E-01
       -1   -1    0    0    0  501  0.00000000000E+00  0.00000000000E+00  0.29895327837E+03  0.29895327841E+03  0.50400001928E-02 0.  1.
        1   -1    0    0  501    0  0.00000000000E+00  0.00000000000E+00 -0.40918459609E+03  0.40918459612E+03  0.50400001928E-02 0. -1.
    10030    2    1    2    0    0  0.00000000000E+00  0.00000000000E+00 -0.11023131772E+03  0.70813787454E+03  0.69950575834E+03 0.  0.
        3    1    3    3  502    0  0.10280232769E+02  0.34926775591E+03 -0.39649107127E+02  0.35166135756E+03  0.10100000352E+00 0.  1.
       -3    1    3    3    0  502 -0.10280232769E+02 -0.34926775591E+03 -0.70582210590E+02  0.35647651698E+03  0.10100000352E+00 0. -1.
</event>
<event>
 5   0  0.1099980E-02  0.6977307E+03  0.7818609E-02  0.9721121E-01
        2   -1    0    0  501    0  0.00000000000E+00  0.00000000000E+00  0.61505581670E+03  0.61505581670E+03  0.25500000920E-02 0. -1.
       -2   -1    0    0    0  501  0.00000000000E+00  0.00000000000E+00 -0.19787965969E+03  0.19787965971E+03  0.25500000920E-02 0.  1.
    10030    2    1    2    0    0  0.00000000000E+00  0.00000000000E+00  0.41717615700E+03  0.81293547641E+03  0.69773070940E+03 0.  0.
        5    1    3    3  502    0 -0.33138857752E+03 -0.87329864347E+02  0.13272092522E+03  0.36753479904E+03  0.46999998093E+01 0.  1.
       -5    1    3    3    0  502  0.33138857752E+03  0.87329864347E+02  0.28445523178E+03  0.44540067737E+03  0.46999998093E+01 0. -1.
</event>
<event>
 5   0  0.6609285E-03  0.7028749E+03  0.7818609E-02  0.9712328E-01
        1   -1    0    0  501    0  0.00000000000E+00  0.00000000000E+00  0.64994132757E+03  0.64994132759E+03  0.50400001928E-02 0.  1.
       -1   -1    0    0    0  501  0.00000000000E+00  0.00000000000E+00 -0.19002987669E+03  0.19002987675E+03  0.50400001928E-02 0. -1.
    10030    2    1    2    0    0  0.00000000000E+00  0.00000000000E+00  0.45991145088E+03  0.83997120434E+03  0.70287486900E+03 0.  0.
        2    1    3    3  502    0  0.78481046049E+02  0.23195450382E+03  0.53120835520E+03  0.58493117806E+03  0.25500000920E-02 0.  1.
       -2    1    3    3    0  502 -0.78481046049E+02 -0.23195450382E+03 -0.71296904315E+02  0.25504002628E+03  0.25500000920E-02 0. -1.
</event>
<event>
 5   0  0.6609285E-03  0.7014236E+03  0.7818609E-02  0.9714801E-01
        1   -1    0    0  501    0  0.00000000000E+00  0.00000000000E+00  0.11850416034E+04  0.11850416034E+04  0.50400001928E-02 0. -1.
       -1   -1    0    0    0  501  0.00000000000E+00  0.00000000000E+00 -0.10379278528E+03  0.10379278541E+03  0.50400001928E-02 0.  1.
    10030    2    1    2    0    0  0.00000000000E+00  0.00000000000E+00  0.10812488181E+04  0.12888343888E+04  0.70142360605E+03 0.  0.
        2    1    3    3  502    0 -0.27929423149E+02 -0.31449813817E+03  0.82115775693E+03  0.87976655618E+03  0.25500000920E-02 0.  1.
       -2    1    3    3    0  502  0.27929423149E+02  0.31449813817E+03  0.26009106120E+03  0.40906783266E+03  0.25500000920E-02 0. -1.
</event>
<event>
 5   0  0.6689415E-03  0.7015563E+03  0.7818609E-02  0.9714574E-01
       -1   -1    0    0    0  501  0.00000000000E+00  0.00000000000E+00  0.26816520817E+03  0.26816520822E+03  0.50400001928E-02 0. -1.
        1   -1    0    0  501    0  0.00000000000E+00  0.00000000000E+00 -0.45884144274E+03  0.45884144277E+03  0.50400001928E-02 0.  1.
    10030    2    1    2    0    0  0.00000000000E+00  0.00000000000E+00 -0.19067623456E+03  0.72700665099E+03  0.70155630149E+03 0.  0.
        1    1    3    3  502    0 -0.10319054287E+03  0.29735993877E+03 -0.25579077571E+03  0.40558617122E+03  0.50400001928E-02 0.  1.
       -1    1    3    3    0  502  0.10319054287E+03 -0.29735993877E+03  0.65114541146E+02  0.32142047977E+03  0.50400001928E-02 0. -1.
</event>
<event>
 5   0  0.6785252E-03  0.7022029E+03  0.7818609E-02  0.9713472E-01
        1   -1    0    0  501    0  0.00000000000E+00  0.00000000000E+00  0.81327072513E+03  0.81327072514E+03  0.50400001928E-02 0.  1.
       -1   -1    0    0    0  501  0.00000000000E+00  0.00000000000E+00 -0.15157586460E+03  0.15157586468E+03  0.50400001928E-02 0. -1.
    10030    2    1    2    0    0  0.00000000000E+00  0.00000000000E+00  0.66169486053E+03  0.96484658982E+03  0.70220285776E+03 0.  0.
        3    1    3    3  502    0 -0.22565866185E+03  0.14477684544E+03  0.64233099534E+03  0.69603971469E+03  0.10100000352E+00 0.  1.
       -3    1    3    3    0  502  0.22565866185E+03 -0.14477684544E+03  0.19363865188E+02  0.26880687514E+03  0.10100000352E+00 0. -1.
</event>
<event>
 5   0  0.1099980E-02  0.6955119E+03  0.7818609E-02  0.9724938E-01
       -2   -1    0    0    0  501  0.00000000000E+00  0.00000000000E+00  0.58073076343E+03  0.58073076343E+03  0.25500000920E-02 0. -1.
        2   -1    0    0  501    0  0.00000000000E+00  0.00000000000E+00 -0.20824483844E+03  0.20824483845E+03  0.25500000920E-02 0.  1.
    10030    2    1    2    0    0  0.00000000000E+00  0.00000000000E+00  0.37248592499E+03  0.78897560189E+03  0.69551185184E+03 0.  0.
        5    1    3    3  502    0 -0.35645074175E+02 -0.34290964742E+03  0.13482537077E+03  0.37021286878E+03  0.46999998093E+01 0.  1.
       -5    1    3    3    0  502  0.35645074175E+02  0.34290964742E+03  0.23766055423E+03  0.41876273311E+03  0.46999998093E+01 0. -1.
</event>
<event>
 5   0  0.1100119E-02  0.7003265E+03  0.7818609E-02  0.9716674E-01
       -2   -1    0    0    0  501  0.00000000000E+00  0.00000000000E+00  0.13587928381E+03  0.13587928383E+03  0.25500000920E-02 0. -1.
        2   -1    0    0  501    0  0.00000000000E+00  0.00000000000E+00 -0.90237665539E+03  0.90237665540E+03  0.25500000920E-02 0.  1.
    10030    2    1    2    0    0  0.00000000000E+00  0.00000000000E+00 -0.76649737158E+03  0.10382559392E+04  0.70032647722E+03 0.  0.
        4    1    3    3  502    0  0.31686672268E+03 -0.88388953925E+02 -0.20537239508E+03  0.38780995433E+03  0.12699999809E+01 0. -1.
       -4    1    3    3    0  502 -0.31686672268E+03  0.88388953925E+02 -0.56112497650E+03  0.65044598490E+03  0.12699999809E+01 0.  1.
</event>
<event>
 5   0  0.6990118E-03  0.7003171E+03  0.7818609E-02  0.9716690E-01
       -1   -1    0    0    0  501  0.00000000000E+00  0.00000000000E+00  0.16156401463E+03  0.16156401471E+03  0.50400001928E-02 0. -1.
        1   -1    0    0  501    0  0.00000000000E+00  0.00000000000E+00 -0.75890055446E+03  0.75890055448E+03  0.50400001928E-02 0.  1.
    10030    2    1    2    0    0  0.00000000000E+00  0.00000000000E+00 -0.59733653983E+03  0.92046456918E+03  0.70031712910E+03 0.  0.
        5    1    3    3  502    0  0.17609473899E+03  0.20969004609E+03 -0.11881008243E+02  0.27412136160E+03  0.46999998093E+01 0. -1.
       -5    1    3    3    0  502 -0.17609473899E+03 -0.20969004609E+03 -0.58545553159E+03  0.64634320759E+03  0.46999998093E+01 0.  1.
</event>
<event>
 5   0  0.6990118E-03  0.7004435E+03  0.7818609E-02  0.9716474E-01
       -1   -1    0    0    0  501  0.00000000000E+00  0.00000000000E+00  0.83985837334E+02  0.83985837485E+02  0.50400001928E-02 0.  1.
        1   -1    0    0  501    0  0.00000000000E+00  0.00000000000E+00 -0.14604280155E+04  0.14604280155E+04  0.50400001928E-02 0. -1.
    10030    2    1    2    0    0  0.00000000000E+00  0.00000000000E+00 -0.13764421782E+04  0.15444138530E+04  0.70044348771E+03 0.  0.
        5    1    3    3  502    0 -0.18303616553E+03  0.59389316425E+02 -0.43105943578E+02  0.19725501557E+03  0.46999998093E+01 0.  1.
       -5    1    3    3    0  502  0.18303616553E+03 -0.59389316425E+02 -0.13333362346E+04  0.13471588374E+04  0.46999998093E+01 0. -1.
</event>
<event>
 5   0  0.1109788E-02  0.6794228E+03  0.7818609E-02  0.9753084E-01
       -2   -1    0    0    0  501  0.00000000000E+00  0.00000000000E+00  0.59444653368E+03  0.59444653369E+03  0.25500000920E-02 0.  1.
        2   -1    0    0  501    0  0.00000000000E+00  0.00000000000E+00 -0.19413662609E+03  0.19413662610E+03  0.25500000920E-02 0. -1.
    10030    2    1    2    0    0  0.00000000000E+00  0.00000000000E+00  0.40030990760E+03  0.78858315979E+03  0.67942282695E+03 0.  0.
        1    1    3    3  502    0  0.11275451944E+03  0.26716720474E+03 -0.52270583467E+01  0.29003313450E+03  0.50400001928E-02 0. -1.
       -1    1    3    3    0  502 -0.11275451944E+03 -0.26716720474E+03  0.40553696594E+03  0.49855002529E+03  0.50400001928E-02 0.  1.
</event>
<event>
 5   0  0.1100119E-02  0.7084447E+03  0.7818609E-02  0.9702899E-01
        2   -1    0    0  501    0  0.00000000000E+00  0.00000000000E+00  0.13314753109E+03  0.13314753111E+03  0.25500000920E-02 0. -1.
       -2   -1    0    0    0  501  0.00000000000E+00  0.00000000000E+00 -0.94236419725E+03  0.94236419725E+03  0.25500000920E-02 0.  1.
    10030    2    1    2    0    0  0.00000000000E+00  0.00000000000E+00 -0.80921666616E+03  0.10755117284E+04  0.70844468030E+03 0.  0.
        4    1    3    3  502    0 -0.27098646125E+03  0.77816749204E+02 -0.73015005222E+03  0.78269395059E+03  0.12699999809E+01 0.  1.
       -4    1    3    3    0  502  0.27098646125E+03 -0.77816749204E+02 -0.79066613946E+02  0.29281777777E+03  0.12699999809E+01 0. -1.
</event>
<event>
 5   0  0.1100119E-02  0.6997968E+03  0.7818609E-02  0.9717580E-01
        2   -1    0    0  501    0  0.00000000000E+00  0.00000000000E+00  0.84592800383E+03  0.84592800383E+03  0.25500000920E-02 0. -1.
       -2   -1    0    0    0  501  0.00000000000E+00  0.00000000000E+00 -0.14472733427E+03  0.14472733429E+03  0.25500000920E-02 0.  1.
    10030    2    1    2    0    0  0.00000000000E+00  0.00000000000E+00  0.70120066956E+03  0.99065533812E+03  0.69979684192E+03 0.  0.
        4    1    3    3  502    0 -0.17746729040E+03  0.11789503139E+03 -0.42307039558E+02  0.21722195120E+03  0.12699999809E+01 0.  1.
       -4    1    3    3    0  502  0.17746729040E+03 -0.11789503139E+03  0.74350770912E+03  0.77343338692E+03  0.12699999809E+01 0. -1.
</event>
<event>
 5   0  0.6246998E-03  0.7010995E+03  0.7818609E-02  0.9715354E-01
       -1   -1    0    0    0  501  0.00000000000E+00  0.00000000000E+00  0.17149768791E+03  0.17149768798E+03  0.50400001928E-02 0. -1.
        1   -1    0    0  501    0  0.00000000000E+00  0.00000000000E+00 -0.71654094230E+03  0.71654094232E+03  0.50400001928E-02 0.  1.
    10030    2    1    2    0    0  0.00000000000E+00  0.00000000000E+00 -0.54504325440E+03  0.88803863030E+03  0.70109946494E+03 0.  0.
        4    1    3    3  502    0 -0.34151233717E+03 -0.21745301516E+02 -0.36881910652E+03  0.50312292813E+03  0.12699999809E+01 0. -1.
       -4    1    3    3    0  502  0.34151233717E+03  0.21745301516E+02 -0.17622414788E+03  0.38491570217E+03  0.12699999809E+01 0.  1.
</event>
<event>
 5   0  0.6785252E-03  0.7018995E+03  0.7818609E-02  0.9713989E-01
       -1   -1    0    0    0  501  0.00000000000E+00  0.00000000000E+00  0.53547356796E+03  0.53547356798E+03  0.50400001928E-02 0. -1.
        1   -1    0    0  501    0  0.00000000000E+00  0.00000000000E+00 -0.23001271878E+03  0.23001271884E+03  0.50400001928E-02 0.  1.
    10030    2    1    2    0    0  0.00000000000E+00  0.00000000000E+00  0.30546084917E+03  0.76548628682E+03  0.70189951199E+03 0.  0.
        3    1    3    3  502    0 -0.15822540295E+03 -0.15707107446E+03  0.44831742926E+03  0.50069464562E+03  0.10100000352E+00 0. -1.
       -3    1    3    3    0  502  0.15822540295E+03  0.15707107446E+03 -0.14285658009E+03  0.26479164120E+03  0.10100000352E+00 0.  1.
</event>
<event>
 5   0  0.6689415E-03  0.7042344E+03  0.7818609E-02  0.9710018E-01
       -1   -1    0    0    0  501  0.00000000000E+00  0.00000000000E+00  0.39568078656E+03  0.39568078659E+03  0.50400001928E-02 0.  1.
        1   -1    0    0  501    0  0.00000000000E+00  0.00000000000E+00 -0.31334987113E+03  0.31334987117E+03  0.50400001928E-02 0. -1.
    10030    2    1    2    0    0  0.00000000000E+00  0.00000000000E+00  0.82330915428E+02  0.70903065776E+03  0.70423440274E+03 0.  0.
        1    1    3    3  502    0 -0.28231411991E+03 -0.21523448148E+02  0.25192822195E+03  0.37898858843E+03  0.50400001928E-02 0.  1.
       -1    1    3    3    0  502  0.28231411991E+03  0.21523448148E+02 -0.16959730653E+03  0.33004206932E+03  0.50400001928E-02 0. -1.
</event>
<event>
 5   0  0.1100119E-02  0.7010247E+03  0.7818609E-02  0.9715481E-01
        2   -1    0    0  501    0  0.00000000000E+00  0.00000000000E+00  0.19618344681E+04  0.19618344681E+04  0.25500000920E-02 0. -1.
       -2   -1    0    0    0  501  0.00000000000E+00  0.00000000000E+00 -0.62624509928E+02  0.62624509980E+02  0.25500000920E-02 0.  1.
    10030    2    1    2    0    0  0.00000000000E+00  0.00000000000E+00  0.18992099582E+04  0.20244589781E+04  0.70102474187E+03 0.  0.
        4    1    3    3  502    0 -0.32252082142E+03  0.13098114177E+03  0.83118279965E+03  0.90113384082E+03  0.12699999809E+01 0.  1.
       -4    1    3    3    0  502  0.32252082142E+03 -0.13098114177E+03  0.10680271585E+04  0.11233251373E+04  0.12699999809E+01 0. -1.
</event>
<event>
 5   0  0.6246998E-03  0.6971019E+03  0.7818609E-02  0.9722201E-01
       -1   -1    0    0    0  501  0.00000000000E+00  0.00000000000E+00  0.10129634519E+03  0.10129634532E+03  0.50400001928E-02 0.  1.
        1   -1    0    0  501    0  0.00000000000E+00  0.00000000000E+00 -0.11993300264E+04  0.11993300265E+04  0.50400001928E-02 0. -1.
    10030    2    1    2    0    0  0.00000000000E+00  0.00000000000E+00 -0.10980336812E+04  0.13006263718E+04  0.69710185324E+03 0.  0.
        4    1    3    3  502    0 -0.29460000630E+03 -0.18539972346E+03 -0.58259612453E+03  0.67866197653E+03  0.12699999809E+01 0.  1.
       -4    1    3    3    0  502  0.29460000630E+03  0.18539972346E+03 -0.51543755672E+03  0.62196439524E+03  0.12699999809E+01 0. -1.
</event>
<event>
 5   0  0.4440500E-03  0.6864105E+03  0.7818609E-02  0.9740758E-01
       -3   -1    0    0    0  501  0.00000000000E+00  0.00000000000E+00  0.59294321799E+03  0.59294322659E+03  0.10100000352E+00 0. -1.
        3   -1    0    0  501    0  0.00000000000E+00  0.00000000000E+00 -0.19865282815E+03  0.19865285382E+03  0.10100000352E+00 0.  1.
    10030    2    1    2    0    0  0.00000000000E+00  0.00000000000E+00  0.39429038984E+03  0.79159608041E+03  0.68641054989E+03 0.  0.
        3    1    3    3  502    0 -0.46308754689E+02  0.22278283381E+03  0.49344744022E+03  0.54338483441E+03  0.10100000352E+00 0. -1.
       -3    1    3    3    0  502  0.46308754689E+02 -0.22278283381E+03 -0.99157050382E+02  0.24821124600E+03  0.10100000352E+00 0.  1.
</event>
<event>
 5   0  0.1109788E-02  0.6958152E+03  0.7818609E-02  0.9724416E-01
       -2   -1    0    0    0  501  0.00000000000E+00  0.00000000000E+00  0.25212610678E+03  0.25212610679E+03  0.25500000920E-02 0. -1.
        2   -1    0    0  501    0  0.00000000000E+00  0.00000000000E+00 -0.48007604527E+03  0.48007604527E+03  0.25500000920E-02 0.  1.
    10030    2    1    2    0    0  0.00000000000E+00  0.00000000000E+00 -0.22794993849E+03  0.73220215206E+03  0.69581521759E+03 0.  0.
        1    1    3    3  502    0  0.32095365045E+03  0.13300389346E+03 -0.94616683370E+02  0.36007443426E+03  0.50400001928E-02 0.  1.
       -1    1    3    3    0  502 -0.32095365045E+03 -0.13300389346E+03 -0.13333325512E+03  0.37212771780E+03  0.50400001928E-02 0. -1.
</event>
<event>
 5   0  0.6785252E-03  0.6962031E+03  0.7818609E-02  0.9723748E-01
       -1   -1    0    0    0  501  0.00000000000E+00  0.00000000000E+00  0.12135949117E+03  0.12135949127E+03  0.50400001928E-02 0. -1.
        1   -1    0    0  501    0  0.00000000000E+00  0.00000000000E+00 -0.99847714944E+03  0.99847714946E+03  0.50400001928E-02 0.  1.
    10030    2    1    2    0    0  0.00000000000E+00  0.00000000000E+00 -0.87711765828E+03  0.11198366407E+04  0.69620307056E+03 0.  0.
        3    1    3    3  502    0 -0.11155310091E+03 -0.16802252241E+02 -0.96825889934E+03  0.97480855370E+03  0.10100000352E+00 0.  1.
       -3    1    3    3    0  502  0.11155310091E+03  0.16802252241E+02  0.91141241067E+02  0.14502808703E+03  0.10100000352E+00 0. -1.
</event>
<event>
 5   0  0.1119786E-02  0.6985096E+03  0.7818609E-02  0.9719784E-01
        2   -1    0    0  501    0  0.00000000000E+00  0.00000000000E+00  0.14073240479E+03  0.14073240481E+03  0.25500000920E-02 0. -1.
       -2   -1    0    0    0  501  0.00000000000E+00  0.00000000000E+00 -0.86674372491E+03  0.86674372492E+03  0.25500000920E-02 0.  1.
    10030    2    1    2    0    0  0.00000000000E+00  0.00000000000E+00 -0.72601132012E+03  0.10074761297E+04  0.69850963846E+03 0.  0.
        3    1    3    3  502    0 -0.33443645206E+03  0.91221253994E+02 -0.30164571508E+03  0.45952062552E+03  0.10100000352E+00 0. -1.
       -3    1    3    3    0  502  0.33443645206E+03 -0.91221253994E+02 -0.42436560504E+03  0.54795550421E+03  0.10100000352E+00 0.  1.
</event>
<event>
 5   0  0.1109788E-02  0.6911080E+03  0.7818609E-02  0.9732561E-01
        2   -1    0    0  501    0  0.00000000000E+00  0.00000000000E+00  0.12198133858E+04  0.12198133858E+04  0.25500000920E-02 0.  1.
       -2   -1    0    0    0  501  0.00000000000E+00  0.00000000000E+00 -0.97890036255E+02  0.97890036288E+02  0.25500000920E-02 0. -1.
    10030    2    1    2    0    0  0.00000000000E+00  0.00000000000E+00  0.11219233496E+04  0.13177034221E+04  0.69110802798E+03 0.  0.
        1    1    3    3  502    0  0.56410918593E+01 -0.21454068820E+03  0.44585714621E+02  0.21919720524E+03  0.50400001928E-02 0. -1.
       -1    1    3    3    0  502 -0.56410918593E+01  0.21454068820E+03  0.10773376349E+04  0.10985062169E+04  0.50400001928E-02 0.  1.
</event>
<event>
 5   0  0.6990118E-03  0.6999207E+03  0.7818609E-02  0.9717368E-01
        1   -1    0    0  501    0  0.00000000000E+00  0.00000000000E+00  0.25590953343E+03  0.25590953348E+03  0.50400001928E-02 0. -1.
       -1   -1    0    0    0  501  0.00000000000E+00  0.00000000000E+00 -0.47857634835E+03  0.47857634837E+03  0.50400001928E-02 0.  1.
    10030    2    1    2    0    0  0.00000000000E+00  0.00000000000E+00 -0.22266681492E+03  0.73448588185E+03  0.69992070992E+03 0.  0.
        5    1    3    3  502    0 -0.31343719973E+03 -0.14590995633E+03 -0.54651430281E+02  0.35005922694E+03  0.46999998093E+01 0. -1.
       -5    1    3    3    0  502  0.31343719973E+03  0.14590995633E+03 -0.16801538464E+03  0.38442665491E+03  0.46999998093E+01 0.  1.
</event>
<event>
 5   0  0.6609285E-03  0.7138211E+03  0.7818609E-02  0.9693884E-01
       -1   -1    0    0    0  501  0.00000000000E+00  0.00000000000E+00  0.53884781367E+03  0.53884781369E+03  0.50400001928E-02 0.  1.
        1   -1    0    0  501    0  0.00000000000E+00  0.00000000000E+00 -0.23640281034E+03  0.23640281039E+03  0.50400001928E-02 0. -1.
    10030    2    1    2    0    0  0.00000000000E+00  0.00000000000E+00  0.30244500333E+03  0.77525062408E+03  0.71382109111E+03 0.  0.
        2    1    3    3  502    0  0.64085349978E+02  0.12611483089E+03  0.50710022852E+03  0.52646227255E+03  0.25500000920E-02 0.  1.
       -2    1    3    3    0  502 -0.64085349978E+02 -0.12611483089E+03 -0.20465522519E+03  0.24878835153E+03  0.25500000920E-02 0. -1.
</event>
<event>
 5   0  0.1079446E-02  0.6970999E+03  0.7818609E-02  0.9722205E-01
       -2   -1    0    0    0  501  0.00000000000E+00  0.00000000000E+00  0.16433659547E+03  0.16433659549E+03  0.25500000920E-02 0.  1.
        2   -1    0    0  501    0  0.00000000000E+00  0.00000000000E+00 -0.73925757598E+03  0.73925757598E+03  0.25500000920E-02 0. -1.
    10030    2    1    2    0    0  0.00000000000E+00  0.00000000000E+00 -0.57492098051E+03  0.90359417147E+03  0.69709991599E+03 0.  0.
        2    1    3    3  502    0  0.33514701176E+03 -0.24426169821E+01 -0.41150253748E+03  0.53072009970E+03  0.25500000920E-02 0. -1.
       -2    1    3    3    0  502 -0.33514701176E+03  0.24426169821E+01 -0.16341844303E+03  0.37287407177E+03  0.25500000920E-02 0.  1.
</event>
<event>
 5   0  0.1079446E-02  0.7021911E+03  0.7818609E-02  0.9713492E-01
        2   -1    0    0  501    0  0.00000000000E+00  0.00000000000E+00  0.68588370242E+03  0.68588370243E+03  0.25500000920E-02 0.  1.
       -2   -1    0    0    0  501  0.00000000000E+00  0.00000000000E+00 -0.17972153826E+03  0.17972153828E+03  0.25500000920E-02 0. -1.
    10030    2    1    2    0    0  0.00000000000E+00  0.00000000000E+00  0.50616216416E+03  0.86560524071E+03  0.70219106823E+03 0.  0.
        2    1    3    3  502    0  0.15106048887E+03  0.22528905061E+03 -0.21717830010E+02  0.27211411535E+03  0.25500000920E-02 0. -1.
       -2    1    3    3    0  502 -0.15106048887E+03 -0.22528905061E+03  0.52787999417E+03  0.59349112536E+03  0.25500000920E-02 0.  1.
</event>
<event>
 5   0  0.6689415E-03  0.6949280E+03  0.7818609E-02  0.9725945E-01
       -1   -1    0    0    0  501  0.00000000000E+00  0.00000000000E+00  0.42197741843E+03  0.42197741846E+03  0.50400001928E-02 0.  1.
        1   -1    0    0  501    0  0.00000000000E+00  0.00000000000E+00 -0.28610828307E+03  0.28610828311E+03  0.50400001928E-02 0. -1.
    10030    2    1    2    0    0  0.00000000000E+00  0.00000000000E+00  0.13586913536E+03  0.70808570157E+03  0.69492800982E+03 0.  0.
        1    1    3    3  502    0 -0.28405396902E+03 -0.19358830175E+03  0.11957096452E+03  0.36395096301E+03  0.50400001928E-02 0.  1.
       -1    1    3    3    0  502  0.28405396902E+03  0.19358830175E+03  0.16298170846E+02  0.34413473857E+03  0.50400001928E-02 0. -1.
</event>
<event>
 5   0  0.6609285E-03  0.6661432E+03  0.7818609E-02  0.9776950E-01
        1   -1    0    0  501    0  0.00000000000E+00  0.00000000000E+00  0.30236947506E+03  0.30236947510E+03  0.50400001928E-02 0.  1.
       -1   -1    0    0    0  501  0.00000000000E+00  0.00000000000E+00 -0.36689114536E+03  0.36689114539E+03  0.50400001928E-02 0. -1.
    10030    2    1    2    0    0  0.00000000000E+00  0.00000000000E+00 -0.64521670299E+02  0.66926062049E+03  0.66614317695E+03 0.  0.
        2    1    3    3  502    0 -0.11299853404E+03  0.23140151582E+03  0.17996539241E+03  0.31417013335E+03  0.25500000920E-02 0.  1.
       -2    1    3    3    0  502  0.11299853404E+03 -0.23140151582E+03 -0.24448706271E+03  0.35509048714E+03  0.25500000920E-02 0. -1.
</event>
<event>
 5   0  0.1109788E-02  0.7007473E+03  0.7818609E-02  0.9715955E-01
        2   -1    0    0  501    0  0.00000000000E+00  0.00000000000E+00  0.10738049214E+04  0.10738049214E+04  0.25500000920E-02 0. -1.
       -2   -1    0    0    0  501  0.00000000000E+00  0.00000000000E+00 -0.11432402210E+03  0.11432402213E+03  0.25500000920E-02 0.  1.
    10030    2    1    2    0    0  0.00000000000E+00  0.00000000000E+00  0.95948089933E+03  0.11881289436E+04  0.70074730848E+03 0.  0.
        1    1    3    3  502    0  0.90938207852E+02  0.24413971968E+03  0.82512498042E+02  0.27328057511E+03  0.50400001928E-02 0.  1.
       -1    1    3    3    0  502 -0.90938207852E+02 -0.24413971968E+03  0.87696840129E+03  0.91484836845E+03  0.50400001928E-02 0. -1.
</event>
<event>
 5   0  0.6246998E-03  0.7001109E+03  0.7818609E-02  0.9717043E-01
       -1   -1    0    0    0  501  0.00000000000E+00  0.00000000000E+00  0.15369159182E+03  0.15369159190E+03  0.50400001928E-02 0.  1.
        1   -1    0    0  501    0  0.00000000000E+00  0.00000000000E+00 -0.79730330028E+03  0.79730330030E+03  0.50400001928E-02 0. -1.
    10030    2    1    2    0    0  0.00000000000E+00  0.00000000000E+00 -0.64361170846E+03  0.95099489220E+03  0.70011088673E+03 0.  0.
        4    1    3    3  502    0 -0.30877363957E+03  0.14633909276E+03 -0.21852746495E+03  0.40560098175E+03  0.12699999809E+01 0.  1.
       -4    1    3    3    0  502  0.30877363957E+03 -0.14633909276E+03 -0.42508424351E+03  0.54539391044E+03  0.12699999809E+01 0. -1.
</event>
<event>
 5   0  0.1109788E-02  0.6866058E+03  0.7818609E-02  0.9740416E-01
        2   -1    0    0  501    0  0.00000000000E+00  0.00000000000E+00  0.14139638135E+04  0.14139638135E+04  0.25500000920E-02 0. -1.
       -2   -1    0    0    0  501  0.00000000000E+00  0.00000000000E+00 -0.83352126472E+02  0.83352126511E+02  0.25500000920E-02 0.  1.
    10030    2    1    2    0    0  0.00000000000E+00  0.00000000000E+00  0.13306116870E+04  0.14973159400E+04  0.68660582764E+03 0.  0.
        1    1    3    3  502    0  0.23967555078E+03 -0.16531896918E+03  0.26866001819E+03  0.39617286203E+03  0.50400001928E-02 0.  1.
       -1    1    3    3    0  502 -0.23967555078E+03  0.16531896918E+03  0.10619516688E+04  0.11011430779E+04  0.50400001928E-02 0. -1.
</event>
<event>
 5   0  0.6689415E-03  0.6896624E+03  0.7818609E-02  0.9735076E-01
       -1   -1    0    0    0  501  0.00000000000E+00  0.00000000000E+00  0.16377083227E+03  0.16377083235E+03  0.50400001928E-02 0. -1.
        1   -1    0    0  501    0  0.00000000000E+00  0.00000000000E+00 -0.72606665716E+03  0.72606665718E+03  0.50400001928E-02 0.  1.
    10030    2    1    2    0    0  0.00000000000E+00  0.00000000000E+00 -0.56229582489E+03  0.88983748953E+03  0.68966235440E+03 0.  0.
        1    1    3    3  502    0  0.20195787294E+03 -0.21547207836E+03 -0.51449393283E+02  0.29977031055E+03  0.50400001928E-02 0. -1.
       -1    1    3    3    0  502 -0.20195787294E+03  0.21547207836E+03 -0.51084643161E+03  0.59006717898E+03  0.50400001928E-02 0.  1.
</event>
<event>
 5   0  0.1100119E-02  0.7144727E+03  0.7818609E-02  0.9692797E-01
        2   -1    0    0  501    0  0.00000000000E+00  0.00000000000E+00  0.24449131664E+03  0.24449131666E+03  0.25500000920E-02 0.  1.
       -2   -1    0    0    0  501  0.00000000000E+00  0.00000000000E+00 -0.52197282721E+03  0.52197282721E+03  0.25500000920E-02 0. -1.
    10030    2    1    2    0    0  0.00000000000E+00  0.00000000000E+00 -0.27748151056E+03  0.76646414387E+03  0.71447273925E+03 0.  0.
        4    1    3    3  502    0  0.19660263004E+03 -0.29750693683E+03 -0.16157938023E+03  0.39150029453E+03  0.12699999809E+01 0.  1.
       -4    1    3    3    0  502 -0.19660263004E+03  0.29750693683E+03 -0.11590213033E+03  0.37496384934E+03  0.12699999809E+01 0. -1.
</event>
<event>
 5   0  0.6990118E-03  0.6989499E+03  0.7818609E-02  0.9719030E-01
       -1   -1    0    0    0  501  0.00000000000E+00  0.00000000000E+00  0.10883434849E+03  0.10883434860E+03  0.50400001928E-02 0. -1.
        1   -1    0    0  501    0  0.00000000000E+00  0.00000000000E+00 -0.11221891983E+04  0.11221891983E+04  0.50400001928E-02 0.  1.
    10030    2    1    2    0    0  0.00000000000E+00  0.00000000000E+00 -0.10133548498E+04  0.12310235469E+04  0.69894987045E+03 0.  0.
        5    1    3    3  502    0 -0.29040351247E+03 -0.78041052222E+02 -0.19316534693E+03  0.35743467535E+03  0.46999998093E+01 0. -1.
       -5    1    3    3    0  502  0.29040351247E+03  0.78041052222E+02 -0.82018950286E+03  0.87358887154E+03  0.46999998093E+01 0.  1.
</event>
<event>
 5   0  0.1119786E-02  0.7055819E+03  0.7818609E-02  0.9707734E-01
        2   -1    0    0  501    0  0.00000000000E+00  0.00000000000E+00  0.21104009732E+04  0.21104009732E+04  0.25500000920E-02 0. -1.
       -2   -1    0    0    0  501  0.00000000000E+00  0.00000000000E+00 -0.58975262354E+02  0.58975262409E+02  0.25500000920E-02 0.  1.
    10030    2    1    2    0    0  0.00000000000E+00  0.00000000000E+00  0.20514257108E+04  0.21693762356E+04  0.70558189072E+03 0.  0.
        3    1    3    3  502    0  0.26359488485E+03  0.21868443737E+03  0.12858075860E+04  0.13306413134E+04  0.10100000352E+00 0. -1.
       -3    1    3    3    0  502 -0.26359488485E+03 -0.21868443737E+03  0.76561812483E+03  0.83873492221E+03  0.10100000352E+00 0.  1.
</event>
<event>
 5   0  0.1079446E-02  0.6816139E+03  0.7818609E-02  0.9749202E-01
       -2   -1    0    0    0  501  0.00000000000E+00  0.00000000000E+00  0.13156289331E+03  0.13156289333E+03  0.25500000920E-02 0. -1.
        2   -1    0    0  501    0  0.00000000000E+00  0.00000000000E+00 -0.88284299012E+03  0.88284299012E+03  0.25500000920E-02 0.  1.
    10030    2    1    2    0    0  0.00000000000E+00  0.00000000000E+00 -0.75128009681E+03  0.10144058835E+04  0.68161390283E+03 0.  0.
        2    1    3    3  502    0  0.20635057789E+03 -0.99651855665E+02 -0.75107326012E+03  0.78525288627E+03  0.25500000920E-02 0.  1.
       -2    1    3    3    0  502 -0.20635057789E+03  0.99651855665E+02 -0.20683669265E+00  0.22915299718E+03  0.25500000920E-02 0. -1.
</event>
<event>
 5   0  0.1109788E-02  0.6941059E+03  0.7818609E-02  0.9727365E-01
        2   -1    0    0  501    0  0.00000000000E+00  0.00000000000E+00  0.20683153477E+04  0.20683153477E+04  0.25500000920E-02 0.  1.
       -2   -1    0    0    0  501  0.00000000000E+00  0.00000000000E+00 -0.58233753475E+02  0.58233753531E+02  0.25500000920E-02 0. -1.
    10030    2    1    2    0    0  0.00000000000E+00  0.00000000000E+00  0.20100815943E+04  0.21265491013E+04  0.69410594618E+03 0.  0.
        1    1    3    3  502    0 -0.28019418875E+03 -0.13425908250E+03  0.53128679466E+03  0.61546725571E+03  0.50400001928E-02 0. -1.
       -1    1    3    3    0  502  0.28019418875E+03  0.13425908250E+03  0.14787947996E+04  0.15110818456E+04  0.50400001928E-02 0.  1.
</event>
<event>
 5   0  0.6609285E-03  0.7012838E+03  0.7818609E-02  0.9715039E-01
       -1   -1    0    0    0  501  0.00000000000E+00  0.00000000000E+00  0.16382798920E+03  0.16382798928E+03  0.50400001928E-02 0.  1.
        1   -1    0    0  501    0  0.00000000000E+00  0.00000000000E+00 -0.75048066205E+03  0.75048066207E+03  0.50400001928E-02 0. -1.
    10030    2    1    2    0    0  0.00000000000E+00  0.00000000000E+00 -0.58665267285E+03  0.91430865134E+03  0.70128378804E+03 0.  0.
        2    1    3    3  502    0 -0.27906219698E+02  0.24789178939E+03 -0.61459414100E+03  0.66329107826E+03  0.25500000920E-02 0. -1.
       -2    1    3    3    0  502  0.27906219698E+02 -0.24789178939E+03  0.27941468153E+02  0.25101757308E+03  0.25500000920E-02 0.  1.
</event>
<event>
 5   0  0.1079446E-02  0.7002483E+03  0.7818609E-02  0.9716808E-01
       -2   -1    0    0    0  501  0.00000000000E+00  0.00000000000E+00  0.17356233934E+03  0.17356233936E+03  0.25500000920E-02 0.  1.
        2   -1    0    0  501    0  0.00000000000E+00  0.00000000000E+00 -0.70629901231E+03  0.70629901232E+03  0.25500000920E-02 0. -1.
    10030    2    1    2    0    0  0.00000000000E+00  0.00000000000E+00 -0.53273667297E+03  0.87986135168E+03  0.70024826700E+03 0.  0.
        2    1    3    3  502    0  0.33103948582E+03  0.10533242729E+03 -0.32120768645E+03  0.47313469462E+03  0.25500000920E-02 0.  1.
       -2    1    3    3    0  502 -0.33103948582E+03 -0.10533242729E+03 -0.21152898652E+03  0.40672665705E+03  0.25500000920E-02 0. -1.
</event>
<event>
 5   0  0.6785252E-03  0.6979444E+03  0.7818609E-02  0.9720754E-01
       -1   -1    0    0    0  501  0.00000000000E+00  0.00000000000E+00  0.53337889513E+03  0.53337889516E+03  0.50400001928E-02 0.  1.
        1   -1    0    0  501    0  0.00000000000E+00  0.00000000000E+00 -0.22832100704E+03  0.22832100710E+03  0.50400001928E-02 0. -1.
    10030    2    1    2    0    0  0.00000000000E+00  0.00000000000E+00  0.30505788809E+03  0.76169990226E+03  0.69794442903E+03 0.  0.
        3    1    3    3  502    0 -0.63337527696E+01  0.28778309049E+02  0.53201871298E+03  0.53283414743E+03  0.10100000352E+00 0.  1.
       -3    1    3    3    0  502  0.63337527696E+01 -0.28778309049E+02 -0.22696082490E+03  0.22886575483E+03  0.10100000352E+00 0. -1.
</event>
<event>
 5   0  0.6609285E-03  0.7104744E+03  0.7818609E-02  0.9699485E-01
       -1   -1    0    0    0  501  0.00000000000E+00  0.00000000000E+00  0.11248654782E+04  0.11248654782E+04  0.50400001928E-02 0.  1.
        1   -1    0    0  501    0  0.00000000000E+00  0.00000000000E+00 -0.11218538034E+03  0.11218538045E+03  0.50400001928E-02 0. -1.
    10030    2    1    2    0    0  0.00000000000E+00  0.00000000000E+00  0.10126800979E+04  0.12370508587E+04  0.71047438118E+03 0.  0.
        2    1    3    3  502    0  0.14364732651E+03 -0.32321268069E+03  0.44879023389E+03  0.57141374276E+03  0.25500000920E-02 0.  1.
       -2    1    3    3    0  502 -0.14364732651E+03  0.32321268069E+03  0.56388986398E+03  0.66563711591E+03  0.25500000920E-02 0. -1.
</event>
<event>
 5   0  0.6609285E-03  0.6963154E+03  0.7818609E-02  0.9723554E-01
       -1   -1    0    0    0  501  0.00000000000E+00  0.00000000000E+00  0.24857852592E+03  0.24857852597E+03  0.50400001928E-02 0. -1.
        1   -1    0    0  501    0  0.00000000000E+00  0.00000000000E+00 -0.48762769040E+03  0.48762769042E+03  0.50400001928E-02 0.  1.
    10030    2    1    2    0    0  0.00000000000E+00  0.00000000000E+00 -0.23904916448E+03  0.73620621639E+03  0.69631536678E+03 0.  0.
        2    1    3    3  502    0 -0.14347650380E+03 -0.27712881531E+03 -0.28273063042E+03  0.42109677843E+03  0.25500000920E-02 0.  1.
       -2    1    3    3    0  502  0.14347650380E+03  0.27712881531E+03  0.43681465946E+02  0.31510943796E+03  0.25500000920E-02 0. -1.
</event>
<event>
 5   0  0.6990118E-03  0.6992297E+03  0.7818609E-02  0.9718550E-01
        1   -1    0    0  501    0  0.00000000000E+00  0.00000000000E+00  0.23020925813E+03  0.23020925819E+03  0.50400001928E-02 0.  1.
       -1   -1    0    0    0  501  0.00000000000E+00  0.00000000000E+00 -0.53095410310E+03  0.53095410312E+03  0.50400001928E-02 0. -1.
    10030    2    1    2    0    0  0.00000000000E+00  0.00000000000E+00 -0.30074484497E+03  0.76116336131E+03  0.69922971964E+03 0.  0.
        5    1    3    3  502    0  0.24208185490E+03  0.12710481818E+03 -0.38749474925E+03  0.47427157829E+03  0.46999998093E+01 0. -1.
       -5    1    3    3    0  502 -0.24208185490E+03 -0.12710481818E+03  0.86749904281E+02  0.28689178303E+03  0.46999998093E+01 0.  1.
</event>
<event>
 5   0  0.1109788E-02  0.7020075E+03  0.7818609E-02  0.9713805E-01
        2   -1    0    0  501    0  0.00000000000E+00  0.00000000000E+00  0.95362023320E+03  0.95362023320E+03  0.25500000920E-02 0. -1.
       -2   -1    0    0    0  501  0.00000000000E+00  0.00000000000E+00 -0.12919568317E+03  0.12919568319E+03  0.25500000920E-02 0.  1.
    10030    2    1    2    0    0  0.00000000000E+00  0.00000000000E+00  0.82442455003E+03  0.10828159164E+04  0.70200745729E+03 0.  0.
        1    1    3    3  502    0  0.30635195854E+03  0.51374614776E+00  0.14795283836E+03  0.34020850790E+03  0.50400001928E-02 0.  1.
       -1    1    3    3    0  502 -0.30635195854E+03 -0.51374614776E+00  0.67647171167E+03  0.74260740849E+03  0.50400001928E-02 0. -1.
</event>
<event>
 5   0  0.1100119E-02  0.6822814E+03  0.7818609E-02  0.9748022E-01
        2   -1    0    0  501    0  0.00000000000E+00  0.00000000000E+00  0.15985030019E+04  0.15985030019E+04  0.25500000920E-02 0. -1.
       -2   -1    0    0    0  501  0.00000000000E+00  0.00000000000E+00 -0.72803731072E+02  0.72803731117E+02  0.25500000920E-02 0.  1.
    10030    2    1    2    0    0  0.00000000000E+00  0.00000000000E+00  0.15256992708E+04  0.16713067330E+04  0.68228141616E+03 0.  0.
        4    1    3    3  502    0 -0.10958740826E+03 -0.29856152902E+01 -0.28472892447E+02  0.11327238168E+03  0.12699999809E+01 0.  1.
       -4    1    3    3    0  502  0.10958740826E+03  0.29856152902E+01  0.15541721633E+04  0.15580343513E+04  0.12699999809E+01 0. -1.
</event>
<event>
 5   0  0.1119786E-02  0.7007775E+03  0.7818609E-02  0.9715904E-01
        2   -1    0    0  501    0  0.00000000000E+00  0.00000000000E+00  0.12927599119E+04  0.12927599119E+04  0.25500000920E-02 0. -1.
       -2   -1    0    0    0  501  0.00000000000E+00  0.00000000000E+00 -0.94969114042E+02  0.94969114077E+02  0.25500000920E-02 0.  1.
    10030    2    1    2    0    0  0.00000000000E+00  0.00000000000E+00  0.11977907979E+04  0.13877290260E+04  0.70077746406E+03 0.  0.
        3    1    3    3  502    0 -0.14076988175E+03  0.22336795860E+03  0.14273264048E+03  0.30013667119E+03  0.10100000352E+00 0.  1.
       -3    1    3    3    0  502  0.14076988175E+03 -0.22336795860E+03  0.10550581574E+04  0.10875923548E+04  0.10100000352E+00 0. -1.
</event>
<event>
 5   0  0.4440500E-03  0.7002605E+03  0.7818609E-02  0.9716787E-01
        4   -1    0    0  501    0  0.00000000000E+00  0.00000000000E+00  0.73124451932E+03  0.73124562217E+03  0.12699999809E+01 0.  1.
       -4   -1    0    0    0  501  0.00000000000E+00  0.00000000000E+00 -0.16764371405E+03  0.16764852448E+03  0.12699999809E+01 0. -1.
    10030    2    1    2    0    0  0.00000000000E+00  0.00000000000E+00  0.56360080527E+03  0.89889414665E+03  0.70026053665E+03 0.  0.
        5    1    3    3  502    0 -0.20027508599E+03  0.28451394476E+03  0.23190560593E+03  0.41816335910E+03  0.46999998093E+01 0. -1.
       -5    1    3    3    0  502  0.20027508599E+03 -0.28451394476E+03  0.33169519934E+03  0.48073078755E+03  0.46999998093E+01 0.  1.
</event>
<event>
 5   0  0.4440500E-03  0.6987883E+03  0.7818609E-02  0.9719307E-01
       -4   -1    0    0    0  501  0.00000000000E+00  0.00000000000E+00  0.47330623797E+03  0.47330794183E+03  0.12699999809E+01 0.  1.
        4   -1    0    0  501    0  0.00000000000E+00  0.00000000000E+00 -0.25791861437E+03  0.25792174111E+03  0.12699999809E+01 0. -1.
    10030    2    1    2    0    0  0.00000000000E+00  0.00000000000E+00  0.21538762360E+03  0.73122968294E+03  0.69878825177E+03 0.  0.
        2    1    3    3  502    0  0.22047894037E+03  0.24905778131E+03  0.21959534971E+03  0.39857603942E+03  0.25500000920E-02 0.  1.
       -2    1    3    3    0  502 -0.22047894037E+03 -0.24905778131E+03 -0.42077261156E+01  0.33265364352E+03  0.25500000920E-02 0. -1.
</event>
<event>
 5   0  0.6990118E-03  0.7005018E+03  0.7818609E-02  0.9716374E-01
        1   -1    0    0  501    0  0.00000000000E+00  0.00000000000E+00  0.75960736422E+03  0.75960736423E+03  0.50400001928E-02 0.  1.
       -1   -1    0    0    0  501  0.00000000000E+00  0.00000000000E+00 -0.16149880247E+03  0.16149880255E+03  0.50400001928E-02 0. -1.
    10030    2    1    2    0    0  0.00000000000E+00  0.00000000000E+00  0.59810856174E+03  0.92110616678E+03  0.70050176220E+03 0.  0.
        5    1    3    3  502    0 -0.14369978417E+03 -0.23352072268E+03  0.58555081794E+03  0.64658596202E+03  0.46999998093E+01 0.  1.
       -5    1    3    3    0  502  0.14369978417E+03  0.23352072268E+03  0.12557743804E+02  0.27452020476E+03  0.46999998093E+01 0. -1.
</event>
<event>
 5   0  0.6990118E-03  0.7002059E+03  0.7818609E-02  0.9716880E-01
       -1   -1    0    0    0  501  0.00000000000E+00  0.00000000000E+00  0.44948728353E+03  0.44948728356E+03  0.50400001928E-02 0. -1.
        1   -1    0    0  501    0  0.00000000000E+00  0.00000000000E+00 -0.27269308734E+03  0.27269308739E+03  0.50400001928E-02 0.  1.
    10030    2    1    2    0    0  0.00000000000E+00  0.00000000000E+00  0.17679419619E+03  0.72218037094E+03  0.70020589855E+03 0.  0.
        5    1    3    3  502    0 -0.29738953424E+03 -0.18468735449E+03  0.88579022986E+02  0.36113472180E+03  0.46999998093E+01 0.  1.
       -5    1    3    3    0  502  0.29738953424E+03  0.18468735449E+03  0.88215173203E+02  0.36104564914E+03  0.46999998093E+01 0. -1.
</event>
<event>
 5   0  0.6246998E-03  0.6995100E+03  0.7818609E-02  0.9718071E-01
       -1   -1    0    0    0  501  0.00000000000E+00  0.00000000000E+00  0.19046360476E+03  0.19046360483E+03  0.50400001928E-02 0. -1.
        1   -1    0    0  501    0  0.00000000000E+00  0.00000000000E+00 -0.64226730417E+03  0.64226730419E+03  0.50400001928E-02 0.  1.
    10030    2    1    2    0    0  0.00000000000E+00  0.00000000000E+00 -0.45180369941E+03  0.83273090901E+03  0.69950995992E+03 0.  0.
        4    1    3    3  502    0 -0.13307982398E+03  0.16931661359E+03  0.10217123767E+03  0.23836721648E+03  0.12699999809E+01 0. -1.
       -4    1    3    3    0  502  0.13307982398E+03 -0.16931661359E+03 -0.55397493708E+03  0.59436369253E+03  0.12699999809E+01 0.  1.
</event>
<event>
 5   0  0.6689415E-03  0.6989684E+03  0.7818609E-02  0.9718998E-01
       -1   -1    0    0    0  501  0.00000000000E+00  0.00000000000E+00  0.13169839530E+04  0.13169839530E+04  0.50400001928E-02 0.  1.
        1   -1    0    0  501    0  0.00000000000E+00  0.00000000000E+00 -0.92741597199E+02  0.92741597336E+02  0.50400001928E-02 0. -1.
    10030    2    1    2    0    0  0.00000000000E+00  0.00000000000E+00  0.12242423558E+04  0.14097255503E+04  0.69896836950E+03 0.  0.
        1    1    3    3  502    0  0.18402409770E+03 -0.31110874862E+02  0.16184399638E+02  0.18733576777E+03  0.50400001928E-02 0. -1.
       -1    1    3    3    0  502 -0.18402409770E+03  0.31110874862E+02  0.12080579562E+04  0.12223897826E+04  0.50400001928E-02 0.  1.
</event>
<event>
 5   0  0.1100119E-02  0.7134575E+03  0.7818609E-02  0.9694491E-01
       -2   -1    0    0    0  501  0.00000000000E+00  0.00000000000E+00  0.15592280918E+03  0.15592280921E+03  0.25500000920E-02 0.  1.
        2   -1    0    0  501    0  0.00000000000E+00  0.00000000000E+00 -0.81614368784E+03  0.81614368784E+03  0.25500000920E-02 0. -1.
    10030    2    1    2    0    0  0.00000000000E+00  0.00000000000E+00 -0.66022087865E+03  0.97206649705E+03  0.71345754329E+03 0.  0.
        4    1    3    3  502    0 -0.13553085353E+03 -0.16261653227E+02  0.11892874430E+03  0.18104892362E+03  0.12699999809E+01 0.  1.
       -4    1    3    3    0  502  0.13553085353E+03  0.16261653227E+02 -0.77914962295E+03  0.79101757343E+03  0.12699999809E+01 0. -1.
</event>
<event>
 5   0  0.1099980E-02  0.6907971E+03  0.7818609E-02  0.9733101E-01
        2   -1    0    0  501    0  0.00000000000E+00  0.00000000000E+00  0.48842588461E+03  0.48842588462E+03  0.25500000920E-02 0.  1.
       -2   -1    0    0    0  501  0.00000000000E+00  0.00000000000E+00 -0.24425440184E+03  0.24425440185E+03  0.25500000920E-02 0. -1.
    10030    2    1    2    0    0  0.00000000000E+00  0.00000000000E+00  0.24417148277E+03  0.73268028647E+03  0.69079714040E+03 0.  0.
        5    1    3    3  502    0 -0.22191615581E+02  0.15886818461E+03  0.44648345194E+03  0.47444823821E+03  0.46999998093E+01 0.  1.
       -5    1    3    3    0  502  0.22191615581E+02 -0.15886818461E+03 -0.20231196917E+03  0.25823204826E+03  0.46999998093E+01 0. -1.
</event>
<event>
 5   0  0.6990118E-03  0.7009470E+03  0.7818609E-02  0.9715614E-01
       -1   -1    0    0    0  501  0.00000000000E+00  0.00000000000E+00  0.40687058525E+02  0.40687058837E+02  0.50400001928E-02 0.  1.
        1   -1    0    0  501    0  0.00000000000E+00  0.00000000000E+00 -0.30189369990E+04  0.30189369990E+04  0.50400001928E-02 0. -1.
    10030    2    1    2    0    0  0.00000000000E+00  0.00000000000E+00 -0.29782499405E+04  0.30596240579E+04  0.70094697901E+03 0.  0.
        5    1    3    3  502    0  0.30795024465E+03 -0.27759562287E+02 -0.22090914805E+04  0.22306302261E+04  0.46999998093E+01 0. -1.
       -5    1    3    3    0  502 -0.30795024465E+03  0.27759562287E+02 -0.76915846003E+03  0.82899383177E+03  0.46999998093E+01 0.  1.
</event>
<event>
 5   0  0.1109788E-02  0.7003628E+03  0.7818609E-02  0.9716612E-01
       -2   -1    0    0    0  501  0.00000000000E+00  0.00000000000E+00  0.10353176359E+03  0.10353176363E+03  0.25500000920E-02 0. -1.
        2   -1    0    0  501    0  0.00000000000E+00  0.00000000000E+00 -0.11844385112E+04  0.11844385112E+04  0.25500000920E-02 0.  1.
    10030    2    1    2    0    0  0.00000000000E+00  0.00000000000E+00 -0.10809067476E+04  0.12879702748E+04  0.70036278587E+03 0.  0.
        1    1    3    3  502    0 -0.11601587180E+02  0.34413418725E+03 -0.65769004795E+03  0.74237398584E+03  0.50400001928E-02 0.  1.
       -1    1    3    3    0  502  0.11601587180E+02 -0.34413418725E+03 -0.42321669966E+03  0.54559628899E+03  0.50400001928E-02 0. -1.
</event>
<event>
 5   0  0.1079446E-02  0.7012438E+03  0.7818609E-02  0.9715107E-01
        2   -1    0    0  501    0  0.00000000000E+00  0.00000000000E+00  0.37415784897E+03  0.37415784898E+03  0.25500000920E-02 0.  1.
       -2   -1    0    0    0  501  0.00000000000E+00  0.00000000000E+00 -0.32856648772E+03  0.32856648773E+03  0.25500000920E-02 0. -1.
    10030    2    1    2    0    0  0.00000000000E+00  0.00000000000E+00  0.45591361253E+02  0.70272433671E+03  0.70124383861E+03 0.  0.
        2    1    3    3  502    0  0.19951038864E+03 -0.28335806571E+03 -0.30604172440E+02  0.34789769180E+03  0.25500000920E-02 0.  1.
       -2    1    3    3    0  502 -0.19951038864E+03  0.28335806571E+03  0.76195533694E+02  0.35482664491E+03  0.25500000920E-02 0. -1.
</event>
<event>
 5   0  0.1079446E-02  0.6998702E+03  0.7818609E-02  0.9717454E-01
        2   -1    0    0  501    0  0.00000000000E+00  0.00000000000E+00  0.10936395193E+04  0.10936395193E+04  0.25500000920E-02 0. -1.
       -2   -1    0    0    0  501  0.00000000000E+00  0.00000000000E+00 -0.11196977827E+03  0.11196977830E+03  0.25500000920E-02 0.  1.
    10030    2    1    2    0    0  0.00000000000E+00  0.00000000000E+00  0.98166974101E+03  0.12056092976E+04  0.69987020081E+03 0.  0.
        2    1    3    3  502    0 -0.49783870631E+02  0.24143895471E+03  0.63002994326E+02  0.25444170241E+03  0.25500000920E-02 0.  1.
       -2    1    3    3    0  502  0.49783870631E+02 -0.24143895471E+03  0.91866674668E+03  0.95116759517E+03  0.25500000920E-02 0. -1.
</event>
<event>
 5   0  0.6246998E-03  0.7038189E+03  0.7818609E-02  0.9710724E-01
       -1   -1    0    0    0  501  0.00000000000E+00  0.00000000000E+00  0.11054310135E+03  0.11054310146E+03  0.50400001928E-02 0.  1.
        1   -1    0    0  501    0  0.00000000000E+00  0.00000000000E+00 -0.11202892092E+04  0.11202892092E+04  0.50400001928E-02 0. -1.
    10030    2    1    2    0    0  0.00000000000E+00  0.00000000000E+00 -0.10097461079E+04  0.12308323107E+04  0.70381885075E+03 0.  0.
        4    1    3    3  502    0  0.31208757016E+03 -0.21426828146E+02 -0.78675342968E+03  0.84666423830E+03  0.12699999809E+01 0.  1.
       -4    1    3    3    0  502 -0.31208757016E+03  0.21426828146E+02 -0.22299267817E+03  0.38416807237E+03  0.12699999809E+01 0. -1.
</event>
<event>
 5   0  0.6689415E-03  0.6981090E+03  0.7818609E-02  0.9720472E-01
       -1   -1    0    0    0  501  0.00000000000E+00  0.00000000000E+00  0.18795743738E+03  0.18795743745E+03  0.50400001928E-02 0.  1.
        1   -1    0    0  501    0  0.00000000000E+00  0.00000000000E+00 -0.64822680588E+03  0.64822680590E+03  0.50400001928E-02 0. -1.
    10030    2    1    2    0    0  0.00000000000E+00  0.00000000000E+00 -0.46026936850E+03  0.83618424335E+03  0.69810901531E+03 0.  0.
        1    1    3    3  502    0 -0.12579798458E+03  0.19042164506E+03  0.86210900266E+02  0.24396281516E+03  0.50400001928E-02 0.  1.
       -1    1    3    3    0  502  0.12579798458E+03 -0.19042164506E+03 -0.54648026876E+03  0.59222142819E+03  0.50400001928E-02 0. -1.
</event>
<event>
 5   0  0.1099980E-02  0.6995623E+03  0.7818609E-02  0.9717981E-01
        2   -1    0    0  501    0  0.00000000000E+00  0.00000000000E+00  0.18048498253E+04  0.18048498253E+04  0.25500000920E-02 0.  1.
       -2   -1    0    0    0  501  0.00000000000E+00  0.00000000000E+00 -0.67787823291E+02  0.67787823339E+02  0.25500000920E-02 0. -1.
    10030    2    1    2    0    0  0.00000000000E+00  0.00000000000E+00  0.17370620020E+04  0.18726376486E+04  0.69956226619E+03 0.  0.
        5    1    3    3  502    0 -0.23491722306E+03  0.23233083924E+03  0.11756257019E+04  0.12211804132E+04  0.46999998093E+01 0.  1.
       -5    1    3    3    0  502  0.23491722306E+03 -0.23233083924E+03  0.56143630005E+03  0.65145723541E+03  0.46999998093E+01 0. -1.
</event>
<event>
 5   0  0.6990118E-03  0.6951781E+03  0.7818609E-02  0.9725514E-01
       -1   -1    0    0    0  501  0.00000000000E+00  0.00000000000E+00  0.40845518003E+03  0.40845518006E+03  0.50400001928E-02 0.  1.
        1   -1    0    0  501    0  0.00000000000E+00  0.00000000000E+00 -0.29579291085E+03  0.29579291090E+03  0.50400001928E-02 0. -1.
    10030    2    1    2    0    0  0.00000000000E+00  0.00000000000E+00  0.11266226918E+03  0.70424809096E+03  0.69517809712E+03 0.  0.
        5    1    3    3  502    0 -0.11102648975E+02 -0.17397461757E+03  0.36092932099E+03  0.40085221856E+03  0.46999998093E+01 0.  1.
       -5    1    3    3    0  502  0.11102648975E+02  0.17397461757E+03 -0.24826705181E+03  0.30339587240E+03  0.46999998093E+01 0. -1.
</event>
<event>
 5   0  0.1079446E-02  0.7015488E+03  0.7818609E-02  0.9714587E-01
        2   -1    0    0  501    0  0.00000000000E+00  0.00000000000E+00  0.69790947902E+03  0.69790947903E+03  0.25500000920E-02 0.  1.
       -2   -1    0    0    0  501  0.00000000000E+00  0.00000000000E+00 -0.17630177388E+03  0.17630177390E+03  0.25500000920E-02 0. -1.
    10030    2    1    2    0    0  0.00000000000E+00  0.00000000000E+00  0.52160770514E+03  0.87421125292E+03  0.70154879850E+03 0.  0.
        2    1    3    3  502    0  0.88357457448E+02  0.28071264585E+03  0.49866534967E+03  0.57902829015E+03  0.25500000920E-02 0.  1.
       -2    1    3    3    0  502 -0.88357457448E+02 -0.28071264585E+03  0.22942355472E+02  0.29518296277E+03  0.25500000920E-02 0. -1.
</event>
<event>
 5   0  0.1100119E-02  0.7009261E+03  0.7818609E-02  0.9715650E-01
       -2   -1    0    0    0  501  0.00000000000E+00  0.00000000000E+00  0.13683900752E+03  0.13683900754E+03  0.25500000920E-02 0. -1.
        2   -1    0    0  501    0  0.00000000000E+00  0.00000000000E+00 -0.89758286166E+03  0.89758286166E+03  0.25500000920E-02 0.  1.
    10030    2    1    2    0    0  0.00000000000E+00  0.00000000000E+00 -0.76074385414E+03  0.10344218692E+04  0.70092609587E+03 0.  0.
        4    1    3    3  502    0  0.34338823770E+03  0.14162350032E+02 -0.48161908759E+03  0.59167103392E+03  0.12699999809E+01 0. -1.
       -4    1    3    3    0  502 -0.34338823770E+03 -0.14162350032E+02 -0.27912476655E+03  0.44275083529E+03  0.12699999809E+01 0.  1.
</event>
<event>
 5   0  0.6246998E-03  0.7009537E+03  0.7818609E-02  0.9715603E-01
        1   -1    0    0  501    0  0.00000000000E+00  0.00000000000E+00  0.66753376369E+02  0.66753376559E+02  0.50400001928E-02 0.  1.
       -1   -1    0    0    0  501  0.00000000000E+00  0.00000000000E+00 -0.18401170617E+04  0.18401170617E+04  0.50400001928E-02 0. -1.
    10030    2    1    2    0    0  0.00000000000E+00  0.00000000000E+00 -0.17733636853E+04  0.19068704383E+04  0.70095371308E+03 0.  0.
        4    1    3    3  502    0 -0.21834064672E+03  0.26845989006E+03 -0.73548411553E+03  0.81282338037E+03  0.12699999809E+01 0.  1.
       -4    1    3    3    0  502  0.21834064672E+03 -0.26845989006E+03 -0.10378795698E+04  0.10940470579E+04  0.12699999809E+01 0. -1.
</event>
<event>
 5   0  0.1099980E-02  0.6996830E+03  0.7818609E-02  0.9717774E-01
       -2   -1    0    0    0  501  0.00000000000E+00  0.00000000000E+00  0.12188918080E+03  0.12188918083E+03  0.25500000920E-02 0.  1.
        2   -1    0    0  501    0  0.00000000000E+00  0.00000000000E+00 -0.10041013444E+04  0.10041013444E+04  0.25500000920E-02 0. -1.
    10030    2    1    2    0    0  0.00000000000E+00  0.00000000000E+00 -0.88221216364E+03  0.11259905253E+04  0.69968304347E+03 0.  0.
        5    1    3    3  502    0  0.29990020273E+01 -0.34973033816E+03 -0.43010900242E+03  0.55437906473E+03  0.46999998093E+01 0.  1.
       -5    1    3    3    0  502 -0.29990020273E+01  0.34973033816E+03 -0.45210316121E+03  0.57161146054E+03  0.46999998093E+01 0. -1.
</event>
<event>
 5   0  0.1119786E-02  0.7002388E+03  0.7818609E-02  0.9716824E-01
        2   -1    0    0  501    0  0.00000000000E+00  0.00000000000E+00  0.17329197567E+03  0.17329197569E+03  0.25500000920E-02 0.  1.
       -2   -1    0    0    0  501  0.00000000000E+00  0.00000000000E+00 -0.70738177681E+03  0.70738177682E+03  0.25500000920E-02 0. -1.
    10030    2    1    2    0    0  0.00000000000E+00  0.00000000000E+00 -0.53408980114E+03  0.88067375251E+03  0.70023877548E+03 0.  0.
        3    1    3    3  502    0 -0.15300130106E+02 -0.15033944070E+02 -0.70655458656E+03  0.70688012240E+03  0.10100000352E+00 0. -1.
       -3    1    3    3    0  502  0.15300130106E+02  0.15033944070E+02  0.17246478542E+03  0.17379363011E+03  0.10100000352E+00 0.  1.
</event>
<event>
 5   0  0.1100119E-02  0.6987735E+03  0.7818609E-02  0.9719332E-01
        2   -1    0    0  501    0  0.00000000000E+00  0.00000000000E+00  0.52716282017E+03  0.52716282018E+03  0.25500000920E-02 0. -1.
       -2   -1    0    0    0  501  0.00000000000E+00  0.00000000000E+00 -0.23156240841E+03  0.23156240842E+03  0.25500000920E-02 0.  1.
    10030    2    1    2    0    0  0.00000000000E+00  0.00000000000E+00  0.29560041177E+03  0.75872522860E+03  0.69877347480E+03 0.  0.
        4    1    3    3  502    0  0.88214169890E+02  0.20804696213E+03  0.43712798742E+03  0.49208512323E+03  0.12699999809E+01 0. -1.
       -4    1    3    3    0  502 -0.88214169890E+02 -0.20804696213E+03 -0.14152757565E+03  0.26664010537E+03  0.12699999809E+01 0.  1.
</event>
<event>
 5   0  0.6609285E-03  0.6940654E+03  0.7818609E-02  0.9727435E-01
       -1   -1    0    0    0  501  0.00000000000E+00  0.00000000000E+00  0.90898447260E+02  0.90898447399E+02  0.50400001928E-02 0. -1.
        1   -1    0    0  501    0  0.00000000000E+00  0.00000000000E+00 -0.13249036998E+04  0.13249036998E+04  0.50400001928E-02 0.  1.
    10030    2    1    2    0    0  0.00000000000E+00  0.00000000000E+00 -0.12340052526E+04  0.14158021472E+04  0.69406538363E+03 0.  0.
        2    1    3    3  502    0 -0.72829881907E+02  0.33746112490E+03 -0.68905032910E+03  0.77069744943E+03  0.25500000920E-02 0.  1.
       -2    1    3    3    0  502  0.72829881907E+02 -0.33746112490E+03 -0.54495492346E+03  0.64510469780E+03  0.25500000920E-02 0. -1.
</event>
<event>
 5   0  0.1119786E-02  0.6960368E+03  0.7818609E-02  0.9724034E-01
        2   -1    0    0  501    0  0.00000000000E+00  0.00000000000E+00  0.20975177189E+04  0.20975177189E+04  0.25500000920E-02 0.  1.
       -2   -1    0    0    0  501  0.00000000000E+00  0.00000000000E+00 -0.57742921874E+02  0.57742921930E+02  0.25500000920E-02 0. -1.
    10030    2    1    2    0    0  0.00000000000E+00  0.00000000000E+00  0.20397747970E+04  0.21552606408E+04  0.69603678590E+03 0.  0.
        3    1    3    3  502    0  0.17985922793E+03 -0.13130306520E+03  0.19174985651E+03  0.29386706940E+03  0.10100000352E+00 0. -1.
       -3    1    3    3    0  502 -0.17985922793E+03  0.13130306520E+03  0.18480249405E+04  0.18613935714E+04  0.10100000352E+00 0.  1.
</event>
<event>
 5   0  0.6785252E-03  0.6997568E+03  0.7818609E-02  0.9717648E-01
        1   -1    0    0  501    0  0.00000000000E+00  0.00000000000E+00  0.12625443746E+04  0.12625443746E+04  0.50400001928E-02 0. -1.
       -1   -1    0    0    0  501  0.00000000000E+00  0.00000000000E+00 -0.96958896878E+02  0.96958897009E+02  0.50400001928E-02 0.  1.
    10030    2    1    2    0    0  0.00000000000E+00  0.00000000000E+00  0.11655854777E+04  0.13595032716E+04  0.69975684324E+03 0.  0.
        3    1    3    3  502    0  0.59853275678E+02 -0.17876134464E+03  0.11554373491E+04  0.11707149572E+04  0.10100000352E+00 0. -1.
       -3    1    3    3    0  502 -0.59853275678E+02  0.17876134464E+03  0.10148128544E+02  0.18878831441E+03  0.10100000352E+00 0.  1.
</event>
<event>
 5   0  0.1100119E-02  0.6947309E+03  0.7818609E-02  0.9726286E-01
        2   -1    0    0  501    0  0.00000000000E+00  0.00000000000E+00  0.75794308769E+03  0.75794308769E+03  0.25500000920E-02 0.  1.
       -2   -1    0    0    0  501  0.00000000000E+00  0.00000000000E+00 -0.15919766184E+03  0.15919766186E+03  0.25500000920E-02 0. -1.
    10030    2    1    2    0    0  0.00000000000E+00  0.00000000000E+00  0.59874542585E+03  0.91714074955E+03  0.69473093317E+03 0.  0.
        4    1    3    3  502    0  0.10344029624E+03  0.25119879633E+03  0.58514654727E+03  0.64513473387E+03  0.12699999809E+01 0.  1.
       -4    1    3    3    0  502 -0.10344029624E+03 -0.25119879633E+03  0.13598878580E+02  0.27200601567E+03  0.12699999809E+01 0. -1.
</event>
<event>
 5   0  0.6689415E-03  0.6993268E+03  0.7818609E-02  0.9718384E-01
        1   -1    0    0  501    0  0.00000000000E+00  0.00000000000E+00  0.10698611681E+04  0.10698611681E+04  0.50400001928E-02 0. -1.
       -1   -1    0    0    0  501  0.00000000000E+00  0.00000000000E+00 -0.11428071246E+03  0.11428071257E+03  0.50400001928E-02 0.  1.
    10030    2    1    2    0    0  0.00000000000E+00  0.00000000000E+00  0.95558045562E+03  0.11841418807E+04  0.69932680942E+03 0.  0.
        1    1    3    3  502    0 -0.17364797019E+03  0.17897519929E+03  0.62755886289E+02  0.25714595233E+03  0.50400001928E-02 0.  1.
       -1    1    3    3    0  502  0.17364797019E+03 -0.17897519929E+03  0.89282456933E+03  0.92699592833E+03  0.50400001928E-02 0. -1.
</event>
<event>
 5   0  0.1099980E-02  0.6971285E+03  0.7818609E-02  0.9722156E-01
        2   -1    0    0  501    0  0.00000000000E+00  0.00000000000E+00  0.11073541124E+04  0.11073541124E+04  0.25500000920E-02 0.  1.
       -2   -1    0    0    0  501  0.00000000000E+00  0.00000000000E+00 -0.10971831097E+03  0.10971831100E+03  0.25500000920E-02 0. -1.
    10030    2    1    2    0    0  0.00000000000E+00  0.00000000000E+00  0.99763580146E+03  0.12170724234E+04  0.69712846127E+03 0.  0.
        5    1    3    3  502    0 -0.30487317957E+03  0.11152844397E+03  0.27737392917E+03  0.42701830876E+03  0.46999998093E+01 0. -1.
       -5    1    3    3    0  502  0.30487317957E+03 -0.11152844397E+03  0.72026187229E+03  0.79005411467E+03  0.46999998093E+01 0.  1.
</event>
<event>
 5   0  0.6990118E-03  0.6949560E+03  0.7818609E-02  0.9725897E-01
        1   -1    0    0  501    0  0.00000000000E+00  0.00000000000E+00  0.25226254977E+04  0.25226254977E+04  0.50400001928E-02 0.  1.
       -1   -1    0    0    0  501  0.00000000000E+00  0.00000000000E+00 -0.47863206799E+02  0.47863207065E+02  0.50400001928E-02 0. -1.
    10030    2    1    2    0    0  0.00000000000E+00  0.00000000000E+00  0.24747622909E+04  0.25704887048E+04  0.69495595896E+03 0.  0.
        5    1    3    3  502    0  0.22326387211E+03 -0.33384570971E+02  0.22142900959E+04  0.22257726760E+04  0.46999998093E+01 0.  1.
       -5    1    3    3    0  502 -0.22326387211E+03  0.33384570971E+02  0.26047219502E+03  0.34471602885E+03  0.46999998093E+01 0. -1.
</event>
<event>
 5   0  0.6990118E-03  0.6999647E+03  0.7818609E-02  0.9717293E-01
        1   -1    0    0  501    0  0.00000000000E+00  0.00000000000E+00  0.98878335692E+03  0.98878335694E+03  0.50400001928E-02 0. -1.
       -1   -1    0    0    0  501  0.00000000000E+00  0.00000000000E+00 -0.12387713293E+03  0.12387713304E+03  0.50400001928E-02 0.  1.
    10030    2    1    2    0    0  0.00000000000E+00  0.00000000000E+00  0.86490622399E+03  0.11126604900E+04  0.69996470600E+03 0.  0.
        5    1    3    3  502    0 -0.11284461246E+03  0.22209198470E+02 -0.92927684176E+02  0.14793511937E+03  0.46999998093E+01 0.  1.
       -5    1    3    3    0  502  0.11284461246E+03 -0.22209198470E+02  0.95783390817E+03  0.96472537060E+03  0.46999998093E+01 0. -1.
</event>
<event>
 5   0  0.1099980E-02  0.6974391E+03  0.7818609E-02  0.9721622E-01
       -2   -1    0    0    0  501  0.00000000000E+00  0.00000000000E+00  0.11207316419E+04  0.11207316419E+04  0.25500000920E-02 0.  1.
        2   -1    0    0  501    0  0.00000000000E+00  0.00000000000E+00 -0.10850530899E+03  0.10850530902E+03  0.25500000920E-02 0. -1.
    10030    2    1    2    0    0  0.00000000000E+00  0.00000000000E+00  0.10122263330E+04  0.12292369510E+04  0.69743912457E+03 0.  0.
        5    1    3    3  502    0  0.22324047264E+03  0.17269412339E+03  0.14523636154E+03  0.31745119245E+03  0.46999998093E+01 0. -1.
       -5    1    3    3    0  502 -0.22324047264E+03 -0.17269412339E+03  0.86698997142E+03  0.91178575851E+03  0.46999998093E+01 0.  1.
</event>
<event>
 5   0  0.6246998E-03  0.6942473E+03  0.7818609E-02  0.9727121E-01
        1   -1    0    0  501    0  0.00000000000E+00  0.00000000000E+00  0.21732638941E+03  0.21732638947E+03  0.50400001928E-02 0. -1.
       -1   -1    0    0    0  501  0.00000000000E+00  0.00000000000E+00 -0.55444182921E+03  0.55444182923E+03  0.50400001928E-02 0.  1.
    10030    2    1    2    0    0  0.00000000000E+00  0.00000000000E+00 -0.33711543980E+03  0.77176821870E+03  0.69424733608E+03 0.  0.
        4    1    3    3  502    0 -0.24071533884E+03 -0.55814769870E+02 -0.43957088381E+03  0.50426514621E+03  0.12699999809E+01 0.  1.
       -4    1    3    3    0  502  0.24071533884E+03  0.55814769870E+02  0.10245544401E+03  0.26750307250E+03  0.12699999809E+01 0. -1.
</event>
<event>
 5   0  0.6246998E-03  0.7006613E+03  0.7818609E-02  0.9716102E-01
       -1   -1    0    0    0  501  0.00000000000E+00  0.00000000000E+00  0.30090950263E+03  0.30090950267E+03  0.50400001928E-02 0.  1.
        1   -1    0    0  501    0  0.00000000000E+00  0.00000000000E+00 -0.40786873512E+03  0.40786873515E+03  0.50400001928E-02 0. -1.
    10030    2    1    2    0    0  0.00000000000E+00  0.00000000000E+00 -0.10695923249E+03  0.70877823782E+03  0.70066133973E+03 0.  0.
        4    1    3    3  502    0  0.16056199784E+03 -0.31045813646E+03 -0.77536530098E+02  0.35801946322E+03  0.12699999809E+01 0. -1.
       -4    1    3    3    0  502 -0.16056199784E+03  0.31045813646E+03 -0.29422702387E+02  0.35075877460E+03  0.12699999809E+01 0.  1.
</event>
<event>
 5   0  0.6785252E-03  0.6978348E+03  0.7818609E-02  0.9720942E-01
        1   -1    0    0  501    0  0.00000000000E+00  0.00000000000E+00  0.12337668019E+04  0.12337668019E+04  0.50400001928E-02 0.  1.
       -1   -1    0    0    0  501  0.00000000000E+00  0.00000000000E+00 -0.98676154749E+02  0.98676154878E+02  0.50400001928E-02 0. -1.
    10030    2    1    2    0    0  0.00000000000E+00  0.00000000000E+00  0.11350906472E+04  0.13324429568E+04  0.69783483422E+03 0.  0.
        3    1    3    3  502    0 -0.20931034242E+03  0.20766419037E+03  0.21131059601E+03  0.36274979476E+03  0.10100000352E+00 0. -1.
       -3    1    3    3    0  502  0.20931034242E+03 -0.20766419037E+03  0.92378005114E+03  0.96969316203E+03  0.10100000352E+00 0.  1.
</event>
<event>
 5   0  0.6609285E-03  0.6991631E+03  0.7818609E-02  0.9718664E-01
       -1   -1    0    0    0  501  0.00000000000E+00  0.00000000000E+00  0.21801227198E+03  0.21801227204E+03  0.50400001928E-02 0.  1.
        1   -1    0    0  501    0  0.00000000000E+00  0.00000000000E+00 -0.56055224426E+03  0.56055224428E+03  0.50400001928E-02 0. -1.
    10030    2    1    2    0    0  0.00000000000E+00  0.00000000000E+00 -0.34253997228E+03  0.77856451632E+03  0.69916312365E+03 0.  0.
        2    1    3    3  502    0 -0.19260679285E+03 -0.18472524177E+03  0.80175355329E+02  0.27865548480E+03  0.25500000920E-02 0. -1.
       -2    1    3    3    0  502  0.19260679285E+03  0.18472524177E+03 -0.42271532761E+03  0.49990903152E+03  0.25500000920E-02 0.  1.
</event>
<event>
 5   0  0.6246998E-03  0.6983403E+03  0.7818609E-02  0.9720075E-01
       -1   -1    0    0    0  501  0.00000000000E+00  0.00000000000E+00  0.14000721782E+03  0.14000721791E+03  0.50400001928E-02 0. -1.
        1   -1    0    0  501    0  0.00000000000E+00  0.00000000000E+00 -0.87081075078E+03  0.87081075080E+03  0.50400001928E-02 0.  1.
    10030    2    1    2    0    0  0.00000000000E+00  0.00000000000E+00 -0.73080353296E+03  0.10108179687E+04  0.69834029103E+03 0.  0.
        4    1    3    3  502    0  0.80582796920E+02 -0.10098754109E+03 -0.83493637154E+03  0.84487420840E+03  0.12699999809E+01 0.  1.
       -4    1    3    3    0  502 -0.80582796920E+02  0.10098754109E+03  0.10413283858E+03  0.16594376030E+03  0.12699999809E+01 0. -1.
</event>
<event>
 5   0  0.6246998E-03  0.6872522E+03  0.7818609E-02  0.9739284E-01
        1   -1    0    0  501    0  0.00000000000E+00  0.00000000000E+00  0.45779791855E+03  0.45779791858E+03  0.50400001928E-02 0. -1.
       -1   -1    0    0    0  501  0.00000000000E+00  0.00000000000E+00 -0.25792797477E+03  0.25792797482E+03  0.50400001928E-02 0.  1.
    10030    2    1    2    0    0  0.00000000000E+00  0.00000000000E+00  0.19986994379E+03  0.71572589340E+03  0.68725218083E+03 0.  0.
        4    1    3    3  502    0 -0.12870309276E+03 -0.20749016329E+03  0.35173879688E+03  0.42818039198E+03  0.12699999809E+01 0. -1.
       -4    1    3    3    0  502  0.12870309276E+03  0.20749016329E+03 -0.15186885309E+03  0.28754550142E+03  0.12699999809E+01 0.  1.
</event>
<event>
 5   0  0.6689415E-03  0.6720682E+03  0.7818609E-02  0.9766229E-01
        1   -1    0    0  501    0  0.00000000000E+00  0.00000000000E+00  0.16661444702E+04  0.16661444702E+04  0.50400001928E-02 0.  1.
       -1   -1    0    0    0  501  0.00000000000E+00  0.00000000000E+00 -0.67772584864E+02  0.67772585052E+02  0.50400001928E-02 0. -1.
    10030    2    1    2    0    0  0.00000000000E+00  0.00000000000E+00  0.15983718853E+04  0.17339170553E+04  0.67206820390E+03 0.  0.
        1    1    3    3  502    0 -0.16099802923E+03 -0.10899414397E+02  0.38729640913E+02  0.16594923248E+03  0.50400001928E-02 0. -1.
       -1    1    3    3    0  502  0.16099802923E+03  0.10899414397E+02  0.15596422444E+04  0.15679678228E+04  0.50400001928E-02 0.  1.
</event>
<event>
 5   0  0.1079446E-02  0.6999982E+03  0.7818609E-02  0.9717235E-01
        2   -1    0    0  501    0  0.00000000000E+00  0.00000000000E+00  0.45148885762E+03  0.45148885763E+03  0.25500000920E-02 0. -1.
       -2   -1    0    0    0  501  0.00000000000E+00  0.00000000000E+00 -0.27132314148E+03  0.27132314149E+03  0.25500000920E-02 0.  1.
    10030    2    1    2    0    0  0.00000000000E+00  0.00000000000E+00  0.18016571615E+03  0.72281199912E+03  0.69999821485E+03 0.  0.
        2    1    3    3  502    0 -0.13250465430E+03 -0.32389754031E+03  0.84216580040E+02  0.35994379060E+03  0.25500000920E-02 0. -1.
       -2    1    3    3    0  502  0.13250465430E+03  0.32389754031E+03  0.95949136110E+02  0.36286820852E+03  0.25500000920E-02 0.  1.
</event>
<event>
 5   0  0.6689415E-03  0.6935937E+03  0.7818609E-02  0.9728251E-01
        1   -1    0    0  501    0  0.00000000000E+00  0.00000000000E+00  0.67809983767E+03  0.67809983769E+03  0.50400001928E-02 0. -1.
       -1   -1    0    0    0  501  0.00000000000E+00  0.00000000000E+00 -0.17736039071E+03  0.17736039079E+03  0.50400001928E-02 0.  1.
    10030    2    1    2    0    0  0.00000000000E+00  0.00000000000E+00  0.50073944696E+03  0.85546022848E+03  0.69359369141E+03 0.  0.
        1    1    3    3  502    0 -0.99329502882E+02  0.33055091123E+03  0.20876648853E+03  0.40337786481E+03  0.50400001928E-02 0. -1.
       -1    1    3    3    0  502  0.99329502882E+02 -0.33055091123E+03  0.29197295843E+03  0.45208236366E+03  0.50400001928E-02 0.  1.
</event>
<event>
 5   0  0.6246998E-03  0.7018875E+03  0.7818609E-02  0.9714010E-01
        1   -1    0    0  501    0  0.00000000000E+00  0.00000000000E+00  0.12875886018E+04  0.12875886018E+04  0.50400001928E-02 0.  1.
       -1   -1    0    0    0  501  0.00000000000E+00  0.00000000000E+00 -0.95652857561E+02  0.95652857694E+02  0.50400001928E-02 0. -1.
    10030    2    1    2    0    0  0.00000000000E+00  0.00000000000E+00  0.11919357442E+04  0.13832414595E+04  0.70188753862E+03 0.  0.
        4    1    3    3  502    0  0.10083174693E+03  0.33390509042E+03  0.67230126357E+03  0.75739702435E+03  0.12699999809E+01 0. -1.
       -4    1    3    3    0  502 -0.10083174693E+03 -0.33390509042E+03  0.51963448062E+03  0.62584443510E+03  0.12699999809E+01 0.  1.
</event>
<event>
 5   0  0.1099980E-02  0.6950657E+03  0.7818609E-02  0.9725708E-01
        2   -1    0    0  501    0  0.00000000000E+00  0.00000000000E+00  0.10486546069E+03  0.10486546072E+03  0.25500000920E-02 0.  1.
       -2   -1    0    0    0  501  0.00000000000E+00  0.00000000000E+00 -0.11517528028E+04  0.11517528028E+04  0.25500000920E-02 0. -1.
    10030    2    1    2    0    0  0.00000000000E+00  0.00000000000E+00 -0.10468873421E+04  0.12566182635E+04  0.69506571857E+03 0.  0.
        5    1    3    3  502    0 -0.18825109412E+03 -0.28928877924E+02  0.20393356884E+01  0.19052979636E+03  0.46999998093E+01 0.  1.
       -5    1    3    3    0  502  0.18825109412E+03  0.28928877924E+02 -0.10489266778E+04  0.10660884671E+04  0.46999998093E+01 0. -1.
</event>
<event>
 5   0  0.1099980E-02  0.7024531E+03  0.7818609E-02  0.9713046E-01
        2   -1    0    0  501    0  0.00000000000E+00  0.00000000000E+00  0.63850311283E+03  0.63850311284E+03  0.25500000920E-02 0. -1.
       -2   -1    0    0    0  501  0.00000000000E+00  0.00000000000E+00 -0.19320199920E+03  0.19320199922E+03  0.25500000920E-02 0.  1.
    10030    2    1    2    0    0  0.00000000000E+00  0.00000000000E+00  0.44530111363E+03  0.83170511206E+03  0.70245306720E+03 0.  0.
        5    1    3    3  502    0 -0.40511184291E+02 -0.34781045809E+03  0.19077657572E+03  0.39878698907E+03  0.46999998093E+01 0.  1.
       -5    1    3    3    0  502  0.40511184291E+02  0.34781045809E+03  0.25452453792E+03  0.43291812299E+03  0.46999998093E+01 0. -1.
</event>
<event>
 5   0  0.6785252E-03  0.6992332E+03  0.7818609E-02  0.9718544E-01
       -1   -1    0    0    0  501  0.00000000000E+00  0.00000000000E+00  0.60482582689E+03  0.60482582691E+03  0.50400001928E-02 0. -1.
        1   -1    0    0  501    0  0.00000000000E+00  0.00000000000E+00 -0.20209418097E+03  0.20209418103E+03  0.50400001928E-02 0.  1.
    10030    2    1    2    0    0  0.00000000000E+00  0.00000000000E+00  0.40273164592E+03  0.80692000794E+03  0.69923323761E+03 0.  0.
        3    1    3    3  502    0  0.12845631829E+03  0.27534025880E+03  0.40097395354E+03  0.50308389503E+03  0.10100000352E+00 0. -1.
       -3    1    3    3    0  502 -0.12845631829E+03 -0.27534025880E+03  0.17576923845E+01  0.30383611291E+03  0.10100000352E+00 0.  1.
</event>
<event>
 5   0  0.6246998E-03  0.7039523E+03  0.7818609E-02  0.9710497E-01
        1   -1    0    0  501    0  0.00000000000E+00  0.00000000000E+00  0.70919709572E+03  0.70919709573E+03  0.50400001928E-02 0. -1.
       -1   -1    0    0    0  501  0.00000000000E+00  0.00000000000E+00 -0.17468656440E+03  0.17468656448E+03  0.50400001928E-02 0.  1.
    10030    2    1    2    0    0  0.00000000000E+00  0.00000000000E+00  0.53451053131E+03  0.88388366021E+03  0.70395228297E+03 0.  0.
        4    1    3    3  502    0  0.27567322438E+03 -0.58699048393E+02  0.53195886837E+03  0.60201590965E+03  0.12699999809E+01 0. -1.
       -4    1    3    3    0  502 -0.27567322438E+03  0.58699048393E+02  0.25516629373E+01  0.28186775057E+03  0.12699999809E+01 0.  1.
</event>
<event>
 5   0  0.6609285E-03  0.7025904E+03  0.7818609E-02  0.9712813E-01
        1   -1    0    0  501    0  0.00000000000E+00  0.00000000000E+00  0.68751434109E+03  0.68751434111E+03  0.50400001928E-02 0.  1.
       -1   -1    0    0    0  501  0.00000000000E+00  0.00000000000E+00 -0.17949925273E+03  0.17949925280E+03  0.50400001928E-02 0. -1.
    10030    2    1    2    0    0  0.00000000000E+00  0.00000000000E+00  0.50801508836E+03  0.86701359392E+03  0.70259037997E+03 0.  0.
        2    1    3    3  502    0 -0.87140082536E+02 -0.28526690111E+03  0.25004713596E+02  0.29932563298E+03  0.25500000920E-02 0. -1.
       -2    1    3    3    0  502  0.87140082536E+02  0.28526690111E+03  0.48301037476E+03  0.56768796093E+03  0.25500000920E-02 0.  1.
</event>
<event>
 5   0  0.1100119E-02  0.7038386E+03  0.7818609E-02  0.9710690E-01
        2   -1    0    0  501    0  0.00000000000E+00  0.00000000000E+00  0.26465318587E+03  0.26465318589E+03  0.25500000920E-02 0. -1.
       -2   -1    0    0    0  501  0.00000000000E+00  0.00000000000E+00 -0.46796038451E+03  0.46796038452E+03  0.25500000920E-02 0.  1.
    10030    2    1    2    0    0  0.00000000000E+00  0.00000000000E+00 -0.20330719864E+03  0.73261357040E+03  0.70383863671E+03 0.  0.
        4    1    3    3  502    0 -0.21195003665E+01 -0.23225836704E+03 -0.37684293321E+03  0.44267442952E+03  0.12699999809E+01 0.  1.
       -4    1    3    3    0  502  0.21195003665E+01  0.23225836704E+03  0.17353573458E+03  0.28993914088E+03  0.12699999809E+01 0. -1.
</event>
<event>
 5   0  0.6990118E-03  0.7058663E+03  0.7818609E-02  0.9707252E-01
        1   -1    0    0  501    0  0.00000000000E+00  0.00000000000E+00  0.11643197254E+04  0.11643197254E+04  0.50400001928E-02 0. -1.
       -1   -1    0    0    0  501  0.00000000000E+00  0.00000000000E+00 -0.10698247529E+03  0.10698247541E+03  0.50400001928E-02 0.  1.
    10030    2    1    2    0    0  0.00000000000E+00  0.00000000000E+00  0.10573372501E+04  0.12713022008E+04  0.70586629424E+03 0.  0.
        5    1    3    3  502    0  0.44306269965E+02  0.27247958264E+03  0.13271738610E+03  0.30633994693E+03  0.46999998093E+01 0.  1.
       -5    1    3    3    0  502 -0.44306269965E+02 -0.27247958264E+03  0.92461986403E+03  0.96496225391E+03  0.46999998093E+01 0. -1.
</event>
<event>
 5   0  0.6785252E-03  0.6998733E+03  0.7818609E-02  0.9717449E-01
       -1   -1    0    0    0  501  0.00000000000E+00  0.00000000000E+00  0.45631133796E+03  0.45631133798E+03  0.50400001928E-02 0. -1.
        1   -1    0    0  501    0  0.00000000000E+00  0.00000000000E+00 -0.26835992193E+03  0.26835992197E+03  0.50400001928E-02 0.  1.
    10030    2    1    2    0    0  0.00000000000E+00  0.00000000000E+00  0.18795141603E+03  0.72467125996E+03  0.69987334584E+03 0.  0.
        3    1    3    3  502    0 -0.19911109997E+03  0.17027624311E+03  0.33417905212E+03  0.42463499406E+03  0.10100000352E+00 0. -1.
       -3    1    3    3    0  502  0.19911109997E+03 -0.17027624311E+03 -0.14622763610E+03  0.30003626590E+03  0.10100000352E+00 0.  1.
</event>
<event>
 5   0  0.1079446E-02  0.7038150E+03  0.7818609E-02  0.9710730E-01
        2   -1    0    0  501    0  0.00000000000E+00  0.00000000000E+00  0.23456203113E+04  0.23456203113E+04  0.25500000920E-02 0.  1.
       -2   -1    0    0    0  501  0.00000000000E+00  0.00000000000E+00 -0.52795794256E+02  0.52795794317E+02  0.25500000920E-02 0. -1.
    10030    2    1    2    0    0  0.00000000000E+00  0.00000000000E+00  0.22928245170E+04  0.23984161056E+04  0.70381499681E+03 0.  0.
        2    1    3    3  502    0  0.79842036620E+02 -0.11528099649E+03  0.22462954840E+04  0.22506683141E+04  0.25500000920E-02 0.  1.
       -2    1    3    3    0  502 -0.79842036620E+02  0.11528099649E+03  0.46529033079E+02  0.14774779148E+03  0.25500000920E-02 0. -1.
</event>
<event>
 5   0  0.1099980E-02  0.7002404E+03  0.7818609E-02  0.9716821E-01
        2   -1    0    0  501    0  0.00000000000E+00  0.00000000000E+00  0.26009762789E+03  0.26009762790E+03  0.25500000920E-02 0. -1.
       -2   -1    0    0    0  501  0.00000000000E+00  0.00000000000E+00 -0.47130048335E+03  0.47130048335E+03  0.25500000920E-02 0.  1.
    10030    2    1    2    0    0  0.00000000000E+00  0.00000000000E+00 -0.21120285546E+03  0.73139811126E+03  0.70024035231E+03 0.  0.
        5    1    3    3  502    0 -0.28649459638E+03 -0.93429092027E+01  0.10432820880E+03  0.30507852900E+03  0.46999998093E+01 0. -1.
       -5    1    3    3    0  502  0.28649459638E+03  0.93429092027E+01 -0.31553106426E+03  0.42631958226E+03  0.46999998093E+01 0.  1.
</event>
<event>
 5   0  0.1119786E-02  0.6854437E+03  0.7818609E-02  0.9742454E-01
       -2   -1    0    0    0  501  0.00000000000E+00  0.00000000000E+00  0.63126485919E+02  0.63126485971E+02  0.25500000920E-02 0. -1.
        2   -1    0    0  501    0  0.00000000000E+00  0.00000000000E+00 -0.18606811916E+04  0.18606811916E+04  0.25500000920E-02 0.  1.
    10030    2    1    2    0    0  0.00000000000E+00  0.00000000000E+00 -0.17975547057E+04  0.19238076776E+04  0.68544369599E+03 0.  0.
        3    1    3    3  502    0 -0.91003405791E+02  0.27458610902E+03 -0.38293864457E+03  0.47991787510E+03  0.10100000352E+00 0. -1.
       -3    1    3    3    0  502  0.91003405791E+02 -0.27458610902E+03 -0.14146160611E+04  0.14438898025E+04  0.10100000352E+00 0.  1.
</event>
<event>
 5   0  0.4440500E-03  0.6999034E+03  0.7818609E-02  0.9717397E-01
       -4   -1    0    0    0  501  0.00000000000E+00  0.00000000000E+00  0.22150822420E+03  0.22151186489E+03  0.12699999809E+01 0.  1.
        4   -1    0    0  501    0  0.00000000000E+00  0.00000000000E+00 -0.55286531451E+03  0.55286677318E+03  0.12699999809E+01 0. -1.
    10030    2    1    2    0    0  0.00000000000E+00  0.00000000000E+00 -0.33135709031E+03  0.77437863807E+03  0.69990338891E+03 0.  0.
        1    1    3    3  502    0 -0.20239347331E+03 -0.34017357722E+02  0.14793665232E+03  0.25299318526E+03  0.50400001928E-02 0.  1.
       -1    1    3    3    0  502  0.20239347331E+03  0.34017357722E+02 -0.47929374262E+03  0.52138545281E+03  0.50400001928E-02 0. -1.
</event>
<event>
 5   0  0.1119786E-02  0.6987209E+03  0.7818609E-02  0.9719422E-01
       -2   -1    0    0    0  501  0.00000000000E+00  0.00000000000E+00  0.11515892765E+03  0.11515892768E+03  0.25500000920E-02 0. -1.
        2   -1    0    0  501    0  0.00000000000E+00  0.00000000000E+00 -0.10598632951E+04  0.10598632951E+04  0.25500000920E-02 0.  1.
    10030    2    1    2    0    0  0.00000000000E+00  0.00000000000E+00 -0.94470436746E+03  0.11750222228E+04  0.69872089003E+03 0.  0.
        3    1    3    3  502    0  0.26093928514E+03 -0.15469151212E+03 -0.76379172676E+03  0.82182515569E+03  0.10100000352E+00 0. -1.
       -3    1    3    3    0  502 -0.26093928514E+03  0.15469151212E+03 -0.18091264070E+03  0.35319706711E+03  0.10100000352E+00 0.  1.
</event>
<event>
 5   0  0.6990118E-03  0.7008388E+03  0.7818609E-02  0.9715799E-01
       -1   -1    0    0    0  501  0.00000000000E+00  0.00000000000E+00  0.10221455663E+03  0.10221455675E+03  0.50400001928E-02 0. -1.
        1   -1    0    0  501    0  0.00000000000E+00  0.00000000000E+00 -0.12013333410E+04  0.12013333410E+04  0.50400001928E-02 0.  1.
    10030    2    1    2    0    0  0.00000000000E+00  0.00000000000E+00 -0.10991187844E+04  0.13035478978E+04  0.70083879716E+03 0.  0.
        5    1    3    3  502    0 -0.98821643795E+02 -0.32389604923E+03 -0.71692988321E+03  0.79289653513E+03  0.46999998093E+01 0. -1.
       -5    1    3    3    0  502  0.98821643795E+02  0.32389604923E+03 -0.38218890117E+03  0.51065136264E+03  0.46999998093E+01 0.  1.
</event>
<event>
 5   0  0.6785252E-03  0.6997690E+03  0.7818609E-02  0.9717627E-01
       -1   -1    0    0    0  501  0.00000000000E+00  0.00000000000E+00  0.33986155280E+03  0.33986155284E+03  0.50400001928E-02 0. -1.
        1   -1    0    0  501    0  0.00000000000E+00  0.00000000000E+00 -0.36020299738E+03  0.36020299741E+03  0.50400001928E-02 0.  1.
    10030    2    1    2    0    0  0.00000000000E+00  0.00000000000E+00 -0.20341444574E+02  0.70006455025E+03  0.69976896198E+03 0.  0.
        3    1    3    3  502    0 -0.19823771740E+03  0.20493539948E+03  0.19270159602E+03  0.34413751011E+03  0.10100000352E+00 0. -1.
       -3    1    3    3    0  502  0.19823771740E+03 -0.20493539948E+03 -0.21304304059E+03  0.35592704014E+03  0.10100000352E+00 0.  1.
</event>
<event>
 5   0  0.4440500E-03  0.7001438E+03  0.7818609E-02  0.9716986E-01
       -3   -1    0    0    0  501  0.00000000000E+00  0.00000000000E+00  0.29741439004E+03  0.29741440719E+03  0.10100000352E+00 0.  1.
        3   -1    0    0  501    0  0.00000000000E+00  0.00000000000E+00 -0.41205240319E+03  0.41205241557E+03  0.10100000352E+00 0. -1.
    10030    2    1    2    0    0  0.00000000000E+00  0.00000000000E+00 -0.11463801315E+03  0.70946682276E+03  0.70014376990E+03 0.  0.
        4    1    3    3  502    0  0.34498424145E+02  0.35314739814E+02  0.29386687544E+03  0.29798762642E+03  0.12699999809E+01 0.  1.
       -4    1    3    3    0  502 -0.34498424145E+02 -0.35314739814E+02 -0.40850488859E+03  0.41147919634E+03  0.12699999809E+01 0. -1.
</event>
<event>
 5   0  0.6246998E-03  0.6986982E+03  0.7818609E-02  0.9719461E-01
       -1   -1    0    0    0  501  0.00000000000E+00  0.00000000000E+00  0.17525376426E+03  0.17525376433E+03  0.50400001928E-02 0. -1.
        1   -1    0    0  501    0  0.00000000000E+00  0.00000000000E+00 -0.69638897796E+03  0.69638897797E+03  0.50400001928E-02 0.  1.
    10030    2    1    2    0    0  0.00000000000E+00  0.00000000000E+00 -0.52113521370E+03  0.87164274230E+03  0.69869818896E+03 0.  0.
        4    1    3    3  502    0 -0.28838657151E+03 -0.91187479497E+02 -0.42478414580E+02  0.30543084267E+03  0.12699999809E+01 0. -1.
       -4    1    3    3    0  502  0.28838657151E+03  0.91187479497E+02 -0.47865679912E+03  0.56621189964E+03  0.12699999809E+01 0.  1.
</event>
<event>
 5   0  0.1100119E-02  0.7023191E+03  0.7818609E-02  0.9713274E-01
        2   -1    0    0  501    0  0.00000000000E+00  0.00000000000E+00  0.56639214398E+03  0.56639214399E+03  0.25500000920E-02 0. -1.
       -2   -1    0    0    0  501  0.00000000000E+00  0.00000000000E+00 -0.21771668118E+03  0.21771668120E+03  0.25500000920E-02 0.  1.
    10030    2    1    2    0    0  0.00000000000E+00  0.00000000000E+00  0.34867546280E+03  0.78410882519E+03  0.70231906665E+03 0.  0.
        4    1    3    3  502    0 -0.12561529830E+02 -0.12863951814E+03  0.53886637773E+03  0.55415205820E+03  0.12699999809E+01 0. -1.
       -4    1    3    3    0  502  0.12561529830E+02  0.12863951814E+03 -0.19019091493E+03  0.22995676699E+03  0.12699999809E+01 0.  1.
</event>
<event>
 5   0  0.6246998E-03  0.6984465E+03  0.7818609E-02  0.9719893E-01
       -1   -1    0    0    0  501  0.00000000000E+00  0.00000000000E+00  0.45258255105E+03  0.45258255108E+03  0.50400001928E-02 0. -1.
        1   -1    0    0  501    0  0.00000000000E+00  0.00000000000E+00 -0.26946882924E+03  0.26946882928E+03  0.50400001928E-02 0.  1.
    10030    2    1    2    0    0  0.00000000000E+00  0.00000000000E+00  0.18311372181E+03  0.72205138036E+03  0.69844653393E+03 0.  0.
        4    1    3    3  502    0  0.12506833562E+03 -0.24831357058E+03  0.31001235794E+03  0.41642645555E+03  0.12699999809E+01 0. -1.
       -4    1    3    3    0  502 -0.12506833562E+03  0.24831357058E+03 -0.12689863613E+03  0.30562492480E+03  0.12699999809E+01 0.  1.
</event>
<event>
 5   0  0.1099980E-02  0.7008494E+03  0.7818609E-02  0.9715781E-01
       -2   -1    0    0    0  501  0.00000000000E+00  0.00000000000E+00  0.70553083023E+02  0.70553083069E+02  0.25500000920E-02 0. -1.
        2   -1    0    0  501    0  0.00000000000E+00  0.00000000000E+00 -0.17404975987E+04  0.17404975987E+04  0.25500000920E-02 0.  1.
    10030    2    1    2    0    0  0.00000000000E+00  0.00000000000E+00 -0.16699445157E+04  0.18110506818E+04  0.70084940358E+03 0.  0.
        5    1    3    3  502    0  0.38272357163E+02 -0.27773464440E+02 -0.17321327197E+04  0.17327844607E+04  0.46999998093E+01 0.  1.
       -5    1    3    3    0  502 -0.38272357163E+02  0.27773464440E+02  0.62188203989E+02  0.78266221088E+02  0.46999998093E+01 0. -1.
</event>
<event>
 5   0  0.6785252E-03  0.7013154E+03  0.7818609E-02  0.9714985E-01
        1   -1    0    0  501    0  0.00000000000E+00  0.00000000000E+00  0.17912735822E+03  0.17912735829E+03  0.50400001928E-02 0. -1.
       -1   -1    0    0    0  501  0.00000000000E+00  0.00000000000E+00 -0.68644347288E+03  0.68644347290E+03  0.50400001928E-02 0.  1.
    10030    2    1    2    0    0  0.00000000000E+00  0.00000000000E+00 -0.50731611466E+03  0.86557083119E+03  0.70131535246E+03 0.  0.
        3    1    3    3  502    0 -0.37130589678E+02 -0.30988076922E+03 -0.45096206611E+03  0.54842644639E+03  0.10100000352E+00 0.  1.
       -3    1    3    3    0  502  0.37130589678E+02  0.30988076922E+03 -0.56354048552E+02  0.31714438480E+03  0.10100000352E+00 0. -1.
</event>
<event>
 5   0  0.1079446E-02  0.6969452E+03  0.7818609E-02  0.9722471E-01
       -2   -1    0    0    0  501  0.00000000000E+00  0.00000000000E+00  0.15263328954E+03  0.15263328956E+03  0.25500000920E-02 0. -1.
        2   -1    0    0  501    0  0.00000000000E+00  0.00000000000E+00 -0.79558769904E+03  0.79558769905E+03  0.25500000920E-02 0.  1.
    10030    2    1    2    0    0  0.00000000000E+00  0.00000000000E+00 -0.64295440951E+03  0.94822098860E+03  0.69694524213E+03 0.  0.
        2    1    3    3  502    0  0.71910058122E+02  0.63125555487E+02  0.13440940787E+03  0.16499024560E+03  0.25500000920E-02 0. -1.
       -2    1    3    3    0  502 -0.71910058122E+02 -0.63125555487E+02 -0.77736381737E+03  0.78323074300E+03  0.25500000920E-02 0.  1.
</event>
<event>
 5   0  0.1100119E-02  0.7015138E+03  0.7818609E-02  0.9714647E-01
        2   -1    0    0  501    0  0.00000000000E+00  0.00000000000E+00  0.22658632310E+03  0.22658632311E+03  0.25500000920E-02 0.  1.
       -2   -1    0    0    0  501  0.00000000000E+00  0.00000000000E+00 -0.54297359360E+03  0.54297359360E+03  0.25500000920E-02 0. -1.
    10030    2    1    2    0    0  0.00000000000E+00  0.00000000000E+00 -0.31638727050E+03  0.76955991672E+03  0.70151376357E+03 0.  0.
        4    1    3    3  502    0 -0.24575925320E+03  0.22077879196E+03 -0.28915701123E+02  0.33163024015E+03  0.12699999809E+01 0.  1.
       -4    1    3    3    0  502  0.24575925320E+03 -0.22077879196E+03 -0.28747156938E+03  0.43792967656E+03  0.12699999809E+01 0. -1.
</event>
<event>
 5   0  0.1079446E-02  0.7009939E+03  0.7818609E-02  0.9715534E-01
        2   -1    0    0  501    0  0.00000000000E+00  0.00000000000E+00  0.33536408849E+03  0.33536408850E+03  0.25500000920E-02 0.  1.
       -2   -1    0    0    0  501  0.00000000000E+00  0.00000000000E+00 -0.36631267335E+03  0.36631267336E+03  0.25500000920E-02 0. -1.
    10030    2    1    2    0    0  0.00000000000E+00  0.00000000000E+00 -0.30948584862E+02  0.70167676186E+03  0.70099391098E+03 0.  0.
        2    1    3    3  502    0 -0.11375300425E+03  0.35700179262E+02 -0.34539187994E+03  0.36538992804E+03  0.25500000920E-02 0. -1.
       -2    1    3    3    0  502  0.11375300425E+03 -0.35700179262E+02  0.31444329508E+03  0.33628683382E+03  0.25500000920E-02 0.  1.
</event>
<event>
 5   0  0.6246998E-03  0.7320489E+03  0.7818609E-02  0.9663941E-01
        1   -1    0    0  501    0  0.00000000000E+00  0.00000000000E+00  0.13572509386E+04  0.13572509386E+04  0.50400001928E-02 0. -1.
       -1   -1    0    0    0  501  0.00000000000E+00  0.00000000000E+00 -0.98709757027E+02  0.98709757156E+02  0.50400001928E-02 0.  1.
    10030    2    1    2    0    0  0.00000000000E+00  0.00000000000E+00  0.12585411816E+04  0.14559606958E+04  0.73204893408E+03 0.  0.
        4    1    3    3  502    0 -0.13012922700E+02 -0.13402571030E+03  0.13061930834E+04  0.13131162215E+04  0.12699999809E+01 0. -1.
       -4    1    3    3    0  502  0.13012922700E+02  0.13402571030E+03 -0.47651901826E+02  0.14284447425E+03  0.12699999809E+01 0.  1.
</event>
<event>
 5   0  0.1099980E-02  0.7001520E+03  0.7818609E-02  0.9716972E-01
        2   -1    0    0  501    0  0.00000000000E+00  0.00000000000E+00  0.19154469463E+04  0.19154469463E+04  0.25500000920E-02 0.  1.
       -2   -1    0    0    0  501  0.00000000000E+00  0.00000000000E+00 -0.63981511110E+02  0.63981511161E+02  0.25500000920E-02 0. -1.
    10030    2    1    2    0    0  0.00000000000E+00  0.00000000000E+00  0.18514654352E+04  0.19794284575E+04  0.70015195531E+03 0.  0.
        5    1    3    3  502    0 -0.26763289961E+03  0.13298838284E+03  0.41046483244E+03  0.50775658301E+03  0.46999998093E+01 0.  1.
       -5    1    3    3    0  502  0.26763289961E+03 -0.13298838284E+03  0.14410006028E+04  0.14716718745E+04  0.46999998093E+01 0. -1.
</event>
<event>
 5   0  0.4440500E-03  0.7017571E+03  0.7818609E-02  0.9714232E-01
        4   -1    0    0  501    0  0.00000000000E+00  0.00000000000E+00  0.57393711014E+03  0.57393851526E+03  0.12699999809E+01 0. -1.
       -4   -1    0    0    0  501  0.00000000000E+00  0.00000000000E+00 -0.21450736229E+03  0.21451112180E+03  0.12699999809E+01 0.  1.
    10030    2    1    2    0    0  0.00000000000E+00  0.00000000000E+00  0.35942974785E+03  0.78844963706E+03  0.70175714214E+03 0.  0.
        5    1    3    3  502    0 -0.92795322650E+02  0.20468954072E+03  0.48241336957E+03  0.53221567914E+03  0.46999998093E+01 0. -1.
       -5    1    3    3    0  502  0.92795322650E+02 -0.20468954072E+03 -0.12298362172E+03  0.25623395792E+03  0.46999998093E+01 0.  1.
</event>
<event>
 5   0  0.6246998E-03  0.6839934E+03  0.7818609E-02  0.9745004E-01
       -1   -1    0    0    0  501  0.00000000000E+00  0.00000000000E+00  0.12071334041E+03  0.12071334051E+03  0.50400001928E-02 0.  1.
        1   -1    0    0  501    0  0.00000000000E+00  0.00000000000E+00 -0.96892135674E+03  0.96892135675E+03  0.50400001928E-02 0. -1.
    10030    2    1    2    0    0  0.00000000000E+00  0.00000000000E+00 -0.84820801634E+03  0.10896346973E+04  0.68399337315E+03 0.  0.
        4    1    3    3  502    0  0.48993445297E+02  0.51645284102E+02  0.10877617795E+03  0.13000562619E+03  0.12699999809E+01 0.  1.
       -4    1    3    3    0  502 -0.48993445297E+02 -0.51645284102E+02 -0.95698419428E+03  0.95962907108E+03  0.12699999809E+01 0. -1.
</event>
<event>
 5   0  0.6785252E-03  0.6983771E+03  0.7818609E-02  0.9720012E-01
       -1   -1    0    0    0  501  0.00000000000E+00  0.00000000000E+00  0.12656019203E+03  0.12656019213E+03  0.50400001928E-02 0.  1.
        1   -1    0    0  501    0  0.00000000000E+00  0.00000000000E+00 -0.96343594082E+03  0.96343594083E+03  0.50400001928E-02 0. -1.
    10030    2    1    2    0    0  0.00000000000E+00  0.00000000000E+00 -0.83687574879E+03  0.10899961330E+04  0.69837708364E+03 0.  0.
        3    1    3    3  502    0 -0.32061763246E+03  0.35296155747E+02 -0.20967464006E+03  0.38471411430E+03  0.10100000352E+00 0.  1.
       -3    1    3    3    0  502  0.32061763246E+03 -0.35296155747E+02 -0.62720110873E+03  0.70528201866E+03  0.10100000352E+00 0. -1.
</event>
<event>
 5   0  0.6609285E-03  0.6996014E+03  0.7818609E-02  0.9717914E-01
        1   -1    0    0  501    0  0.00000000000E+00  0.00000000000E+00  0.31033944570E+03  0.31033944574E+03  0.50400001928E-02 0. -1.
       -1   -1    0    0    0  501  0.00000000000E+00  0.00000000000E+00 -0.39427970960E+03  0.39427970964E+03  0.50400001928E-02 0.  1.
    10030    2    1    2    0    0  0.00000000000E+00  0.00000000000E+00 -0.83940263902E+02  0.70461915538E+03  0.69960144813E+03 0.  0.
        2    1    3    3  502    0  0.51251786881E+02  0.36798030085E+02  0.30456109320E+03  0.31102781254E+03  0.25500000920E-02 0. -1.
       -2    1    3    3    0  502 -0.51251786881E+02 -0.36798030085E+02 -0.38850135710E+03  0.39359134284E+03  0.25500000920E-02 0.  1.
</event>
<event>
 5   0  0.1109788E-02  0.7005277E+03  0.7818609E-02  0.9716330E-01
        2   -1    0    0  501    0  0.00000000000E+00  0.00000000000E+00  0.83990441288E+03  0.83990441288E+03  0.25500000920E-02 0.  1.
       -2   -1    0    0    0  501  0.00000000000E+00  0.00000000000E+00 -0.14606993024E+03  0.14606993026E+03  0.25500000920E-02 0. -1.
    10030    2    1    2    0    0  0.00000000000E+00  0.00000000000E+00  0.69383448264E+03  0.98597434314E+03  0.70052774108E+03 0.  0.
        1    1    3    3  502    0 -0.18505044473E+03  0.85531121831E+02 -0.53967082262E+02  0.21088310955E+03  0.50400001928E-02 0. -1.
       -1    1    3    3    0  502  0.18505044473E+03 -0.85531121831E+02  0.74780156490E+03  0.77509123360E+03  0.50400001928E-02 0.  1.
</event>
<event>
 5   0  0.6246998E-03  0.6956709E+03  0.7818609E-02  0.9724664E-01
        1   -1    0    0  501    0  0.00000000000E+00  0.00000000000E+00  0.96342325806E+03  0.96342325808E+03  0.50400001928E-02 0. -1.
       -1   -1    0    0    0  501  0.00000000000E+00  0.00000000000E+00 -0.12558290122E+03  0.12558290133E+03  0.50400001928E-02 0.  1.
    10030    2    1    2    0    0  0.00000000000E+00  0.00000000000E+00  0.83784035684E+03  0.10890061594E+04  0.69567086447E+03 0.  0.
        4    1    3    3  502    0  0.10389319072E+03 -0.23996097844E+03  0.59855847504E+02  0.26825249604E+03  0.12699999809E+01 0.  1.
       -4    1    3    3    0  502 -0.10389319072E+03  0.23996097844E+03  0.77798450934E+03  0.82075366336E+03  0.12699999809E+01 0. -1.
</event>
<event>
 5   0  0.1119786E-02  0.6997282E+03  0.7818609E-02  0.9717697E-01
        2   -1    0    0  501    0  0.00000000000E+00  0.00000000000E+00  0.58474793045E+03  0.58474793045E+03  0.25500000920E-02 0. -1.
       -2   -1    0    0    0  501  0.00000000000E+00  0.00000000000E+00 -0.20932933700E+03  0.20932933702E+03  0.25500000920E-02 0.  1.
    10030    2    1    2    0    0  0.00000000000E+00  0.00000000000E+00  0.37541859344E+03  0.79407726747E+03  0.69972822325E+03 0.  0.
        3    1    3    3  502    0 -0.30987810938E+03 -0.15641452002E+03  0.23736980331E+03  0.42051679927E+03  0.10100000352E+00 0. -1.
       -3    1    3    3    0  502  0.30987810938E+03  0.15641452002E+03  0.13804879014E+03  0.37356046820E+03  0.10100000352E+00 0.  1.
</event>
<event>
 5   0  0.1109788E-02  0.6984781E+03  0.7818609E-02  0.9719838E-01
        2   -1    0    0  501    0  0.00000000000E+00  0.00000000000E+00  0.17643600085E+04  0.17643600085E+04  0.25500000920E-02 0. -1.
       -2   -1    0    0    0  501  0.00000000000E+00  0.00000000000E+00 -0.69128698977E+02  0.69128699024E+02  0.25500000920E-02 0.  1.
    10030    2    1    2    0    0  0.00000000000E+00  0.00000000000E+00  0.16952313095E+04  0.18334887075E+04  0.69847809402E+03 0.  0.
        1    1    3    3  502    0 -0.34117732840E+03  0.72802785732E+02  0.89040333069E+03  0.95630555073E+03  0.50400001928E-02 0. -1.
       -1    1    3    3    0  502  0.34117732840E+03 -0.72802785732E+02  0.80482797880E+03  0.87718315676E+03  0.50400001928E-02 0.  1.
</event>
<event>
 5   0  0.1109788E-02  0.6998876E+03  0.7818609E-02  0.9717424E-01
       -2   -1    0    0    0  501  0.00000000000E+00  0.00000000000E+00  0.19659239870E+03  0.19659239872E+03  0.25500000920E-02 0. -1.
        2   -1    0    0  501    0  0.00000000000E+00  0.00000000000E+00 -0.62291650591E+03  0.62291650592E+03  0.25500000920E-02 0.  1.
    10030    2    1    2    0    0  0.00000000000E+00  0.00000000000E+00 -0.42632410721E+03  0.81950890464E+03  0.69988756268E+03 0.  0.
        1    1    3    3  502    0  0.17541729328E+02  0.17543741825E+03  0.14078496977E+03  0.22562448389E+03  0.50400001928E-02 0. -1.
       -1    1    3    3    0  502 -0.17541729328E+02 -0.17543741825E+03 -0.56710907698E+03  0.59388442075E+03  0.50400001928E-02 0.  1.
</event>
<event>
 5   0  0.1099980E-02  0.6967651E+03  0.7818609E-02  0.9722780E-01
       -2   -1    0    0    0  501  0.00000000000E+00  0.00000000000E+00  0.74911078415E+02  0.74911078458E+02  0.25500000920E-02 0.  1.
        2   -1    0    0  501    0  0.00000000000E+00  0.00000000000E+00 -0.16201928926E+04  0.16201928926E+04  0.25500000920E-02 0. -1.
    10030    2    1    2    0    0  0.00000000000E+00  0.00000000000E+00 -0.15452818142E+04  0.16951039711E+04  0.69676508771E+03 0.  0.
        5    1    3    3  502    0  0.18677756044E+03 -0.28447887111E+03 -0.95362409546E+03  0.10125389329E+04  0.46999998093E+01 0. -1.
       -5    1    3    3    0  502 -0.18677756044E+03  0.28447887111E+03 -0.59165771872E+03  0.68256503816E+03  0.46999998093E+01 0.  1.
</event>
<event>
 5   0  0.6990118E-03  0.7048308E+03  0.7818609E-02  0.9709006E-01
        1   -1    0    0  501    0  0.00000000000E+00  0.00000000000E+00  0.91829960085E+03  0.91829960086E+03  0.50400001928E-02 0. -1.
       -1   -1    0    0    0  501  0.00000000000E+00  0.00000000000E+00 -0.13524629244E+03  0.13524629254E+03  0.50400001928E-02 0.  1.
    10030    2    1    2    0    0  0.00000000000E+00  0.00000000000E+00  0.78305330841E+03  0.10535458934E+04  0.70483080643E+03 0.  0.
        5    1    3    3  502    0  0.30621181900E+02 -0.34019464655E+03  0.26203891313E+03  0.43053052890E+03  0.46999998093E+01 0.  1.
       -5    1    3    3    0  502 -0.30621181900E+02  0.34019464655E+03  0.52101439528E+03  0.62301536451E+03  0.46999998093E+01 0. -1.
</event>
<event>
 5   0  0.1119786E-02  0.6980376E+03  0.7818609E-02  0.9720594E-01
        2   -1    0    0  501    0  0.00000000000E+00  0.00000000000E+00  0.10684617696E+04  0.10684617696E+04  0.25500000920E-02 0. -1.
       -2   -1    0    0    0  501  0.00000000000E+00  0.00000000000E+00 -0.11400887764E+03  0.11400887767E+03  0.25500000920E-02 0.  1.
    10030    2    1    2    0    0  0.00000000000E+00  0.00000000000E+00  0.95445289192E+03  0.11824706472E+04  0.69803761264E+03 0.  0.
        3    1    3    3  502    0  0.33653716838E+03  0.92284949299E+02  0.48798555353E+03  0.59991973482E+03  0.10100000352E+00 0. -1.
       -3    1    3    3    0  502 -0.33653716838E+03 -0.92284949299E+02  0.46646733839E+03  0.58255091241E+03  0.10100000352E+00 0.  1.
</event>
<event>
 5   0  0.6609285E-03  0.7010243E+03  0.7818609E-02  0.9715482E-01
       -1   -1    0    0    0  501  0.00000000000E+00  0.00000000000E+00  0.36428252185E+03  0.36428252189E+03  0.50400001928E-02 0. -1.
        1   -1    0    0  501    0  0.00000000000E+00  0.00000000000E+00 -0.33726234464E+03  0.33726234467E+03  0.50400001928E-02 0.  1.
    10030    2    1    2    0    0  0.00000000000E+00  0.00000000000E+00  0.27020177215E+02  0.70154486656E+03  0.70102432898E+03 0.  0.
        2    1    3    3  502    0  0.34701554740E+03  0.49325511588E+02  0.11062620377E+02  0.35067816842E+03  0.25500000920E-02 0. -1.
       -2    1    3    3    0  502 -0.34701554740E+03 -0.49325511588E+02  0.15957556838E+02  0.35086669813E+03  0.25500000920E-02 0.  1.
</event>
<event>
 5   0  0.6689415E-03  0.7005845E+03  0.7818609E-02  0.9716233E-01
       -1   -1    0    0    0  501  0.00000000000E+00  0.00000000000E+00  0.26189481448E+03  0.26189481453E+03  0.50400001928E-02 0. -1.
        1   -1    0    0  501    0  0.00000000000E+00  0.00000000000E+00 -0.46852653298E+03  0.46852653300E+03  0.50400001928E-02 0.  1.
    10030    2    1    2    0    0  0.00000000000E+00  0.00000000000E+00 -0.20663171850E+03  0.73042134753E+03  0.70058452584E+03 0.  0.
        1    1    3    3  502    0 -0.77500261101E+01 -0.34536255259E+03 -0.16383373108E+03  0.38233080846E+03  0.50400001928E-02 0.  1.
       -1    1    3    3    0  502  0.77500261101E+01  0.34536255259E+03 -0.42797987420E+02  0.34809053907E+03  0.50400001928E-02 0. -1.
</event>
<event>
 5   0  0.6689415E-03  0.7024175E+03  0.7818609E-02  0.9713107E-01
        1   -1    0    0  501    0  0.00000000000E+00  0.00000000000E+00  0.42170117479E+03  0.42170117482E+03  0.50400001928E-02 0. -1.
       -1   -1    0    0    0  501  0.00000000000E+00  0.00000000000E+00 -0.29249999603E+03  0.29249999607E+03  0.50400001928E-02 0.  1.
    10030    2    1    2    0    0  0.00000000000E+00  0.00000000000E+00  0.12920117877E+03  0.71420117089E+03  0.70241751680E+03 0.  0.
        1    1    3    3  502    0 -0.19289229422E+03 -0.12429763280E+03 -0.20573610140E+03  0.30819585029E+03  0.50400001928E-02 0. -1.
       -1    1    3    3    0  502  0.19289229422E+03  0.12429763280E+03  0.33493728017E+03  0.40600532061E+03  0.50400001928E-02 0.  1.
</event>
<event>
 5   0  0.6785252E-03  0.7029619E+03  0.7818609E-02  0.9712180E-01
        1   -1    0    0  501    0  0.00000000000E+00  0.00000000000E+00  0.75407212662E+03  0.75407212664E+03  0.50400001928E-02 0.  1.
       -1   -1    0    0    0  501  0.00000000000E+00  0.00000000000E+00 -0.16382898239E+03  0.16382898247E+03  0.50400001928E-02 0. -1.
    10030    2    1    2    0    0  0.00000000000E+00  0.00000000000E+00  0.59024314423E+03  0.91790110910E+03  0.70296193125E+03 0.  0.
        3    1    3    3  502    0 -0.20258397949E+03  0.13608358151E+03  0.62540417139E+03  0.67133404331E+03  0.10100000352E+00 0.  1.
       -3    1    3    3    0  502  0.20258397949E+03 -0.13608358151E+03 -0.35161027166E+02  0.24656706580E+03  0.10100000352E+00 0. -1.
</event>
<event>
 5   0  0.1079446E-02  0.7176194E+03  0.7818609E-02  0.9687566E-01
       -2   -1    0    0    0  501  0.00000000000E+00  0.00000000000E+00  0.47188572269E+03  0.47188572270E+03  0.25500000920E-02 0. -1.
        2   -1    0    0  501    0  0.00000000000E+00  0.00000000000E+00 -0.27282960153E+03  0.27282960154E+03  0.25500000920E-02 0.  1.
    10030    2    1    2    0    0  0.00000000000E+00  0.00000000000E+00  0.19905612116E+03  0.74471532424E+03  0.71761938016E+03 0.  0.
        2    1    3    3  502    0  0.70908178897E+02 -0.85265415359E+02 -0.25459878689E+03  0.27770254443E+03  0.25500000920E-02 0.  1.
       -2    1    3    3    0  502 -0.70908178897E+02  0.85265415359E+02  0.45365490806E+03  0.46701277980E+03  0.25500000920E-02 0. -1.
</event>
<event>
 5   0  0.6990118E-03  0.7027824E+03  0.7818609E-02  0.9712486E-01
        1   -1    0    0  501    0  0.00000000000E+00  0.00000000000E+00  0.27646768350E+03  0.27646768355E+03  0.50400001928E-02 0. -1.
       -1   -1    0    0    0  501  0.00000000000E+00  0.00000000000E+00 -0.44661922423E+03  0.44661922426E+03  0.50400001928E-02 0.  1.
    10030    2    1    2    0    0  0.00000000000E+00  0.00000000000E+00 -0.17015154073E+03  0.72308690780E+03  0.70278241969E+03 0.  0.
        5    1    3    3  502    0  0.21351412767E+03  0.24029036042E+03 -0.23104046705E+03  0.39589080242E+03  0.46999998093E+01 0. -1.
       -5    1    3    3    0  502 -0.21351412767E+03 -0.24029036042E+03  0.60888926321E+02  0.32719610538E+03  0.46999998093E+01 0.  1.
</event>
<event>
 5   0  0.1099980E-02  0.6983205E+03  0.7818609E-02  0.9720109E-01
       -2   -1    0    0    0  501  0.00000000000E+00  0.00000000000E+00  0.96865186671E+02  0.96865186704E+02  0.25500000920E-02 0.  1.
        2   -1    0    0  501    0  0.00000000000E+00  0.00000000000E+00 -0.12585830767E+04  0.12585830767E+04  0.25500000920E-02 0. -1.
    10030    2    1    2    0    0  0.00000000000E+00  0.00000000000E+00 -0.11617178900E+04  0.13554482634E+04  0.69832051292E+03 0.  0.
        5    1    3    3  502    0 -0.10129265782E+03 -0.93553868827E+02  0.41713598138E+02  0.14413411521E+03  0.46999998093E+01 0.  1.
       -5    1    3    3    0  502  0.10129265782E+03  0.93553868827E+02 -0.12034314882E+04  0.12113141482E+04  0.46999998093E+01 0. -1.
</event>
<event>
 5   0  0.4440500E-03  0.6983625E+03  0.7818609E-02  0.9720037E-01
       -4   -1    0    0    0  501  0.00000000000E+00  0.00000000000E+00  0.81149871190E+02  0.81159808366E+02  0.12699999809E+01 0. -1.
        4   -1    0    0  501    0  0.00000000000E+00  0.00000000000E+00 -0.15023963272E+04  0.15023968640E+04  0.12699999809E+01 0.  1.
    10030    2    1    2    0    0  0.00000000000E+00  0.00000000000E+00 -0.14212464560E+04  0.15835566724E+04  0.69836254611E+03 0.  0.
        1    1    3    3  502    0  0.13595987122E+03 -0.24075099486E+02 -0.14378702941E+04  0.14444845723E+04  0.50400001928E-02 0.  1.
       -1    1    3    3    0  502 -0.13595987122E+03  0.24075099486E+02  0.16623838055E+02  0.13907210005E+03  0.50400001928E-02 0. -1.
</event>
<event>
 5   0  0.1099980E-02  0.6775413E+03  0.7818609E-02  0.9756430E-01
        2   -1    0    0  501    0  0.00000000000E+00  0.00000000000E+00  0.49154554921E+03  0.49154554921E+03  0.25500000920E-02 0. -1.
       -2   -1    0    0    0  501  0.00000000000E+00  0.00000000000E+00 -0.23347900210E+03  0.23347900211E+03  0.25500000920E-02 0.  1.
    10030    2    1    2    0    0  0.00000000000E+00  0.00000000000E+00  0.25806654711E+03  0.72502455133E+03  0.67754133253E+03 0.  0.
        5    1    3    3  502    0 -0.30464097595E+03  0.13463648517E+03  0.19508745580E+03  0.38602372049E+03  0.46999998093E+01 0. -1.
       -5    1    3    3    0  502  0.30464097595E+03 -0.13463648517E+03  0.62979091307E+02  0.33900083084E+03  0.46999998093E+01 0.  1.
</event>
<event>
 5   0  0.6689415E-03  0.6987097E+03  0.7818609E-02  0.9719441E-01
       -1   -1    0    0    0  501  0.00000000000E+00  0.00000000000E+00  0.20428452850E+03  0.20428452856E+03  0.50400001928E-02 0.  1.
        1   -1    0    0  501    0  0.00000000000E+00  0.00000000000E+00 -0.59744518407E+03  0.59744518409E+03  0.50400001928E-02 0. -1.
    10030    2    1    2    0    0  0.00000000000E+00  0.00000000000E+00 -0.39316065557E+03  0.80172971264E+03  0.69870969011E+03 0.  0.
        1    1    3    3  502    0 -0.11746004395E+03  0.32395042601E+03 -0.13058421120E+03  0.36850098599E+03  0.50400001928E-02 0.  1.
       -1    1    3    3    0  502  0.11746004395E+03 -0.32395042601E+03 -0.26257644437E+03  0.43322872666E+03  0.50400001928E-02 0. -1.
</event>
<event>
 5   0  0.6609285E-03  0.6991522E+03  0.7818609E-02  0.9718683E-01
       -1   -1    0    0    0  501  0.00000000000E+00  0.00000000000E+00  0.51719348870E+03  0.51719348872E+03  0.50400001928E-02 0.  1.
        1   -1    0    0  501    0  0.00000000000E+00  0.00000000000E+00 -0.23628188024E+03  0.23628188029E+03  0.50400001928E-02 0. -1.
    10030    2    1    2    0    0  0.00000000000E+00  0.00000000000E+00  0.28091160846E+03  0.75347536901E+03  0.69915220084E+03 0.  0.
        2    1    3    3  502    0 -0.17826099264E+03 -0.15245338404E+03 -0.13888325278E+03  0.27259415568E+03  0.25500000920E-02 0. -1.
       -2    1    3    3    0  502  0.17826099264E+03  0.15245338404E+03  0.41979486124E+03  0.48088121333E+03  0.25500000920E-02 0.  1.
</event>
<event>
 5   0  0.1109788E-02  0.7000443E+03  0.7818609E-02  0.9717156E-01
        2   -1    0    0  501    0  0.00000000000E+00  0.00000000000E+00  0.12472609722E+04  0.12472609722E+04  0.25500000920E-02 0.  1.
       -2   -1    0    0    0  501  0.00000000000E+00  0.00000000000E+00 -0.98227655631E+02  0.98227655664E+02  0.25500000920E-02 0. -1.
    10030    2    1    2    0    0  0.00000000000E+00  0.00000000000E+00  0.11490333166E+04  0.13454886279E+04  0.70004434513E+03 0.  0.
        1    1    3    3  502    0  0.29791387481E+02  0.68685532768E+02  0.12316913838E+04  0.12339647054E+04  0.50400001928E-02 0.  1.
       -1    1    3    3    0  502 -0.29791387481E+02 -0.68685532768E+02 -0.82658067238E+02  0.11152392248E+03  0.50400001928E-02 0. -1.
</event>
<event>
 5   0  0.1109788E-02  0.7010494E+03  0.7818609E-02  0.9715439E-01
       -2   -1    0    0    0  501  0.00000000000E+00  0.00000000000E+00  0.78439473941E+02  0.78439473982E+02  0.25500000920E-02 0.  1.
        2   -1    0    0  501    0  0.00000000000E+00  0.00000000000E+00 -0.15663996238E+04  0.15663996238E+04  0.25500000920E-02 0. -1.
    10030    2    1    2    0    0  0.00000000000E+00  0.00000000000E+00 -0.14879601499E+04  0.16448390978E+04  0.70104939201E+03 0.  0.
        1    1    3    3  502    0  0.23038007599E+02  0.34996345412E+02 -0.15605032477E+04  0.15610656232E+04  0.50400001928E-02 0. -1.
       -1    1    3    3    0  502 -0.23038007599E+02 -0.34996345412E+02  0.72543097775E+02  0.83773474599E+02  0.50400001928E-02 0.  1.
</event>
<event>
 5   0  0.6990118E-03  0.6982547E+03  0.7818609E-02  0.9720222E-01
       -1   -1    0    0    0  501  0.00000000000E+00  0.00000000000E+00  0.60333190439E+03  0.60333190441E+03  0.50400001928E-02 0. -1.
        1   -1    0    0  501    0  0.00000000000E+00  0.00000000000E+00 -0.20202792381E+03  0.20202792388E+03  0.50400001928E-02 0.  1.
    10030    2    1    2    0    0  0.00000000000E+00  0.00000000000E+00  0.40130398058E+03  0.80535982828E+03  0.69825465855E+03 0.  0.
        5    1    3    3  502    0 -0.42433112113E+02 -0.20914109121E+03 -0.11799945448E+03  0.24389859838E+03  0.46999998093E+01 0.  1.
       -5    1    3    3    0  502  0.42433112113E+02  0.20914109121E+03  0.51930343505E+03  0.56146122991E+03  0.46999998093E+01 0. -1.
</event>
<event>
 5   0  0.6609285E-03  0.7066789E+03  0.7818609E-02  0.9705878E-01
        1   -1    0    0  501    0  0.00000000000E+00  0.00000000000E+00  0.17645912969E+03  0.17645912977E+03  0.50400001928E-02 0. -1.
       -1   -1    0    0    0  501  0.00000000000E+00  0.00000000000E+00 -0.70752226919E+03  0.70752226921E+03  0.50400001928E-02 0.  1.
    10030    2    1    2    0    0  0.00000000000E+00  0.00000000000E+00 -0.53106313949E+03  0.88398139897E+03  0.70667889143E+03 0.  0.
        2    1    3    3  502    0  0.32499508020E+03 -0.13866130837E+03 -0.26560342309E+03  0.44203386630E+03  0.25500000920E-02 0. -1.
       -2    1    3    3    0  502 -0.32499508020E+03  0.13866130837E+03 -0.26545971641E+03  0.44194753267E+03  0.25500000920E-02 0.  1.
</event>
<event>
 5   0  0.1099980E-02  0.7037451E+03  0.7818609E-02  0.9710849E-01
       -2   -1    0    0    0  501  0.00000000000E+00  0.00000000000E+00  0.14791484584E+03  0.14791484586E+03  0.25500000920E-02 0.  1.
        2   -1    0    0  501    0  0.00000000000E+00  0.00000000000E+00 -0.83706470633E+03  0.83706470633E+03  0.25500000920E-02 0. -1.
    10030    2    1    2    0    0  0.00000000000E+00  0.00000000000E+00 -0.68914986049E+03  0.98497955219E+03  0.70374511581E+03 0.  0.
        5    1    3    3  502    0 -0.25757402101E+03  0.19076164608E+03 -0.14147088278E+03  0.35038619064E+03  0.46999998093E+01 0.  1.
       -5    1    3    3    0  502  0.25757402101E+03 -0.19076164608E+03 -0.54767897770E+03  0.63459336156E+03  0.46999998093E+01 0. -1.
</event>
<event>
 5   0  0.6785252E-03  0.6981174E+03  0.7818609E-02  0.9720457E-01
       -1   -1    0    0    0  501  0.00000000000E+00  0.00000000000E+00  0.62300652459E+02  0.62300652663E+02  0.50400001928E-02 0.  1.
        1   -1    0    0  501    0  0.00000000000E+00  0.00000000000E+00 -0.19557094655E+04  0.19557094655E+04  0.50400001928E-02 0. -1.
    10030    2    1    2    0    0  0.00000000000E+00  0.00000000000E+00 -0.18934088130E+04  0.20180101181E+04  0.69811739967E+03 0.  0.
        3    1    3    3  502    0 -0.23736418167E+03 -0.89218074186E+02 -0.16401000560E+04  0.16595872448E+04  0.10100000352E+00 0. -1.
       -3    1    3    3    0  502  0.23736418167E+03  0.89218074186E+02 -0.25330875706E+03  0.35842287330E+03  0.10100000352E+00 0.  1.
</event>
<event>
 5   0  0.6609285E-03  0.7003870E+03  0.7818609E-02  0.9716571E-01
        1   -1    0    0  501    0  0.00000000000E+00  0.00000000000E+00  0.59578751877E+03  0.59578751879E+03  0.50400001928E-02 0. -1.
       -1   -1    0    0    0  501  0.00000000000E+00  0.00000000000E+00 -0.20583759864E+03  0.20583759870E+03  0.50400001928E-02 0.  1.
    10030    2    1    2    0    0  0.00000000000E+00  0.00000000000E+00  0.38994992013E+03  0.80162511749E+03  0.70038695646E+03 0.  0.
        2    1    3    3  502    0  0.95614679680E+02 -0.10728946962E+03  0.56048188948E+03  0.57861312265E+03  0.25500000920E-02 0. -1.
       -2    1    3    3    0  502 -0.95614679680E+02  0.10728946962E+03 -0.17053196935E+03  0.22301199484E+03  0.25500000920E-02 0.  1.
</event>
<event>
 5   0  0.1099980E-02  0.7018207E+03  0.7818609E-02  0.9714124E-01
       -2   -1    0    0    0  501  0.00000000000E+00  0.00000000000E+00  0.19170169932E+03  0.19170169934E+03  0.25500000920E-02 0.  1.
        2   -1    0    0  501    0  0.00000000000E+00  0.00000000000E+00 -0.64234214593E+03  0.64234214593E+03  0.25500000920E-02 0. -1.
    10030    2    1    2    0    0  0.00000000000E+00  0.00000000000E+00 -0.45064044660E+03  0.83404384527E+03  0.70182072050E+03 0.  0.
        5    1    3    3  502    0  0.35410350370E+02  0.22643279684E+03 -0.54106426808E+03  0.58762091232E+03  0.46999998093E+01 0. -1.
       -5    1    3    3    0  502 -0.35410350370E+02 -0.22643279684E+03  0.90423821479E+02  0.24642293296E+03  0.46999998093E+01 0.  1.
</event>
<event>
 5   0  0.1109788E-02  0.6984714E+03  0.7818609E-02  0.9719850E-01
        2   -1    0    0  501    0  0.00000000000E+00  0.00000000000E+00  0.12404141534E+04  0.12404141534E+04  0.25500000920E-02 0. -1.
       -2   -1    0    0    0  501  0.00000000000E+00  0.00000000000E+00 -0.98326484592E+02  0.98326484625E+02  0.25500000920E-02 0.  1.
    10030    2    1    2    0    0  0.00000000000E+00  0.00000000000E+00  0.11420876688E+04  0.13387406380E+04  0.69847136853E+03 0.  0.
        1    1    3    3  502    0  0.26085036039E+03  0.11541551654E+03  0.18483600237E+03  0.33989410081E+03  0.50400001928E-02 0.  1.
       -1    1    3    3    0  502 -0.26085036039E+03 -0.11541551654E+03  0.95725166641E+03  0.99884653718E+03  0.50400001928E-02 0. -1.
</event>
<event>
 5   0  0.6609285E-03  0.6992684E+03  0.7818609E-02  0.9718484E-01
        1   -1    0    0  501    0  0.00000000000E+00  0.00000000000E+00  0.42103694854E+03  0.42103694857E+03  0.50400001928E-02 0.  1.
       -1   -1    0    0    0  501  0.00000000000E+00  0.00000000000E+00 -0.29034044977E+03  0.29034044982E+03  0.50400001928E-02 0. -1.
    10030    2    1    2    0    0  0.00000000000E+00  0.00000000000E+00  0.13069649877E+03  0.71137739838E+03  0.69926835202E+03 0.  0.
        2    1    3    3  502    0 -0.14929058495E+03 -0.25881946545E+03 -0.11936930581E+03  0.32175180750E+03  0.25500000920E-02 0. -1.
       -2    1    3    3    0  502  0.14929058495E+03  0.25881946545E+03  0.25006580458E+03  0.38962559089E+03  0.25500000920E-02 0.  1.
</event>
<event>
 5   0  0.6990118E-03  0.7000237E+03  0.7818609E-02  0.9717192E-01
       -1   -1    0    0    0  501  0.00000000000E+00  0.00000000000E+00  0.35017413802E+03  0.35017413806E+03  0.50400001928E-02 0.  1.
        1   -1    0    0  501    0  0.00000000000E+00  0.00000000000E+00 -0.34984967008E+03  0.34984967012E+03  0.50400001928E-02 0. -1.
    10030    2    1    2    0    0  0.00000000000E+00  0.00000000000E+00  0.32446793501E+00  0.70002380818E+03  0.70002373298E+03 0.  0.
        5    1    3    3  502    0  0.26804971299E+03 -0.20173930660E+03 -0.99521377317E+02  0.34996569975E+03  0.46999998093E+01 0.  1.
       -5    1    3    3    0  502 -0.26804971299E+03  0.20173930660E+03  0.99845845252E+02  0.35005810842E+03  0.46999998093E+01 0. -1.
</event>
<event>
 5   0  0.6785252E-03  0.7001143E+03  0.7818609E-02  0.9717037E-01
        1   -1    0    0  501    0  0.00000000000E+00  0.00000000000E+00  0.12256382875E+04  0.12256382875E+04  0.50400001928E-02 0.  1.
       -1   -1    0    0    0  501  0.00000000000E+00  0.00000000000E+00 -0.99980560088E+02  0.99980560215E+02  0.50400001928E-02 0. -1.
    10030    2    1    2    0    0  0.00000000000E+00  0.00000000000E+00  0.11256577274E+04  0.13256188477E+04  0.70011428365E+03 0.  0.
        3    1    3    3  502    0  0.25483087459E+03  0.21650011010E+03  0.75895150618E+03  0.82934822075E+03  0.10100000352E+00 0.  1.
       -3    1    3    3    0  502 -0.25483087459E+03 -0.21650011010E+03  0.36670622124E+03  0.49627062699E+03  0.10100000352E+00 0. -1.
</event>
<event>
 5   0  0.6689415E-03  0.7040009E+03  0.7818609E-02  0.9710414E-01
       -1   -1    0    0    0  501  0.00000000000E+00  0.00000000000E+00  0.38755461918E+03  0.38755461921E+03  0.50400001928E-02 0.  1.
        1   -1    0    0  501    0  0.00000000000E+00  0.00000000000E+00 -0.31970802097E+03  0.31970802101E+03  0.50400001928E-02 0. -1.
    10030    2    1    2    0    0  0.00000000000E+00  0.00000000000E+00  0.67846598214E+02  0.70726264022E+03  0.70400091006E+03 0.  0.
        1    1    3    3  502    0  0.34369011588E+03 -0.46323747465E+02 -0.26651455192E+02  0.34782047873E+03  0.50400001928E-02 0. -1.
       -1    1    3    3    0  502 -0.34369011588E+03  0.46323747465E+02  0.94498053407E+02  0.35944216149E+03  0.50400001928E-02 0.  1.
</event>
<event>
 5   0  0.6990118E-03  0.6983653E+03  0.7818609E-02  0.9720032E-01
        1   -1    0    0  501    0  0.00000000000E+00  0.00000000000E+00  0.44295334743E+03  0.44295334746E+03  0.50400001928E-02 0. -1.
       -1   -1    0    0    0  501  0.00000000000E+00  0.00000000000E+00 -0.27526269055E+03  0.27526269059E+03  0.50400001928E-02 0.  1.
    10030    2    1    2    0    0  0.00000000000E+00  0.00000000000E+00  0.16769065688E+03  0.71821603806E+03  0.69836532053E+03 0.  0.
        5    1    3    3  502    0 -0.16550380048E+03 -0.93092561831E+02 -0.21748254980E+03  0.28875332467E+03  0.46999998093E+01 0.  1.
       -5    1    3    3    0  502  0.16550380048E+03  0.93092561831E+02  0.38517320669E+03  0.42946271339E+03  0.46999998093E+01 0. -1.
</event>
<event>
 5   0  0.6246998E-03  0.7006444E+03  0.7818609E-02  0.9716131E-01
       -1   -1    0    0    0  501  0.00000000000E+00  0.00000000000E+00  0.11417480658E+04  0.11417480658E+04  0.50400001928E-02 0. -1.
        1   -1    0    0  501    0  0.00000000000E+00  0.00000000000E+00 -0.10748923896E+03  0.10748923908E+03  0.50400001928E-02 0.  1.
    10030    2    1    2    0    0  0.00000000000E+00  0.00000000000E+00  0.10342588268E+04  0.12492373049E+04  0.70064436275E+03 0.  0.
        4    1    3    3  502    0 -0.25565204671E+03 -0.10560488401E+02  0.90498598752E+02  0.27140578877E+03  0.12699999809E+01 0.  1.
       -4    1    3    3    0  502  0.25565204671E+03  0.10560488401E+02  0.94376022809E+03  0.97783151612E+03  0.12699999809E+01 0. -1.
</event>
<event>
 5   0  0.6785252E-03  0.6989123E+03  0.7818609E-02  0.9719094E-01
        1   -1    0    0  501    0  0.00000000000E+00  0.00000000000E+00  0.86247118819E+03  0.86247118820E+03  0.50400001928E-02 0. -1.
       -1   -1    0    0    0  501  0.00000000000E+00  0.00000000000E+00 -0.14159265707E+03  0.14159265716E+03  0.50400001928E-02 0.  1.
    10030    2    1    2    0    0  0.00000000000E+00  0.00000000000E+00  0.72087853112E+03  0.10040638454E+04  0.69891226125E+03 0.  0.
        3    1    3    3  502    0 -0.29604245141E+03  0.16828291985E+03  0.47318612414E+03  0.58297975301E+03  0.10100000352E+00 0. -1.
       -3    1    3    3    0  502  0.29604245141E+03 -0.16828291985E+03  0.24769240698E+03  0.42108409234E+03  0.10100000352E+00 0.  1.
</event>
<event>
 5   0  0.1100119E-02  0.7005573E+03  0.7818609E-02  0.9716280E-01
        2   -1    0    0  501    0  0.00000000000E+00  0.00000000000E+00  0.15310946581E+04  0.15310946581E+04  0.25500000920E-02 0. -1.
       -2   -1    0    0    0  501  0.00000000000E+00  0.00000000000E+00 -0.80135573747E+02  0.80135573787E+02  0.25500000920E-02 0.  1.
    10030    2    1    2    0    0  0.00000000000E+00  0.00000000000E+00  0.14509590843E+04  0.16112302318E+04  0.70055734646E+03 0.  0.
        4    1    3    3  502    0 -0.25724216090E+03  0.26432115302E+02  0.12688725901E+04  0.12949561571E+04  0.12699999809E+01 0. -1.
       -4    1    3    3    0  502  0.25724216090E+03 -0.26432115302E+02  0.18208649420E+03  0.31627407471E+03  0.12699999809E+01 0.  1.
</event>
<event>
 5   0  0.6785252E-03  0.7001497E+03  0.7818609E-02  0.9716976E-01
        1   -1    0    0  501    0  0.00000000000E+00  0.00000000000E+00  0.16034164447E+03  0.16034164455E+03  0.50400001928E-02 0.  1.
       -1   -1    0    0    0  501  0.00000000000E+00  0.00000000000E+00 -0.76432054844E+03  0.76432054845E+03  0.50400001928E-02 0. -1.
    10030    2    1    2    0    0  0.00000000000E+00  0.00000000000E+00 -0.60397890396E+03  0.92466219301E+03  0.70014973737E+03 0.  0.
        3    1    3    3  502    0 -0.13512988119E+03 -0.16534542508E+03 -0.66834733292E+03  0.70163192773E+03  0.10100000352E+00 0. -1.
       -3    1    3    3    0  502  0.13512988119E+03  0.16534542508E+03  0.64368428955E+02  0.22303026528E+03  0.10100000352E+00 0.  1.
</event>
<event>
 5   0  0.1119786E-02  0.6999322E+03  0.7818609E-02  0.9717348E-01
       -2   -1    0    0    0  501  0.00000000000E+00  0.00000000000E+00  0.14830830143E+03  0.14830830145E+03  0.25500000920E-02 0.  1.
        2   -1    0    0  501    0  0.00000000000E+00  0.00000000000E+00 -0.82582202931E+03  0.82582202932E+03  0.25500000920E-02 0. -1.
    10030    2    1    2    0    0  0.00000000000E+00  0.00000000000E+00 -0.67751372788E+03  0.97413033077E+03  0.69993217518E+03 0.  0.
        3    1    3    3  502    0 -0.53597292151E+02  0.19808781288E+03  0.55785865248E+02  0.21265823356E+03  0.10100000352E+00 0.  1.
       -3    1    3    3    0  502  0.53597292151E+02 -0.19808781288E+03 -0.73329959313E+03  0.76147209721E+03  0.10100000352E+00 0. -1.
</event>
<event>
 5   0  0.1119786E-02  0.7027669E+03  0.7818609E-02  0.9712512E-01
       -2   -1    0    0    0  501  0.00000000000E+00  0.00000000000E+00  0.89379724149E+03  0.89379724150E+03  0.25500000920E-02 0.  1.
        2   -1    0    0  501    0  0.00000000000E+00  0.00000000000E+00 -0.13814130395E+03  0.13814130397E+03  0.25500000920E-02 0. -1.
    10030    2    1    2    0    0  0.00000000000E+00  0.00000000000E+00  0.75565593755E+03  0.10319385455E+04  0.70276686438E+03 0.  0.
        3    1    3    3  502    0  0.14829486314E+02  0.30423700456E+03  0.63507044644E+03  0.70433979780E+03  0.10100000352E+00 0.  1.
       -3    1    3    3    0  502 -0.14829486314E+02 -0.30423700456E+03  0.12058549111E+03  0.32759874767E+03  0.10100000352E+00 0. -1.
</event>
<event>
 5   0  0.4440500E-03  0.6997432E+03  0.7818609E-02  0.9717671E-01
       -4   -1    0    0    0  501  0.00000000000E+00  0.00000000000E+00  0.16018199304E+03  0.16018702754E+03  0.12699999809E+01 0. -1.
        4   -1    0    0  501    0  0.00000000000E+00  0.00000000000E+00 -0.76417662672E+03  0.76417768204E+03  0.12699999809E+01 0.  1.
    10030    2    1    2    0    0  0.00000000000E+00  0.00000000000E+00 -0.60399463368E+03  0.92436470958E+03  0.69974323777E+03 0.  0.
        2    1    3    3  502    0 -0.48439715964E+01 -0.34975421070E+03 -0.31211640294E+03  0.46879432693E+03  0.25500000920E-02 0. -1.
       -2    1    3    3    0  502  0.48439715964E+01  0.34975421070E+03 -0.29187823074E+03  0.45557038265E+03  0.25500000920E-02 0.  1.
</event>
<event>
 5   0  0.1099980E-02  0.6984929E+03  0.7818609E-02  0.9719813E-01
       -2   -1    0    0    0  501  0.00000000000E+00  0.00000000000E+00  0.21939128726E+03  0.21939128727E+03  0.25500000920E-02 0.  1.
        2   -1    0    0  501    0  0.00000000000E+00  0.00000000000E+00 -0.55596131344E+03  0.55596131345E+03  0.25500000920E-02 0. -1.
    10030    2    1    2    0    0  0.00000000000E+00  0.00000000000E+00 -0.33657002618E+03  0.77535260072E+03  0.69849285818E+03 0.  0.
        5    1    3    3  502    0 -0.12568005168E+02 -0.15182116276E+03  0.18052683178E+03  0.23626181919E+03  0.46999998093E+01 0.  1.
       -5    1    3    3    0  502  0.12568005168E+02  0.15182116276E+03 -0.51709685797E+03  0.53909078153E+03  0.46999998093E+01 0. -1.
</event>
<event>
 5   0  0.6990118E-03  0.7085778E+03  0.7818609E-02  0.9702674E-01
       -1   -1    0    0    0  501  0.00000000000E+00  0.00000000000E+00  0.15480715262E+03  0.15480715270E+03  0.50400001928E-02 0.  1.
        1   -1    0    0  501    0  0.00000000000E+00  0.00000000000E+00 -0.81081925913E+03  0.81081925915E+03  0.50400001928E-02 0. -1.
    10030    2    1    2    0    0  0.00000000000E+00  0.00000000000E+00 -0.65601210651E+03  0.96562641185E+03  0.70857778922E+03 0.  0.
        5    1    3    3  502    0  0.10762647728E+03  0.29560158540E+03 -0.54999395456E+03  0.63362385999E+03  0.46999998093E+01 0. -1.
       -5    1    3    3    0  502 -0.10762647728E+03 -0.29560158540E+03 -0.10601815195E+03  0.33200255186E+03  0.46999998093E+01 0.  1.
</event>
<event>
 5   0  0.6609285E-03  0.6996855E+03  0.7818609E-02  0.9717770E-01
        1   -1    0    0  501    0  0.00000000000E+00  0.00000000000E+00  0.90788734144E+03  0.90788734145E+03  0.50400001928E-02 0. -1.
       -1   -1    0    0    0  501  0.00000000000E+00  0.00000000000E+00 -0.13480742006E+03  0.13480742016E+03  0.50400001928E-02 0.  1.
    10030    2    1    2    0    0  0.00000000000E+00  0.00000000000E+00  0.77307992138E+03  0.10426947616E+04  0.69968550153E+03 0.  0.
        2    1    3    3  502    0  0.17037760319E+02  0.15704455277E+03 -0.78634155385E+02  0.17645568065E+03  0.25500000920E-02 0.  1.
       -2    1    3    3    0  502 -0.17037760319E+02 -0.15704455277E+03  0.85171407676E+03  0.86623908097E+03  0.25500000920E-02 0. -1.
</event>
<event>
 5   0  0.1099980E-02  0.7040025E+03  0.7818609E-02  0.9710412E-01
       -2   -1    0    0    0  501  0.00000000000E+00  0.00000000000E+00  0.42196221097E+03  0.42196221098E+03  0.25500000920E-02 0.  1.
        2   -1    0    0  501    0  0.00000000000E+00  0.00000000000E+00 -0.29363972472E+03  0.29363972473E+03  0.25500000920E-02 0. -1.
    10030    2    1    2    0    0  0.00000000000E+00  0.00000000000E+00  0.12832248625E+03  0.71560193571E+03  0.70400246443E+03 0.  0.
        5    1    3    3  502    0  0.15639723979E+03  0.14459816992E+03  0.34898159437E+03  0.40887525062E+03  0.46999998093E+01 0.  1.
       -5    1    3    3    0  502 -0.15639723979E+03 -0.14459816992E+03 -0.22065910812E+03  0.30672668510E+03  0.46999998093E+01 0. -1.
</event>
<event>
 5   0  0.1109788E-02  0.6954254E+03  0.7818609E-02  0.9725087E-01
        2   -1    0    0  501    0  0.00000000000E+00  0.00000000000E+00  0.76553870026E+03  0.76553870026E+03  0.25500000920E-02 0.  1.
       -2   -1    0    0    0  501  0.00000000000E+00  0.00000000000E+00 -0.15793340950E+03  0.15793340952E+03  0.25500000920E-02 0. -1.
    10030    2    1    2    0    0  0.00000000000E+00  0.00000000000E+00  0.60760529076E+03  0.92347210979E+03  0.69542544402E+03 0.  0.
        1    1    3    3  502    0 -0.33469619312E+03 -0.93647479320E+02  0.31790273115E+03  0.47101331040E+03  0.50400001928E-02 0.  1.
       -1    1    3    3    0  502  0.33469619312E+03  0.93647479320E+02  0.28970255961E+03  0.45245879939E+03  0.50400001928E-02 0. -1.
</event>
<event>
 5   0  0.6609285E-03  0.6951826E+03  0.7818609E-02  0.9725506E-01
        1   -1    0    0  501    0  0.00000000000E+00  0.00000000000E+00  0.52934486984E+03  0.52934486986E+03  0.50400001928E-02 0. -1.
       -1   -1    0    0    0  501  0.00000000000E+00  0.00000000000E+00 -0.22824382108E+03  0.22824382114E+03  0.50400001928E-02 0.  1.
    10030    2    1    2    0    0  0.00000000000E+00  0.00000000000E+00  0.30110104875E+03  0.75758869100E+03  0.69518255385E+03 0.  0.
        2    1    3    3  502    0 -0.32642760850E+03 -0.11459855155E+03  0.18721416722E+03  0.39336618566E+03  0.25500000920E-02 0.  1.
       -2    1    3    3    0  502  0.32642760850E+03  0.11459855155E+03  0.11388688153E+03  0.36422250534E+03  0.25500000920E-02 0. -1.
</event>
<event>
 5   0  0.1109788E-02  0.6989485E+03  0.7818609E-02  0.9719032E-01
        2   -1    0    0  501    0  0.00000000000E+00  0.00000000000E+00  0.84812722925E+03  0.84812722925E+03  0.25500000920E-02 0.  1.
       -2   -1    0    0    0  501  0.00000000000E+00  0.00000000000E+00 -0.14400229505E+03  0.14400229507E+03  0.25500000920E-02 0. -1.
    10030    2    1    2    0    0  0.00000000000E+00  0.00000000000E+00  0.70412493420E+03  0.99212952432E+03  0.69894854608E+03 0.  0.
        1    1    3    3  502    0  0.20595085649E+03  0.10271737049E+03  0.72537142544E+03  0.76100612242E+03  0.50400001928E-02 0.  1.
       -1    1    3    3    0  502 -0.20595085649E+03 -0.10271737049E+03 -0.21246491239E+02  0.23112340190E+03  0.50400001928E-02 0. -1.
</event>
<event>
 5   0  0.6246998E-03  0.6996556E+03  0.7818609E-02  0.9717821E-01
        1   -1    0    0  501    0  0.00000000000E+00  0.00000000000E+00  0.33948568590E+03  0.33948568593E+03  0.50400001928E-02 0.  1.
       -1   -1    0    0    0  501  0.00000000000E+00  0.00000000000E+00 -0.36048501835E+03  0.36048501839E+03  0.50400001928E-02 0. -1.
    10030    2    1    2    0    0  0.00000000000E+00  0.00000000000E+00 -0.20999332457E+02  0.69997070432E+03  0.69965564026E+03 0.  0.
        4    1    3    3  502    0  0.62464653101E+01 -0.29109762221E+03  0.18349754756E+03  0.34416537718E+03  0.12699999809E+01 0.  1.
       -4    1    3    3    0  502 -0.62464653101E+01  0.29109762221E+03 -0.20449688002E+03  0.35580532714E+03  0.12699999809E+01 0. -1.
</event>
<event>
 5   0  0.4440500E-03  0.7007631E+03  0.7818609E-02  0.9715928E-01
        3   -1    0    0  501    0  0.00000000000E+00  0.00000000000E+00  0.13864061419E+03  0.13864065097E+03  0.10100000352E+00 0. -1.
       -3   -1    0    0    0  501  0.00000000000E+00  0.00000000000E+00 -0.88550669273E+03  0.88550669849E+03  0.10100000352E+00 0.  1.
    10030    2    1    2    0    0  0.00000000000E+00  0.00000000000E+00 -0.74686607855E+03  0.10241473495E+04  0.70076305135E+03 0.  0.
        4    1    3    3  502    0 -0.10695194636E+03 -0.17022925688E+03 -0.79282500244E+03  0.81791797640E+03  0.12699999809E+01 0.  1.
       -4    1    3    3    0  502  0.10695194636E+03  0.17022925688E+03  0.45958923895E+02  0.20622937306E+03  0.12699999809E+01 0. -1.
</event>
<event>
 5   0  0.1119786E-02  0.7007590E+03  0.7818609E-02  0.9715935E-01
       -2   -1    0    0    0  501  0.00000000000E+00  0.00000000000E+00  0.70170856598E+02  0.70170856644E+02  0.25500000920E-02 0. -1.
        2   -1    0    0  501    0  0.00000000000E+00  0.00000000000E+00 -0.17495268326E+04  0.17495268326E+04  0.25500000920E-02 0.  1.
    10030    2    1    2    0    0  0.00000000000E+00  0.00000000000E+00 -0.16793559760E+04  0.18196976893E+04  0.70075900716E+03 0.  0.
        3    1    3    3  502    0 -0.14146951545E+03 -0.18467053792E+03 -0.15200516921E+04  0.15377496507E+04  0.10100000352E+00 0.  1.
       -3    1    3    3    0  502  0.14146951545E+03  0.18467053792E+03 -0.15930428394E+03  0.28194803858E+03  0.10100000352E+00 0. -1.
</event>
<event>
 5   0  0.6246998E-03  0.6960056E+03  0.7818609E-02  0.9724088E-01
       -1   -1    0    0    0  501  0.00000000000E+00  0.00000000000E+00  0.37919136397E+03  0.37919136401E+03  0.50400001928E-02 0.  1.
        1   -1    0    0  501    0  0.00000000000E+00  0.00000000000E+00 -0.31937948103E+03  0.31937948107E+03  0.50400001928E-02 0. -1.
    10030    2    1    2    0    0  0.00000000000E+00  0.00000000000E+00  0.59811882941E+02  0.69857084508E+03  0.69600557774E+03 0.  0.
        4    1    3    3  502    0  0.31041513588E+03 -0.51759673777E+02 -0.11919361386E+03  0.33651946585E+03  0.12699999809E+01 0. -1.
       -4    1    3    3    0  502 -0.31041513588E+03  0.51759673777E+02  0.17900549680E+03  0.36205137922E+03  0.12699999809E+01 0.  1.
</event>
<event>
 5   0  0.1119786E-02  0.6986597E+03  0.7818609E-02  0.9719527E-01
       -2   -1    0    0    0  501  0.00000000000E+00  0.00000000000E+00  0.51053835434E+03  0.51053835434E+03  0.25500000920E-02 0.  1.
        2   -1    0    0  501    0  0.00000000000E+00  0.00000000000E+00 -0.23902481974E+03  0.23902481975E+03  0.25500000920E-02 0. -1.
    10030    2    1    2    0    0  0.00000000000E+00  0.00000000000E+00  0.27151353460E+03  0.74956317410E+03  0.69865968289E+03 0.  0.
        3    1    3    3  502    0 -0.25248750439E+03  0.20203508952E+03  0.27753338310E+03  0.42613719176E+03  0.10100000352E+00 0.  1.
       -3    1    3    3    0  502  0.25248750439E+03 -0.20203508952E+03 -0.60198484989E+01  0.32342598233E+03  0.10100000352E+00 0. -1.
</event>
<event>
 5   0  0.1100119E-02  0.7009292E+03  0.7818609E-02  0.9715644E-01
        2   -1    0    0  501    0  0.00000000000E+00  0.00000000000E+00  0.98047408350E+03  0.98047408351E+03  0.25500000920E-02 0. -1.
       -2   -1    0    0    0  501  0.00000000000E+00  0.00000000000E+00 -0.12527147192E+03  0.12527147195E+03  0.25500000920E-02 0.  1.
    10030    2    1    2    0    0  0.00000000000E+00  0.00000000000E+00  0.85520261158E+03  0.11057455555E+04  0.70092918797E+03 0.  0.
        4    1    3    3  502    0  0.28165303026E+03 -0.18777290822E+03  0.28442923057E+03  0.44214103476E+03  0.12699999809E+01 0.  1.
       -4    1    3    3    0  502 -0.28165303026E+03  0.18777290822E+03  0.57077338101E+03  0.66360452069E+03  0.12699999809E+01 0. -1.
</event>
<event>
 5   0  0.1079446E-02  0.6996011E+03  0.7818609E-02  0.9717915E-01
       -2   -1    0    0    0  501  0.00000000000E+00  0.00000000000E+00  0.11302062660E+03  0.11302062663E+03  0.25500000920E-02 0.  1.
        2   -1    0    0  501    0  0.00000000000E+00  0.00000000000E+00 -0.10826378709E+04  0.10826378709E+04  0.25500000920E-02 0. -1.
    10030    2    1    2    0    0  0.00000000000E+00  0.00000000000E+00 -0.96961724428E+03  0.11956584975E+04  0.69960105937E+03 0.  0.
        2    1    3    3  502    0 -0.21952392052E+02 -0.25088721661E+03 -0.69911853821E+02  0.26136941345E+03  0.25500000920E-02 0.  1.
       -2    1    3    3    0  502  0.21952392052E+02  0.25088721661E+03 -0.89970539046E+03  0.93428908407E+03  0.25500000920E-02 0. -1.
</event>
<event>
 5   0  0.1079446E-02  0.7007414E+03  0.7818609E-02  0.9715965E-01
       -2   -1    0    0    0  501  0.00000000000E+00  0.00000000000E+00  0.15992143516E+03  0.15992143518E+03  0.25500000920E-02 0. -1.
        2   -1    0    0  501    0  0.00000000000E+00  0.00000000000E+00 -0.76762469761E+03  0.76762469761E+03  0.25500000920E-02 0.  1.
    10030    2    1    2    0    0  0.00000000000E+00  0.00000000000E+00 -0.60770326245E+03  0.92754613279E+03  0.70074144537E+03 0.  0.
        2    1    3    3  502    0  0.28835126698E+03  0.19042448479E+03 -0.22721954384E+03  0.41356578520E+03  0.25500000920E-02 0. -1.
       -2    1    3    3    0  502 -0.28835126698E+03 -0.19042448479E+03 -0.38048371861E+03  0.51398034759E+03  0.25500000920E-02 0.  1.
</event>
<event>
 5   0  0.6609285E-03  0.6996905E+03  0.7818609E-02  0.9717762E-01
       -1   -1    0    0    0  501  0.00000000000E+00  0.00000000000E+00  0.16111618811E+03  0.16111618819E+03  0.50400001928E-02 0. -1.
        1   -1    0    0  501    0  0.00000000000E+00  0.00000000000E+00 -0.75964868199E+03  0.75964868201E+03  0.50400001928E-02 0.  1.
    10030    2    1    2    0    0  0.00000000000E+00  0.00000000000E+00 -0.59853249388E+03  0.92076487020E+03  0.69969050298E+03 0.  0.
        2    1    3    3  502    0  0.34691246177E+03  0.96873720495E+01 -0.35737149678E+03  0.49815307690E+03  0.25500000920E-02 0.  1.
       -2    1    3    3    0  502 -0.34691246177E+03 -0.96873720495E+01 -0.24116099710E+03  0.42261179330E+03  0.25500000920E-02 0. -1.
</event>
<event>
 5   0  0.1079446E-02  0.6991762E+03  0.7818609E-02  0.9718642E-01
        2   -1    0    0  501    0  0.00000000000E+00  0.00000000000E+00  0.61986473590E+03  0.61986473591E+03  0.25500000920E-02 0. -1.
       -2   -1    0    0    0  501  0.00000000000E+00  0.00000000000E+00 -0.19715885899E+03  0.19715885900E+03  0.25500000920E-02 0.  1.
    10030    2    1    2    0    0  0.00000000000E+00  0.00000000000E+00  0.42270587691E+03  0.81702359491E+03  0.69917615539E+03 0.  0.
        2    1    3    3  502    0  0.23658023754E+03 -0.10566626446E+03  0.48559255579E+03  0.55039594701E+03  0.25500000920E-02 0. -1.
       -2    1    3    3    0  502 -0.23658023754E+03  0.10566626446E+03 -0.62886678875E+02  0.26662764790E+03  0.25500000920E-02 0.  1.
</event>
<event>
 5   0  0.1099980E-02  0.6967335E+03  0.7818609E-02  0.9722835E-01
       -2   -1    0    0    0  501  0.00000000000E+00  0.00000000000E+00  0.11389969493E+03  0.11389969496E+03  0.25500000920E-02 0. -1.
        2   -1    0    0  501    0  0.00000000000E+00  0.00000000000E+00 -0.10654936842E+04  0.10654936842E+04  0.25500000920E-02 0.  1.
    10030    2    1    2    0    0  0.00000000000E+00  0.00000000000E+00 -0.95159398922E+03  0.11793933791E+04  0.69673353758E+03 0.  0.
        5    1    3    3  502    0  0.16844998063E+03 -0.30265835561E+03 -0.53821872162E+03  0.64006168336E+03  0.46999998093E+01 0.  1.
       -5    1    3    3    0  502 -0.16844998063E+03  0.30265835561E+03 -0.41337526759E+03  0.53933169576E+03  0.46999998093E+01 0. -1.
</event>
<event>
 5   0  0.1099980E-02  0.7035511E+03  0.7818609E-02  0.9711178E-01
        2   -1    0    0  501    0  0.00000000000E+00  0.00000000000E+00  0.17888634126E+04  0.17888634126E+04  0.25500000920E-02 0.  1.
       -2   -1    0    0    0  501  0.00000000000E+00  0.00000000000E+00 -0.69175796158E+02  0.69175796205E+02  0.25500000920E-02 0. -1.
    10030    2    1    2    0    0  0.00000000000E+00  0.00000000000E+00  0.17196876165E+04  0.18580392088E+04  0.70355113768E+03 0.  0.
        5    1    3    3  502    0 -0.25772009931E+03  0.97984589219E+02  0.14366548428E+04  0.14628806706E+04  0.46999998093E+01 0.  1.
       -5    1    3    3    0  502  0.25772009931E+03 -0.97984589219E+02  0.28303277371E+03  0.39515853819E+03  0.46999998093E+01 0. -1.
</event>
<event>
 5   0  0.1119786E-02  0.7014946E+03  0.7818609E-02  0.9714680E-01
        2   -1    0    0  501    0  0.00000000000E+00  0.00000000000E+00  0.69468379136E+03  0.69468379137E+03  0.25500000920E-02 0. -1.
       -2   -1    0    0    0  501  0.00000000000E+00  0.00000000000E+00 -0.17709304897E+03  0.17709304899E+03  0.25500000920E-02 0.  1.
    10030    2    1    2    0    0  0.00000000000E+00  0.00000000000E+00  0.51759074239E+03  0.87177684035E+03  0.70149460637E+03 0.  0.
        3    1    3    3  502    0  0.15007075867E+03  0.12047881545E+03 -0.10562118880E+03  0.21952727235E+03  0.10100000352E+00 0.  1.
       -3    1    3    3    0  502 -0.15007075867E+03 -0.12047881545E+03  0.62321193119E+03  0.65224956800E+03  0.10100000352E+00 0. -1.
</event>
<event>
 5   0  0.6785252E-03  0.6923923E+03  0.7818609E-02  0.9730332E-01
       -1   -1    0    0    0  501  0.00000000000E+00  0.00000000000E+00  0.10207055855E+03  0.10207055867E+03  0.50400001928E-02 0. -1.
        1   -1    0    0  501    0  0.00000000000E+00  0.00000000000E+00 -0.11742051774E+04  0.11742051774E+04  0.50400001928E-02 0.  1.
    10030    2    1    2    0    0  0.00000000000E+00  0.00000000000E+00 -0.10721346189E+04  0.12762757361E+04  0.69239231191E+03 0.  0.
        3    1    3    3  502    0  0.30372453356E+03  0.15175720278E+03 -0.41141812966E+03  0.53342640401E+03  0.10100000352E+00 0. -1.
       -3    1    3    3    0  502 -0.30372453356E+03 -0.15175720278E+03 -0.66071648922E+03  0.74284933211E+03  0.10100000352E+00 0.  1.
</event>
<event>
 5   0  0.4440500E-03  0.6998755E+03  0.7818609E-02  0.9717445E-01
       -3   -1    0    0    0  501  0.00000000000E+00  0.00000000000E+00  0.52913283064E+03  0.52913284028E+03  0.10100000352E+00 0.  1.
        3   -1    0    0  501    0  0.00000000000E+00  0.00000000000E+00 -0.23142848934E+03  0.23142851138E+03  0.10100000352E+00 0. -1.
    10030    2    1    2    0    0  0.00000000000E+00  0.00000000000E+00  0.29770434131E+03  0.76056135166E+03  0.69987548521E+03 0.  0.
        5    1    3    3  502    0 -0.26315434266E+03 -0.20737824105E+03  0.39216208687E+02  0.33736618672E+03  0.46999998093E+01 0. -1.
       -5    1    3    3    0  502  0.26315434266E+03  0.20737824105E+03  0.25848813262E+03  0.42319516494E+03  0.46999998093E+01 0.  1.
</event>
<event>
 5   0  0.6689415E-03  0.6873162E+03  0.7818609E-02  0.9739172E-01
       -1   -1    0    0    0  501  0.00000000000E+00  0.00000000000E+00  0.12286821664E+03  0.12286821674E+03  0.50400001928E-02 0.  1.
        1   -1    0    0  501    0  0.00000000000E+00  0.00000000000E+00 -0.96119963856E+03  0.96119963858E+03  0.50400001928E-02 0. -1.
    10030    2    1    2    0    0  0.00000000000E+00  0.00000000000E+00 -0.83833142192E+03  0.10840678553E+04  0.68731618776E+03 0.  0.
        1    1    3    3  502    0 -0.11951599491E+03 -0.89887407770E+02 -0.90718833083E+03  0.91943161069E+03  0.50400001928E-02 0. -1.
       -1    1    3    3    0  502  0.11951599491E+03  0.89887407770E+02  0.68856908907E+02  0.16463624463E+03  0.50400001928E-02 0.  1.
</event>
<event>
 5   0  0.1119786E-02  0.6997855E+03  0.7818609E-02  0.9717599E-01
        2   -1    0    0  501    0  0.00000000000E+00  0.00000000000E+00  0.74166981175E+03  0.74166981176E+03  0.25500000920E-02 0. -1.
       -2   -1    0    0    0  501  0.00000000000E+00  0.00000000000E+00 -0.16506664060E+03  0.16506664062E+03  0.25500000920E-02 0.  1.
    10030    2    1    2    0    0  0.00000000000E+00  0.00000000000E+00  0.57660317116E+03  0.90673645237E+03  0.69978552220E+03 0.  0.
        3    1    3    3  502    0 -0.14557250718E+03 -0.22865361312E+02 -0.12289930545E+03  0.19188128902E+03  0.10100000352E+00 0.  1.
       -3    1    3    3    0  502  0.14557250718E+03  0.22865361312E+02  0.69950247661E+03  0.71485516336E+03  0.10100000352E+00 0. -1.
</event>
<event>
 5   0  0.4440500E-03  0.6989554E+03  0.7818609E-02  0.9719020E-01
        4   -1    0    0  501    0  0.00000000000E+00  0.00000000000E+00  0.45652507011E+03  0.45652683660E+03  0.12699999809E+01 0. -1.
       -4   -1    0    0    0  501  0.00000000000E+00  0.00000000000E+00 -0.26752729810E+03  0.26753031254E+03  0.12699999809E+01 0.  1.
    10030    2    1    2    0    0  0.00000000000E+00  0.00000000000E+00  0.18899777201E+03  0.72405714914E+03  0.69895536152E+03 0.  0.
        4    1    3    3  502    0 -0.77351363031E+02 -0.10316666561E+02 -0.25838641661E+03  0.26991632066E+03  0.12699999809E+01 0.  1.
       -4    1    3    3    0  502  0.77351363031E+02  0.10316666561E+02  0.44738418861E+03  0.45414082848E+03  0.12699999809E+01 0. -1.
</event>
<event>
 5   0  0.1100119E-02  0.6990692E+03  0.7818609E-02  0.9718825E-01
        2   -1    0    0  501    0  0.00000000000E+00  0.00000000000E+00  0.11269992119E+04  0.11269992119E+04  0.25500000920E-02 0. -1.
       -2   -1    0    0    0  501  0.00000000000E+00  0.00000000000E+00 -0.10840684792E+03  0.10840684795E+03  0.25500000920E-02 0.  1.
    10030    2    1    2    0    0  0.00000000000E+00  0.00000000000E+00  0.10185923640E+04  0.12354060598E+04  0.69906918740E+03 0.  0.
        4    1    3    3  502    0  0.15293652970E+03  0.13536815415E+02  0.10642131522E+04  0.10752321022E+04  0.12699999809E+01 0. -1.
       -4    1    3    3    0  502 -0.15293652970E+03 -0.13536815415E+02 -0.45620788200E+02  0.16017395763E+03  0.12699999809E+01 0.  1.
</event>
<event>
 5   0  0.4440500E-03  0.6981805E+03  0.7818609E-02  0.9720349E-01
       -3   -1    0    0    0  501  0.00000000000E+00  0.00000000000E+00  0.72914259171E+03  0.72914259871E+03  0.10100000352E+00 0. -1.
        3   -1    0    0  501    0  0.00000000000E+00  0.00000000000E+00 -0.16713329348E+03  0.16713332400E+03  0.10100000352E+00 0.  1.
    10030    2    1    2    0    0  0.00000000000E+00  0.00000000000E+00  0.56200929823E+03  0.89627592271E+03  0.69818054852E+03 0.  0.
        2    1    3    3  502    0 -0.32785271071E+03  0.50992154614E+02  0.14169518407E+03  0.36078404198E+03  0.25500000920E-02 0.  1.
       -2    1    3    3    0  502  0.32785271071E+03 -0.50992154614E+02  0.42031411416E+03  0.53549188072E+03  0.25500000920E-02 0. -1.
</event>
<event>
 5   0  0.6246998E-03  0.6902628E+03  0.7818609E-02  0.9734031E-01
       -1   -1    0    0    0  501  0.00000000000E+00  0.00000000000E+00  0.56685964563E+03  0.56685964566E+03  0.50400001928E-02 0. -1.
        1   -1    0    0  501    0  0.00000000000E+00  0.00000000000E+00 -0.21013255854E+03  0.21013255860E+03  0.50400001928E-02 0.  1.
    10030    2    1    2    0    0  0.00000000000E+00  0.00000000000E+00  0.35672708709E+03  0.77699220426E+03  0.69026275491E+03 0.  0.
        4    1    3    3  502    0 -0.26755749313E+03 -0.17192127554E+03  0.32925952763E+03  0.45777438389E+03  0.12699999809E+01 0. -1.
       -4    1    3    3    0  502  0.26755749313E+03  0.17192127554E+03  0.27467559461E+02  0.31921782036E+03  0.12699999809E+01 0.  1.
</event>
<event>
 5   0  0.1100119E-02  0.7019391E+03  0.7818609E-02  0.9713922E-01
       -2   -1    0    0    0  501  0.00000000000E+00  0.00000000000E+00  0.56899291982E+02  0.56899292039E+02  0.25500000920E-02 0.  1.
        2   -1    0    0  501    0  0.00000000000E+00  0.00000000000E+00 -0.21648708967E+04  0.21648708967E+04  0.25500000920E-02 0. -1.
    10030    2    1    2    0    0  0.00000000000E+00  0.00000000000E+00 -0.21079716047E+04  0.22217701887E+04  0.70193908944E+03 0.  0.
        4    1    3    3  502    0 -0.89580091877E+02 -0.33930430029E+03 -0.10378441535E+04  0.10955702172E+04  0.12699999809E+01 0. -1.
       -4    1    3    3    0  502  0.89580091877E+02  0.33930430029E+03 -0.10701274512E+04  0.11261999715E+04  0.12699999809E+01 0.  1.
</event>
<event>
 5   0  0.1109788E-02  0.6970035E+03  0.7818609E-02  0.9722370E-01
       -2   -1    0    0    0  501  0.00000000000E+00  0.00000000000E+00  0.37539628696E+03  0.37539628697E+03  0.25500000920E-02 0. -1.
        2   -1    0    0  501    0  0.00000000000E+00  0.00000000000E+00 -0.32353404027E+03  0.32353404028E+03  0.25500000920E-02 0.  1.
    10030    2    1    2    0    0  0.00000000000E+00  0.00000000000E+00  0.51862246696E+02  0.69893032725E+03  0.69700352203E+03 0.  0.
        1    1    3    3  502    0 -0.47495129565E+02 -0.12992304481E+03  0.34668674842E+03  0.37326597282E+03  0.50400001928E-02 0. -1.
       -1    1    3    3    0  502  0.47495129565E+02  0.12992304481E+03 -0.29482450173E+03  0.32566435443E+03  0.50400001928E-02 0.  1.
</event>
<event>
 5   0  0.1079446E-02  0.6994561E+03  0.7818609E-02  0.9718163E-01
        2   -1    0    0  501    0  0.00000000000E+00  0.00000000000E+00  0.25436706638E+04  0.25436706638E+04  0.25500000920E-02 0. -1.
       -2   -1    0    0    0  501  0.00000000000E+00  0.00000000000E+00 -0.48083938151E+02  0.48083938218E+02  0.25500000920E-02 0.  1.
    10030    2    1    2    0    0  0.00000000000E+00  0.00000000000E+00  0.24955867256E+04  0.25917546020E+04  0.69945608286E+03 0.  0.
        2    1    3    3  502    0 -0.12193568441E+03  0.26328369519E+03  0.19712749137E+04  0.19925138395E+04  0.25500000920E-02 0. -1.
       -2    1    3    3    0  502  0.12193568441E+03 -0.26328369519E+03  0.52431181193E+03  0.59924076248E+03  0.25500000920E-02 0.  1.
</event>
<event>
 5   0  0.6785252E-03  0.7002740E+03  0.7818609E-02  0.9716764E-01
       -1   -1    0    0    0  501  0.00000000000E+00  0.00000000000E+00  0.83876410652E+02  0.83876410803E+02  0.50400001928E-02 0.  1.
        1   -1    0    0  501    0  0.00000000000E+00  0.00000000000E+00 -0.14616255291E+04  0.14616255291E+04  0.50400001928E-02 0. -1.
    10030    2    1    2    0    0  0.00000000000E+00  0.00000000000E+00 -0.13777491184E+04  0.15455019399E+04  0.70027395560E+03 0.  0.
        3    1    3    3  502    0 -0.14367909371E+03 -0.52006605148E+02 -0.13841572548E+04  0.13925658638E+04  0.10100000352E+00 0. -1.
       -3    1    3    3    0  502  0.14367909371E+03  0.52006605148E+02  0.64081363486E+01  0.15293607606E+03  0.10100000352E+00 0.  1.
</event>
<event>
 5   0  0.6990118E-03  0.7014413E+03  0.7818609E-02  0.9714770E-01
       -1   -1    0    0    0  501  0.00000000000E+00  0.00000000000E+00  0.15323464645E+03  0.15323464653E+03  0.50400001928E-02 0. -1.
        1   -1    0    0  501    0  0.00000000000E+00  0.00000000000E+00 -0.80272308430E+03  0.80272308432E+03  0.50400001928E-02 0.  1.
    10030    2    1    2    0    0  0.00000000000E+00  0.00000000000E+00 -0.64948843785E+03  0.95595773085E+03  0.70144133915E+03 0.  0.
        5    1    3    3  502    0  0.12028028678E+03 -0.11914186884E+03 -0.74329773199E+03  0.76234883136E+03  0.46999998093E+01 0.  1.
       -5    1    3    3    0  502 -0.12028028678E+03  0.11914186884E+03  0.93809294134E+02  0.19360889949E+03  0.46999998093E+01 0. -1.
</event>
<event>
 5   0  0.6246998E-03  0.6945790E+03  0.7818609E-02  0.9726548E-01
       -1   -1    0    0    0  501  0.00000000000E+00  0.00000000000E+00  0.79941779119E+02  0.79941779278E+02  0.50400001928E-02 0.  1.
        1   -1    0    0  501    0  0.00000000000E+00  0.00000000000E+00 -0.15087230947E+04  0.15087230947E+04  0.50400001928E-02 0. -1.
    10030    2    1    2    0    0  0.00000000000E+00  0.00000000000E+00 -0.14287813155E+04  0.15886648740E+04  0.69457903372E+03 0.  0.
        4    1    3    3  502    0 -0.72940724225E+02  0.18335904054E+03 -0.13680256244E+04  0.13821854466E+04  0.12699999809E+01 0. -1.
       -4    1    3    3    0  502  0.72940724225E+02 -0.18335904054E+03 -0.60755691156E+02  0.20647942732E+03  0.12699999809E+01 0.  1.
</event>
<event>
 5   0  0.6609285E-03  0.6973350E+03  0.7818609E-02  0.9721801E-01
        1   -1    0    0  501    0  0.00000000000E+00  0.00000000000E+00  0.85218735956E+03  0.85218735958E+03  0.50400001928E-02 0.  1.
       -1   -1    0    0    0  501  0.00000000000E+00  0.00000000000E+00 -0.14265528064E+03  0.14265528073E+03  0.50400001928E-02 0. -1.
    10030    2    1    2    0    0  0.00000000000E+00  0.00000000000E+00  0.70953207892E+03  0.99484264031E+03  0.69733500411E+03 0.  0.
        2    1    3    3  502    0  0.34760725677E+03 -0.26892912035E+02  0.34924193890E+03  0.49348147440E+03  0.25500000920E-02 0. -1.
       -2    1    3    3    0  502 -0.34760725677E+03  0.26892912035E+02  0.36029014002E+03  0.50136116591E+03  0.25500000920E-02 0.  1.
</event>
<event>
 5   0  0.1079446E-02  0.7031737E+03  0.7818609E-02  0.9711820E-01
       -2   -1    0    0    0  501  0.00000000000E+00  0.00000000000E+00  0.57626697821E+02  0.57626697877E+02  0.25500000920E-02 0. -1.
        2   -1    0    0  501    0  0.00000000000E+00  0.00000000000E+00 -0.21450700900E+04  0.21450700900E+04  0.25500000920E-02 0.  1.
    10030    2    1    2    0    0  0.00000000000E+00  0.00000000000E+00 -0.20874433922E+04  0.22026967879E+04  0.70317367968E+03 0.  0.
        2    1    3    3  502    0 -0.29753060009E+02  0.16446832200E+03 -0.20126657096E+04  0.20195936057E+04  0.25500000920E-02 0.  1.
       -2    1    3    3    0  502  0.29753060009E+02 -0.16446832200E+03 -0.74777682632E+02  0.18310318225E+03  0.25500000920E-02 0. -1.
</event>
<event>
 5   0  0.1099980E-02  0.7027529E+03  0.7818609E-02  0.9712536E-01
        2   -1    0    0  501    0  0.00000000000E+00  0.00000000000E+00  0.90736739963E+03  0.90736739963E+03  0.25500000920E-02 0. -1.
       -2   -1    0    0    0  501  0.00000000000E+00  0.00000000000E+00 -0.13606992916E+03  0.13606992918E+03  0.25500000920E-02 0.  1.
    10030    2    1    2    0    0  0.00000000000E+00  0.00000000000E+00  0.77129747047E+03  0.10434373288E+04  0.70275292331E+03 0.  0.
        5    1    3    3  502    0  0.12170575846E+02 -0.30938304941E+03  0.13907895662E+03  0.33945697865E+03  0.46999998093E+01 0. -1.
       -5    1    3    3    0  502 -0.12170575846E+02  0.30938304941E+03  0.63221851385E+03  0.70398035017E+03  0.46999998093E+01 0.  1.
</event>
<event>
 5   0  0.6689415E-03  0.6971673E+03  0.7818609E-02  0.9722089E-01
       -1   -1    0    0    0  501  0.00000000000E+00  0.00000000000E+00  0.28745538790E+03  0.28745538794E+03  0.50400001928E-02 0. -1.
        1   -1    0    0  501    0  0.00000000000E+00  0.00000000000E+00 -0.42271105810E+03  0.42271105813E+03  0.50400001928E-02 0.  1.
    10030    2    1    2    0    0  0.00000000000E+00  0.00000000000E+00 -0.13525567020E+03  0.71016644607E+03  0.69716732913E+03 0.  0.
        1    1    3    3  502    0 -0.15296038452E+03  0.27752008842E+03  0.80325987699E+02  0.32690448611E+03  0.50400001928E-02 0. -1.
       -1    1    3    3    0  502  0.15296038452E+03 -0.27752008842E+03 -0.21558165790E+03  0.38326195997E+03  0.50400001928E-02 0.  1.
</event>
<event>
 5   0  0.1109788E-02  0.7036204E+03  0.7818609E-02  0.9711061E-01
       -2   -1    0    0    0  501  0.00000000000E+00  0.00000000000E+00  0.16722360275E+03  0.16722360277E+03  0.25500000920E-02 0. -1.
        2   -1    0    0  501    0  0.00000000000E+00  0.00000000000E+00 -0.74014928617E+03  0.74014928617E+03  0.25500000920E-02 0.  1.
    10030    2    1    2    0    0  0.00000000000E+00  0.00000000000E+00 -0.57292568342E+03  0.90737288894E+03  0.70362043807E+03 0.  0.
        1    1    3    3  502    0 -0.35834802871E+02 -0.19593308764E+03  0.87506819776E+02  0.21755769686E+03  0.50400001928E-02 0. -1.
       -1    1    3    3    0  502  0.35834802871E+02  0.19593308764E+03 -0.66043250319E+03  0.68981519208E+03  0.50400001928E-02 0.  1.
</event>
<event>
 5   0  0.6246998E-03  0.6977714E+03  0.7818609E-02  0.9721051E-01
       -1   -1    0    0    0  501  0.00000000000E+00  0.00000000000E+00  0.13027775757E+03  0.13027775767E+03  0.50400001928E-02 0.  1.
        1   -1    0    0  501    0  0.00000000000E+00  0.00000000000E+00 -0.93432094568E+03  0.93432094569E+03  0.50400001928E-02 0. -1.
    10030    2    1    2    0    0  0.00000000000E+00  0.00000000000E+00 -0.80404318811E+03  0.10645987034E+04  0.69777141735E+03 0.  0.
        4    1    3    3  502    0 -0.92510661215E+02  0.22921235025E+03 -0.26364295813E+02  0.24858240674E+03  0.12699999809E+01 0.  1.
       -4    1    3    3    0  502  0.92510661215E+02 -0.22921235025E+03 -0.77767889229E+03  0.81601629663E+03  0.12699999809E+01 0. -1.
</event>
<event>
 5   0  0.1099980E-02  0.7002743E+03  0.7818609E-02  0.9716763E-01
        2   -1    0    0  501    0  0.00000000000E+00  0.00000000000E+00  0.57229053815E+03  0.57229053816E+03  0.25500000920E-02 0.  1.
       -2   -1    0    0    0  501  0.00000000000E+00  0.00000000000E+00 -0.21421992951E+03  0.21421992952E+03  0.25500000920E-02 0. -1.
    10030    2    1    2    0    0  0.00000000000E+00  0.00000000000E+00  0.35807060864E+03  0.78651046768E+03  0.70027434266E+03 0.  0.
        5    1    3    3  502    0  0.13080621309E+03  0.42236541734E+02 -0.18261037408E+03  0.22861065058E+03  0.46999998093E+01 0. -1.
       -5    1    3    3    0  502 -0.13080621309E+03 -0.42236541734E+02  0.54068098272E+03  0.55789981710E+03  0.46999998093E+01 0.  1.
</event>
<event>
 5   0  0.1100119E-02  0.6995790E+03  0.7818609E-02  0.9717952E-01
       -2   -1    0    0    0  501  0.00000000000E+00  0.00000000000E+00  0.14720661435E+03  0.14720661438E+03  0.25500000920E-02 0. -1.
        2   -1    0    0  501    0  0.00000000000E+00  0.00000000000E+00 -0.83116295341E+03  0.83116295342E+03  0.25500000920E-02 0.  1.
    10030    2    1    2    0    0  0.00000000000E+00  0.00000000000E+00 -0.68395633906E+03  0.97836956779E+03  0.69957897155E+03 0.  0.
        4    1    3    3  502    0 -0.34594930716E+03  0.51272855131E+02 -0.35095947638E+03  0.49546341516E+03  0.12699999809E+01 0.  1.
       -4    1    3    3    0  502  0.34594930716E+03 -0.51272855131E+02 -0.33299686268E+03  0.48290615263E+03  0.12699999809E+01 0. -1.
</event>
<event>
 5   0  0.1099980E-02  0.6926171E+03  0.7818609E-02  0.9729942E-01
        2   -1    0    0  501    0  0.00000000000E+00  0.00000000000E+00  0.84813375419E+03  0.84813375419E+03  0.25500000920E-02 0.  1.
       -2   -1    0    0    0  501  0.00000000000E+00  0.00000000000E+00 -0.14140411493E+03  0.14140411496E+03  0.25500000920E-02 0. -1.
    10030    2    1    2    0    0  0.00000000000E+00  0.00000000000E+00  0.70672963926E+03  0.98953786915E+03  0.69261707421E+03 0.  0.
        5    1    3    3  502    0 -0.85360071899E+01 -0.61688431726E+02 -0.13329204074E+03  0.14719777223E+03  0.46999998093E+01 0. -1.
       -5    1    3    3    0  502  0.85360071899E+01  0.61688431726E+02  0.84002167999E+03  0.84234009692E+03  0.46999998093E+01 0.  1.
</event>
<event>
 5   0  0.1099980E-02  0.6909054E+03  0.7818609E-02  0.9732913E-01
       -2   -1    0    0    0  501  0.00000000000E+00  0.00000000000E+00  0.22530142637E+03  0.22530142638E+03  0.25500000920E-02 0. -1.
        2   -1    0    0  501    0  0.00000000000E+00  0.00000000000E+00 -0.52967963813E+03  0.52967963814E+03  0.25500000920E-02 0.  1.
    10030    2    1    2    0    0  0.00000000000E+00  0.00000000000E+00 -0.30437821177E+03  0.75498106452E+03  0.69090542912E+03 0.  0.
        5    1    3    3  502    0 -0.24947287691E+03 -0.14693053056E+03 -0.35804894143E+03  0.46048499605E+03  0.46999998093E+01 0. -1.
       -5    1    3    3    0  502  0.24947287691E+03  0.14693053056E+03  0.53670729664E+02  0.29449606847E+03  0.46999998093E+01 0.  1.
</event>
<event>
 5   0  0.4440500E-03  0.7003935E+03  0.7818609E-02  0.9716559E-01
       -4   -1    0    0    0  501  0.00000000000E+00  0.00000000000E+00  0.22629291957E+03  0.22629648328E+03  0.12699999809E+01 0.  1.
        4   -1    0    0  501    0  0.00000000000E+00  0.00000000000E+00 -0.54193398429E+03  0.54193547238E+03  0.12699999809E+01 0. -1.
    10030    2    1    2    0    0  0.00000000000E+00  0.00000000000E+00 -0.31564106472E+03  0.76823195567E+03  0.70039350080E+03 0.  0.
        2    1    3    3  502    0  0.26077239228E+03  0.19405865031E+03 -0.30073549894E+03  0.44283500388E+03  0.25500000920E-02 0. -1.
       -2    1    3    3    0  502 -0.26077239228E+03 -0.19405865031E+03 -0.14905565779E+02  0.32539695178E+03  0.25500000920E-02 0.  1.
</event>
<event>
 5   0  0.1109788E-02  0.7006373E+03  0.7818609E-02  0.9716143E-01
       -2   -1    0    0    0  501  0.00000000000E+00  0.00000000000E+00  0.18283791621E+03  0.18283791622E+03  0.25500000920E-02 0. -1.
        2   -1    0    0  501    0  0.00000000000E+00  0.00000000000E+00 -0.67121283947E+03  0.67121283948E+03  0.25500000920E-02 0.  1.
    10030    2    1    2    0    0  0.00000000000E+00  0.00000000000E+00 -0.48837492327E+03  0.85405075570E+03  0.70063730106E+03 0.  0.
        1    1    3    3  502    0  0.28988686295E+03  0.73331693283E+02 -0.21710145340E+02  0.29980537184E+03  0.50400001928E-02 0. -1.
       -1    1    3    3    0  502 -0.28988686295E+03 -0.73331693283E+02 -0.46666477793E+03  0.55424538386E+03  0.50400001928E-02 0.  1.
</event>
<event>
 5   0  0.6609285E-03  0.6985096E+03  0.7818609E-02  0.9719784E-01
       -1   -1    0    0    0  501  0.00000000000E+00  0.00000000000E+00  0.31317112314E+03  0.31317112318E+03  0.50400001928E-02 0. -1.
        1   -1    0    0  501    0  0.00000000000E+00  0.00000000000E+00 -0.38949606709E+03  0.38949606712E+03  0.50400001928E-02 0.  1.
    10030    2    1    2    0    0  0.00000000000E+00  0.00000000000E+00 -0.76324943943E+02  0.70266719030E+03  0.69850961573E+03 0.  0.
        2    1    3    3  502    0  0.94733131446E+02  0.81469851272E+02  0.28991860856E+03  0.31569685214E+03  0.25500000920E-02 0. -1.
       -2    1    3    3    0  502 -0.94733131446E+02 -0.81469851272E+02 -0.36624355250E+03  0.38697033816E+03  0.25500000920E-02 0.  1.
</event>
<event>
 5   0  0.1100119E-02  0.7013969E+03  0.7818609E-02  0.9714846E-01
       -2   -1    0    0    0  501  0.00000000000E+00  0.00000000000E+00  0.98951382084E+03  0.98951382084E+03  0.25500000920E-02 0.  1.
        2   -1    0    0  501    0  0.00000000000E+00  0.00000000000E+00 -0.12429275804E+03  0.12429275807E+03  0.25500000920E-02 0. -1.
    10030    2    1    2    0    0  0.00000000000E+00  0.00000000000E+00  0.86522106280E+03  0.11138065789E+04  0.70139689742E+03 0.  0.
        4    1    3    3  502    0 -0.24317833906E+03 -0.24534095277E+03  0.52867894676E+03  0.63153062423E+03  0.12699999809E+01 0.  1.
       -4    1    3    3    0  502  0.24317833906E+03  0.24534095277E+03  0.33654211604E+03  0.48227595468E+03  0.12699999809E+01 0. -1.
</event>
<event>
 5   0  0.6785252E-03  0.6984866E+03  0.7818609E-02  0.9719824E-01
        1   -1    0    0  501    0  0.00000000000E+00  0.00000000000E+00  0.69622969779E+03  0.69622969781E+03  0.50400001928E-02 0.  1.
       -1   -1    0    0    0  501  0.00000000000E+00  0.00000000000E+00 -0.17518768288E+03  0.17518768295E+03  0.50400001928E-02 0. -1.
    10030    2    1    2    0    0  0.00000000000E+00  0.00000000000E+00  0.52104201491E+03  0.87141738075E+03  0.69848655691E+03 0.  0.
        3    1    3    3  502    0  0.67805997395E+02 -0.22086018528E+03 -0.66225666373E+02  0.24033876885E+03  0.10100000352E+00 0. -1.
       -3    1    3    3    0  502 -0.67805997395E+02  0.22086018528E+03  0.58726768128E+03  0.63107861191E+03  0.10100000352E+00 0.  1.
</event>
<event>
 5   0  0.1119786E-02  0.6984253E+03  0.7818609E-02  0.9719929E-01
        2   -1    0    0  501    0  0.00000000000E+00  0.00000000000E+00  0.17340822900E+04  0.17340822900E+04  0.25500000920E-02 0.  1.
       -2   -1    0    0    0  501  0.00000000000E+00  0.00000000000E+00 -0.70325069714E+02  0.70325069760E+02  0.25500000920E-02 0. -1.
    10030    2    1    2    0    0  0.00000000000E+00  0.00000000000E+00  0.16637572203E+04  0.18044073598E+04  0.69842525149E+03 0.  0.
        3    1    3    3  502    0  0.13571094032E+03 -0.12098815388E+03  0.61595230290E+02  0.19196243199E+03  0.10100000352E+00 0. -1.
       -3    1    3    3    0  502 -0.13571094032E+03  0.12098815388E+03  0.16021619900E+04  0.16124449278E+04  0.10100000352E+00 0.  1.
</event>
<event>
 5   0  0.6246998E-03  0.6984223E+03  0.7818609E-02  0.9719934E-01
        1   -1    0    0  501    0  0.00000000000E+00  0.00000000000E+00  0.19622497026E+04  0.19622497026E+04  0.50400001928E-02 0.  1.
       -1   -1    0    0    0  501  0.00000000000E+00  0.00000000000E+00 -0.62147258270E+02  0.62147258474E+02  0.50400001928E-02 0. -1.
    10030    2    1    2    0    0  0.00000000000E+00  0.00000000000E+00  0.19001024443E+04  0.20243969611E+04  0.69842233433E+03 0.  0.
        4    1    3    3  502    0  0.25376466378E+03 -0.18708872019E+03  0.13852952769E+04  0.14207192935E+04  0.12699999809E+01 0. -1.
       -4    1    3    3    0  502 -0.25376466378E+03  0.18708872019E+03  0.51480716741E+03  0.60367766757E+03  0.12699999809E+01 0.  1.
</event>
<event>
 5   0  0.1109788E-02  0.6984864E+03  0.7818609E-02  0.9719824E-01
       -2   -1    0    0    0  501  0.00000000000E+00  0.00000000000E+00  0.72029529470E+02  0.72029529515E+02  0.25500000920E-02 0. -1.
        2   -1    0    0  501    0  0.00000000000E+00  0.00000000000E+00 -0.16933443838E+04  0.16933443838E+04  0.25500000920E-02 0.  1.
    10030    2    1    2    0    0  0.00000000000E+00  0.00000000000E+00 -0.16213148544E+04  0.17653739134E+04  0.69848636133E+03 0.  0.
        1    1    3    3  502    0 -0.42902095063E+02  0.31930897893E+03 -0.46995128402E+03  0.56978331246E+03  0.50400001928E-02 0. -1.
       -1    1    3    3    0  502  0.42902095063E+02 -0.31930897893E+03 -0.11513635704E+04  0.11955906009E+04  0.50400001928E-02 0.  1.
</event>
<event>
 5   0  0.6990118E-03  0.7009657E+03  0.7818609E-02  0.9715582E-01
        1   -1    0    0  501    0  0.00000000000E+00  0.00000000000E+00  0.46496728764E+03  0.46496728766E+03  0.50400001928E-02 0.  1.
       -1   -1    0    0    0  501  0.00000000000E+00  0.00000000000E+00 -0.26418678457E+03  0.26418678462E+03  0.50400001928E-02 0. -1.
    10030    2    1    2    0    0  0.00000000000E+00  0.00000000000E+00  0.20078050306E+03  0.72915407228E+03  0.70096565588E+03 0.  0.
        5    1    3    3  502    0 -0.63668306728E+02  0.34185314681E+03  0.14571893324E+03  0.37705878158E+03  0.46999998093E+01 0.  1.
       -5    1    3    3    0  502  0.63668306728E+02 -0.34185314681E+03  0.55061569822E+02  0.35209529070E+03  0.46999998093E+01 0. -1.
</event>
<event>
 5   0  0.6246998E-03  0.6997810E+03  0.7818609E-02  0.9717607E-01
        1   -1    0    0  501    0  0.00000000000E+00  0.00000000000E+00  0.36859393776E+03  0.36859393779E+03  0.50400001928E-02 0. -1.
       -1   -1    0    0    0  501  0.00000000000E+00  0.00000000000E+00 -0.33213612384E+03  0.33213612387E+03  0.50400001928E-02 0.  1.
    10030    2    1    2    0    0  0.00000000000E+00  0.00000000000E+00  0.36457813921E+02  0.70073006167E+03  0.69978099940E+03 0.  0.
        4    1    3    3  502    0  0.29715406986E+02 -0.28373332737E+03 -0.18461468094E+03  0.33981141798E+03  0.12699999809E+01 0. -1.
       -4    1    3    3    0  502 -0.29715406986E+02  0.28373332737E+03  0.22107249487E+03  0.36091864368E+03  0.12699999809E+01 0.  1.
</event>
<event>
 5   0  0.1119786E-02  0.6994817E+03  0.7818609E-02  0.9718119E-01
        2   -1    0    0  501    0  0.00000000000E+00  0.00000000000E+00  0.11957913768E+04  0.11957913768E+04  0.25500000920E-02 0. -1.
       -2   -1    0    0    0  501  0.00000000000E+00  0.00000000000E+00 -0.10229096864E+03  0.10229096867E+03  0.25500000920E-02 0.  1.
    10030    2    1    2    0    0  0.00000000000E+00  0.00000000000E+00  0.10935004082E+04  0.12980823455E+04  0.69948168882E+03 0.  0.
        3    1    3    3  502    0 -0.81112439634E+02  0.16310401166E+03 -0.73058259596E+01  0.18230614849E+03  0.10100000352E+00 0.  1.
       -3    1    3    3    0  502  0.81112439634E+02 -0.16310401166E+03  0.11008062342E+04  0.11157761970E+04  0.10100000352E+00 0. -1.
</event>
<event>
 5   0  0.6990118E-03  0.7003638E+03  0.7818609E-02  0.9716610E-01
        1   -1    0    0  501    0  0.00000000000E+00  0.00000000000E+00  0.22474231619E+03  0.22474231624E+03  0.50400001928E-02 0. -1.
       -1   -1    0    0    0  501  0.00000000000E+00  0.00000000000E+00 -0.54563536148E+03  0.54563536151E+03  0.50400001928E-02 0.  1.
    10030    2    1    2    0    0  0.00000000000E+00  0.00000000000E+00 -0.32089304529E+03  0.77037767775E+03  0.70036377680E+03 0.  0.
        5    1    3    3  502    0 -0.29448863145E+03 -0.20484489893E+02 -0.36758568631E+03  0.47147056659E+03  0.46999998093E+01 0. -1.
       -5    1    3    3    0  502  0.29448863145E+03  0.20484489893E+02  0.46692641012E+02  0.29890711116E+03  0.46999998093E+01 0.  1.
</event>
<event>
 5   0  0.6785252E-03  0.6993960E+03  0.7818609E-02  0.9718266E-01
       -1   -1    0    0    0  501  0.00000000000E+00  0.00000000000E+00  0.10221892388E+03  0.10221892400E+03  0.50400001928E-02 0.  1.
        1   -1    0    0  501    0  0.00000000000E+00  0.00000000000E+00 -0.11963409657E+04  0.11963409657E+04  0.50400001928E-02 0. -1.
    10030    2    1    2    0    0  0.00000000000E+00  0.00000000000E+00 -0.10941220419E+04  0.12985598897E+04  0.69939598569E+03 0.  0.
        3    1    3    3  502    0  0.10142867188E+03 -0.23059828590E+03 -0.99738081689E+03  0.10287039657E+04  0.10100000352E+00 0. -1.
       -3    1    3    3    0  502 -0.10142867188E+03  0.23059828590E+03 -0.96741224964E+02  0.26985592405E+03  0.10100000352E+00 0.  1.
</event>
<event>
 5   0  0.6609285E-03  0.7002184E+03  0.7818609E-02  0.9716859E-01
        1   -1    0    0  501    0  0.00000000000E+00  0.00000000000E+00  0.66952455349E+03  0.66952455351E+03  0.50400001928E-02 0. -1.
       -1   -1    0    0    0  501  0.00000000000E+00  0.00000000000E+00 -0.18307983700E+03  0.18307983707E+03  0.50400001928E-02 0.  1.
    10030    2    1    2    0    0  0.00000000000E+00  0.00000000000E+00  0.48644471649E+03  0.85260439058E+03  0.70021838353E+03 0.  0.
        2    1    3    3  502    0  0.23785309864E+03 -0.24782429349E+03  0.16076945628E+03  0.37925953522E+03  0.25500000920E-02 0. -1.
       -2    1    3    3    0  502 -0.23785309864E+03  0.24782429349E+03  0.32567526021E+03  0.47334485536E+03  0.25500000920E-02 0.  1.
</event>
<event>
 5   0  0.1079446E-02  0.6988019E+03  0.7818609E-02  0.9719283E-01
       -2   -1    0    0    0  501  0.00000000000E+00  0.00000000000E+00  0.16377073955E+03  0.16377073957E+03  0.25500000920E-02 0.  1.
        2   -1    0    0  501    0  0.00000000000E+00  0.00000000000E+00 -0.74543861803E+03  0.74543861803E+03  0.25500000920E-02 0. -1.
    10030    2    1    2    0    0  0.00000000000E+00  0.00000000000E+00 -0.58166787848E+03  0.90920935761E+03  0.69880192838E+03 0.  0.
        2    1    3    3  502    0 -0.18130701535E+03  0.14638507331E+03 -0.62956986370E+03  0.67131143055E+03  0.25500000920E-02 0. -1.
       -2    1    3    3    0  502  0.18130701535E+03 -0.14638507331E+03  0.47901985223E+02  0.23789792705E+03  0.25500000920E-02 0.  1.
</event>
<event>
 5   0  0.6609285E-03  0.6936390E+03  0.7818609E-02  0.9728173E-01
        1   -1    0    0  501    0  0.00000000000E+00  0.00000000000E+00  0.25409842936E+03  0.25409842941E+03  0.50400001928E-02 0.  1.
       -1   -1    0    0    0  501  0.00000000000E+00  0.00000000000E+00 -0.47337471853E+03  0.47337471856E+03  0.50400001928E-02 0. -1.
    10030    2    1    2    0    0  0.00000000000E+00  0.00000000000E+00 -0.21927628917E+03  0.72747314797E+03  0.69363901997E+03 0.  0.
        2    1    3    3  502    0  0.10284501211E+03 -0.22482246048E+03 -0.36473386728E+03  0.44062799412E+03  0.25500000920E-02 0. -1.
       -2    1    3    3    0  502 -0.10284501211E+03  0.22482246048E+03  0.14545757811E+03  0.28684515385E+03  0.25500000920E-02 0.  1.
</event>
<event>
 5   0  0.6609285E-03  0.7004883E+03  0.7818609E-02  0.9716398E-01
       -1   -1    0    0    0  501  0.00000000000E+00  0.00000000000E+00  0.82318282827E+02  0.82318282982E+02  0.50400001928E-02 0.  1.
        1   -1    0    0  501    0  0.00000000000E+00  0.00000000000E+00 -0.14902030874E+04  0.14902030874E+04  0.50400001928E-02 0. -1.
    10030    2    1    2    0    0  0.00000000000E+00  0.00000000000E+00 -0.14078848046E+04  0.15725213704E+04  0.70048828497E+03 0.  0.
        2    1    3    3  502    0 -0.22684643551E+03  0.70978016525E+02 -0.12814246465E+04  0.13032828967E+04  0.25500000920E-02 0. -1.
       -2    1    3    3    0  502  0.22684643551E+03 -0.70978016525E+02 -0.12646015806E+03  0.26923847369E+03  0.25500000920E-02 0.  1.
</event>
<event>
 5   0  0.6785252E-03  0.7001742E+03  0.7818609E-02  0.9716934E-01
       -1   -1    0    0    0  501  0.00000000000E+00  0.00000000000E+00  0.37670665518E+03  0.37670665522E+03  0.50400001928E-02 0.  1.
        1   -1    0    0  501    0  0.00000000000E+00  0.00000000000E+00 -0.32534859321E+03  0.32534859325E+03  0.50400001928E-02 0. -1.
    10030    2    1    2    0    0  0.00000000000E+00  0.00000000000E+00  0.51358061970E+02  0.70205524847E+03  0.70017420788E+03 0.  0.
        3    1    3    3  502    0 -0.83415775432E+02 -0.24965905774E+03 -0.20575078109E+03  0.33409763667E+03  0.10100000352E+00 0. -1.
       -3    1    3    3    0  502  0.83415775432E+02  0.24965905774E+03  0.25710884306E+03  0.36795761181E+03  0.10100000352E+00 0.  1.
</event>
<event>
 5   0  0.1109788E-02  0.7009082E+03  0.7818609E-02  0.9715680E-01
        2   -1    0    0  501    0  0.00000000000E+00  0.00000000000E+00  0.15295094106E+04  0.15295094106E+04  0.25500000920E-02 0. -1.
       -2   -1    0    0    0  501  0.00000000000E+00  0.00000000000E+00 -0.80299003754E+02  0.80299003794E+02  0.25500000920E-02 0.  1.
    10030    2    1    2    0    0  0.00000000000E+00  0.00000000000E+00  0.14492104068E+04  0.16098084144E+04  0.70090821635E+03 0.  0.
        1    1    3    3  502    0  0.10271793932E+03 -0.32875047754E+03  0.87327816487E+03  0.93874522891E+03  0.50400001928E-02 0.  1.
       -1    1    3    3    0  502 -0.10271793932E+03  0.32875047754E+03  0.57593224195E+03  0.67106318546E+03  0.50400001928E-02 0. -1.
</event>
<event>
 5   0  0.4440500E-03  0.7001810E+03  0.7818609E-02  0.9716923E-01
       -3   -1    0    0    0  501  0.00000000000E+00  0.00000000000E+00  0.43534209981E+03  0.43534211153E+03  0.10100000352E+00 0.  1.
        3   -1    0    0  501    0  0.00000000000E+00  0.00000000000E+00 -0.28153344627E+03  0.28153346438E+03  0.10100000352E+00 0. -1.
    10030    2    1    2    0    0  0.00000000000E+00  0.00000000000E+00  0.15380865355E+03  0.71687557591E+03  0.70018104047E+03 0.  0.
        4    1    3    3  502    0 -0.29971965133E+03  0.18080139977E+03  0.83439615167E+02  0.35983996142E+03  0.12699999809E+01 0.  1.
       -4    1    3    3    0  502  0.29971965133E+03 -0.18080139977E+03  0.70369038380E+02  0.35703561449E+03  0.12699999809E+01 0. -1.
</event>
<event>
 5   0  0.1100119E-02  0.7167211E+03  0.7818609E-02  0.9689057E-01
        2   -1    0    0  501    0  0.00000000000E+00  0.00000000000E+00  0.81509449790E+03  0.81509449790E+03  0.25500000920E-02 0.  1.
       -2   -1    0    0    0  501  0.00000000000E+00  0.00000000000E+00 -0.15755509722E+03  0.15755509724E+03  0.25500000920E-02 0. -1.
    10030    2    1    2    0    0  0.00000000000E+00  0.00000000000E+00  0.65753940068E+03  0.97264959514E+03  0.71672112532E+03 0.  0.
        4    1    3    3  502    0  0.15992433209E+03 -0.29111505206E+03  0.51133089601E+03  0.60974147279E+03  0.12699999809E+01 0.  1.
       -4    1    3    3    0  502 -0.15992433209E+03  0.29111505206E+03  0.14620850467E+03  0.36290812235E+03  0.12699999809E+01 0. -1.
</event>
<event>
 5   0  0.6689415E-03  0.7004831E+03  0.7818609E-02  0.9716406E-01
        1   -1    0    0  501    0  0.00000000000E+00  0.00000000000E+00  0.66420141531E+03  0.66420141533E+03  0.50400001928E-02 0.  1.
       -1   -1    0    0    0  501  0.00000000000E+00  0.00000000000E+00 -0.18468665979E+03  0.18468665986E+03  0.50400001928E-02 0. -1.
    10030    2    1    2    0    0  0.00000000000E+00  0.00000000000E+00  0.47951475552E+03  0.84888807518E+03  0.70048309289E+03 0.  0.
        1    1    3    3  502    0  0.17132346071E+03 -0.65866625798E+02  0.60124758459E+03  0.62864043664E+03  0.50400001928E-02 0.  1.
       -1    1    3    3    0  502 -0.17132346071E+03  0.65866625798E+02 -0.12173282907E+03  0.22024763854E+03  0.50400001928E-02 0. -1.
</event>
<event>
 5   0  0.1109788E-02  0.7016912E+03  0.7818609E-02  0.9714344E-01
       -2   -1    0    0    0  501  0.00000000000E+00  0.00000000000E+00  0.54512003973E+03  0.54512003974E+03  0.25500000920E-02 0. -1.
        2   -1    0    0  501    0  0.00000000000E+00  0.00000000000E+00 -0.22580828237E+03  0.22580828238E+03  0.25500000920E-02 0.  1.
    10030    2    1    2    0    0  0.00000000000E+00  0.00000000000E+00  0.31931175736E+03  0.77092832212E+03  0.70169115675E+03 0.  0.
        1    1    3    3  502    0  0.68496499537E+02  0.32787727716E+03  0.27434659324E+03  0.43296805029E+03  0.50400001928E-02 0. -1.
       -1    1    3    3    0  502 -0.68496499537E+02 -0.32787727716E+03  0.44965164118E+02  0.33796027183E+03  0.50400001928E-02 0.  1.
</event>
<event>
 5   0  0.4440500E-03  0.7018194E+03  0.7818609E-02  0.9714126E-01
        3   -1    0    0  501    0  0.00000000000E+00  0.00000000000E+00  0.23558820014E+03  0.23558822179E+03  0.10100000352E+00 0. -1.
       -3   -1    0    0    0  501  0.00000000000E+00  0.00000000000E+00 -0.52268148538E+03  0.52268149514E+03  0.10100000352E+00 0.  1.
    10030    2    1    2    0    0  0.00000000000E+00  0.00000000000E+00 -0.28709328524E+03  0.75826971693E+03  0.70181935652E+03 0.  0.
        3    1    3    3  502    0  0.81746358553E+02 -0.35194859923E+02 -0.51028438625E+03  0.51798775116E+03  0.10100000352E+00 0.  1.
       -3    1    3    3    0  502 -0.81746358553E+02  0.35194859923E+02  0.22319110101E+03  0.24028196577E+03  0.10100000352E+00 0. -1.
</event>
<event>
 5   0  0.1100119E-02  0.7003314E+03  0.7818609E-02  0.9716666E-01
        2   -1    0    0  501    0  0.00000000000E+00  0.00000000000E+00  0.14522847190E+03  0.14522847193E+03  0.25500000920E-02 0.  1.
       -2   -1    0    0    0  501  0.00000000000E+00  0.00000000000E+00 -0.84429726647E+03  0.84429726648E+03  0.25500000920E-02 0. -1.
    10030    2    1    2    0    0  0.00000000000E+00  0.00000000000E+00 -0.69906879457E+03  0.98952573840E+03  0.70033135545E+03 0.  0.
        4    1    3    3  502    0 -0.10996777502E+03  0.80251088274E+02 -0.80537158576E+03  0.81679749802E+03  0.12699999809E+01 0. -1.
       -4    1    3    3    0  502  0.10996777502E+03 -0.80251088274E+02  0.10630279119E+03  0.17272824039E+03  0.12699999809E+01 0.  1.
</event>
<event>
 5   0  0.1099980E-02  0.6994867E+03  0.7818609E-02  0.9718110E-01
       -2   -1    0    0    0  501  0.00000000000E+00  0.00000000000E+00  0.12010926867E+03  0.12010926870E+03  0.25500000920E-02 0.  1.
        2   -1    0    0  501    0  0.00000000000E+00  0.00000000000E+00 -0.10184095291E+04  0.10184095291E+04  0.25500000920E-02 0. -1.
    10030    2    1    2    0    0  0.00000000000E+00  0.00000000000E+00 -0.89830026043E+03  0.11385187978E+04  0.69948673686E+03 0.  0.
        5    1    3    3  502    0  0.24025556475E+03  0.75100789062E+02 -0.84428839906E+03  0.88102659193E+03  0.46999998093E+01 0. -1.
       -5    1    3    3    0  502 -0.24025556475E+03 -0.75100789062E+02 -0.54011861366E+02  0.25749220586E+03  0.46999998093E+01 0.  1.
</event>
<event>
 5   0  0.1109788E-02  0.7000929E+03  0.7818609E-02  0.9717073E-01
       -2   -1    0    0    0  501  0.00000000000E+00  0.00000000000E+00  0.26464154782E+03  0.26464154783E+03  0.25500000920E-02 0. -1.
        2   -1    0    0  501    0  0.00000000000E+00  0.00000000000E+00 -0.46301312321E+03  0.46301312322E+03  0.25500000920E-02 0.  1.
    10030    2    1    2    0    0  0.00000000000E+00  0.00000000000E+00 -0.19837157539E+03  0.72765467105E+03  0.70009287839E+03 0.  0.
        1    1    3    3  502    0  0.10549222450E+03  0.11950916414E+03 -0.42309795540E+03  0.45213154019E+03  0.50400001928E-02 0.  1.
       -1    1    3    3    0  502 -0.10549222450E+03 -0.11950916414E+03  0.22472638000E+03  0.27552313086E+03  0.50400001928E-02 0. -1.
</event>
<event>
 5   0  0.1099980E-02  0.7010418E+03  0.7818609E-02  0.9715452E-01
       -2   -1    0    0    0  501  0.00000000000E+00  0.00000000000E+00  0.11981992641E+03  0.11981992643E+03  0.25500000920E-02 0.  1.
        2   -1    0    0  501    0  0.00000000000E+00  0.00000000000E+00 -0.10254129480E+04  0.10254129480E+04  0.25500000920E-02 0. -1.
    10030    2    1    2    0    0  0.00000000000E+00  0.00000000000E+00 -0.90559302157E+03  0.11452328744E+04  0.70104180754E+03 0.  0.
        5    1    3    3  502    0  0.25042946062E+02  0.78078206754E+02 -0.10094723706E+04  0.10128079347E+04  0.46999998093E+01 0. -1.
       -5    1    3    3    0  502 -0.25042946062E+02 -0.78078206754E+02  0.10387934902E+03  0.13242493975E+03  0.46999998093E+01 0.  1.
</event>
<event>
 5   0  0.1109788E-02  0.7000140E+03  0.7818609E-02  0.9717208E-01
        2   -1    0    0  501    0  0.00000000000E+00  0.00000000000E+00  0.81047422626E+03  0.81047422626E+03  0.25500000920E-02 0.  1.
       -2   -1    0    0    0  501  0.00000000000E+00  0.00000000000E+00 -0.15115214239E+03  0.15115214241E+03  0.25500000920E-02 0. -1.
    10030    2    1    2    0    0  0.00000000000E+00  0.00000000000E+00  0.65932208387E+03  0.96162636867E+03  0.70001404461E+03 0.  0.
        1    1    3    3  502    0  0.29964304015E+03 -0.18164116532E+01  0.57813305859E+03  0.65117362072E+03  0.50400001928E-02 0.  1.
       -1    1    3    3    0  502 -0.29964304015E+03  0.18164116532E+01  0.81189025283E+02  0.31045274795E+03  0.50400001928E-02 0. -1.
</event>
<event>
 5   0  0.6246998E-03  0.7004257E+03  0.7818609E-02  0.9716505E-01
       -1   -1    0    0    0  501  0.00000000000E+00  0.00000000000E+00  0.33449351809E+03  0.33449351812E+03  0.50400001928E-02 0. -1.
        1   -1    0    0  501    0  0.00000000000E+00  0.00000000000E+00 -0.36667086234E+03  0.36667086237E+03  0.50400001928E-02 0.  1.
    10030    2    1    2    0    0  0.00000000000E+00  0.00000000000E+00 -0.32177344250E+02  0.70116438050E+03  0.70042566129E+03 0.  0.
        4    1    3    3  502    0  0.20342646545E+03 -0.44158741411E+02 -0.29801505182E+03  0.36352015804E+03  0.12699999809E+01 0.  1.
       -4    1    3    3    0  502 -0.20342646545E+03  0.44158741411E+02  0.26583770757E+03  0.33764422245E+03  0.12699999809E+01 0. -1.
</event>
<event>
 5   0  0.6689415E-03  0.6888877E+03  0.7818609E-02  0.9736427E-01
       -1   -1    0    0    0  501  0.00000000000E+00  0.00000000000E+00  0.21920419189E+03  0.21920419195E+03  0.50400001928E-02 0.  1.
        1   -1    0    0  501    0  0.00000000000E+00  0.00000000000E+00 -0.54123773143E+03  0.54123773145E+03  0.50400001928E-02 0. -1.
    10030    2    1    2    0    0  0.00000000000E+00  0.00000000000E+00 -0.32203353954E+03  0.76044192340E+03  0.68888773997E+03 0.  0.
        1    1    3    3  502    0 -0.33722652857E+03 -0.27864946702E+02 -0.89961605922E+02  0.35013037199E+03  0.50400001928E-02 0.  1.
       -1    1    3    3    0  502  0.33722652857E+03  0.27864946702E+02 -0.23207193361E+03  0.41031155141E+03  0.50400001928E-02 0. -1.
</event>
<event>
 5   0  0.1109788E-02  0.7007687E+03  0.7818609E-02  0.9715918E-01
       -2   -1    0    0    0  501  0.00000000000E+00  0.00000000000E+00  0.18283384347E+03  0.18283384349E+03  0.25500000920E-02 0. -1.
        2   -1    0    0  501    0  0.00000000000E+00  0.00000000000E+00 -0.67147964882E+03  0.67147964882E+03  0.25500000920E-02 0.  1.
    10030    2    1    2    0    0  0.00000000000E+00  0.00000000000E+00 -0.48864580535E+03  0.85431349231E+03  0.70076873508E+03 0.  0.
        1    1    3    3  502    0  0.71965018502E+02  0.15189891392E+03 -0.61912103893E+03  0.64153184240E+03  0.50400001928E-02 0.  1.
       -1    1    3    3    0  502 -0.71965018502E+02 -0.15189891392E+03  0.13047523358E+03  0.21278164992E+03  0.50400001928E-02 0. -1.
</event>
<event>
 5   0  0.6609285E-03  0.7005444E+03  0.7818609E-02  0.9716302E-01
       -1   -1    0    0    0  501  0.00000000000E+00  0.00000000000E+00  0.20832093450E+03  0.20832093456E+03  0.50400001928E-02 0.  1.
        1   -1    0    0  501    0  0.00000000000E+00  0.00000000000E+00 -0.58895004763E+03  0.58895004765E+03  0.50400001928E-02 0. -1.
    10030    2    1    2    0    0  0.00000000000E+00  0.00000000000E+00 -0.38062911313E+03  0.79727098221E+03  0.70054442922E+03 0.  0.
        2    1    3    3  502    0  0.29868933292E+03 -0.14686435835E+03 -0.66133240545E+02  0.33934947012E+03  0.25500000920E-02 0.  1.
       -2    1    3    3    0  502 -0.29868933292E+03  0.14686435835E+03 -0.31449587258E+03  0.45792151209E+03  0.25500000920E-02 0. -1.
</event>
<event>
 5   0  0.1079446E-02  0.7046077E+03  0.7818609E-02  0.9709385E-01
        2   -1    0    0  501    0  0.00000000000E+00  0.00000000000E+00  0.54865799620E+03  0.54865799621E+03  0.25500000920E-02 0.  1.
       -2   -1    0    0    0  501  0.00000000000E+00  0.00000000000E+00 -0.22622106892E+03  0.22622106893E+03  0.25500000920E-02 0. -1.
    10030    2    1    2    0    0  0.00000000000E+00  0.00000000000E+00  0.32243692729E+03  0.77487906514E+03  0.70460768766E+03 0.  0.
        2    1    3    3  502    0 -0.20509068979E+03 -0.48827579385E+02 -0.14919355200E+03  0.25827318775E+03  0.25500000920E-02 0. -1.
       -2    1    3    3    0  502  0.20509068979E+03  0.48827579385E+02  0.47163047929E+03  0.51660587739E+03  0.25500000920E-02 0.  1.
</event>
<event>
 5   0  0.6246998E-03  0.7026553E+03  0.7818609E-02  0.9712702E-01
       -1   -1    0    0    0  501  0.00000000000E+00  0.00000000000E+00  0.80456345473E+03  0.80456345474E+03  0.50400001928E-02 0.  1.
        1   -1    0    0  501    0  0.00000000000E+00  0.00000000000E+00 -0.15341378642E+03  0.15341378650E+03  0.50400001928E-02 0. -1.
    10030    2    1    2    0    0  0.00000000000E+00  0.00000000000E+00  0.65114966831E+03  0.95797724124E+03  0.70265532389E+03 0.  0.
        4    1    3    3  502    0  0.39022779104E+02  0.32392359047E+03  0.50323284941E+03  0.59974509867E+03  0.12699999809E+01 0.  1.
       -4    1    3    3    0  502 -0.39022779104E+02 -0.32392359047E+03  0.14791681890E+03  0.35823214257E+03  0.12699999809E+01 0. -1.
</event>
<event>
 5   0  0.1099980E-02  0.7017304E+03  0.7818609E-02  0.9714277E-01
        2   -1    0    0  501    0  0.00000000000E+00  0.00000000000E+00  0.36727357145E+03  0.36727357146E+03  0.25500000920E-02 0.  1.
       -2   -1    0    0    0  501  0.00000000000E+00  0.00000000000E+00 -0.33518992731E+03  0.33518992732E+03  0.25500000920E-02 0. -1.
    10030    2    1    2    0    0  0.00000000000E+00  0.00000000000E+00  0.32083644137E+02  0.70246349878E+03  0.70173043749E+03 0.  0.
        5    1    3    3  502    0  0.26922191886E+03  0.41829013309E+02 -0.20521894711E+03  0.34112609722E+03  0.46999998093E+01 0. -1.
       -5    1    3    3    0  502 -0.26922191886E+03 -0.41829013309E+02  0.23730259125E+03  0.36133740156E+03  0.46999998093E+01 0.  1.
</event>
<event>
 5   0  0.6246998E-03  0.6986031E+03  0.7818609E-02  0.9719624E-01
        1   -1    0    0  501    0  0.00000000000E+00  0.00000000000E+00  0.92091496935E+03  0.92091496936E+03  0.50400001928E-02 0.  1.
       -1   -1    0    0    0  501  0.00000000000E+00  0.00000000000E+00 -0.13248950489E+03  0.13248950499E+03  0.50400001928E-02 0. -1.
    10030    2    1    2    0    0  0.00000000000E+00  0.00000000000E+00  0.78842546446E+03  0.10534044744E+04  0.69860308730E+03 0.  0.
        4    1    3    3  502    0  0.14494345960E+03  0.27411488042E+02  0.87163949546E+03  0.88403451239E+03  0.12699999809E+01 0.  1.
       -4    1    3    3    0  502 -0.14494345960E+03 -0.27411488042E+02 -0.83214031003E+02  0.16936996196E+03  0.12699999809E+01 0. -1.
</event>
<event>
 5   0  0.1109788E-02  0.7040352E+03  0.7818609E-02  0.9710356E-01
       -2   -1    0    0    0  501  0.00000000000E+00  0.00000000000E+00  0.17528584166E+03  0.17528584168E+03  0.25500000920E-02 0.  1.
        2   -1    0    0  501    0  0.00000000000E+00  0.00000000000E+00 -0.70693889404E+03  0.70693889405E+03  0.25500000920E-02 0. -1.
    10030    2    1    2    0    0  0.00000000000E+00  0.00000000000E+00 -0.53165305238E+03  0.88222473573E+03  0.70403516690E+03 0.  0.
        1    1    3    3  502    0 -0.14280195835E+03  0.20753021041E+03 -0.57393360610E+03  0.62678622495E+03  0.50400001928E-02 0. -1.
       -1    1    3    3    0  502  0.14280195835E+03 -0.20753021041E+03  0.42280553724E+02  0.25543851078E+03  0.50400001928E-02 0.  1.
</event>
<event>
 5   0  0.6609285E-03  0.6912387E+03  0.7818609E-02  0.9732334E-01
        1   -1    0    0  501    0  0.00000000000E+00  0.00000000000E+00  0.11011608344E+04  0.11011608344E+04  0.50400001928E-02 0.  1.
       -1   -1    0    0    0  501  0.00000000000E+00  0.00000000000E+00 -0.10847892703E+03  0.10847892715E+03  0.50400001928E-02 0. -1.
    10030    2    1    2    0    0  0.00000000000E+00  0.00000000000E+00  0.99268190736E+03  0.12096397615E+04  0.69123873120E+03 0.  0.
        2    1    3    3  502    0 -0.11247481524E+03  0.17234141171E+03  0.10429800780E+02  0.20606049356E+03  0.25500000920E-02 0. -1.
       -2    1    3    3    0  502  0.11247481524E+03 -0.17234141171E+03  0.98225210658E+03  0.10035792680E+04  0.25500000920E-02 0.  1.
</event>
<event>
 5   0  0.4440500E-03  0.6972134E+03  0.7818609E-02  0.9722010E-01
       -4   -1    0    0    0  501  0.00000000000E+00  0.00000000000E+00  0.59056752262E+03  0.59056888817E+03  0.12699999809E+01 0.  1.
        4   -1    0    0  501    0  0.00000000000E+00  0.00000000000E+00 -0.20577583083E+03  0.20577974987E+03  0.12699999809E+01 0. -1.
    10030    2    1    2    0    0  0.00000000000E+00  0.00000000000E+00  0.38479169178E+03  0.79634863803E+03  0.69721338716E+03 0.  0.
        3    1    3    3  502    0  0.33045347542E+03 -0.95871935050E+01  0.66055194305E+02  0.33712714603E+03  0.10100000352E+00 0.  1.
       -3    1    3    3    0  502 -0.33045347542E+03  0.95871935050E+01  0.31873649748E+03  0.45922149201E+03  0.10100000352E+00 0. -1.
</event>
<event>
 5   0  0.6785252E-03  0.7156198E+03  0.7818609E-02  0.9690887E-01
        1   -1    0    0  501    0  0.00000000000E+00  0.00000000000E+00  0.13369434978E+04  0.13369434978E+04  0.50400001928E-02 0.  1.
       -1   -1    0    0    0  501  0.00000000000E+00  0.00000000000E+00 -0.95761657631E+02  0.95761657763E+02  0.50400001928E-02 0. -1.
    10030    2    1    2    0    0  0.00000000000E+00  0.00000000000E+00  0.12411818402E+04  0.14327051556E+04  0.71561980299E+03 0.  0.
        3    1    3    3  502    0 -0.23145347256E+03 -0.13825377227E+02  0.11661850367E+04  0.11890119432E+04  0.10100000352E+00 0.  1.
       -3    1    3    3    0  502  0.23145347256E+03  0.13825377227E+02  0.74996803423E+02  0.24369321234E+03  0.10100000352E+00 0. -1.
</event>
<event>
 5   0  0.6990118E-03  0.7002497E+03  0.7818609E-02  0.9716805E-01
        1   -1    0    0  501    0  0.00000000000E+00  0.00000000000E+00  0.16376880547E+03  0.16376880554E+03  0.50400001928E-02 0. -1.
       -1   -1    0    0    0  501  0.00000000000E+00  0.00000000000E+00 -0.74853951845E+03  0.74853951846E+03  0.50400001928E-02 0.  1.
    10030    2    1    2    0    0  0.00000000000E+00  0.00000000000E+00 -0.58477071298E+03  0.91230832401E+03  0.70024973495E+03 0.  0.
        5    1    3    3  502    0 -0.26769332233E+03  0.12341564595E+03 -0.46311325595E+02  0.29842581216E+03  0.46999998093E+01 0. -1.
       -5    1    3    3    0  502  0.26769332233E+03 -0.12341564595E+03 -0.53845938739E+03  0.61388251185E+03  0.46999998093E+01 0.  1.
</event>
<event>
 5   0  0.6246998E-03  0.7028557E+03  0.7818609E-02  0.9712361E-01
       -1   -1    0    0    0  501  0.00000000000E+00  0.00000000000E+00  0.12976432994E+03  0.12976433004E+03  0.50400001928E-02 0.  1.
        1   -1    0    0  501    0  0.00000000000E+00  0.00000000000E+00 -0.95173702273E+03  0.95173702275E+03  0.50400001928E-02 0. -1.
    10030    2    1    2    0    0  0.00000000000E+00  0.00000000000E+00 -0.82197269279E+03  0.10815013528E+04  0.70285565259E+03 0.  0.
        4    1    3    3  502    0 -0.10827503427E+03 -0.18718185345E+03 -0.83724190323E+03  0.86471737968E+03  0.12699999809E+01 0. -1.
       -4    1    3    3    0  502  0.10827503427E+03  0.18718185345E+03  0.15269210435E+02  0.21678397310E+03  0.12699999809E+01 0.  1.
</event>
<event>
 5   0  0.1100119E-02  0.6998166E+03  0.7818609E-02  0.9717546E-01
       -2   -1    0    0    0  501  0.00000000000E+00  0.00000000000E+00  0.82628552210E+02  0.82628552249E+02  0.25500000920E-02 0.  1.
        2   -1    0    0  501    0  0.00000000000E+00  0.00000000000E+00 -0.14817617077E+04  0.14817617077E+04  0.25500000920E-02 0. -1.
    10030    2    1    2    0    0  0.00000000000E+00  0.00000000000E+00 -0.13991331555E+04  0.15643902600E+04  0.69981661787E+03 0.  0.
        4    1    3    3  502    0  0.32772721682E+03  0.11125770301E+03 -0.58447332157E+03  0.67925995146E+03  0.12699999809E+01 0.  1.
       -4    1    3    3    0  502 -0.32772721682E+03 -0.11125770301E+03 -0.81465983396E+03  0.88513030854E+03  0.12699999809E+01 0. -1.
</event>
<event>
 5   0  0.1109788E-02  0.7009532E+03  0.7818609E-02  0.9715604E-01
        2   -1    0    0  501    0  0.00000000000E+00  0.00000000000E+00  0.61709506924E+03  0.61709506925E+03  0.25500000920E-02 0.  1.
       -2   -1    0    0    0  501  0.00000000000E+00  0.00000000000E+00 -0.19905173189E+03  0.19905173191E+03  0.25500000920E-02 0. -1.
    10030    2    1    2    0    0  0.00000000000E+00  0.00000000000E+00  0.41804333735E+03  0.81614680115E+03  0.70095318612E+03 0.  0.
        1    1    3    3  502    0  0.31347835889E+03 -0.14102541183E+03  0.28864909415E+03  0.44885983096E+03  0.50400001928E-02 0. -1.
       -1    1    3    3    0  502 -0.31347835889E+03  0.14102541183E+03  0.12939424320E+03  0.36728697019E+03  0.50400001928E-02 0.  1.
</event>
<event>
 5   0  0.1099980E-02  0.6980169E+03  0.7818609E-02  0.9720630E-01
       -2   -1    0    0    0  501  0.00000000000E+00  0.00000000000E+00  0.59582067791E+03  0.59582067791E+03  0.25500000920E-02 0.  1.
        2   -1    0    0  501    0  0.00000000000E+00  0.00000000000E+00 -0.20443551771E+03  0.20443551772E+03  0.25500000920E-02 0. -1.
    10030    2    1    2    0    0  0.00000000000E+00  0.00000000000E+00  0.39138516020E+03  0.80025619564E+03  0.69801693033E+03 0.  0.
        5    1    3    3  502    0 -0.16036799991E+03 -0.30981583913E+03  0.20601522522E+03  0.40517664369E+03  0.46999998093E+01 0. -1.
       -5    1    3    3    0  502  0.16036799991E+03  0.30981583913E+03  0.18536993498E+03  0.39507955194E+03  0.46999998093E+01 0.  1.
</event>
<event>
 5   0  0.1079446E-02  0.7057186E+03  0.7818609E-02  0.9707502E-01
        2   -1    0    0  501    0  0.00000000000E+00  0.00000000000E+00  0.12061266691E+04  0.12061266691E+04  0.25500000920E-02 0.  1.
       -2   -1    0    0    0  501  0.00000000000E+00  0.00000000000E+00 -0.10323101309E+03  0.10323101312E+03  0.25500000920E-02 0. -1.
    10030    2    1    2    0    0  0.00000000000E+00  0.00000000000E+00  0.11028956560E+04  0.13093576822E+04  0.70571857842E+03 0.  0.
        2    1    3    3  502    0  0.33997472307E+03  0.26688489595E+02  0.71960666715E+03  0.79632207254E+03  0.25500000920E-02 0.  1.
       -2    1    3    3    0  502 -0.33997472307E+03 -0.26688489595E+02  0.38328898883E+03  0.51303560965E+03  0.25500000920E-02 0. -1.
</event>
<event>
 5   0  0.4440500E-03  0.6993708E+03  0.7818609E-02  0.9718309E-01
        4   -1    0    0  501    0  0.00000000000E+00  0.00000000000E+00  0.15653137165E+03  0.15653652357E+03  0.12699999809E+01 0. -1.
       -4   -1    0    0    0  501  0.00000000000E+00  0.00000000000E+00 -0.78116599467E+03  0.78116702704E+03  0.12699999809E+01 0.  1.
    10030    2    1    2    0    0  0.00000000000E+00  0.00000000000E+00 -0.62463462302E+03  0.93770355061E+03  0.69937081477E+03 0.  0.
        3    1    3    3  502    0  0.74885458648E+02 -0.26597381365E+03 -0.59966396797E+03  0.66026266451E+03  0.10100000352E+00 0.  1.
       -3    1    3    3    0  502 -0.74885458648E+02  0.26597381365E+03 -0.24970655047E+02  0.27744088610E+03  0.10100000352E+00 0. -1.
</event>
<event>
 5   0  0.6689415E-03  0.7031052E+03  0.7818609E-02  0.9711937E-01
        1   -1    0    0  501    0  0.00000000000E+00  0.00000000000E+00  0.46442428729E+03  0.46442428732E+03  0.50400001928E-02 0.  1.
       -1   -1    0    0    0  501  0.00000000000E+00  0.00000000000E+00 -0.26611273358E+03  0.26611273363E+03  0.50400001928E-02 0. -1.
    10030    2    1    2    0    0  0.00000000000E+00  0.00000000000E+00  0.19831155371E+03  0.73053702095E+03  0.70310516044E+03 0.  0.
        1    1    3    3  502    0 -0.94624628804E+02  0.64536754541E+02 -0.24618265622E+03  0.27152295172E+03  0.50400001928E-02 0. -1.
       -1    1    3    3    0  502  0.94624628804E+02 -0.64536754541E+02  0.44449420993E+03  0.45901406923E+03  0.50400001928E-02 0.  1.
</event>
<event>
 5   0  0.1099980E-02  0.7025062E+03  0.7818609E-02  0.9712956E-01
       -2   -1    0    0    0  501  0.00000000000E+00  0.00000000000E+00  0.14655720395E+03  0.14655720398E+03  0.25500000920E-02 0. -1.
        2   -1    0    0  501    0  0.00000000000E+00  0.00000000000E+00 -0.84184694149E+03  0.84184694149E+03  0.25500000920E-02 0.  1.
    10030    2    1    2    0    0  0.00000000000E+00  0.00000000000E+00 -0.69528973753E+03  0.98840414547E+03  0.70250618193E+03 0.  0.
        5    1    3    3  502    0 -0.72034026574E+02 -0.23171458541E+03 -0.70490435328E+03  0.74551511543E+03  0.46999998093E+01 0.  1.
       -5    1    3    3    0  502  0.72034026574E+02  0.23171458541E+03  0.96146157457E+01  0.24288903003E+03  0.46999998093E+01 0. -1.
</event>
<event>
 5   0  0.1109788E-02  0.7025355E+03  0.7818609E-02  0.9712906E-01
        2   -1    0    0  501    0  0.00000000000E+00  0.00000000000E+00  0.39443573915E+03  0.39443573915E+03  0.25500000920E-02 0.  1.
       -2   -1    0    0    0  501  0.00000000000E+00  0.00000000000E+00 -0.31282418780E+03  0.31282418781E+03  0.25500000920E-02 0. -1.
    10030    2    1    2    0    0  0.00000000000E+00  0.00000000000E+00  0.81611551343E+02  0.70725992697E+03  0.70253552151E+03 0.  0.
        1    1    3    3  502    0 -0.26269427955E+01 -0.15372134372E+03  0.35876492381E+03  0.39031964199E+03  0.50400001928E-02 0.  1.
       -1    1    3    3    0  502  0.26269427955E+01  0.15372134372E+03 -0.27715337247E+03  0.31694028497E+03  0.50400001928E-02 0. -1.
</event>
<event>
 5   0  0.6990118E-03  0.6971147E+03  0.7818609E-02  0.9722179E-01
        1   -1    0    0  501    0  0.00000000000E+00  0.00000000000E+00  0.12842726990E+03  0.12842727000E+03  0.50400001928E-02 0.  1.
       -1   -1    0    0    0  501  0.00000000000E+00  0.00000000000E+00 -0.94600030572E+03  0.94600030573E+03  0.50400001928E-02 0. -1.
    10030    2    1    2    0    0  0.00000000000E+00  0.00000000000E+00 -0.81757303582E+03  0.10744275757E+04  0.69711472986E+03 0.  0.
        5    1    3    3  502    0  0.12973977281E+03 -0.29634880062E+03 -0.20892786558E+03  0.38513369535E+03  0.46999998093E+01 0.  1.
       -5    1    3    3    0  502 -0.12973977281E+03  0.29634880062E+03 -0.60864517023E+03  0.68929388038E+03  0.46999998093E+01 0. -1.
</event>
<event>
 5   0  0.6689415E-03  0.6992077E+03  0.7818609E-02  0.9718588E-01
        1   -1    0    0  501    0  0.00000000000E+00  0.00000000000E+00  0.37278940716E+03  0.37278940719E+03  0.50400001928E-02 0. -1.
       -1   -1    0    0    0  501  0.00000000000E+00  0.00000000000E+00 -0.32786030480E+03  0.32786030484E+03  0.50400001928E-02 0.  1.
    10030    2    1    2    0    0  0.00000000000E+00  0.00000000000E+00  0.44929102357E+02  0.70064971203E+03  0.69920769070E+03 0.  0.
        1    1    3    3  502    0  0.15678542480E+03  0.30505343897E+03  0.90306309091E+02  0.35467520289E+03  0.50400001928E-02 0. -1.
       -1    1    3    3    0  502 -0.15678542480E+03 -0.30505343897E+03 -0.45377206734E+02  0.34597450914E+03  0.50400001928E-02 0.  1.
</event>
<event>
 5   0  0.1099980E-02  0.7122887E+03  0.7818609E-02  0.9696445E-01
       -2   -1    0    0    0  501  0.00000000000E+00  0.00000000000E+00  0.16245992355E+03  0.16245992357E+03  0.25500000920E-02 0.  1.
        2   -1    0    0  501    0  0.00000000000E+00  0.00000000000E+00 -0.78073903909E+03  0.78073903909E+03  0.25500000920E-02 0. -1.
    10030    2    1    2    0    0  0.00000000000E+00  0.00000000000E+00 -0.61827911554E+03  0.94319896266E+03  0.71228871846E+03 0.  0.
        5    1    3    3  502    0  0.24474843700E+03 -0.16321702764E+03 -0.43394213143E+02  0.29739997185E+03  0.46999998093E+01 0.  1.
       -5    1    3    3    0  502 -0.24474843700E+03  0.16321702764E+03 -0.57488490240E+03  0.64579899081E+03  0.46999998093E+01 0. -1.
</event>
<event>
 5   0  0.6689415E-03  0.7000541E+03  0.7818609E-02  0.9717140E-01
        1   -1    0    0  501    0  0.00000000000E+00  0.00000000000E+00  0.17106181900E+04  0.17106181900E+04  0.50400001928E-02 0. -1.
       -1   -1    0    0    0  501  0.00000000000E+00  0.00000000000E+00 -0.71622611791E+02  0.71622611968E+02  0.50400001928E-02 0.  1.
    10030    2    1    2    0    0  0.00000000000E+00  0.00000000000E+00  0.16389955782E+04  0.17822408019E+04  0.70005411993E+03 0.  0.
        1    1    3    3  502    0  0.73232740366E+02  0.15853009766E+03  0.47198571950E+02  0.18089370179E+03  0.50400001928E-02 0.  1.
       -1    1    3    3    0  502 -0.73232740366E+02 -0.15853009766E+03  0.15917970062E+04  0.16013471002E+04  0.50400001928E-02 0. -1.
</event>
<event>
 5   0  0.1119786E-02  0.6988133E+03  0.7818609E-02  0.9719264E-01
        2   -1    0    0  501    0  0.00000000000E+00  0.00000000000E+00  0.13535217308E+04  0.13535217308E+04  0.25500000920E-02 0. -1.
       -2   -1    0    0    0  501  0.00000000000E+00  0.00000000000E+00 -0.90198042856E+02  0.90198042892E+02  0.25500000920E-02 0.  1.
    10030    2    1    2    0    0  0.00000000000E+00  0.00000000000E+00  0.12633236879E+04  0.14437197737E+04  0.69881331157E+03 0.  0.
        3    1    3    3  502    0 -0.20583422109E+03 -0.13989796905E+03  0.11383310456E+04  0.11652196136E+04  0.10100000352E+00 0. -1.
       -3    1    3    3    0  502  0.20583422109E+03  0.13989796905E+03  0.12499264227E+03  0.27850016003E+03  0.10100000352E+00 0.  1.
</event>
<event>
 5   0  0.6609285E-03  0.7021899E+03  0.7818609E-02  0.9713495E-01
        1   -1    0    0  501    0  0.00000000000E+00  0.00000000000E+00  0.37600368457E+03  0.37600368460E+03  0.50400001928E-02 0. -1.
       -1   -1    0    0    0  501  0.00000000000E+00  0.00000000000E+00 -0.32783630134E+03  0.32783630138E+03  0.50400001928E-02 0.  1.
    10030    2    1    2    0    0  0.00000000000E+00  0.00000000000E+00  0.48167383228E+02  0.70383998598E+03  0.70218988106E+03 0.  0.
        2    1    3    3  502    0  0.88293978729E+02  0.24849666890E+03 -0.20823939436E+03  0.33602093164E+03  0.25500000920E-02 0.  1.
       -2    1    3    3    0  502 -0.88293978729E+02 -0.24849666890E+03  0.25640677759E+03  0.36781905434E+03  0.25500000920E-02 0. -1.
</event>
<event>
 5   0  0.1109788E-02  0.7020545E+03  0.7818609E-02  0.9713725E-01
       -2   -1    0    0    0  501  0.00000000000E+00  0.00000000000E+00  0.12877576913E+03  0.12877576915E+03  0.25500000920E-02 0.  1.
        2   -1    0    0  501    0  0.00000000000E+00  0.00000000000E+00 -0.95685793805E+03  0.95685793805E+03  0.25500000920E-02 0. -1.
    10030    2    1    2    0    0  0.00000000000E+00  0.00000000000E+00 -0.82808216892E+03  0.10856337072E+04  0.70205446208E+03 0.  0.
        1    1    3    3  502    0  0.14373957024E+03 -0.36968428935E+02 -0.90595197508E+03  0.91802870869E+03  0.50400001928E-02 0. -1.
       -1    1    3    3    0  502 -0.14373957024E+03  0.36968428935E+02  0.77869806161E+02  0.16760499852E+03  0.50400001928E-02 0.  1.
</event>
<event>
 5   0  0.4440500E-03  0.6994340E+03  0.7818609E-02  0.9718201E-01
        4   -1    0    0  501    0  0.00000000000E+00  0.00000000000E+00  0.37260927615E+03  0.37261144047E+03  0.12699999809E+01 0.  1.
       -4   -1    0    0    0  501  0.00000000000E+00  0.00000000000E+00 -0.32822685388E+03  0.32822931086E+03  0.12699999809E+01 0. -1.
    10030    2    1    2    0    0  0.00000000000E+00  0.00000000000E+00  0.44382422263E+02  0.70084075133E+03  0.69943402786E+03 0.  0.
        5    1    3    3  502    0  0.70344007966E+02 -0.18554569921E+03  0.31070157335E+03  0.36869098664E+03  0.46999998093E+01 0.  1.
       -5    1    3    3    0  502 -0.70344007966E+02  0.18554569921E+03 -0.26631915108E+03  0.33214976469E+03  0.46999998093E+01 0. -1.
</event>
<event>
 5   0  0.4440500E-03  0.7111095E+03  0.7818609E-02  0.9698420E-01
        3   -1    0    0  501    0  0.00000000000E+00  0.00000000000E+00  0.31409137321E+03  0.31409138945E+03  0.10100000352E+00 0. -1.
       -3   -1    0    0    0  501  0.00000000000E+00  0.00000000000E+00 -0.40249170158E+03  0.40249171425E+03  0.10100000352E+00 0.  1.
    10030    2    1    2    0    0  0.00000000000E+00  0.00000000000E+00 -0.88400328366E+02  0.71658310370E+03  0.71110950384E+03 0.  0.
        3    1    3    3  502    0  0.11917760880E+03  0.29851379581E+03  0.10897440368E+03  0.33939537355E+03  0.10100000352E+00 0. -1.
       -3    1    3    3    0  502 -0.11917760880E+03 -0.29851379581E+03 -0.19737473204E+03  0.37718773015E+03  0.10100000352E+00 0.  1.
</event>
<event>
 5   0  0.1100119E-02  0.7023876E+03  0.7818609E-02  0.9713158E-01
       -2   -1    0    0    0  501  0.00000000000E+00  0.00000000000E+00  0.37827264764E+03  0.37827264765E+03  0.25500000920E-02 0. -1.
        2   -1    0    0  501    0  0.00000000000E+00  0.00000000000E+00 -0.32605342335E+03  0.32605342336E+03  0.25500000920E-02 0.  1.
    10030    2    1    2    0    0  0.00000000000E+00  0.00000000000E+00  0.52219224287E+02  0.70432607101E+03  0.70238761871E+03 0.  0.
        4    1    3    3  502    0 -0.19750540379E+03 -0.12327477250E+03 -0.23754266677E+03  0.33261567235E+03  0.12699999809E+01 0.  1.
       -4    1    3    3    0  502  0.19750540379E+03  0.12327477250E+03  0.28976189106E+03  0.37171039865E+03  0.12699999809E+01 0. -1.
</event>
<event>
 5   0  0.6609285E-03  0.6978527E+03  0.7818609E-02  0.9720911E-01
        1   -1    0    0  501    0  0.00000000000E+00  0.00000000000E+00  0.73706627775E+03  0.73706627776E+03  0.50400001928E-02 0. -1.
       -1   -1    0    0    0  501  0.00000000000E+00  0.00000000000E+00 -0.16518134991E+03  0.16518134998E+03  0.50400001928E-02 0.  1.
    10030    2    1    2    0    0  0.00000000000E+00  0.00000000000E+00  0.57188492784E+03  0.90224762775E+03  0.69785271446E+03 0.  0.
        2    1    3    3  502    0 -0.17602437553E+03 -0.29016995360E+03  0.39070989761E+03  0.51753010236E+03  0.25500000920E-02 0. -1.
       -2    1    3    3    0  502  0.17602437553E+03  0.29016995360E+03  0.18117503023E+03  0.38471752539E+03  0.25500000920E-02 0.  1.
</event>
<event>
 5   0  0.4440500E-03  0.7012350E+03  0.7818609E-02  0.9715122E-01
        4   -1    0    0  501    0  0.00000000000E+00  0.00000000000E+00  0.35799781815E+03  0.35800007081E+03  0.12699999809E+01 0. -1.
       -4   -1    0    0    0  501  0.00000000000E+00  0.00000000000E+00 -0.34338486998E+03  0.34338721850E+03  0.12699999809E+01 0.  1.
    10030    2    1    2    0    0  0.00000000000E+00  0.00000000000E+00  0.14612948175E+02  0.70138728931E+03  0.70123504715E+03 0.  0.
        2    1    3    3  502    0  0.70991579594E+02  0.19349842488E+03  0.29100726657E+03  0.35660436622E+03  0.25500000920E-02 0. -1.
       -2    1    3    3    0  502 -0.70991579594E+02 -0.19349842488E+03 -0.27639431839E+03  0.34478292309E+03  0.25500000920E-02 0.  1.
</event>
<event>
 5   0  0.6785252E-03  0.6975158E+03  0.7818609E-02  0.9721490E-01
        1   -1    0    0  501    0  0.00000000000E+00  0.00000000000E+00  0.17147970546E+04  0.17147970546E+04  0.50400001928E-02 0.  1.
       -1   -1    0    0    0  501  0.00000000000E+00  0.00000000000E+00 -0.70930874843E+02  0.70930875022E+02  0.50400001928E-02 0. -1.
    10030    2    1    2    0    0  0.00000000000E+00  0.00000000000E+00  0.16438661797E+04  0.17857279296E+04  0.69751575015E+03 0.  0.
        3    1    3    3  502    0  0.30658152265E+03 -0.24188191267E+02  0.40083525545E+03  0.50521897316E+03  0.10100000352E+00 0.  1.
       -3    1    3    3    0  502 -0.30658152265E+03  0.24188191267E+02  0.12430309243E+04  0.12805089565E+04  0.10100000352E+00 0. -1.
</event>
<event>
 5   0  0.6609285E-03  0.6957396E+03  0.7818609E-02  0.9724546E-01
       -1   -1    0    0    0  501  0.00000000000E+00  0.00000000000E+00  0.15295344566E+03  0.15295344575E+03  0.50400001928E-02 0. -1.
        1   -1    0    0  501    0  0.00000000000E+00  0.00000000000E+00 -0.79117798986E+03  0.79117798987E+03  0.50400001928E-02 0.  1.
    10030    2    1    2    0    0  0.00000000000E+00  0.00000000000E+00 -0.63822454419E+03  0.94413143562E+03  0.69573960568E+03 0.  0.
        2    1    3    3  502    0 -0.21079054876E+03  0.97732253898E+02 -0.67044417672E+03  0.70956299438E+03  0.25500000920E-02 0.  1.
       -2    1    3    3    0  502  0.21079054876E+03 -0.97732253898E+02  0.32219632527E+02  0.23456844124E+03  0.25500000920E-02 0. -1.
</event>
<event>
 5   0  0.6689415E-03  0.7025344E+03  0.7818609E-02  0.9712908E-01
       -1   -1    0    0    0  501  0.00000000000E+00  0.00000000000E+00  0.33293952260E+03  0.33293952263E+03  0.50400001928E-02 0. -1.
        1   -1    0    0  501    0  0.00000000000E+00  0.00000000000E+00 -0.37060377394E+03  0.37060377397E+03  0.50400001928E-02 0.  1.
    10030    2    1    2    0    0  0.00000000000E+00  0.00000000000E+00 -0.37664251343E+02  0.70354329661E+03  0.70253439373E+03 0.  0.
        1    1    3    3  502    0 -0.15578961887E+03  0.49881811206E+02  0.29246802108E+03  0.33510616797E+03  0.50400001928E-02 0. -1.
       -1    1    3    3    0  502  0.15578961887E+03 -0.49881811206E+02 -0.33013227242E+03  0.36843712863E+03  0.50400001928E-02 0.  1.
</event>
<event>
 5   0  0.6785252E-03  0.7009501E+03  0.7818609E-02  0.9715609E-01
        1   -1    0    0  501    0  0.00000000000E+00  0.00000000000E+00  0.37631406618E+03  0.37631406621E+03  0.50400001928E-02 0.  1.
       -1   -1    0    0    0  501  0.00000000000E+00  0.00000000000E+00 -0.32641024938E+03  0.32641024942E+03  0.50400001928E-02 0. -1.
    10030    2    1    2    0    0  0.00000000000E+00  0.00000000000E+00  0.49903816795E+02  0.70272431563E+03  0.70095012151E+03 0.  0.
        3    1    3    3  502    0 -0.13277679677E+03  0.15281087751E+03  0.31177379673E+03  0.37173075279E+03  0.10100000352E+00 0.  1.
       -3    1    3    3    0  502  0.13277679677E+03 -0.15281087751E+03 -0.26186997993E+03  0.33099356283E+03  0.10100000352E+00 0. -1.
</event>
<event>
 5   0  0.6990118E-03  0.6992618E+03  0.7818609E-02  0.9718495E-01
       -1   -1    0    0    0  501  0.00000000000E+00  0.00000000000E+00  0.37153662799E+03  0.37153662803E+03  0.50400001928E-02 0.  1.
        1   -1    0    0  501    0  0.00000000000E+00  0.00000000000E+00 -0.32901673387E+03  0.32901673390E+03  0.50400001928E-02 0. -1.
    10030    2    1    2    0    0  0.00000000000E+00  0.00000000000E+00  0.42519894129E+02  0.70055336193E+03  0.69926180470E+03 0.  0.
        5    1    3    3  502    0  0.25337933159E+03  0.97409457974E+00  0.26257335713E+03  0.36492313219E+03  0.46999998093E+01 0.  1.
       -5    1    3    3    0  502 -0.25337933159E+03 -0.97409457974E+00 -0.22005346300E+03  0.33563022974E+03  0.46999998093E+01 0. -1.
</event>
<event>
 5   0  0.6990118E-03  0.6842409E+03  0.7818609E-02  0.9744568E-01
       -1   -1    0    0    0  501  0.00000000000E+00  0.00000000000E+00  0.16817673833E+03  0.16817673841E+03  0.50400001928E-02 0. -1.
        1   -1    0    0  501    0  0.00000000000E+00  0.00000000000E+00 -0.69597262538E+03  0.69597262540E+03  0.50400001928E-02 0.  1.
    10030    2    1    2    0    0  0.00000000000E+00  0.00000000000E+00 -0.52779588704E+03  0.86414936381E+03  0.68424091122E+03 0.  0.
        5    1    3    3  502    0 -0.31244217271E+03 -0.10177421206E+03 -0.38401736191E+03  0.50543993290E+03  0.46999998093E+01 0. -1.
       -5    1    3    3    0  502  0.31244217271E+03  0.10177421206E+03 -0.14377852514E+03  0.35870943090E+03  0.46999998093E+01 0.  1.
</event>
<event>
 5   0  0.1100119E-02  0.7011648E+03  0.7818609E-02  0.9715242E-01
       -2   -1    0    0    0  501  0.00000000000E+00  0.00000000000E+00  0.20416277243E+03  0.20416277244E+03  0.25500000920E-02 0. -1.
        2   -1    0    0  501    0  0.00000000000E+00  0.00000000000E+00 -0.60200994943E+03  0.60200994944E+03  0.25500000920E-02 0.  1.
    10030    2    1    2    0    0  0.00000000000E+00  0.00000000000E+00 -0.39784717700E+03  0.80617272188E+03  0.70116480321E+03 0.  0.
        4    1    3    3  502    0  0.22947387090E+02 -0.25138751784E+03 -0.47863530918E+03  0.54112442081E+03  0.12699999809E+01 0.  1.
       -4    1    3    3    0  502 -0.22947387090E+02  0.25138751784E+03  0.80788132176E+02  0.26504830107E+03  0.12699999809E+01 0. -1.
</event>
<event>
 5   0  0.6246998E-03  0.6923122E+03  0.7818609E-02  0.9730470E-01
       -1   -1    0    0    0  501  0.00000000000E+00  0.00000000000E+00  0.37400003829E+03  0.37400003833E+03  0.50400001928E-02 0.  1.
        1   -1    0    0  501    0  0.00000000000E+00  0.00000000000E+00 -0.32038511318E+03  0.32038511322E+03  0.50400001928E-02 0. -1.
    10030    2    1    2    0    0  0.00000000000E+00  0.00000000000E+00  0.53614925109E+02  0.69438515155E+03  0.69231219728E+03 0.  0.
        4    1    3    3  502    0 -0.21836835227E+03  0.20583102643E+02 -0.24178913543E+03  0.32645367251E+03  0.12699999809E+01 0. -1.
       -4    1    3    3    0  502  0.21836835227E+03 -0.20583102643E+02  0.29540406054E+03  0.36793147904E+03  0.12699999809E+01 0.  1.
</event>
<event>
 5   0  0.1119786E-02  0.7080976E+03  0.7818609E-02  0.9703484E-01
       -2   -1    0    0    0  501  0.00000000000E+00  0.00000000000E+00  0.14352329145E+03  0.14352329148E+03  0.25500000920E-02 0. -1.
        2   -1    0    0  501    0  0.00000000000E+00  0.00000000000E+00 -0.87338115574E+03  0.87338115574E+03  0.25500000920E-02 0.  1.
    10030    2    1    2    0    0  0.00000000000E+00  0.00000000000E+00 -0.72985786428E+03  0.10169044472E+04  0.70809755875E+03 0.  0.
        3    1    3    3  502    0 -0.28448686417E+03  0.22582287620E+02 -0.66585364201E+03  0.72443344648E+03  0.10100000352E+00 0.  1.
       -3    1    3    3    0  502  0.28448686417E+03 -0.22582287620E+02 -0.64004222268E+02  0.29247100073E+03  0.10100000352E+00 0. -1.
</event>
<event>
 5   0  0.4440500E-03  0.7010361E+03  0.7818609E-02  0.9715462E-01
       -3   -1    0    0    0  501  0.00000000000E+00  0.00000000000E+00  0.13782577949E+04  0.13782577986E+04  0.10100000352E+00 0.  1.
        3   -1    0    0  501    0  0.00000000000E+00  0.00000000000E+00 -0.89143590575E+02  0.89143647792E+02  0.10100000352E+00 0. -1.
    10030    2    1    2    0    0  0.00000000000E+00  0.00000000000E+00  0.12891142043E+04  0.14674014464E+04  0.70103607117E+03 0.  0.
        5    1    3    3  502    0 -0.15940158340E+03 -0.13807754460E+03  0.58589119207E+02  0.21892703808E+03  0.46999998093E+01 0. -1.
       -5    1    3    3    0  502  0.15940158340E+03  0.13807754460E+03  0.12305250851E+04  0.12484744083E+04  0.46999998093E+01 0.  1.
</event>
<event>
 5   0  0.1109788E-02  0.7038106E+03  0.7818609E-02  0.9710738E-01
        2   -1    0    0  501    0  0.00000000000E+00  0.00000000000E+00  0.70085084179E+03  0.70085084179E+03  0.25500000920E-02 0.  1.
       -2   -1    0    0    0  501  0.00000000000E+00  0.00000000000E+00 -0.17669570037E+03  0.17669570039E+03  0.25500000920E-02 0. -1.
    10030    2    1    2    0    0  0.00000000000E+00  0.00000000000E+00  0.52415514142E+03  0.87754654218E+03  0.70381057211E+03 0.  0.
        1    1    3    3  502    0  0.12577807438E+03  0.15722572985E+03 -0.97779278664E+02  0.22383217258E+03  0.50400001928E-02 0. -1.
       -1    1    3    3    0  502 -0.12577807438E+03 -0.15722572985E+03  0.62193442008E+03  0.65371436960E+03  0.50400001928E-02 0.  1.
</event>
<event>
 5   0  0.6609285E-03  0.6982493E+03  0.7818609E-02  0.9720231E-01
        1   -1    0    0  501    0  0.00000000000E+00  0.00000000000E+00  0.21035670810E+03  0.21035670816E+03  0.50400001928E-02 0.  1.
       -1   -1    0    0    0  501  0.00000000000E+00  0.00000000000E+00 -0.57943490050E+03  0.57943490052E+03  0.50400001928E-02 0. -1.
    10030    2    1    2    0    0  0.00000000000E+00  0.00000000000E+00 -0.36907819240E+03  0.78979160868E+03  0.69824929146E+03 0.  0.
        2    1    3    3  502    0  0.28001099558E+03 -0.14093649396E+03 -0.35837144828E+03  0.47612954952E+03  0.25500000920E-02 0. -1.
       -2    1    3    3    0  502 -0.28001099558E+03  0.14093649396E+03 -0.10706744122E+02  0.31366205916E+03  0.25500000920E-02 0.  1.
</event>
<event>
 5   0  0.1109788E-02  0.6982073E+03  0.7818609E-02  0.9720303E-01
        2   -1    0    0  501    0  0.00000000000E+00  0.00000000000E+00  0.17890784612E+03  0.17890784613E+03  0.25500000920E-02 0. -1.
       -2   -1    0    0    0  501  0.00000000000E+00  0.00000000000E+00 -0.68120746864E+03  0.68120746864E+03  0.25500000920E-02 0.  1.
    10030    2    1    2    0    0  0.00000000000E+00  0.00000000000E+00 -0.50229962252E+03  0.86011531478E+03  0.69820730727E+03 0.  0.
        1    1    3    3  502    0 -0.27030313026E+03  0.88094513111E+02 -0.50073754658E+03  0.57581465425E+03  0.50400001928E-02 0.  1.
       -1    1    3    3    0  502  0.27030313026E+03 -0.88094513111E+02 -0.15620759381E+01  0.28430066052E+03  0.50400001928E-02 0. -1.
</event>
<event>
 5   0  0.1109788E-02  0.6986276E+03  0.7818609E-02  0.9719582E-01
       -2   -1    0    0    0  501  0.00000000000E+00  0.00000000000E+00  0.42646649851E+03  0.42646649852E+03  0.25500000920E-02 0. -1.
        2   -1    0    0  501    0  0.00000000000E+00  0.00000000000E+00 -0.28611887798E+03  0.28611887799E+03  0.25500000920E-02 0.  1.
    10030    2    1    2    0    0  0.00000000000E+00  0.00000000000E+00  0.14034762053E+03  0.71258537652E+03  0.69862755760E+03 0.  0.
        1    1    3    3  502    0 -0.52525203516E+02  0.11020210591E+03 -0.26365192606E+03  0.29054386810E+03  0.50400001928E-02 0.  1.
       -1    1    3    3    0  502  0.52525203516E+02 -0.11020210591E+03  0.40399954659E+03  0.42204150841E+03  0.50400001928E-02 0. -1.
</event>
<event>
 5   0  0.6609285E-03  0.6705089E+03  0.7818609E-02  0.9769039E-01
        1   -1    0    0  501    0  0.00000000000E+00  0.00000000000E+00  0.13917304725E+04  0.13917304725E+04  0.50400001928E-02 0. -1.
       -1   -1    0    0    0  501  0.00000000000E+00  0.00000000000E+00 -0.80759559929E+02  0.80759560086E+02  0.50400001928E-02 0.  1.
    10030    2    1    2    0    0  0.00000000000E+00  0.00000000000E+00  0.13109709126E+04  0.14724900326E+04  0.67050888324E+03 0.  0.
        2    1    3    3  502    0 -0.24436794454E+02 -0.32989285550E+03  0.77514830360E+03  0.84278190869E+03  0.25500000920E-02 0.  1.
       -2    1    3    3    0  502  0.24436794454E+02  0.32989285550E+03  0.53582260901E+03  0.62970812394E+03  0.25500000920E-02 0. -1.
</event>
<event>
 5   0  0.1109788E-02  0.7003077E+03  0.7818609E-02  0.9716706E-01
        2   -1    0    0  501    0  0.00000000000E+00  0.00000000000E+00  0.15380778875E+04  0.15380778875E+04  0.25500000920E-02 0.  1.
       -2   -1    0    0    0  501  0.00000000000E+00  0.00000000000E+00 -0.79714903179E+02  0.79714903220E+02  0.25500000920E-02 0. -1.
    10030    2    1    2    0    0  0.00000000000E+00  0.00000000000E+00  0.14583629843E+04  0.16177927907E+04  0.70030773213E+03 0.  0.
        1    1    3    3  502    0  0.13468150410E+03 -0.95282421273E+02  0.14426669591E+04  0.14520694894E+04  0.50400001928E-02 0.  1.
       -1    1    3    3    0  502 -0.13468150410E+03  0.95282421273E+02  0.15696025244E+02  0.16572330127E+03  0.50400001928E-02 0. -1.
</event>
<event>
 5   0  0.6246998E-03  0.7030781E+03  0.7818609E-02  0.9711983E-01
        1   -1    0    0  501    0  0.00000000000E+00  0.00000000000E+00  0.59304424784E+03  0.59304424786E+03  0.50400001928E-02 0. -1.
       -1   -1    0    0    0  501  0.00000000000E+00  0.00000000000E+00 -0.20838194690E+03  0.20838194696E+03  0.50400001928E-02 0.  1.
    10030    2    1    2    0    0  0.00000000000E+00  0.00000000000E+00  0.38466230094E+03  0.80142619483E+03  0.70307813221E+03 0.  0.
        4    1    3    3  502    0  0.11302494056E+03  0.24523055510E+03 -0.64244743820E+02  0.27756379870E+03  0.12699999809E+01 0.  1.
       -4    1    3    3    0  502 -0.11302494056E+03 -0.24523055510E+03  0.44890704476E+03  0.52386239613E+03  0.12699999809E+01 0. -1.
</event>
<event>
 5   0  0.4440500E-03  0.7120895E+03  0.7818609E-02  0.9696778E-01
       -4   -1    0    0    0  501  0.00000000000E+00  0.00000000000E+00  0.10035380157E+03  0.10036183731E+03  0.12699999809E+01 0.  1.
        4   -1    0    0  501    0  0.00000000000E+00  0.00000000000E+00 -0.12631504009E+04  0.12631510393E+04  0.12699999809E+01 0. -1.
    10030    2    1    2    0    0  0.00000000000E+00  0.00000000000E+00 -0.11627965993E+04  0.13635128766E+04  0.71208948411E+03 0.  0.
        4    1    3    3  502    0 -0.86676598501E+02 -0.22933548787E+02  0.78383405522E+02  0.11909807534E+03  0.12699999809E+01 0.  1.
       -4    1    3    3    0  502  0.86676598501E+02  0.22933548787E+02 -0.12411800048E+04  0.12444148013E+04  0.12699999809E+01 0. -1.
</event>
<event>
 5   0  0.6246998E-03  0.7000536E+03  0.7818609E-02  0.9717141E-01
        1   -1    0    0  501    0  0.00000000000E+00  0.00000000000E+00  0.27648769351E+03  0.27648769356E+03  0.50400001928E-02 0.  1.
       -1   -1    0    0    0  501  0.00000000000E+00  0.00000000000E+00 -0.44312556077E+03  0.44312556080E+03  0.50400001928E-02 0. -1.
    10030    2    1    2    0    0  0.00000000000E+00  0.00000000000E+00 -0.16663786726E+03  0.71961325436E+03  0.70005361012E+03 0.  0.
        4    1    3    3  502    0  0.18508762460E+03 -0.13982581776E+03  0.18612783022E+03  0.29741195365E+03  0.12699999809E+01 0.  1.
       -4    1    3    3    0  502 -0.18508762460E+03  0.13982581776E+03 -0.35276569749E+03  0.42220130070E+03  0.12699999809E+01 0. -1.
</event>
<event>
 5   0  0.1109788E-02  0.6991291E+03  0.7818609E-02  0.9718723E-01
        2   -1    0    0  501    0  0.00000000000E+00  0.00000000000E+00  0.62992618648E+03  0.62992618649E+03  0.25500000920E-02 0.  1.
       -2   -1    0    0    0  501  0.00000000000E+00  0.00000000000E+00 -0.19398365850E+03  0.19398365851E+03  0.25500000920E-02 0. -1.
    10030    2    1    2    0    0  0.00000000000E+00  0.00000000000E+00  0.43594252799E+03  0.82390984500E+03  0.69912913326E+03 0.  0.
        1    1    3    3  502    0  0.29961231701E+03 -0.83833113731E+02  0.30152962383E+02  0.31257756258E+03  0.50400001928E-02 0. -1.
       -1    1    3    3    0  502 -0.29961231701E+03  0.83833113731E+02  0.40578956560E+03  0.51133228242E+03  0.50400001928E-02 0.  1.
</event>
<event>
 5   0  0.6246998E-03  0.6639565E+03  0.7818609E-02  0.9780938E-01
        1   -1    0    0  501    0  0.00000000000E+00  0.00000000000E+00  0.48274068625E+03  0.48274068627E+03  0.50400001928E-02 0.  1.
       -1   -1    0    0    0  501  0.00000000000E+00  0.00000000000E+00 -0.22829969979E+03  0.22829969984E+03  0.50400001928E-02 0. -1.
    10030    2    1    2    0    0  0.00000000000E+00  0.00000000000E+00  0.25444098646E+03  0.71104038612E+03  0.66395648585E+03 0.  0.
        4    1    3    3  502    0  0.28866961481E+02  0.18610116132E+02  0.48083028076E+03  0.48205706061E+03  0.12699999809E+01 0.  1.
       -4    1    3    3    0  502 -0.28866961481E+02 -0.18610116132E+02 -0.22638929430E+03  0.22898332551E+03  0.12699999809E+01 0. -1.
</event>
<event>
 5   0  0.6609285E-03  0.6974291E+03  0.7818609E-02  0.9721639E-01
       -1   -1    0    0    0  501  0.00000000000E+00  0.00000000000E+00  0.17035296391E+03  0.17035296399E+03  0.50400001928E-02 0. -1.
        1   -1    0    0  501    0  0.00000000000E+00  0.00000000000E+00 -0.71382289380E+03  0.71382289382E+03  0.50400001928E-02 0.  1.
    10030    2    1    2    0    0  0.00000000000E+00  0.00000000000E+00 -0.54346992989E+03  0.88417585780E+03  0.69742912388E+03 0.  0.
        2    1    3    3  502    0  0.29793775008E+03 -0.86109277270E+02 -0.47386344067E+03  0.56632876579E+03  0.25500000920E-02 0.  1.
       -2    1    3    3    0  502 -0.29793775008E+03  0.86109277270E+02 -0.69606489219E+02  0.31784709201E+03  0.25500000920E-02 0. -1.
</event>
<event>
 5   0  0.1079446E-02  0.6995010E+03  0.7818609E-02  0.9718086E-01
        2   -1    0    0  501    0  0.00000000000E+00  0.00000000000E+00  0.13110180851E+04  0.13110180851E+04  0.25500000920E-02 0. -1.
       -2   -1    0    0    0  501  0.00000000000E+00  0.00000000000E+00 -0.93305651418E+02  0.93305651453E+02  0.25500000920E-02 0.  1.
    10030    2    1    2    0    0  0.00000000000E+00  0.00000000000E+00  0.12177124337E+04  0.14043237365E+04  0.69950095489E+03 0.  0.
        2    1    3    3  502    0  0.27901364017E+03  0.17046050598E+03  0.85815555489E+03  0.91833346443E+03  0.25500000920E-02 0. -1.
       -2    1    3    3    0  502 -0.27901364017E+03 -0.17046050598E+03  0.35955687877E+03  0.48599027210E+03  0.25500000920E-02 0.  1.
</event>
<event>
 5   0  0.1079446E-02  0.7015491E+03  0.7818609E-02  0.9714587E-01
        2   -1    0    0  501    0  0.00000000000E+00  0.00000000000E+00  0.20460695636E+03  0.20460695638E+03  0.25500000920E-02 0.  1.
       -2   -1    0    0    0  501  0.00000000000E+00  0.00000000000E+00 -0.60136168639E+03  0.60136168639E+03  0.25500000920E-02 0. -1.
    10030    2    1    2    0    0  0.00000000000E+00  0.00000000000E+00 -0.39675473002E+03  0.80596864277E+03  0.70154909831E+03 0.  0.
        2    1    3    3  502    0  0.33387539382E+03 -0.10744127376E+03 -0.20427780588E+03  0.40588893541E+03  0.25500000920E-02 0.  1.
       -2    1    3    3    0  502 -0.33387539382E+03  0.10744127376E+03 -0.19247692415E+03  0.40007970736E+03  0.25500000920E-02 0. -1.
</event>
<event>
 5   0  0.1099980E-02  0.6871524E+03  0.7818609E-02  0.9739459E-01
       -2   -1    0    0    0  501  0.00000000000E+00  0.00000000000E+00  0.19424464844E+03  0.19424464845E+03  0.25500000920E-02 0. -1.
        2   -1    0    0  501    0  0.00000000000E+00  0.00000000000E+00 -0.60771096116E+03  0.60771096116E+03  0.25500000920E-02 0.  1.
    10030    2    1    2    0    0  0.00000000000E+00  0.00000000000E+00 -0.41346631272E+03  0.80195560961E+03  0.68715239070E+03 0.  0.
        5    1    3    3  502    0 -0.19146549057E+03  0.22936489524E+03 -0.40463764112E+03  0.50301192815E+03  0.46999998093E+01 0.  1.
       -5    1    3    3    0  502  0.19146549057E+03 -0.22936489524E+03 -0.88286716010E+01  0.29894368147E+03  0.46999998093E+01 0. -1.
</event>
<event>
 5   0  0.1109788E-02  0.7004599E+03  0.7818609E-02  0.9716446E-01
       -2   -1    0    0    0  501  0.00000000000E+00  0.00000000000E+00  0.38318921016E+03  0.38318921017E+03  0.25500000920E-02 0. -1.
        2   -1    0    0  501    0  0.00000000000E+00  0.00000000000E+00 -0.32010558111E+03  0.32010558113E+03  0.25500000920E-02 0.  1.
    10030    2    1    2    0    0  0.00000000000E+00  0.00000000000E+00  0.63083629048E+02  0.70329479130E+03  0.70045986267E+03 0.  0.
        1    1    3    3  502    0  0.18868605371E+03 -0.29240405026E+03 -0.80951589945E+01  0.34809206698E+03  0.50400001928E-02 0. -1.
       -1    1    3    3    0  502 -0.18868605371E+03  0.29240405026E+03  0.71178788043E+02  0.35520272432E+03  0.50400001928E-02 0.  1.
</event>
<event>
 5   0  0.6689415E-03  0.6996883E+03  0.7818609E-02  0.9717765E-01
       -1   -1    0    0    0  501  0.00000000000E+00  0.00000000000E+00  0.46669215349E+03  0.46669215352E+03  0.50400001928E-02 0.  1.
        1   -1    0    0  501    0  0.00000000000E+00  0.00000000000E+00 -0.26225198969E+03  0.26225198974E+03  0.50400001928E-02 0. -1.
    10030    2    1    2    0    0  0.00000000000E+00  0.00000000000E+00  0.20444016380E+03  0.72894414325E+03  0.69968834734E+03 0.  0.
        1    1    3    3  502    0 -0.32709636447E+03  0.11395718433E+03  0.15339285593E+03  0.37882402219E+03  0.50400001928E-02 0.  1.
       -1    1    3    3    0  502  0.32709636447E+03 -0.11395718433E+03  0.51047307872E+02  0.35012012107E+03  0.50400001928E-02 0. -1.
</event>
<event>
 5   0  0.1100119E-02  0.7035201E+03  0.7818609E-02  0.9711231E-01
       -2   -1    0    0    0  501  0.00000000000E+00  0.00000000000E+00  0.11951261433E+03  0.11951261436E+03  0.25500000920E-02 0.  1.
        2   -1    0    0  501    0  0.00000000000E+00  0.00000000000E+00 -0.10353310459E+04  0.10353310459E+04  0.25500000920E-02 0. -1.
    10030    2    1    2    0    0  0.00000000000E+00  0.00000000000E+00 -0.91581843155E+03  0.11548436602E+04  0.70352006371E+03 0.  0.
        4    1    3    3  502    0 -0.19654136788E+03  0.41348244791E+02  0.16133576837E+02  0.20149464469E+03  0.12699999809E+01 0.  1.
       -4    1    3    3    0  502  0.19654136788E+03 -0.41348244791E+02 -0.93195200839E+03  0.95334901556E+03  0.12699999809E+01 0. -1.
</event>
<event>
 5   0  0.1099980E-02  0.6995455E+03  0.7818609E-02  0.9718010E-01
        2   -1    0    0  501    0  0.00000000000E+00  0.00000000000E+00  0.10166547770E+04  0.10166547770E+04  0.25500000920E-02 0.  1.
       -2   -1    0    0    0  501  0.00000000000E+00  0.00000000000E+00 -0.12033680507E+03  0.12033680510E+03  0.25500000920E-02 0. -1.
    10030    2    1    2    0    0  0.00000000000E+00  0.00000000000E+00  0.89631797198E+03  0.11369915821E+04  0.69954553175E+03 0.  0.
        5    1    3    3  502    0 -0.17581711035E+03 -0.27184976378E+03  0.66320018224E+03  0.73801796868E+03  0.46999998093E+01 0.  1.
       -5    1    3    3    0  502  0.17581711035E+03  0.27184976378E+03  0.23311778973E+03  0.39897361347E+03  0.46999998093E+01 0. -1.
</event>
<event>
 5   0  0.1109788E-02  0.6979626E+03  0.7818609E-02  0.9720723E-01
       -2   -1    0    0    0  501  0.00000000000E+00  0.00000000000E+00  0.23437367828E+03  0.23437367830E+03  0.25500000920E-02 0. -1.
        2   -1    0    0  501    0  0.00000000000E+00  0.00000000000E+00 -0.51963150097E+03  0.51963150098E+03  0.25500000920E-02 0.  1.
    10030    2    1    2    0    0  0.00000000000E+00  0.00000000000E+00 -0.28525782269E+03  0.75400517927E+03  0.69796259568E+03 0.  0.
        1    1    3    3  502    0  0.17266252462E+03 -0.16828178278E+03 -0.41519054228E+03  0.48011903967E+03  0.50400001928E-02 0.  1.
       -1    1    3    3    0  502 -0.17266252462E+03  0.16828178278E+03  0.12993271960E+03  0.27388613961E+03  0.50400001928E-02 0. -1.
</event>
<event>
 5   0  0.6689415E-03  0.6981711E+03  0.7818609E-02  0.9720365E-01
        1   -1    0    0  501    0  0.00000000000E+00  0.00000000000E+00  0.82240484429E+03  0.82240484430E+03  0.50400001928E-02 0.  1.
       -1   -1    0    0    0  501  0.00000000000E+00  0.00000000000E+00 -0.14817606613E+03  0.14817606621E+03  0.50400001928E-02 0. -1.
    10030    2    1    2    0    0  0.00000000000E+00  0.00000000000E+00  0.67422877816E+03  0.97058091052E+03  0.69817108115E+03 0.  0.
        1    1    3    3  502    0 -0.29865681855E+02 -0.26162691082E+03  0.18523960370E+02  0.26397677274E+03  0.50400001928E-02 0. -1.
       -1    1    3    3    0  502  0.29865681855E+02  0.26162691082E+03  0.65570481779E+03  0.70660413777E+03  0.50400001928E-02 0.  1.
</event>
<event>
 5   0  0.4440500E-03  0.7006731E+03  0.7818609E-02  0.9716082E-01
        4   -1    0    0  501    0  0.00000000000E+00  0.00000000000E+00  0.78600421300E+03  0.78600523902E+03  0.12699999809E+01 0. -1.
       -4   -1    0    0    0  501  0.00000000000E+00  0.00000000000E+00 -0.15614772919E+03  0.15615289376E+03  0.12699999809E+01 0.  1.
    10030    2    1    2    0    0  0.00000000000E+00  0.00000000000E+00  0.62985648381E+03  0.94215813278E+03  0.70067307424E+03 0.  0.
        2    1    3    3  502    0 -0.33373030084E+03 -0.61231263862E+02  0.43223288225E+03  0.54950017823E+03  0.25500000920E-02 0. -1.
       -2    1    3    3    0  502  0.33373030084E+03  0.61231263862E+02  0.19762360157E+03  0.39265795455E+03  0.25500000920E-02 0.  1.
</event>
<event>
 5   0  0.6609285E-03  0.6996734E+03  0.7818609E-02  0.9717791E-01
       -1   -1    0    0    0  501  0.00000000000E+00  0.00000000000E+00  0.46364944218E+03  0.46364944221E+03  0.50400001928E-02 0. -1.
        1   -1    0    0  501    0  0.00000000000E+00  0.00000000000E+00 -0.26396178269E+03  0.26396178274E+03  0.50400001928E-02 0.  1.
    10030    2    1    2    0    0  0.00000000000E+00  0.00000000000E+00  0.19968765949E+03  0.72761122495E+03  0.69967344763E+03 0.  0.
        2    1    3    3  502    0  0.54255046323E+02 -0.34271518545E+03  0.53471533951E+02  0.35107906993E+03  0.25500000920E-02 0. -1.
       -2    1    3    3    0  502 -0.54255046323E+02  0.34271518545E+03  0.14621612554E+03  0.37653215502E+03  0.25500000920E-02 0.  1.
</event>
<event>
 5   0  0.1079446E-02  0.6993362E+03  0.7818609E-02  0.9718368E-01
       -2   -1    0    0    0  501  0.00000000000E+00  0.00000000000E+00  0.13947104864E+03  0.13947104866E+03  0.25500000920E-02 0. -1.
        2   -1    0    0  501    0  0.00000000000E+00  0.00000000000E+00 -0.87665358534E+03  0.87665358535E+03  0.25500000920E-02 0.  1.
    10030    2    1    2    0    0  0.00000000000E+00  0.00000000000E+00 -0.73718253671E+03  0.10161246340E+04  0.69933624203E+03 0.  0.
        2    1    3    3  502    0 -0.29369329477E+03  0.59318371214E+02 -0.63050505005E+03  0.69807667108E+03  0.25500000920E-02 0.  1.
       -2    1    3    3    0  502  0.29369329477E+03 -0.59318371214E+02 -0.10667748665E+03  0.31804796293E+03  0.25500000920E-02 0. -1.
</event>
<event>
 5   0  0.1100119E-02  0.6994737E+03  0.7818609E-02  0.9718133E-01
        2   -1    0    0  501    0  0.00000000000E+00  0.00000000000E+00  0.82887840714E+03  0.82887840715E+03  0.25500000920E-02 0.  1.
       -2   -1    0    0    0  501  0.00000000000E+00  0.00000000000E+00 -0.14756791017E+03  0.14756791020E+03  0.25500000920E-02 0. -1.
    10030    2    1    2    0    0  0.00000000000E+00  0.00000000000E+00  0.68131049697E+03  0.97644631734E+03  0.69947367168E+03 0.  0.
        4    1    3    3  502    0 -0.29889577503E+03 -0.17888806301E+03  0.29707454669E+03  0.45781494362E+03  0.12699999809E+01 0. -1.
       -4    1    3    3    0  502  0.29889577503E+03  0.17888806301E+03  0.38423595028E+03  0.51863137372E+03  0.12699999809E+01 0.  1.
</event>
<event>
 5   0  0.1099980E-02  0.7002621E+03  0.7818609E-02  0.9716784E-01
        2   -1    0    0  501    0  0.00000000000E+00  0.00000000000E+00  0.37268265191E+03  0.37268265192E+03  0.25500000920E-02 0. -1.
       -2   -1    0    0    0  501  0.00000000000E+00  0.00000000000E+00 -0.32894407862E+03  0.32894407863E+03  0.25500000920E-02 0.  1.
    10030    2    1    2    0    0  0.00000000000E+00  0.00000000000E+00  0.43738573295E+02  0.70162673055E+03  0.70026209824E+03 0.  0.
        5    1    3    3  502    0  0.25112967556E+03  0.52033141344E+02 -0.21691446017E+03  0.33592787138E+03  0.46999998093E+01 0.  1.
       -5    1    3    3    0  502 -0.25112967556E+03 -0.52033141344E+02  0.26065303346E+03  0.36569885917E+03  0.46999998093E+01 0. -1.
</event>
<event>
 5   0  0.6246998E-03  0.7005528E+03  0.7818609E-02  0.9716287E-01
       -1   -1    0    0    0  501  0.00000000000E+00  0.00000000000E+00  0.16197276076E+03  0.16197276083E+03  0.50400001928E-02 0. -1.
        1   -1    0    0  501    0  0.00000000000E+00  0.00000000000E+00 -0.75749494750E+03  0.75749494751E+03  0.50400001928E-02 0.  1.
    10030    2    1    2    0    0  0.00000000000E+00  0.00000000000E+00 -0.59552218674E+03  0.91946770835E+03  0.70055277588E+03 0.  0.
        4    1    3    3  502    0 -0.15862047485E+03  0.84714360474E+02 -0.69228344693E+03  0.71525866769E+03  0.12699999809E+01 0.  1.
       -4    1    3    3    0  502  0.15862047485E+03 -0.84714360474E+02  0.96761260190E+02  0.20420904066E+03  0.12699999809E+01 0. -1.
</event>
<event>
 5   0  0.6246998E-03  0.6967590E+03  0.7818609E-02  0.9722791E-01
        1   -1    0    0  501    0  0.00000000000E+00  0.00000000000E+00  0.89160849248E+03  0.89160849250E+03  0.50400001928E-02 0. -1.
       -1   -1    0    0    0  501  0.00000000000E+00  0.00000000000E+00 -0.13612284104E+03  0.13612284113E+03  0.50400001928E-02 0.  1.
    10030    2    1    2    0    0  0.00000000000E+00  0.00000000000E+00  0.75548565144E+03  0.10277313336E+04  0.69675901471E+03 0.  0.
        4    1    3    3  502    0 -0.60477969177E+02 -0.18716741430E+03 -0.46378898396E+02  0.20209364376E+03  0.12699999809E+01 0.  1.
       -4    1    3    3    0  502  0.60477969177E+02  0.18716741430E+03  0.80186454984E+03  0.82563768986E+03  0.12699999809E+01 0. -1.
</event>
<event>
 5   0  0.1079446E-02  0.6999168E+03  0.7818609E-02  0.9717374E-01
       -2   -1    0    0    0  501  0.00000000000E+00  0.00000000000E+00  0.18492984290E+03  0.18492984292E+03  0.25500000920E-02 0.  1.
        2   -1    0    0  501    0  0.00000000000E+00  0.00000000000E+00 -0.66225599533E+03  0.66225599533E+03  0.25500000920E-02 0. -1.
    10030    2    1    2    0    0  0.00000000000E+00  0.00000000000E+00 -0.47732615243E+03  0.84718583825E+03  0.69991684416E+03 0.  0.
        2    1    3    3  502    0 -0.12591201082E+03  0.27926678608E+03 -0.44345890578E+03  0.53898012338E+03  0.25500000920E-02 0. -1.
       -2    1    3    3    0  502  0.12591201082E+03 -0.27926678608E+03 -0.33867246650E+02  0.30820571487E+03  0.25500000920E-02 0.  1.
</event>
<event>
 5   0  0.1109788E-02  0.7083179E+03  0.7818609E-02  0.9703112E-01
        2   -1    0    0  501    0  0.00000000000E+00  0.00000000000E+00  0.73182819202E+03  0.73182819202E+03  0.25500000920E-02 0.  1.
       -2   -1    0    0    0  501  0.00000000000E+00  0.00000000000E+00 -0.17139073713E+03  0.17139073715E+03  0.25500000920E-02 0. -1.
    10030    2    1    2    0    0  0.00000000000E+00  0.00000000000E+00  0.56043745489E+03  0.90321892917E+03  0.70831793226E+03 0.  0.
        1    1    3    3  502    0  0.18444385493E+03 -0.27120018087E+03  0.45063043821E+03  0.55734806503E+03  0.50400001928E-02 0. -1.
       -1    1    3    3    0  502 -0.18444385493E+03  0.27120018087E+03  0.10980701668E+03  0.34587086414E+03  0.50400001928E-02 0.  1.
</event>
<event>
 5   0  0.1100119E-02  0.7009569E+03  0.7818609E-02  0.9715597E-01
       -2   -1    0    0    0  501  0.00000000000E+00  0.00000000000E+00  0.22136707274E+03  0.22136707275E+03  0.25500000920E-02 0.  1.
        2   -1    0    0  501    0  0.00000000000E+00  0.00000000000E+00 -0.55489350706E+03  0.55489350707E+03  0.25500000920E-02 0. -1.
    10030    2    1    2    0    0  0.00000000000E+00  0.00000000000E+00 -0.33352643432E+03  0.77626057982E+03  0.70095692121E+03 0.  0.
        4    1    3    3  502    0 -0.85529817935E+01 -0.25745906945E+03 -0.42993852579E+03  0.50120562127E+03  0.12699999809E+01 0. -1.
       -4    1    3    3    0  502  0.85529817935E+01  0.25745906945E+03  0.96412091468E+02  0.27505495855E+03  0.12699999809E+01 0.  1.
</event>
<event>
 5   0  0.4440500E-03  0.7098081E+03  0.7818609E-02  0.9700604E-01
        4   -1    0    0  501    0  0.00000000000E+00  0.00000000000E+00  0.13104551972E+03  0.13105167354E+03  0.12699999809E+01 0.  1.
       -4   -1    0    0    0  501  0.00000000000E+00  0.00000000000E+00 -0.96113993747E+03  0.96114077653E+03  0.12699999809E+01 0. -1.
    10030    2    1    2    0    0  0.00000000000E+00  0.00000000000E+00 -0.83009441775E+03  0.10921924501E+04  0.70980814704E+03 0.  0.
        3    1    3    3  502    0  0.96762384674E+02  0.10799721118E+03  0.83388482078E+02  0.16727225070E+03  0.10100000352E+00 0.  1.
       -3    1    3    3    0  502 -0.96762384674E+02 -0.10799721118E+03 -0.91348289983E+03  0.92492019936E+03  0.10100000352E+00 0. -1.
</event>
<event>
 5   0  0.1099980E-02  0.6867219E+03  0.7818609E-02  0.9740213E-01
       -2   -1    0    0    0  501  0.00000000000E+00  0.00000000000E+00  0.28358986330E+03  0.28358986331E+03  0.25500000920E-02 0.  1.
        2   -1    0    0  501    0  0.00000000000E+00  0.00000000000E+00 -0.41572972268E+03  0.41572972269E+03  0.25500000920E-02 0. -1.
    10030    2    1    2    0    0  0.00000000000E+00  0.00000000000E+00 -0.13213985938E+03  0.69931958600E+03  0.68672188033E+03 0.  0.
        5    1    3    3  502    0 -0.22659926499E+03  0.18704026870E+03 -0.24693252435E+03  0.38383466570E+03  0.46999998093E+01 0. -1.
       -5    1    3    3    0  502  0.22659926499E+03 -0.18704026870E+03  0.11479266497E+03  0.31548492030E+03  0.46999998093E+01 0.  1.
</event>
<event>
 5   0  0.6246998E-03  0.6928073E+03  0.7818609E-02  0.9729612E-01
       -1   -1    0    0    0  501  0.00000000000E+00  0.00000000000E+00  0.17632829237E+03  0.17632829244E+03  0.50400001928E-02 0. -1.
        1   -1    0    0  501    0  0.00000000000E+00  0.00000000000E+00 -0.68052321427E+03  0.68052321429E+03  0.50400001928E-02 0.  1.
    10030    2    1    2    0    0  0.00000000000E+00  0.00000000000E+00 -0.50419492190E+03  0.85685150674E+03  0.69280732193E+03 0.  0.
        4    1    3    3  502    0 -0.14325617549E+03 -0.16411229220E+03  0.81005122817E+02  0.23241905922E+03  0.12699999809E+01 0. -1.
       -4    1    3    3    0  502  0.14325617549E+03  0.16411229220E+03 -0.58520004472E+03  0.62443244751E+03  0.12699999809E+01 0.  1.
</event>
<event>
 5   0  0.6689415E-03  0.7008596E+03  0.7818609E-02  0.9715763E-01
        1   -1    0    0  501    0  0.00000000000E+00  0.00000000000E+00  0.36769442666E+03  0.36769442669E+03  0.50400001928E-02 0.  1.
       -1   -1    0    0    0  501  0.00000000000E+00  0.00000000000E+00 -0.33397585295E+03  0.33397585298E+03  0.50400001928E-02 0. -1.
    10030    2    1    2    0    0  0.00000000000E+00  0.00000000000E+00  0.33718573715E+02  0.70167027968E+03  0.70085964299E+03 0.  0.
        1    1    3    3  502    0  0.98385897481E+02 -0.33253240921E+03  0.67350463259E+02  0.35326147954E+03  0.50400001928E-02 0.  1.
       -1    1    3    3    0  502 -0.98385897481E+02  0.33253240921E+03 -0.33631889544E+02  0.34840880014E+03  0.50400001928E-02 0. -1.
</event>
<event>
 5   0  0.6689415E-03  0.7007177E+03  0.7818609E-02  0.9716006E-01
       -1   -1    0    0    0  501  0.00000000000E+00  0.00000000000E+00  0.19009172938E+03  0.19009172944E+03  0.50400001928E-02 0.  1.
        1   -1    0    0  501    0  0.00000000000E+00  0.00000000000E+00 -0.64574790732E+03  0.64574790734E+03  0.50400001928E-02 0. -1.
    10030    2    1    2    0    0  0.00000000000E+00  0.00000000000E+00 -0.45565617795E+03  0.83583963679E+03  0.70071773627E+03 0.  0.
        1    1    3    3  502    0 -0.22352986790E+03  0.24115446909E+03 -0.83548191754E+02  0.33926594314E+03  0.50400001928E-02 0. -1.
       -1    1    3    3    0  502  0.22352986790E+03 -0.24115446909E+03 -0.37210798619E+03  0.49657369364E+03  0.50400001928E-02 0.  1.
</event>
<event>
 5   0  0.4440500E-03  0.7022463E+03  0.7818609E-02  0.9713398E-01
        4   -1    0    0  501    0  0.00000000000E+00  0.00000000000E+00  0.30552059113E+03  0.30552323071E+03  0.12699999809E+01 0.  1.
       -4   -1    0    0    0  501  0.00000000000E+00  0.00000000000E+00 -0.40352709137E+03  0.40352908987E+03  0.12699999809E+01 0. -1.
    10030    2    1    2    0    0  0.00000000000E+00  0.00000000000E+00 -0.98006500237E+02  0.70905232058E+03  0.70224633800E+03 0.  0.
        1    1    3    3  502    0  0.13749246350E+03  0.17240912673E+03  0.22688177319E+03  0.31639283103E+03  0.50400001928E-02 0.  1.
       -1    1    3    3    0  502 -0.13749246350E+03 -0.17240912673E+03 -0.32488827342E+03  0.39265948955E+03  0.50400001928E-02 0. -1.
</event>
<event>
 5   0  0.4440500E-03  0.6988063E+03  0.7818609E-02  0.9719276E-01
        3   -1    0    0  501    0  0.00000000000E+00  0.00000000000E+00  0.17179703127E+04  0.17179703157E+04  0.10100000352E+00 0. -1.
       -3   -1    0    0    0  501  0.00000000000E+00  0.00000000000E+00 -0.71062056816E+02  0.71062128591E+02  0.10100000352E+00 0.  1.
    10030    2    1    2    0    0  0.00000000000E+00  0.00000000000E+00  0.16469082559E+04  0.17890324443E+04  0.69880632748E+03 0.  0.
        4    1    3    3  502    0 -0.14463631421E+03  0.15057342295E+02  0.16368114087E+04  0.16432588315E+04  0.12699999809E+01 0. -1.
       -4    1    3    3    0  502  0.14463631421E+03 -0.15057342295E+02  0.10096847209E+02  0.14577361273E+03  0.12699999809E+01 0.  1.
</event>
<event>
 5   0  0.6689415E-03  0.7088366E+03  0.7818609E-02  0.9702239E-01
       -1   -1    0    0    0  501  0.00000000000E+00  0.00000000000E+00  0.65175236871E+03  0.65175236873E+03  0.50400001928E-02 0.  1.
        1   -1    0    0  501    0  0.00000000000E+00  0.00000000000E+00 -0.19273014427E+03  0.19273014434E+03  0.50400001928E-02 0. -1.
    10030    2    1    2    0    0  0.00000000000E+00  0.00000000000E+00  0.45902222444E+03  0.84448251306E+03  0.70883659072E+03 0.  0.
        1    1    3    3  502    0 -0.29123114460E+03  0.10610204447E+03  0.24752019532E+02  0.31094354137E+03  0.50400001928E-02 0.  1.
       -1    1    3    3    0  502  0.29123114460E+03 -0.10610204447E+03  0.43427020490E+03  0.53353897169E+03  0.50400001928E-02 0. -1.
</event>
<event>
 5   0  0.1109788E-02  0.6993654E+03  0.7818609E-02  0.9718318E-01
        2   -1    0    0  501    0  0.00000000000E+00  0.00000000000E+00  0.10154791227E+03  0.10154791230E+03  0.25500000920E-02 0.  1.
       -2   -1    0    0    0  501  0.00000000000E+00  0.00000000000E+00 -0.12041407303E+04  0.12041407303E+04  0.25500000920E-02 0. -1.
    10030    2    1    2    0    0  0.00000000000E+00  0.00000000000E+00 -0.11025928180E+04  0.13056886426E+04  0.69936536163E+03 0.  0.
        1    1    3    3  502    0  0.19613792864E+03  0.20972469898E+03 -0.17872896838E+03  0.33822859220E+03  0.50400001928E-02 0.  1.
       -1    1    3    3    0  502 -0.19613792864E+03 -0.20972469898E+03 -0.92386384962E+03  0.96746005038E+03  0.50400001928E-02 0. -1.
</event>
<event>
 5   0  0.6689415E-03  0.7002590E+03  0.7818609E-02  0.9716789E-01
       -1   -1    0    0    0  501  0.00000000000E+00  0.00000000000E+00  0.29123700475E+03  0.29123700479E+03  0.50400001928E-02 0.  1.
        1   -1    0    0  501    0  0.00000000000E+00  0.00000000000E+00 -0.42093092065E+03  0.42093092068E+03  0.50400001928E-02 0. -1.
    10030    2    1    2    0    0  0.00000000000E+00  0.00000000000E+00 -0.12969391590E+03  0.71216792548E+03  0.70025898227E+03 0.  0.
        1    1    3    3  502    0  0.10278043017E+03 -0.19746643772E+02 -0.40465028966E+03  0.41796603177E+03  0.50400001928E-02 0. -1.
       -1    1    3    3    0  502 -0.10278043017E+03  0.19746643772E+02  0.27495637376E+03  0.29420189371E+03  0.50400001928E-02 0.  1.
</event>
<event>
 5   0  0.1100119E-02  0.6986782E+03  0.7818609E-02  0.9719495E-01
        2   -1    0    0  501    0  0.00000000000E+00  0.00000000000E+00  0.74767923945E+03  0.74767923946E+03  0.25500000920E-02 0. -1.
       -2   -1    0    0    0  501  0.00000000000E+00  0.00000000000E+00 -0.16322216007E+03  0.16322216009E+03  0.25500000920E-02 0.  1.
    10030    2    1    2    0    0  0.00000000000E+00  0.00000000000E+00  0.58445707938E+03  0.91090139954E+03  0.69867823928E+03 0.  0.
        4    1    3    3  502    0  0.21126700094E+03  0.12857157652E+03  0.61389239717E+03  0.66183826134E+03  0.12699999809E+01 0. -1.
       -4    1    3    3    0  502 -0.21126700094E+03 -0.12857157652E+03 -0.29435317787E+02  0.24906313820E+03  0.12699999809E+01 0.  1.
</event>
<event>
 5   0  0.1119786E-02  0.7004775E+03  0.7818609E-02  0.9716416E-01
       -2   -1    0    0    0  501  0.00000000000E+00  0.00000000000E+00  0.23531005546E+03  0.23531005547E+03  0.25500000920E-02 0. -1.
        2   -1    0    0  501    0  0.00000000000E+00  0.00000000000E+00 -0.52130022364E+03  0.52130022365E+03  0.25500000920E-02 0.  1.
    10030    2    1    2    0    0  0.00000000000E+00  0.00000000000E+00 -0.28599016818E+03  0.75661027912E+03  0.70047750726E+03 0.  0.
        3    1    3    3  502    0 -0.20622389011E+03  0.10666022049E+03 -0.42623457494E+03  0.48536647861E+03  0.10100000352E+00 0.  1.
       -3    1    3    3    0  502  0.20622389011E+03 -0.10666022049E+03  0.14024440676E+03  0.27124380051E+03  0.10100000352E+00 0. -1.
</event>
<event>
 5   0  0.1079446E-02  0.7024039E+03  0.7818609E-02  0.9713130E-01
       -2   -1    0    0    0  501  0.00000000000E+00  0.00000000000E+00  0.10719593374E+03  0.10719593377E+03  0.25500000920E-02 0. -1.
        2   -1    0    0  501    0  0.00000000000E+00  0.00000000000E+00 -0.11506294531E+04  0.11506294531E+04  0.25500000920E-02 0.  1.
    10030    2    1    2    0    0  0.00000000000E+00  0.00000000000E+00 -0.10434335194E+04  0.12578253869E+04  0.70240386856E+03 0.  0.
        2    1    3    3  502    0  0.21505801747E+02  0.35052977860E+03 -0.51629301101E+03  0.62441340346E+03  0.25500000920E-02 0. -1.
       -2    1    3    3    0  502 -0.21505801747E+02 -0.35052977860E+03 -0.52714050837E+03  0.63341198344E+03  0.25500000920E-02 0.  1.
</event>
<event>
 5   0  0.6990118E-03  0.6686143E+03  0.7818609E-02  0.9772464E-01
       -1   -1    0    0    0  501  0.00000000000E+00  0.00000000000E+00  0.19928598184E+03  0.19928598191E+03  0.50400001928E-02 0.  1.
        1   -1    0    0  501    0  0.00000000000E+00  0.00000000000E+00 -0.56080844254E+03  0.56080844257E+03  0.50400001928E-02 0. -1.
    10030    2    1    2    0    0  0.00000000000E+00  0.00000000000E+00 -0.36152246070E+03  0.76009442447E+03  0.66861427185E+03 0.  0.
        5    1    3    3  502    0 -0.11344978714E+03 -0.24751032083E+03 -0.40121930332E+03  0.48490332282E+03  0.46999998093E+01 0. -1.
       -5    1    3    3    0  502  0.11344978714E+03  0.24751032083E+03  0.39696842626E+02  0.27519110166E+03  0.46999998093E+01 0.  1.
</event>
<event>
 5   0  0.6689415E-03  0.7026812E+03  0.7818609E-02  0.9712658E-01
        1   -1    0    0  501    0  0.00000000000E+00  0.00000000000E+00  0.38523737762E+03  0.38523737766E+03  0.50400001928E-02 0. -1.
       -1   -1    0    0    0  501  0.00000000000E+00  0.00000000000E+00 -0.32042641881E+03  0.32042641885E+03  0.50400001928E-02 0.  1.
    10030    2    1    2    0    0  0.00000000000E+00  0.00000000000E+00  0.64810958817E+02  0.70566379651E+03  0.70268124588E+03 0.  0.
        1    1    3    3  502    0 -0.14126475317E+03  0.24252352909E+03 -0.17983689321E+03  0.33333871788E+03  0.50400001928E-02 0.  1.
       -1    1    3    3    0  502  0.14126475317E+03 -0.24252352909E+03  0.24464785203E+03  0.37232507863E+03  0.50400001928E-02 0. -1.
</event>
<event>
 5   0  0.1100119E-02  0.7013523E+03  0.7818609E-02  0.9714922E-01
        2   -1    0    0  501    0  0.00000000000E+00  0.00000000000E+00  0.28244874212E+03  0.28244874213E+03  0.25500000920E-02 0. -1.
       -2   -1    0    0    0  501  0.00000000000E+00  0.00000000000E+00 -0.43538436654E+03  0.43538436655E+03  0.25500000920E-02 0.  1.
    10030    2    1    2    0    0  0.00000000000E+00  0.00000000000E+00 -0.15293562442E+03  0.71783310868E+03  0.70135231282E+03 0.  0.
        4    1    3    3  502    0  0.33534116121E+02  0.11781948779E+03  0.25983548875E+03  0.28726653610E+03  0.12699999809E+01 0. -1.
       -4    1    3    3    0  502 -0.33534116121E+02 -0.11781948779E+03 -0.41277111317E+03  0.43056657258E+03  0.12699999809E+01 0.  1.
</event>
<event>
 5   0  0.1100119E-02  0.6973282E+03  0.7818609E-02  0.9721812E-01
       -2   -1    0    0    0  501  0.00000000000E+00  0.00000000000E+00  0.21765978092E+03  0.21765978093E+03  0.25500000920E-02 0. -1.
        2   -1    0    0  501    0  0.00000000000E+00  0.00000000000E+00 -0.55851687838E+03  0.55851687839E+03  0.25500000920E-02 0.  1.
    10030    2    1    2    0    0  0.00000000000E+00  0.00000000000E+00 -0.34085709746E+03  0.77617665932E+03  0.69732821941E+03 0.  0.
        4    1    3    3  502    0 -0.34526376800E+03  0.96089789134E+01 -0.22340945896E+03  0.41135483615E+03  0.12699999809E+01 0.  1.
       -4    1    3    3    0  502  0.34526376800E+03 -0.96089789134E+01 -0.11744763850E+03  0.36482182317E+03  0.12699999809E+01 0. -1.
</event>
<event>
 5   0  0.1099980E-02  0.7003058E+03  0.7818609E-02  0.9716709E-01
        2   -1    0    0  501    0  0.00000000000E+00  0.00000000000E+00  0.36439631269E+03  0.36439631270E+03  0.25500000920E-02 0. -1.
       -2   -1    0    0    0  501  0.00000000000E+00  0.00000000000E+00 -0.33646619888E+03  0.33646619889E+03  0.25500000920E-02 0.  1.
    10030    2    1    2    0    0  0.00000000000E+00  0.00000000000E+00  0.27930113808E+02  0.70086251159E+03  0.70030576814E+03 0.  0.
        5    1    3    3  502    0  0.19008635406E+02 -0.20085089692E+03  0.30034380312E+03  0.36184375231E+03  0.46999998093E+01 0. -1.
       -5    1    3    3    0  502 -0.19008635406E+02  0.20085089692E+03 -0.27241368932E+03  0.33901875927E+03  0.46999998093E+01 0.  1.
</event>
<event>
 5   0  0.1119786E-02  0.7003618E+03  0.7818609E-02  0.9716614E-01
        2   -1    0    0  501    0  0.00000000000E+00  0.00000000000E+00  0.81330641816E+03  0.81330641816E+03  0.25500000920E-02 0.  1.
       -2   -1    0    0    0  501  0.00000000000E+00  0.00000000000E+00 -0.15077548105E+03  0.15077548107E+03  0.25500000920E-02 0. -1.
    10030    2    1    2    0    0  0.00000000000E+00  0.00000000000E+00  0.66253093711E+03  0.96408189923E+03  0.70036181064E+03 0.  0.
        3    1    3    3  502    0 -0.22124556218E+01  0.22565526317E+02 -0.14976394958E+03  0.15147062003E+03  0.10100000352E+00 0. -1.
       -3    1    3    3    0  502  0.22124556218E+01 -0.22565526317E+02  0.81229488669E+03  0.81261127920E+03  0.10100000352E+00 0.  1.
</event>
<event>
 5   0  0.4440500E-03  0.7038710E+03  0.7818609E-02  0.9710635E-01
       -3   -1    0    0    0  501  0.00000000000E+00  0.00000000000E+00  0.80835860331E+03  0.80835860962E+03  0.10100000352E+00 0.  1.
        3   -1    0    0  501    0  0.00000000000E+00  0.00000000000E+00 -0.15322231747E+03  0.15322235076E+03  0.10100000352E+00 0. -1.
    10030    2    1    2    0    0  0.00000000000E+00  0.00000000000E+00  0.65513628583E+03  0.96158096038E+03  0.70387100405E+03 0.  0.
        1    1    3    3  502    0  0.27910866025E+03  0.20008342694E+03  0.22242408154E+03  0.40915460897E+03  0.50400001928E-02 0. -1.
       -1    1    3    3    0  502 -0.27910866025E+03 -0.20008342694E+03  0.43271220429E+03  0.55242635141E+03  0.50400001928E-02 0.  1.
</event>
<event>
 5   0  0.1100119E-02  0.6986866E+03  0.7818609E-02  0.9719481E-01
        2   -1    0    0  501    0  0.00000000000E+00  0.00000000000E+00  0.15921303551E+04  0.15921303551E+04  0.25500000920E-02 0.  1.
       -2   -1    0    0    0  501  0.00000000000E+00  0.00000000000E+00 -0.76652477064E+02  0.76652477107E+02  0.25500000920E-02 0. -1.
    10030    2    1    2    0    0  0.00000000000E+00  0.00000000000E+00  0.15154778780E+04  0.16687828322E+04  0.69868658371E+03 0.  0.
        4    1    3    3  502    0  0.10389787733E+03  0.13360738451E+03  0.14876594375E+04  0.14972567973E+04  0.12699999809E+01 0.  1.
       -4    1    3    3    0  502 -0.10389787733E+03 -0.13360738451E+03  0.27818440480E+02  0.17152603488E+03  0.12699999809E+01 0. -1.
</event>
<event>
 5   0  0.4440500E-03  0.7149757E+03  0.7818609E-02  0.9691959E-01
        3   -1    0    0  501    0  0.00000000000E+00  0.00000000000E+00  0.41026013398E+03  0.41026014641E+03  0.10100000352E+00 0. -1.
       -3   -1    0    0    0  501  0.00000000000E+00  0.00000000000E+00 -0.31150370289E+03  0.31150371927E+03  0.10100000352E+00 0.  1.
    10030    2    1    2    0    0  0.00000000000E+00  0.00000000000E+00  0.98756431090E+02  0.72176386568E+03  0.71497569547E+03 0.  0.
        4    1    3    3  502    0  0.86804286444E+02  0.34560555520E+03  0.78246300234E+02  0.36483185213E+03  0.12699999809E+01 0. -1.
       -4    1    3    3    0  502 -0.86804286444E+02 -0.34560555520E+03  0.20510130856E+02  0.35693201355E+03  0.12699999809E+01 0.  1.
</event>
<event>
 5   0  0.6785252E-03  0.7025158E+03  0.7818609E-02  0.9712939E-01
       -1   -1    0    0    0  501  0.00000000000E+00  0.00000000000E+00  0.80601484526E+02  0.80601484683E+02  0.50400001928E-02 0.  1.
        1   -1    0    0  501    0  0.00000000000E+00  0.00000000000E+00 -0.15307674031E+04  0.15307674031E+04  0.50400001928E-02 0. -1.
    10030    2    1    2    0    0  0.00000000000E+00  0.00000000000E+00 -0.14501659186E+04  0.16113688878E+04  0.70251583694E+03 0.  0.
        3    1    3    3  502    0 -0.26549674275E+03  0.22888569558E+03 -0.67354161448E+03  0.75929934722E+03  0.10100000352E+00 0.  1.
       -3    1    3    3    0  502  0.26549674275E+03 -0.22888569558E+03 -0.77662430411E+03  0.85206954058E+03  0.10100000352E+00 0. -1.
</event>
<event>
 5   0  0.6609285E-03  0.6999908E+03  0.7818609E-02  0.9717248E-01
        1   -1    0    0  501    0  0.00000000000E+00  0.00000000000E+00  0.20307724194E+04  0.20307724194E+04  0.50400001928E-02 0. -1.
       -1   -1    0    0    0  501  0.00000000000E+00  0.00000000000E+00 -0.60320293582E+02  0.60320293793E+02  0.50400001928E-02 0.  1.
    10030    2    1    2    0    0  0.00000000000E+00  0.00000000000E+00  0.19704521258E+04  0.20910927132E+04  0.69999082498E+03 0.  0.
        2    1    3    3  502    0 -0.24233383488E+03  0.25200149900E+03  0.10339793401E+04  0.10914869302E+04  0.25500000920E-02 0. -1.
       -2    1    3    3    0  502  0.24233383488E+03 -0.25200149900E+03  0.93647278570E+03  0.99960578299E+03  0.25500000920E-02 0.  1.
</event>
<event>
 5   0  0.4440500E-03  0.7002202E+03  0.7818609E-02  0.9716856E-01
       -3   -1    0    0    0  501  0.00000000000E+00  0.00000000000E+00  0.30985333877E+03  0.30985335523E+03  0.10100000352E+00 0. -1.
        3   -1    0    0  501    0  0.00000000000E+00  0.00000000000E+00 -0.39559710303E+03  0.39559711592E+03  0.10100000352E+00 0.  1.
    10030    2    1    2    0    0  0.00000000000E+00  0.00000000000E+00 -0.85743764260E+02  0.70545047115E+03  0.70022023260E+03 0.  0.
        4    1    3    3  502    0 -0.18495045409E+03  0.48335246101E+02 -0.33837575681E+03  0.38864216469E+03  0.12699999809E+01 0.  1.
       -4    1    3    3    0  502  0.18495045409E+03 -0.48335246101E+02  0.25263199255E+03  0.31680830646E+03  0.12699999809E+01 0. -1.
</event>
<event>
 5   0  0.1100119E-02  0.7012871E+03  0.7818609E-02  0.9715034E-01
        2   -1    0    0  501    0  0.00000000000E+00  0.00000000000E+00  0.25777402568E+03  0.25777402569E+03  0.25500000920E-02 0.  1.
       -2   -1    0    0    0  501  0.00000000000E+00  0.00000000000E+00 -0.47697161694E+03  0.47697161695E+03  0.25500000920E-02 0. -1.
    10030    2    1    2    0    0  0.00000000000E+00  0.00000000000E+00 -0.21919759127E+03  0.73474564264E+03  0.70128708484E+03 0.  0.
        4    1    3    3  502    0 -0.25742087182E+03 -0.22174193261E+03 -0.18778024804E+02  0.34027814658E+03  0.12699999809E+01 0.  1.
       -4    1    3    3    0  502  0.25742087182E+03  0.22174193261E+03 -0.20041956646E+03  0.39446749606E+03  0.12699999809E+01 0. -1.
</event>
<event>
 5   0  0.1119786E-02  0.7009235E+03  0.7818609E-02  0.9715654E-01
       -2   -1    0    0    0  501  0.00000000000E+00  0.00000000000E+00  0.18445263256E+03  0.18445263258E+03  0.25500000920E-02 0.  1.
        2   -1    0    0  501    0  0.00000000000E+00  0.00000000000E+00 -0.66588065074E+03  0.66588065075E+03  0.25500000920E-02 0. -1.
    10030    2    1    2    0    0  0.00000000000E+00  0.00000000000E+00 -0.48142801818E+03  0.85033328333E+03  0.70092350228E+03 0.  0.
        3    1    3    3  502    0 -0.21432732779E+03  0.10690245902E+03  0.69673000373E+02  0.24943671816E+03  0.10100000352E+00 0.  1.
       -3    1    3    3    0  502  0.21432732779E+03 -0.10690245902E+03 -0.55110101856E+03  0.60089656517E+03  0.10100000352E+00 0. -1.
</event>
<event>
 5   0  0.6990118E-03  0.6999077E+03  0.7818609E-02  0.9717390E-01
        1   -1    0    0  501    0  0.00000000000E+00  0.00000000000E+00  0.20713094997E+03  0.20713095003E+03  0.50400001928E-02 0. -1.
       -1   -1    0    0    0  501  0.00000000000E+00  0.00000000000E+00 -0.59125728829E+03  0.59125728831E+03  0.50400001928E-02 0.  1.
    10030    2    1    2    0    0  0.00000000000E+00  0.00000000000E+00 -0.38412633832E+03  0.79838823834E+03  0.69990766201E+03 0.  0.
        5    1    3    3  502    0  0.22419123086E+03 -0.15124992902E+01 -0.49853222429E+03  0.54664473317E+03  0.46999998093E+01 0.  1.
       -5    1    3    3    0  502 -0.22419123086E+03  0.15124992902E+01  0.11440588598E+03  0.25174350517E+03  0.46999998093E+01 0. -1.
</event>
<event>
 5   0  0.1079446E-02  0.7000734E+03  0.7818609E-02  0.9717107E-01
       -2   -1    0    0    0  501  0.00000000000E+00  0.00000000000E+00  0.11332027703E+03  0.11332027706E+03  0.25500000920E-02 0. -1.
        2   -1    0    0  501    0  0.00000000000E+00  0.00000000000E+00 -0.10812336031E+04  0.10812336031E+04  0.25500000920E-02 0.  1.
    10030    2    1    2    0    0  0.00000000000E+00  0.00000000000E+00 -0.96791332610E+03  0.11945538802E+04  0.70007340032E+03 0.  0.
        2    1    3    3  502    0  0.34307213559E+03 -0.68783568759E+02 -0.50067708866E+03  0.61082502950E+03  0.25500000920E-02 0.  1.
       -2    1    3    3    0  502 -0.34307213559E+03  0.68783568759E+02 -0.46723623743E+03  0.58372885069E+03  0.25500000920E-02 0. -1.
</event>
<event>
 5   0  0.4440500E-03  0.7008857E+03  0.7818609E-02  0.9715719E-01
        3   -1    0    0  501    0  0.00000000000E+00  0.00000000000E+00  0.12553166840E+04  0.12553166881E+04  0.10100000352E+00 0. -1.
       -3   -1    0    0    0  501  0.00000000000E+00  0.00000000000E+00 -0.97832019236E+02  0.97832071371E+02  0.10100000352E+00 0.  1.
    10030    2    1    2    0    0  0.00000000000E+00  0.00000000000E+00  0.11574846648E+04  0.13531487594E+04  0.70088573676E+03 0.  0.
        1    1    3    3  502    0  0.11118962430E+03 -0.20901190046E+02  0.12190885105E+04  0.12243270759E+04  0.50400001928E-02 0. -1.
       -1    1    3    3    0  502 -0.11118962430E+03  0.20901190046E+02 -0.61603845786E+02  0.12882168349E+03  0.50400001928E-02 0.  1.
</event>
<event>
 5   0  0.1100119E-02  0.6933565E+03  0.7818609E-02  0.9728661E-01
       -2   -1    0    0    0  501  0.00000000000E+00  0.00000000000E+00  0.12385332624E+03  0.12385332627E+03  0.25500000920E-02 0. -1.
        2   -1    0    0  501    0  0.00000000000E+00  0.00000000000E+00 -0.97038825344E+03  0.97038825344E+03  0.25500000920E-02 0.  1.
    10030    2    1    2    0    0  0.00000000000E+00  0.00000000000E+00 -0.84653492720E+03  0.10942415797E+04  0.69335651132E+03 0.  0.
        4    1    3    3  502    0  0.16314749522E+03  0.28039337326E+03 -0.61621025757E+03  0.69638656176E+03  0.12699999809E+01 0.  1.
       -4    1    3    3    0  502 -0.16314749522E+03 -0.28039337326E+03 -0.23032466962E+03  0.39785501794E+03  0.12699999809E+01 0. -1.
</event>
<event>
 5   0  0.6246998E-03  0.7006754E+03  0.7818609E-02  0.9716078E-01
       -1   -1    0    0    0  501  0.00000000000E+00  0.00000000000E+00  0.38634122984E+03  0.38634122987E+03  0.50400001928E-02 0. -1.
        1   -1    0    0  501    0  0.00000000000E+00  0.00000000000E+00 -0.31768938279E+03  0.31768938283E+03  0.50400001928E-02 0.  1.
    10030    2    1    2    0    0  0.00000000000E+00  0.00000000000E+00  0.68651847048E+02  0.70403061271E+03  0.70067540811E+03 0.  0.
        4    1    3    3  502    0 -0.29858490786E+03  0.39313058318E+01  0.21841484100E+03  0.36996629311E+03  0.12699999809E+01 0. -1.
       -4    1    3    3    0  502  0.29858490786E+03 -0.39313058318E+01 -0.14976299395E+03  0.33406431960E+03  0.12699999809E+01 0.  1.
</event>
<event>
 5   0  0.1079446E-02  0.7036665E+03  0.7818609E-02  0.9710983E-01
        2   -1    0    0  501    0  0.00000000000E+00  0.00000000000E+00  0.33892421489E+03  0.33892421490E+03  0.25500000920E-02 0.  1.
       -2   -1    0    0    0  501  0.00000000000E+00  0.00000000000E+00 -0.36523391653E+03  0.36523391654E+03  0.25500000920E-02 0. -1.
    10030    2    1    2    0    0  0.00000000000E+00  0.00000000000E+00 -0.26309701636E+02  0.70415813144E+03  0.70366645058E+03 0.  0.
        2    1    3    3  502    0 -0.35015073109E+03  0.83443901551E+00  0.21225925581E+02  0.35079448499E+03  0.25500000920E-02 0. -1.
       -2    1    3    3    0  502  0.35015073109E+03 -0.83443901551E+00 -0.47535627217E+02  0.35336364645E+03  0.25500000920E-02 0.  1.
</event>
<event>
 5   0  0.6785252E-03  0.6986262E+03  0.7818609E-02  0.9719584E-01
        1   -1    0    0  501    0  0.00000000000E+00  0.00000000000E+00  0.51538726886E+03  0.51538726888E+03  0.50400001928E-02 0. -1.
       -1   -1    0    0    0  501  0.00000000000E+00  0.00000000000E+00 -0.23675331485E+03  0.23675331490E+03  0.50400001928E-02 0.  1.
    10030    2    1    2    0    0  0.00000000000E+00  0.00000000000E+00  0.27863395401E+03  0.75214058378E+03  0.69862620724E+03 0.  0.
        3    1    3    3  502    0 -0.89289997945E+02  0.33092999788E+03  0.21179592644E+03  0.40292045355E+03  0.10100000352E+00 0.  1.
       -3    1    3    3    0  502  0.89289997945E+02 -0.33092999788E+03  0.66838027572E+02  0.34922013023E+03  0.10100000352E+00 0. -1.
</event>
<event>
 5   0  0.4440500E-03  0.7088071E+03  0.7818609E-02  0.9702288E-01
        3   -1    0    0  501    0  0.00000000000E+00  0.00000000000E+00  0.11898765427E+04  0.11898765469E+04  0.10100000352E+00 0. -1.
       -3   -1    0    0    0  501  0.00000000000E+00  0.00000000000E+00 -0.10555871231E+03  0.10555876063E+03  0.10100000352E+00 0.  1.
    10030    2    1    2    0    0  0.00000000000E+00  0.00000000000E+00  0.10843178303E+04  0.12954353076E+04  0.70880708158E+03 0.  0.
        2    1    3    3  502    0  0.11175884246E+03 -0.30137665848E+03  0.26933422059E+03  0.41935528079E+03  0.25500000920E-02 0.  1.
       -2    1    3    3    0  502 -0.11175884246E+03  0.30137665848E+03  0.81498360976E+03  0.87608002678E+03  0.25500000920E-02 0. -1.
</event>
<event>
 5   0  0.6689415E-03  0.7248516E+03  0.7818609E-02  0.9675652E-01
        1   -1    0    0  501    0  0.00000000000E+00  0.00000000000E+00  0.10797036836E+04  0.10797036836E+04  0.50400001928E-02 0.  1.
       -1   -1    0    0    0  501  0.00000000000E+00  0.00000000000E+00 -0.12165603902E+03  0.12165603912E+03  0.50400001928E-02 0. -1.
    10030    2    1    2    0    0  0.00000000000E+00  0.00000000000E+00  0.95804764455E+03  0.12013597227E+04  0.72485163593E+03 0.  0.
        1    1    3    3  502    0 -0.26402435404E+03 -0.78633216949E+01  0.89031564086E+03  0.92867251049E+03  0.50400001928E-02 0.  1.
       -1    1    3    3    0  502  0.26402435404E+03  0.78633216949E+01  0.67732003689E+02  0.27268721221E+03  0.50400001928E-02 0. -1.
</event>
<event>
 5   0  0.1099980E-02  0.7019208E+03  0.7818609E-02  0.9713953E-01
        2   -1    0    0  501    0  0.00000000000E+00  0.00000000000E+00  0.45291088685E+03  0.45291088686E+03  0.25500000920E-02 0. -1.
       -2   -1    0    0    0  501  0.00000000000E+00  0.00000000000E+00 -0.27195904996E+03  0.27195904997E+03  0.25500000920E-02 0.  1.
    10030    2    1    2    0    0  0.00000000000E+00  0.00000000000E+00  0.18095183690E+03  0.72486993683E+03  0.70192083460E+03 0.  0.
        5    1    3    3  502    0 -0.46485958171E+02 -0.88420871479E+01 -0.26861684495E+03  0.27279337638E+03  0.46999998093E+01 0.  1.
       -5    1    3    3    0  502  0.46485958171E+02  0.88420871479E+01  0.44956868184E+03  0.45207656044E+03  0.46999998093E+01 0. -1.
</event>
<event>
 5   0  0.6990118E-03  0.7277330E+03  0.7818609E-02  0.9670946E-01
       -1   -1    0    0    0  501  0.00000000000E+00  0.00000000000E+00  0.21796421881E+03  0.21796421887E+03  0.50400001928E-02 0.  1.
        1   -1    0    0  501    0  0.00000000000E+00  0.00000000000E+00 -0.60743374987E+03  0.60743374989E+03  0.50400001928E-02 0. -1.
    10030    2    1    2    0    0  0.00000000000E+00  0.00000000000E+00 -0.38946953106E+03  0.82539796876E+03  0.72773298071E+03 0.  0.
        5    1    3    3  502    0  0.24840074229E+03 -0.25251329357E+03 -0.28902284208E+03  0.45718944153E+03  0.46999998093E+01 0. -1.
       -5    1    3    3    0  502 -0.24840074229E+03  0.25251329357E+03 -0.10044668898E+03  0.36820852723E+03  0.46999998093E+01 0.  1.
</event>
<event>
 5   0  0.1119786E-02  0.7013143E+03  0.7818609E-02  0.9714987E-01
        2   -1    0    0  501    0  0.00000000000E+00  0.00000000000E+00  0.12179214240E+04  0.12179214240E+04  0.25500000920E-02 0.  1.
       -2   -1    0    0    0  501  0.00000000000E+00  0.00000000000E+00 -0.10095924414E+03  0.10095924418E+03  0.25500000920E-02 0. -1.
    10030    2    1    2    0    0  0.00000000000E+00  0.00000000000E+00  0.11169621798E+04  0.13188806682E+04  0.70131427025E+03 0.  0.
        3    1    3    3  502    0  0.68655261877E+02 -0.32936826271E+03  0.74430165859E+03  0.81681207548E+03  0.10100000352E+00 0. -1.
       -3    1    3    3    0  502 -0.68655261877E+02  0.32936826271E+03  0.37266052125E+03  0.50206859269E+03  0.10100000352E+00 0.  1.
</event>
<event>
 5   0  0.6246998E-03  0.7016836E+03  0.7818609E-02  0.9714357E-01
        1   -1    0    0  501    0  0.00000000000E+00  0.00000000000E+00  0.13189015286E+04  0.13189015286E+04  0.50400001928E-02 0. -1.
       -1   -1    0    0    0  501  0.00000000000E+00  0.00000000000E+00 -0.93327628214E+02  0.93327628351E+02  0.50400001928E-02 0.  1.
    10030    2    1    2    0    0  0.00000000000E+00  0.00000000000E+00  0.12255739004E+04  0.14122291570E+04  0.70168355151E+03 0.  0.
        4    1    3    3  502    0 -0.28866738706E+03  0.12276816692E+03  0.92901620389E+03  0.98054760372E+03  0.12699999809E+01 0.  1.
       -4    1    3    3    0  502  0.28866738706E+03 -0.12276816692E+03  0.29655769650E+03  0.43168155325E+03  0.12699999809E+01 0. -1.
</event>
<event>
 5   0  0.6785252E-03  0.6959213E+03  0.7818609E-02  0.9724233E-01
       -1   -1    0    0    0  501  0.00000000000E+00  0.00000000000E+00  0.55466487340E+03  0.55466487342E+03  0.50400001928E-02 0. -1.
        1   -1    0    0  501    0  0.00000000000E+00  0.00000000000E+00 -0.21828787479E+03  0.21828787485E+03  0.50400001928E-02 0.  1.
    10030    2    1    2    0    0  0.00000000000E+00  0.00000000000E+00  0.33637699860E+03  0.77295274827E+03  0.69592130724E+03 0.  0.
        3    1    3    3  502    0 -0.17119673148E+03  0.26327386161E+03  0.33462588332E+03  0.45890733167E+03  0.10100000352E+00 0. -1.
       -3    1    3    3    0  502  0.17119673148E+03 -0.26327386161E+03  0.17511152872E+01  0.31404541659E+03  0.10100000352E+00 0.  1.
</event>
<event>
 5   0  0.1119786E-02  0.6960435E+03  0.7818609E-02  0.9724022E-01
        2   -1    0    0  501    0  0.00000000000E+00  0.00000000000E+00  0.11968979386E+04  0.11968979386E+04  0.25500000920E-02 0. -1.
       -2   -1    0    0    0  501  0.00000000000E+00  0.00000000000E+00 -0.10119419759E+03  0.10119419762E+03  0.25500000920E-02 0.  1.
    10030    2    1    2    0    0  0.00000000000E+00  0.00000000000E+00  0.10957037410E+04  0.12980921362E+04  0.69604346562E+03 0.  0.
        3    1    3    3  502    0  0.23911584080E+03 -0.86203644587E+02  0.10451055994E+03  0.27482707473E+03  0.10100000352E+00 0.  1.
       -3    1    3    3    0  502 -0.23911584080E+03  0.86203644587E+02  0.99119318104E+03  0.10232650615E+04  0.10100000352E+00 0. -1.
</event>
<event>
 5   0  0.1099980E-02  0.6771215E+03  0.7818609E-02  0.9757178E-01
        2   -1    0    0  501    0  0.00000000000E+00  0.00000000000E+00  0.10822381679E+04  0.10822381679E+04  0.25500000920E-02 0. -1.
       -2   -1    0    0    0  501  0.00000000000E+00  0.00000000000E+00 -0.10591325520E+03  0.10591325523E+03  0.25500000920E-02 0.  1.
    10030    2    1    2    0    0  0.00000000000E+00  0.00000000000E+00  0.97632491272E+03  0.11881514231E+04  0.67712145819E+03 0.  0.
        5    1    3    3  502    0  0.27106309228E+03  0.17580999329E+03  0.66552637991E+03  0.73981876570E+03  0.46999998093E+01 0. -1.
       -5    1    3    3    0  502 -0.27106309228E+03 -0.17580999329E+03  0.31079853281E+03  0.44833265744E+03  0.46999998093E+01 0.  1.
</event>
<event>
 5   0  0.1099980E-02  0.6977126E+03  0.7818609E-02  0.9721152E-01
       -2   -1    0    0    0  501  0.00000000000E+00  0.00000000000E+00  0.17396090788E+03  0.17396090790E+03  0.25500000920E-02 0.  1.
        2   -1    0    0  501    0  0.00000000000E+00  0.00000000000E+00 -0.69958652912E+03  0.69958652913E+03  0.25500000920E-02 0. -1.
    10030    2    1    2    0    0  0.00000000000E+00  0.00000000000E+00 -0.52562562124E+03  0.87354743703E+03  0.69771257050E+03 0.  0.
        5    1    3    3  502    0  0.69816624537E+02  0.31292369315E+03 -0.90766382389E+02  0.33325099394E+03  0.46999998093E+01 0.  1.
       -5    1    3    3    0  502 -0.69816624537E+02 -0.31292369315E+03 -0.43485923885E+03  0.54029644308E+03  0.46999998093E+01 0. -1.
</event>
<event>
 5   0  0.6246998E-03  0.6676876E+03  0.7818609E-02  0.9774144E-01
        1   -1    0    0  501    0  0.00000000000E+00  0.00000000000E+00  0.91631544656E+03  0.91631544657E+03  0.50400001928E-02 0.  1.
       -1   -1    0    0    0  501  0.00000000000E+00  0.00000000000E+00 -0.12163025296E+03  0.12163025306E+03  0.50400001928E-02 0. -1.
    10030    2    1    2    0    0  0.00000000000E+00  0.00000000000E+00  0.79468519360E+03  0.10379456996E+04  0.66768759047E+03 0.  0.
        4    1    3    3  502    0 -0.95881490032E+02  0.30615647942E+03  0.54087466682E+03  0.62886569960E+03  0.12699999809E+01 0.  1.
       -4    1    3    3    0  502  0.95881490032E+02 -0.30615647942E+03  0.25381052678E+03  0.40908000003E+03  0.12699999809E+01 0. -1.
</event>
<event>
 5   0  0.6990118E-03  0.7021698E+03  0.7818609E-02  0.9713529E-01
       -1   -1    0    0    0  501  0.00000000000E+00  0.00000000000E+00  0.57217239463E+02  0.57217239685E+02  0.50400001928E-02 0. -1.
        1   -1    0    0  501    0  0.00000000000E+00  0.00000000000E+00 -0.21542564222E+04  0.21542564222E+04  0.50400001928E-02 0.  1.
    10030    2    1    2    0    0  0.00000000000E+00  0.00000000000E+00 -0.20970391828E+04  0.22114736619E+04  0.70216979664E+03 0.  0.
        5    1    3    3  502    0 -0.13066795285E+03  0.24603873986E+02 -0.20717828156E+04  0.20760504785E+04  0.46999998093E+01 0.  1.
       -5    1    3    3    0  502  0.13066795285E+03 -0.24603873986E+02 -0.25256367200E+02  0.13542318339E+03  0.46999998093E+01 0. -1.
</event>
<event>
 5   0  0.6609285E-03  0.6998317E+03  0.7818609E-02  0.9717520E-01
        1   -1    0    0  501    0  0.00000000000E+00  0.00000000000E+00  0.78697436504E+03  0.78697436506E+03  0.50400001928E-02 0. -1.
       -1   -1    0    0    0  501  0.00000000000E+00  0.00000000000E+00 -0.15558459953E+03  0.15558459962E+03  0.50400001928E-02 0.  1.
    10030    2    1    2    0    0  0.00000000000E+00  0.00000000000E+00  0.63138976551E+03  0.94255896467E+03  0.69983166969E+03 0.  0.
        2    1    3    3  502    0 -0.17967106331E+03 -0.25607564287E+03  0.52687211290E+03  0.61274027876E+03  0.25500000920E-02 0. -1.
       -2    1    3    3    0  502  0.17967106331E+03  0.25607564287E+03  0.10451765261E+03  0.32981868591E+03  0.25500000920E-02 0.  1.
</event>
<event>
 5   0  0.6689415E-03  0.6997511E+03  0.7818609E-02  0.9717658E-01
        1   -1    0    0  501    0  0.00000000000E+00  0.00000000000E+00  0.68859995931E+03  0.68859995933E+03  0.50400001928E-02 0.  1.
       -1   -1    0    0    0  501  0.00000000000E+00  0.00000000000E+00 -0.17777069899E+03  0.17777069906E+03  0.50400001928E-02 0. -1.
    10030    2    1    2    0    0  0.00000000000E+00  0.00000000000E+00  0.51082926033E+03  0.86637065839E+03  0.69975108754E+03 0.  0.
        1    1    3    3  502    0 -0.76718865483E+02  0.90200259748E+02 -0.15220661833E+03  0.19284378618E+03  0.50400001928E-02 0. -1.
       -1    1    3    3    0  502  0.76718865483E+02 -0.90200259748E+02  0.66303587866E+03  0.67352687221E+03  0.50400001928E-02 0.  1.
</event>
<event>
 5   0  0.4440500E-03  0.7004155E+03  0.7818609E-02  0.9716522E-01
        3   -1    0    0  501    0  0.00000000000E+00  0.00000000000E+00  0.29587917450E+03  0.29587919173E+03  0.10100000352E+00 0.  1.
       -3   -1    0    0    0  501  0.00000000000E+00  0.00000000000E+00 -0.41451200202E+03  0.41451201432E+03  0.10100000352E+00 0. -1.
    10030    2    1    2    0    0  0.00000000000E+00  0.00000000000E+00 -0.11863282752E+03  0.71039120606E+03  0.70041553229E+03 0.  0.
        4    1    3    3  502    0  0.24194151179E+03  0.21578025992E+03 -0.19366833334E+03  0.37763190005E+03  0.12699999809E+01 0. -1.
       -4    1    3    3    0  502 -0.24194151179E+03 -0.21578025992E+03  0.75035505823E+02  0.33275930600E+03  0.12699999809E+01 0.  1.
</event>
<event>
 5   0  0.6246998E-03  0.7059324E+03  0.7818609E-02  0.9707140E-01
        1   -1    0    0  501    0  0.00000000000E+00  0.00000000000E+00  0.13033640767E+04  0.13033640767E+04  0.50400001928E-02 0. -1.
       -1   -1    0    0    0  501  0.00000000000E+00  0.00000000000E+00 -0.95587367959E+02  0.95587368092E+02  0.50400001928E-02 0.  1.
    10030    2    1    2    0    0  0.00000000000E+00  0.00000000000E+00  0.12077767087E+04  0.13989514448E+04  0.70593240946E+03 0.  0.
        4    1    3    3  502    0 -0.30880177456E+03 -0.15721980371E+03  0.73692758973E+03  0.81433438345E+03  0.12699999809E+01 0. -1.
       -4    1    3    3    0  502  0.30880177456E+03  0.15721980371E+03  0.47084911899E+03  0.58461706133E+03  0.12699999809E+01 0.  1.
</event>
<event>
 5   0  0.1119786E-02  0.6992683E+03  0.7818609E-02  0.9718484E-01
        2   -1    0    0  501    0  0.00000000000E+00  0.00000000000E+00  0.73191593648E+03  0.73191593648E+03  0.25500000920E-02 0.  1.
       -2   -1    0    0    0  501  0.00000000000E+00  0.00000000000E+00 -0.16701923491E+03  0.16701923493E+03  0.25500000920E-02 0. -1.
    10030    2    1    2    0    0  0.00000000000E+00  0.00000000000E+00  0.56489670157E+03  0.89893517142E+03  0.69926830256E+03 0.  0.
        3    1    3    3  502    0  0.26177159389E+03  0.13514518073E+03  0.40386703634E+02  0.29735447411E+03  0.10100000352E+00 0. -1.
       -3    1    3    3    0  502 -0.26177159389E+03 -0.13514518073E+03  0.52450999793E+03  0.60158069731E+03  0.10100000352E+00 0.  1.
</event>
<event>
 5   0  0.1099980E-02  0.7020298E+03  0.7818609E-02  0.9713767E-01
        2   -1    0    0  501    0  0.00000000000E+00  0.00000000000E+00  0.10918514159E+04  0.10918514159E+04  0.25500000920E-02 0. -1.
       -2   -1    0    0    0  501  0.00000000000E+00  0.00000000000E+00 -0.11284637099E+03  0.11284637101E+03  0.25500000920E-02 0.  1.
    10030    2    1    2    0    0  0.00000000000E+00  0.00000000000E+00  0.97900504495E+03  0.12046977870E+04  0.70202982832E+03 0.  0.
        5    1    3    3  502    0  0.10479772113E+03 -0.21822971827E+03  0.92559674770E+03  0.95674354016E+03  0.46999998093E+01 0. -1.
       -5    1    3    3    0  502 -0.10479772113E+03  0.21822971827E+03  0.53408297250E+02  0.24795424679E+03  0.46999998093E+01 0.  1.
</event>
<event>
 5   0  0.1099980E-02  0.6972476E+03  0.7818609E-02  0.9721951E-01
        2   -1    0    0  501    0  0.00000000000E+00  0.00000000000E+00  0.61903271308E+03  0.61903271309E+03  0.25500000920E-02 0. -1.
       -2   -1    0    0    0  501  0.00000000000E+00  0.00000000000E+00 -0.19633621027E+03  0.19633621029E+03  0.25500000920E-02 0.  1.
    10030    2    1    2    0    0  0.00000000000E+00  0.00000000000E+00  0.42269650281E+03  0.81536892338E+03  0.69724755125E+03 0.  0.
        5    1    3    3  502    0  0.14672103266E+03  0.13097987508E+03 -0.12521800881E+03  0.23320469298E+03  0.46999998093E+01 0.  1.
       -5    1    3    3    0  502 -0.14672103266E+03 -0.13097987508E+03  0.54791451163E+03  0.58216423039E+03  0.46999998093E+01 0. -1.
</event>
<event>
 5   0  0.6689415E-03  0.6995463E+03  0.7818609E-02  0.9718008E-01
        1   -1    0    0  501    0  0.00000000000E+00  0.00000000000E+00  0.38012134641E+03  0.38012134645E+03  0.50400001928E-02 0.  1.
       -1   -1    0    0    0  501  0.00000000000E+00  0.00000000000E+00 -0.32184793768E+03  0.32184793772E+03  0.50400001928E-02 0. -1.
    10030    2    1    2    0    0  0.00000000000E+00  0.00000000000E+00  0.58273408728E+02  0.70196928417E+03  0.69954634282E+03 0.  0.
        1    1    3    3  502    0  0.23633646508E+03  0.13023054595E+03  0.25245267698E+03  0.36952303577E+03  0.50400001928E-02 0.  1.
       -1    1    3    3    0  502 -0.23633646508E+03 -0.13023054595E+03 -0.19417926826E+03  0.33244624839E+03  0.50400001928E-02 0. -1.
</event>
<event>
 5   0  0.1109788E-02  0.7184947E+03  0.7818609E-02  0.9686116E-01
       -2   -1    0    0    0  501  0.00000000000E+00  0.00000000000E+00  0.67051987797E+02  0.67051987845E+02  0.25500000920E-02 0. -1.
        2   -1    0    0  501    0  0.00000000000E+00  0.00000000000E+00 -0.19247549752E+04  0.19247549752E+04  0.25500000920E-02 0.  1.
    10030    2    1    2    0    0  0.00000000000E+00  0.00000000000E+00 -0.18577029874E+04  0.19918069630E+04  0.71849466847E+03 0.  0.
        1    1    3    3  502    0 -0.24093355655E+01 -0.17530274352E+03 -0.59593715562E+02  0.18517091495E+03  0.50400001928E-02 0. -1.
       -1    1    3    3    0  502  0.24093355655E+01  0.17530274352E+03 -0.17981092718E+04  0.18066360481E+04  0.50400001928E-02 0.  1.
</event>
<event>
 5   0  0.1109788E-02  0.6998451E+03  0.7818609E-02  0.9717497E-01
       -2   -1    0    0    0  501  0.00000000000E+00  0.00000000000E+00  0.75986075620E+02  0.75986075663E+02  0.25500000920E-02 0.  1.
        2   -1    0    0  501    0  0.00000000000E+00  0.00000000000E+00 -0.16114239999E+04  0.16114239999E+04  0.25500000920E-02 0. -1.
    10030    2    1    2    0    0  0.00000000000E+00  0.00000000000E+00 -0.15354379243E+04  0.16874100756E+04  0.69984508558E+03 0.  0.
        1    1    3    3  502    0  0.20836558493E+03  0.27519974391E+03 -0.62932260000E+03  0.71777298008E+03  0.50400001928E-02 0.  1.
       -1    1    3    3    0  502 -0.20836558493E+03 -0.27519974391E+03 -0.90611532430E+03  0.96963709551E+03  0.50400001928E-02 0. -1.
</event>
<event>
 5   0  0.6689415E-03  0.6994809E+03  0.7818609E-02  0.9718120E-01
       -1   -1    0    0    0  501  0.00000000000E+00  0.00000000000E+00  0.43236023757E+03  0.43236023760E+03  0.50400001928E-02 0. -1.
        1   -1    0    0  501    0  0.00000000000E+00  0.00000000000E+00 -0.28290847358E+03  0.28290847363E+03  0.50400001928E-02 0.  1.
    10030    2    1    2    0    0  0.00000000000E+00  0.00000000000E+00  0.14945176398E+03  0.71526871123E+03  0.69948087858E+03 0.  0.
        1    1    3    3  502    0  0.10669248356E+03 -0.16274938830E+03 -0.22243207167E+03  0.29554471062E+03  0.50400001928E-02 0.  1.
       -1    1    3    3    0  502 -0.10669248356E+03  0.16274938830E+03  0.37188383566E+03  0.41972400061E+03  0.50400001928E-02 0. -1.
</event>
<event>
 5   0  0.1100119E-02  0.7001147E+03  0.7818609E-02  0.9717036E-01
        2   -1    0    0  501    0  0.00000000000E+00  0.00000000000E+00  0.46220464333E+03  0.46220464333E+03  0.25500000920E-02 0.  1.
       -2   -1    0    0    0  501  0.00000000000E+00  0.00000000000E+00 -0.26512101771E+03  0.26512101772E+03  0.25500000920E-02 0. -1.
    10030    2    1    2    0    0  0.00000000000E+00  0.00000000000E+00  0.19708362562E+03  0.72732566105E+03  0.70011474898E+03 0.  0.
        4    1    3    3  502    0 -0.33290624244E+03  0.34221576758E+02  0.20520091199E+03  0.39256427468E+03  0.12699999809E+01 0. -1.
       -4    1    3    3    0  502  0.33290624244E+03 -0.34221576758E+02 -0.81172863745E+01  0.33476138638E+03  0.12699999809E+01 0.  1.
</event>
<event>
 5   0  0.6609285E-03  0.6959749E+03  0.7818609E-02  0.9724141E-01
       -1   -1    0    0    0  501  0.00000000000E+00  0.00000000000E+00  0.12483515511E+03  0.12483515521E+03  0.50400001928E-02 0.  1.
        1   -1    0    0  501    0  0.00000000000E+00  0.00000000000E+00 -0.97004127252E+03  0.97004127253E+03  0.50400001928E-02 0. -1.
    10030    2    1    2    0    0  0.00000000000E+00  0.00000000000E+00 -0.84520611742E+03  0.10948764277E+04  0.69597486385E+03 0.  0.
        2    1    3    3  502    0 -0.33390449213E+03 -0.78342978844E+02 -0.51521127629E+03  0.61892850267E+03  0.25500000920E-02 0.  1.
       -2    1    3    3    0  502  0.33390449213E+03  0.78342978844E+02 -0.32999484113E+03  0.47594792507E+03  0.25500000920E-02 0. -1.
</event>
<event>
 5   0  0.1079446E-02  0.6971534E+03  0.7818609E-02  0.9722113E-01
       -2   -1    0    0    0  501  0.00000000000E+00  0.00000000000E+00  0.15133973127E+03  0.15133973129E+03  0.25500000920E-02 0. -1.
        2   -1    0    0  501    0  0.00000000000E+00  0.00000000000E+00 -0.80286730123E+03  0.80286730123E+03  0.25500000920E-02 0.  1.
    10030    2    1    2    0    0  0.00000000000E+00  0.00000000000E+00 -0.65152756996E+03  0.95420703252E+03  0.69715341675E+03 0.  0.
        2    1    3    3  502    0  0.76321391889E+02  0.90574297119E+02  0.12295282790E+03  0.17072216040E+03  0.25500000920E-02 0. -1.
       -2    1    3    3    0  502 -0.76321391889E+02 -0.90574297119E+02 -0.77448039786E+03  0.78348487212E+03  0.25500000920E-02 0.  1.
</event>
<event>
 5   0  0.6689415E-03  0.7006478E+03  0.7818609E-02  0.9716125E-01
        1   -1    0    0  501    0  0.00000000000E+00  0.00000000000E+00  0.10325789658E+04  0.10325789658E+04  0.50400001928E-02 0. -1.
       -1   -1    0    0    0  501  0.00000000000E+00  0.00000000000E+00 -0.11885466987E+03  0.11885466998E+03  0.50400001928E-02 0.  1.
    10030    2    1    2    0    0  0.00000000000E+00  0.00000000000E+00  0.91372429593E+03  0.11514336358E+04  0.70064779216E+03 0.  0.
        1    1    3    3  502    0 -0.41575235157E+02 -0.33947375006E+03  0.58154190923E+03  0.67465689011E+03  0.50400001928E-02 0. -1.
       -1    1    3    3    0  502  0.41575235157E+02  0.33947375006E+03  0.33218238670E+03  0.47677674568E+03  0.50400001928E-02 0.  1.
</event>
<event>
 5   0  0.1079446E-02  0.7001036E+03  0.7818609E-02  0.9717055E-01
       -2   -1    0    0    0  501  0.00000000000E+00  0.00000000000E+00  0.21102670847E+03  0.21102670848E+03  0.25500000920E-02 0.  1.
        2   -1    0    0  501    0  0.00000000000E+00  0.00000000000E+00 -0.58066706272E+03  0.58066706273E+03  0.25500000920E-02 0. -1.
    10030    2    1    2    0    0  0.00000000000E+00  0.00000000000E+00 -0.36964035426E+03  0.79169377121E+03  0.70010358940E+03 0.  0.
        2    1    3    3  502    0 -0.27635922847E+02  0.30530998054E+03  0.62801064769E+01  0.30662251743E+03  0.25500000920E-02 0.  1.
       -2    1    3    3    0  502  0.27635922847E+02 -0.30530998054E+03 -0.37592046073E+03  0.48507125379E+03  0.25500000920E-02 0. -1.
</event>
<event>
 5   0  0.1099980E-02  0.6827776E+03  0.7818609E-02  0.9747147E-01
        2   -1    0    0  501    0  0.00000000000E+00  0.00000000000E+00  0.26027734691E+03  0.26027734692E+03  0.25500000920E-02 0. -1.
       -2   -1    0    0    0  501  0.00000000000E+00  0.00000000000E+00 -0.44777735847E+03  0.44777735848E+03  0.25500000920E-02 0.  1.
    10030    2    1    2    0    0  0.00000000000E+00  0.00000000000E+00 -0.18750001156E+03  0.70805470540E+03  0.68277757103E+03 0.  0.
        5    1    3    3  502    0  0.73454549552E+01  0.34124907961E+03 -0.89191495256E+02  0.35282021324E+03  0.46999998093E+01 0. -1.
       -5    1    3    3    0  502 -0.73454549552E+01 -0.34124907961E+03 -0.98308516305E+02  0.35523449216E+03  0.46999998093E+01 0.  1.
</event>
<event>
 5   0  0.1099980E-02  0.7007985E+03  0.7818609E-02  0.9715868E-01
       -2   -1    0    0    0  501  0.00000000000E+00  0.00000000000E+00  0.11259135197E+03  0.11259135200E+03  0.25500000920E-02 0. -1.
        2   -1    0    0  501    0  0.00000000000E+00  0.00000000000E+00 -0.10904891328E+04  0.10904891328E+04  0.25500000920E-02 0.  1.
    10030    2    1    2    0    0  0.00000000000E+00  0.00000000000E+00 -0.97789778081E+03  0.12030804848E+04  0.70079853249E+03 0.  0.
        5    1    3    3  502    0  0.27082109886E+03  0.26704685270E+01 -0.87053531312E+03  0.91170445890E+03  0.46999998093E+01 0.  1.
       -5    1    3    3    0  502 -0.27082109886E+03 -0.26704685270E+01 -0.10736246769E+03  0.29137602588E+03  0.46999998093E+01 0. -1.
</event>
<event>
 5   0  0.1099980E-02  0.6973764E+03  0.7818609E-02  0.9721729E-01
        2   -1    0    0  501    0  0.00000000000E+00  0.00000000000E+00  0.61735990727E+03  0.61735990727E+03  0.25500000920E-02 0.  1.
       -2   -1    0    0    0  501  0.00000000000E+00  0.00000000000E+00 -0.19694098144E+03  0.19694098146E+03  0.25500000920E-02 0. -1.
    10030    2    1    2    0    0  0.00000000000E+00  0.00000000000E+00  0.42041892582E+03  0.81430088873E+03  0.69737641500E+03 0.  0.
        5    1    3    3  502    0  0.55277908155E+02  0.30466401952E+03  0.39734755930E+03  0.50376878109E+03  0.46999998093E+01 0.  1.
       -5    1    3    3    0  502 -0.55277908155E+02 -0.30466401952E+03  0.23071366521E+02  0.31053210764E+03  0.46999998093E+01 0. -1.
</event>
<event>
 5   0  0.6689415E-03  0.6988622E+03  0.7818609E-02  0.9719180E-01
        1   -1    0    0  501    0  0.00000000000E+00  0.00000000000E+00  0.80740981417E+03  0.80740981419E+03  0.50400001928E-02 0. -1.
       -1   -1    0    0    0  501  0.00000000000E+00  0.00000000000E+00 -0.15122691581E+03  0.15122691589E+03  0.50400001928E-02 0.  1.
    10030    2    1    2    0    0  0.00000000000E+00  0.00000000000E+00  0.65618289837E+03  0.95863673008E+03  0.69886220684E+03 0.  0.
        1    1    3    3  502    0  0.28008028380E+03 -0.18261109037E+02  0.61360392617E+03  0.67475048107E+03  0.50400001928E-02 0. -1.
       -1    1    3    3    0  502 -0.28008028380E+03  0.18261109037E+02  0.42578972196E+02  0.28388624900E+03  0.50400001928E-02 0.  1.
</event>
<event>
 5   0  0.4440500E-03  0.6990297E+03  0.7818609E-02  0.9718893E-01
       -3   -1    0    0    0  501  0.00000000000E+00  0.00000000000E+00  0.45284434747E+03  0.45284435873E+03  0.10100000352E+00 0.  1.
        3   -1    0    0  501    0  0.00000000000E+00  0.00000000000E+00 -0.26976294581E+03  0.26976296471E+03  0.10100000352E+00 0. -1.
    10030    2    1    2    0    0  0.00000000000E+00  0.00000000000E+00  0.18308140166E+03  0.72260732344E+03  0.69902971629E+03 0.  0.
        3    1    3    3  502    0  0.17966590506E+03  0.17605400923E+03 -0.15930803416E+03  0.29774806726E+03  0.10100000352E+00 0. -1.
       -3    1    3    3    0  502 -0.17966590506E+03 -0.17605400923E+03  0.34238943582E+03  0.42485925619E+03  0.10100000352E+00 0.  1.
</event>
<event>
 5   0  0.6689415E-03  0.6990904E+03  0.7818609E-02  0.9718789E-01
        1   -1    0    0  501    0  0.00000000000E+00  0.00000000000E+00  0.72274207496E+03  0.72274207498E+03  0.50400001928E-02 0.  1.
       -1   -1    0    0    0  501  0.00000000000E+00  0.00000000000E+00 -0.16905318600E+03  0.16905318608E+03  0.50400001928E-02 0. -1.
    10030    2    1    2    0    0  0.00000000000E+00  0.00000000000E+00  0.55368888896E+03  0.89179526105E+03  0.69909041038E+03 0.  0.
        1    1    3    3  502    0 -0.80095751641E+02  0.11784538076E+03  0.68401290029E+03  0.69869629381E+03  0.50400001928E-02 0.  1.
       -1    1    3    3    0  502  0.80095751641E+02 -0.11784538076E+03 -0.13032401133E+03  0.19309896724E+03  0.50400001928E-02 0. -1.
</event>
<event>
 5   0  0.6785252E-03  0.7020182E+03  0.7818609E-02  0.9713787E-01
       -1   -1    0    0    0  501  0.00000000000E+00  0.00000000000E+00  0.15400624726E+03  0.15400624734E+03  0.50400001928E-02 0.  1.
        1   -1    0    0  501    0  0.00000000000E+00  0.00000000000E+00 -0.80001552632E+03  0.80001552634E+03  0.50400001928E-02 0. -1.
    10030    2    1    2    0    0  0.00000000000E+00  0.00000000000E+00 -0.64600927907E+03  0.95402177368E+03  0.70201820205E+03 0.  0.
        3    1    3    3  502    0 -0.27448368711E+03 -0.78593226838E+02 -0.45531059635E+02  0.28912156161E+03  0.10100000352E+00 0.  1.
       -3    1    3    3    0  502  0.27448368711E+03  0.78593226838E+02 -0.60047821943E+03  0.66490021207E+03  0.10100000352E+00 0. -1.
</event>
<event>
 5   0  0.1109788E-02  0.6970563E+03  0.7818609E-02  0.9722280E-01
       -2   -1    0    0    0  501  0.00000000000E+00  0.00000000000E+00  0.23335251207E+03  0.23335251208E+03  0.25500000920E-02 0. -1.
        2   -1    0    0  501    0  0.00000000000E+00  0.00000000000E+00 -0.52055095805E+03  0.52055095806E+03  0.25500000920E-02 0.  1.
    10030    2    1    2    0    0  0.00000000000E+00  0.00000000000E+00 -0.28719844598E+03  0.75390347014E+03  0.69705630685E+03 0.  0.
        1    1    3    3  502    0  0.85367026771E+01  0.24113851456E+03 -0.41560762447E+03  0.48057294560E+03  0.50400001928E-02 0.  1.
       -1    1    3    3    0  502 -0.85367026771E+01 -0.24113851456E+03  0.12840917849E+03  0.27333052454E+03  0.50400001928E-02 0. -1.
</event>
<event>
 5   0  0.6785252E-03  0.6987146E+03  0.7818609E-02  0.9719433E-01
       -1   -1    0    0    0  501  0.00000000000E+00  0.00000000000E+00  0.21384108437E+03  0.21384108442E+03  0.50400001928E-02 0. -1.
        1   -1    0    0  501    0  0.00000000000E+00  0.00000000000E+00 -0.57075334936E+03  0.57075334938E+03  0.50400001928E-02 0.  1.
    10030    2    1    2    0    0  0.00000000000E+00  0.00000000000E+00 -0.35691226499E+03  0.78459443380E+03  0.69871457739E+03 0.  0.
        3    1    3    3  502    0 -0.16261331722E+03 -0.58196985298E+02 -0.51945992858E+03  0.54741995546E+03  0.10100000352E+00 0.  1.
       -3    1    3    3    0  502  0.16261331722E+03  0.58196985298E+02  0.16254766359E+03  0.23717447834E+03  0.10100000352E+00 0. -1.
</event>
<event>
 5   0  0.1109788E-02  0.6999646E+03  0.7818609E-02  0.9717293E-01
       -2   -1    0    0    0  501  0.00000000000E+00  0.00000000000E+00  0.12402083053E+03  0.12402083055E+03  0.25500000920E-02 0.  1.
        2   -1    0    0  501    0  0.00000000000E+00  0.00000000000E+00 -0.98763751339E+03  0.98763751340E+03  0.25500000920E-02 0. -1.
    10030    2    1    2    0    0  0.00000000000E+00  0.00000000000E+00 -0.86361668286E+03  0.11116583440E+04  0.69996464107E+03 0.  0.
        1    1    3    3  502    0 -0.19382303897E+02 -0.17925682913E+03 -0.90820166538E+03  0.92592599570E+03  0.50400001928E-02 0. -1.
       -1    1    3    3    0  502  0.19382303897E+02  0.17925682913E+03  0.44584982517E+02  0.18573234825E+03  0.50400001928E-02 0.  1.
</event>
<event>
 5   0  0.1119786E-02  0.6987929E+03  0.7818609E-02  0.9719299E-01
       -2   -1    0    0    0  501  0.00000000000E+00  0.00000000000E+00  0.63013307895E+02  0.63013307947E+02  0.25500000920E-02 0. -1.
        2   -1    0    0  501    0  0.00000000000E+00  0.00000000000E+00 -0.19373349176E+04  0.19373349176E+04  0.25500000920E-02 0.  1.
    10030    2    1    2    0    0  0.00000000000E+00  0.00000000000E+00 -0.18743216097E+04  0.20003482256E+04  0.69879290699E+03 0.  0.
        3    1    3    3  502    0  0.30071010853E+03 -0.14197706085E+03 -0.63026620704E+03  0.71261459227E+03  0.10100000352E+00 0. -1.
       -3    1    3    3    0  502 -0.30071010853E+03  0.14197706085E+03 -0.12440554027E+04  0.12877336333E+04  0.10100000352E+00 0.  1.
</event>
<event>
 5   0  0.1079446E-02  0.7006959E+03  0.7818609E-02  0.9716043E-01
        2   -1    0    0  501    0  0.00000000000E+00  0.00000000000E+00  0.22527787017E+03  0.22527787018E+03  0.25500000920E-02 0. -1.
       -2   -1    0    0    0  501  0.00000000000E+00  0.00000000000E+00 -0.54485465814E+03  0.54485465814E+03  0.25500000920E-02 0.  1.
    10030    2    1    2    0    0  0.00000000000E+00  0.00000000000E+00 -0.31957678797E+03  0.77013252832E+03  0.70069593104E+03 0.  0.
        2    1    3    3  502    0  0.46671118221E+01 -0.91555046549E+02 -0.53143843411E+03  0.53928741663E+03  0.25500000920E-02 0.  1.
       -2    1    3    3    0  502 -0.46671118221E+01  0.91555046549E+02  0.21186164614E+03  0.23084511169E+03  0.25500000920E-02 0. -1.
</event>
<event>
 5   0  0.6609285E-03  0.6984491E+03  0.7818609E-02  0.9719888E-01
        1   -1    0    0  501    0  0.00000000000E+00  0.00000000000E+00  0.40309252995E+03  0.40309252998E+03  0.50400001928E-02 0.  1.
       -1   -1    0    0    0  501  0.00000000000E+00  0.00000000000E+00 -0.30255532854E+03  0.30255532858E+03  0.50400001928E-02 0. -1.
    10030    2    1    2    0    0  0.00000000000E+00  0.00000000000E+00  0.10053720141E+03  0.70564785856E+03  0.69844911871E+03 0.  0.
        2    1    3    3  502    0  0.30766292493E+03 -0.25468848077E+02 -0.11467045168E+03  0.32932423247E+03  0.25500000920E-02 0. -1.
       -2    1    3    3    0  502 -0.30766292493E+03  0.25468848077E+02  0.21520765309E+03  0.37632362609E+03  0.25500000920E-02 0.  1.
</event>
<event>
 5   0  0.1099980E-02  0.7007301E+03  0.7818609E-02  0.9715984E-01
        2   -1    0    0  501    0  0.00000000000E+00  0.00000000000E+00  0.44829372754E+03  0.44829372755E+03  0.25500000920E-02 0. -1.
       -2   -1    0    0    0  501  0.00000000000E+00  0.00000000000E+00 -0.27382867832E+03  0.27382867833E+03  0.25500000920E-02 0.  1.
    10030    2    1    2    0    0  0.00000000000E+00  0.00000000000E+00  0.17446504922E+03  0.72212240588E+03  0.70073013042E+03 0.  0.
        5    1    3    3  502    0 -0.29757650051E+03 -0.17129818566E+03  0.15547823401E+02  0.34374215173E+03  0.46999998093E+01 0.  1.
       -5    1    3    3    0  502  0.29757650051E+03  0.17129818566E+03  0.15891722582E+03  0.37838025415E+03  0.46999998093E+01 0. -1.
</event>
<event>
 5   0  0.6990118E-03  0.7009591E+03  0.7818609E-02  0.9715593E-01
        1   -1    0    0  501    0  0.00000000000E+00  0.00000000000E+00  0.42867741792E+03  0.42867741795E+03  0.50400001928E-02 0. -1.
       -1   -1    0    0    0  501  0.00000000000E+00  0.00000000000E+00 -0.28654629145E+03  0.28654629149E+03  0.50400001928E-02 0.  1.
    10030    2    1    2    0    0  0.00000000000E+00  0.00000000000E+00  0.14213112647E+03  0.71522370944E+03  0.70095912679E+03 0.  0.
        5    1    3    3  502    0 -0.32614451938E+03 -0.70377647060E+02  0.18044106616E+03  0.37934724077E+03  0.46999998093E+01 0. -1.
       -5    1    3    3    0  502  0.32614451938E+03  0.70377647060E+02 -0.38309939686E+02  0.33587646867E+03  0.46999998093E+01 0.  1.
</event>
<event>
 5   0  0.1099980E-02  0.6987955E+03  0.7818609E-02  0.9719294E-01
       -2   -1    0    0    0  501  0.00000000000E+00  0.00000000000E+00  0.59144257569E+02  0.59144257624E+02  0.25500000920E-02 0.  1.
        2   -1    0    0  501    0  0.00000000000E+00  0.00000000000E+00 -0.20640851537E+04  0.20640851537E+04  0.25500000920E-02 0. -1.
    10030    2    1    2    0    0  0.00000000000E+00  0.00000000000E+00 -0.20049408962E+04  0.21232294114E+04  0.69879548950E+03 0.  0.
        5    1    3    3  502    0 -0.84633813687E+01 -0.28936989730E+03 -0.15967123518E+04  0.16227504401E+04  0.46999998093E+01 0. -1.
       -5    1    3    3    0  502  0.84633813687E+01  0.28936989730E+03 -0.40822854435E+03  0.50047897130E+03  0.46999998093E+01 0.  1.
</event>
<event>
 5   0  0.1109788E-02  0.7039109E+03  0.7818609E-02  0.9710567E-01
       -2   -1    0    0    0  501  0.00000000000E+00  0.00000000000E+00  0.22316503102E+03  0.22316503104E+03  0.25500000920E-02 0. -1.
        2   -1    0    0  501    0  0.00000000000E+00  0.00000000000E+00 -0.55507186079E+03  0.55507186080E+03  0.25500000920E-02 0.  1.
    10030    2    1    2    0    0  0.00000000000E+00  0.00000000000E+00 -0.33190682977E+03  0.77823689184E+03  0.70391087232E+03 0.  0.
        1    1    3    3  502    0  0.12015172612E+03  0.18242432429E+02 -0.53113872077E+03  0.54486472116E+03  0.50400001928E-02 0.  1.
       -1    1    3    3    0  502 -0.12015172612E+03 -0.18242432429E+02  0.19923189100E+03  0.23337217068E+03  0.50400001928E-02 0. -1.
</event>
<event>
 5   0  0.1100119E-02  0.6991938E+03  0.7818609E-02  0.9718612E-01
        2   -1    0    0  501    0  0.00000000000E+00  0.00000000000E+00  0.50018014199E+03  0.50018014199E+03  0.25500000920E-02 0. -1.
       -2   -1    0    0    0  501  0.00000000000E+00  0.00000000000E+00 -0.24434797688E+03  0.24434797689E+03  0.25500000920E-02 0.  1.
    10030    2    1    2    0    0  0.00000000000E+00  0.00000000000E+00  0.25583216511E+03  0.74452811889E+03  0.69919383801E+03 0.  0.
        4    1    3    3  502    0  0.24600259125E+03 -0.16735041427E+02 -0.13598129969E+03  0.28158455795E+03  0.12699999809E+01 0.  1.
       -4    1    3    3    0  502 -0.24600259125E+03  0.16735041427E+02  0.39181346480E+03  0.46294356093E+03  0.12699999809E+01 0. -1.
</event>
<event>
 5   0  0.6609285E-03  0.7013898E+03  0.7818609E-02  0.9714858E-01
        1   -1    0    0  501    0  0.00000000000E+00  0.00000000000E+00  0.22759138354E+03  0.22759138360E+03  0.50400001928E-02 0.  1.
       -1   -1    0    0    0  501  0.00000000000E+00  0.00000000000E+00 -0.54038478724E+03  0.54038478726E+03  0.50400001928E-02 0. -1.
    10030    2    1    2    0    0  0.00000000000E+00  0.00000000000E+00 -0.31279340370E+03  0.76797617086E+03  0.70138982429E+03 0.  0.
        2    1    3    3  502    0 -0.16773025085E+03  0.29316340173E+03 -0.53050253952E+02  0.34189552003E+03  0.25500000920E-02 0.  1.
       -2    1    3    3    0  502  0.16773025085E+03 -0.29316340173E+03 -0.25974314974E+03  0.42608065083E+03  0.25500000920E-02 0. -1.
</event>
<event>
 5   0  0.6609285E-03  0.6984075E+03  0.7818609E-02  0.9719959E-01
       -1   -1    0    0    0  501  0.00000000000E+00  0.00000000000E+00  0.21900996855E+03  0.21900996861E+03  0.50400001928E-02 0. -1.
        1   -1    0    0  501    0  0.00000000000E+00  0.00000000000E+00 -0.55679320731E+03  0.55679320733E+03  0.50400001928E-02 0.  1.
    10030    2    1    2    0    0  0.00000000000E+00  0.00000000000E+00 -0.33778323876E+03  0.77580317594E+03  0.69840751100E+03 0.  0.
        2    1    3    3  502    0 -0.22071530765E+03  0.17176485997E+02  0.13109690632E+03  0.25728715000E+03  0.25500000920E-02 0. -1.
       -2    1    3    3    0  502  0.22071530765E+03 -0.17176485997E+02 -0.46888014508E+03  0.51851602594E+03  0.25500000920E-02 0.  1.
</event>
<event>
 5   0  0.1099980E-02  0.6999546E+03  0.7818609E-02  0.9717310E-01
        2   -1    0    0  501    0  0.00000000000E+00  0.00000000000E+00  0.71893243835E+03  0.71893243835E+03  0.25500000920E-02 0. -1.
       -2   -1    0    0    0  501  0.00000000000E+00  0.00000000000E+00 -0.17036944610E+03  0.17036944612E+03  0.25500000920E-02 0.  1.
    10030    2    1    2    0    0  0.00000000000E+00  0.00000000000E+00  0.54856299225E+03  0.88930188447E+03  0.69995463086E+03 0.  0.
        5    1    3    3  502    0 -0.19470325016E+02 -0.16358659149E+03  0.66654393621E+03  0.68661676018E+03  0.46999998093E+01 0. -1.
       -5    1    3    3    0  502  0.19470325016E+02  0.16358659149E+03 -0.11798094396E+03  0.20268512429E+03  0.46999998093E+01 0.  1.
</event>
<event>
 5   0  0.1119786E-02  0.6965382E+03  0.7818609E-02  0.9723171E-01
        2   -1    0    0  501    0  0.00000000000E+00  0.00000000000E+00  0.97702928554E+03  0.97702928554E+03  0.25500000920E-02 0.  1.
       -2   -1    0    0    0  501  0.00000000000E+00  0.00000000000E+00 -0.12414301167E+03  0.12414301170E+03  0.25500000920E-02 0. -1.
    10030    2    1    2    0    0  0.00000000000E+00  0.00000000000E+00  0.85288627386E+03  0.11011722972E+04  0.69653817703E+03 0.  0.
        3    1    3    3  502    0 -0.14522182912E+03  0.61263928731E+01  0.92678532790E+03  0.93811404774E+03  0.10100000352E+00 0.  1.
       -3    1    3    3    0  502  0.14522182912E+03 -0.61263928731E+01 -0.73899054039E+02  0.16305824950E+03  0.10100000352E+00 0. -1.
</event>
<event>
 5   0  0.4440500E-03  0.7000623E+03  0.7818609E-02  0.9717126E-01
       -4   -1    0    0    0  501  0.00000000000E+00  0.00000000000E+00  0.22926506375E+03  0.22926858127E+03  0.12699999809E+01 0.  1.
        4   -1    0    0  501    0  0.00000000000E+00  0.00000000000E+00 -0.53440284866E+03  0.53440435772E+03  0.12699999809E+01 0. -1.
    10030    2    1    2    0    0  0.00000000000E+00  0.00000000000E+00 -0.30513778490E+03  0.76367293899E+03  0.70006234721E+03 0.  0.
        5    1    3    3  502    0  0.32947782782E+03 -0.84352885946E+02 -0.24271338391E+03  0.41785514849E+03  0.46999998093E+01 0. -1.
       -5    1    3    3    0  502 -0.32947782782E+03  0.84352885946E+02 -0.62424400996E+02  0.34581779051E+03  0.46999998093E+01 0.  1.
</event>
<event>
 5   0  0.1079446E-02  0.6966032E+03  0.7818609E-02  0.9723059E-01
        2   -1    0    0  501    0  0.00000000000E+00  0.00000000000E+00  0.13416414889E+04  0.13416414889E+04  0.25500000920E-02 0.  1.
       -2   -1    0    0    0  501  0.00000000000E+00  0.00000000000E+00 -0.90422082974E+02  0.90422083010E+02  0.25500000920E-02 0. -1.
    10030    2    1    2    0    0  0.00000000000E+00  0.00000000000E+00  0.12512194060E+04  0.14320635720E+04  0.69660323876E+03 0.  0.
        2    1    3    3  502    0  0.46405960994E+02  0.29890229107E+02 -0.81372926913E+02  0.98328491562E+02  0.25500000920E-02 0. -1.
       -2    1    3    3    0  502 -0.46405960994E+02 -0.29890229107E+02  0.13325923329E+04  0.13337350804E+04  0.25500000920E-02 0.  1.
</event>
<event>
 5   0  0.6609285E-03  0.7068629E+03  0.7818609E-02  0.9705567E-01
       -1   -1    0    0    0  501  0.00000000000E+00  0.00000000000E+00  0.14274564688E+03  0.14274564697E+03  0.50400001928E-02 0. -1.
        1   -1    0    0  501    0  0.00000000000E+00  0.00000000000E+00 -0.87507962133E+03  0.87507962134E+03  0.50400001928E-02 0.  1.
    10030    2    1    2    0    0  0.00000000000E+00  0.00000000000E+00 -0.73233397445E+03  0.10178252683E+04  0.70686294759E+03 0.  0.
        2    1    3    3  502    0  0.66188818824E+02 -0.22212411069E+03 -0.75036832572E+03  0.78534877891E+03  0.25500000920E-02 0.  1.
       -2    1    3    3    0  502 -0.66188818824E+02  0.22212411069E+03  0.18034351273E+02  0.23247648940E+03  0.25500000920E-02 0. -1.
</event>
<event>
 5   0  0.4440500E-03  0.7022453E+03  0.7818609E-02  0.9713400E-01
       -3   -1    0    0    0  501  0.00000000000E+00  0.00000000000E+00  0.26551871874E+03  0.26551873795E+03  0.10100000352E+00 0.  1.
        3   -1    0    0  501    0  0.00000000000E+00  0.00000000000E+00 -0.46432545174E+03  0.46432546273E+03  0.10100000352E+00 0. -1.
    10030    2    1    2    0    0  0.00000000000E+00  0.00000000000E+00 -0.19880673301E+03  0.72984420068E+03  0.70224528490E+03 0.  0.
        1    1    3    3  502    0  0.23773678667E+03 -0.21558005489E+03 -0.24745750748E+03  0.40525147481E+03  0.50400001928E-02 0. -1.
       -1    1    3    3    0  502 -0.23773678667E+03  0.21558005489E+03  0.48650774469E+02  0.32459272587E+03  0.50400001928E-02 0.  1.
</event>
<event>
 5   0  0.6785252E-03  0.6998644E+03  0.7818609E-02  0.9717464E-01
       -1   -1    0    0    0  501  0.00000000000E+00  0.00000000000E+00  0.14674484669E+03  0.14674484677E+03  0.50400001928E-02 0. -1.
        1   -1    0    0  501    0  0.00000000000E+00  0.00000000000E+00 -0.83445885935E+03  0.83445885937E+03  0.50400001928E-02 0.  1.
    10030    2    1    2    0    0  0.00000000000E+00  0.00000000000E+00 -0.68771401267E+03  0.98120370614E+03  0.69986437952E+03 0.  0.
        3    1    3    3  502    0  0.13473985857E+03 -0.32291300275E+03 -0.35085157905E+03  0.49550426594E+03  0.10100000352E+00 0. -1.
       -3    1    3    3    0  502 -0.13473985857E+03  0.32291300275E+03 -0.33686243361E+03  0.48569944021E+03  0.10100000352E+00 0.  1.
</event>
<event>
 5   0  0.1109788E-02  0.7008244E+03  0.7818609E-02  0.9715823E-01
        2   -1    0    0  501    0  0.00000000000E+00  0.00000000000E+00  0.93086992939E+03  0.93086992939E+03  0.25500000920E-02 0. -1.
       -2   -1    0    0    0  501  0.00000000000E+00  0.00000000000E+00 -0.13190746637E+03  0.13190746639E+03  0.25500000920E-02 0.  1.
    10030    2    1    2    0    0  0.00000000000E+00  0.00000000000E+00  0.79896246302E+03  0.10627773958E+04  0.70082435437E+03 0.  0.
        1    1    3    3  502    0  0.24207854900E+03  0.59814144445E+02  0.26143863999E+02  0.25072546224E+03  0.50400001928E-02 0.  1.
       -1    1    3    3    0  502 -0.24207854900E+03 -0.59814144445E+02  0.77281859902E+03  0.81205193355E+03  0.50400001928E-02 0. -1.
</event>
<event>
 5   0  0.6609285E-03  0.6931141E+03  0.7818609E-02  0.9729081E-01
        1   -1    0    0  501    0  0.00000000000E+00  0.00000000000E+00  0.78334897558E+03  0.78334897560E+03  0.50400001928E-02 0.  1.
       -1   -1    0    0    0  501  0.00000000000E+00  0.00000000000E+00 -0.15331838839E+03  0.15331838847E+03  0.50400001928E-02 0. -1.
    10030    2    1    2    0    0  0.00000000000E+00  0.00000000000E+00  0.63003058719E+03  0.93666736407E+03  0.69311413932E+03 0.  0.
        2    1    3    3  502    0 -0.15457686749E+03  0.23167220869E+03  0.36301898044E+02  0.28086268540E+03  0.25500000920E-02 0. -1.
       -2    1    3    3    0  502  0.15457686749E+03 -0.23167220869E+03  0.59372868915E+03  0.65580467867E+03  0.25500000920E-02 0.  1.
</event>
<event>
 5   0  0.1109788E-02  0.7034962E+03  0.7818609E-02  0.9711272E-01
       -2   -1    0    0    0  501  0.00000000000E+00  0.00000000000E+00  0.12497855468E+03  0.12497855471E+03  0.25500000920E-02 0.  1.
        2   -1    0    0  501    0  0.00000000000E+00  0.00000000000E+00 -0.98998367604E+03  0.98998367604E+03  0.25500000920E-02 0. -1.
    10030    2    1    2    0    0  0.00000000000E+00  0.00000000000E+00 -0.86500512135E+03  0.11149622308E+04  0.70349620897E+03 0.  0.
        1    1    3    3  502    0  0.97425099393E+02  0.31072265782E+03 -0.64327773302E+03  0.72100378772E+03  0.50400001928E-02 0.  1.
       -1    1    3    3    0  502 -0.97425099393E+02 -0.31072265782E+03 -0.22172738833E+03  0.39395844303E+03  0.50400001928E-02 0. -1.
</event>
<event>
 5   0  0.4440500E-03  0.7033046E+03  0.7818609E-02  0.9711598E-01
       -3   -1    0    0    0  501  0.00000000000E+00  0.00000000000E+00  0.61352324487E+03  0.61352325319E+03  0.10100000352E+00 0. -1.
        3   -1    0    0  501    0  0.00000000000E+00  0.00000000000E+00 -0.20155604339E+03  0.20155606870E+03  0.10100000352E+00 0.  1.
    10030    2    1    2    0    0  0.00000000000E+00  0.00000000000E+00  0.41196720148E+03  0.81507932189E+03  0.70330457547E+03 0.  0.
        3    1    3    3  502    0  0.22271165466E+03 -0.12929541446E+03  0.48350156018E+03  0.54780612832E+03  0.10100000352E+00 0. -1.
       -3    1    3    3    0  502 -0.22271165466E+03  0.12929541446E+03 -0.71534358704E+02  0.26727319357E+03  0.10100000352E+00 0.  1.
</event>
<event>
 5   0  0.1119786E-02  0.6971615E+03  0.7818609E-02  0.9722099E-01
       -2   -1    0    0    0  501  0.00000000000E+00  0.00000000000E+00  0.19703408550E+03  0.19703408552E+03  0.25500000920E-02 0.  1.
        2   -1    0    0  501    0  0.00000000000E+00  0.00000000000E+00 -0.61668793423E+03  0.61668793424E+03  0.25500000920E-02 0. -1.
    10030    2    1    2    0    0  0.00000000000E+00  0.00000000000E+00 -0.41965384873E+03  0.81372201975E+03  0.69716151119E+03 0.  0.
        3    1    3    3  502    0  0.22453282628E+02 -0.12718814473E+03  0.16807613001E+03  0.21196832249E+03  0.10100000352E+00 0.  1.
       -3    1    3    3    0  502 -0.22453282628E+02  0.12718814473E+03 -0.58772997874E+03  0.60175369726E+03  0.10100000352E+00 0. -1.
</event>
<event>
 5   0  0.6689415E-03  0.7068173E+03  0.7818609E-02  0.9705644E-01
       -1   -1    0    0    0  501  0.00000000000E+00  0.00000000000E+00  0.85865284826E+02  0.85865284973E+02  0.50400001928E-02 0. -1.
        1   -1    0    0  501    0  0.00000000000E+00  0.00000000000E+00 -0.14545771679E+04  0.14545771679E+04  0.50400001928E-02 0.  1.
    10030    2    1    2    0    0  0.00000000000E+00  0.00000000000E+00 -0.13687118831E+04  0.15404424529E+04  0.70681732561E+03 0.  0.
        1    1    3    3  502    0 -0.30068154944E+03 -0.15780948755E+03 -0.47099152633E+03  0.58064295952E+03  0.50400001928E-02 0. -1.
       -1    1    3    3    0  502  0.30068154944E+03  0.15780948755E+03 -0.89772035676E+03  0.95979949338E+03  0.50400001928E-02 0.  1.
</event>
<event>
 5   0  0.6689415E-03  0.7014491E+03  0.7818609E-02  0.9714757E-01
       -1   -1    0    0    0  501  0.00000000000E+00  0.00000000000E+00  0.11634765362E+03  0.11634765373E+03  0.50400001928E-02 0. -1.
        1   -1    0    0  501    0  0.00000000000E+00  0.00000000000E+00 -0.10572428616E+04  0.10572428616E+04  0.50400001928E-02 0.  1.
    10030    2    1    2    0    0  0.00000000000E+00  0.00000000000E+00 -0.94089520798E+03  0.11735905153E+04  0.70144914662E+03 0.  0.
        1    1    3    3  502    0  0.21620607683E+03  0.15930998201E+03 -0.84785178244E+03  0.88936909270E+03  0.50400001928E-02 0.  1.
       -1    1    3    3    0  502 -0.21620607683E+03 -0.15930998201E+03 -0.93043425532E+02  0.28422142264E+03  0.50400001928E-02 0. -1.
</event>
<event>
 5   0  0.1109788E-02  0.6984526E+03  0.7818609E-02  0.9719882E-01
        2   -1    0    0  501    0  0.00000000000E+00  0.00000000000E+00  0.36813629958E+03  0.36813629959E+03  0.25500000920E-02 0. -1.
       -2   -1    0    0    0  501  0.00000000000E+00  0.00000000000E+00 -0.33128765182E+03  0.33128765183E+03  0.25500000920E-02 0.  1.
    10030    2    1    2    0    0  0.00000000000E+00  0.00000000000E+00  0.36848647760E+02  0.69942395141E+03  0.69845260467E+03 0.  0.
        1    1    3    3  502    0  0.72060292769E+00  0.25714434656E+03 -0.21819918636E+03  0.33724563628E+03  0.50400001928E-02 0.  1.
       -1    1    3    3    0  502 -0.72060292769E+00 -0.25714434656E+03  0.25504783412E+03  0.36217831513E+03  0.50400001928E-02 0. -1.
</event>
<event>
 5   0  0.4440500E-03  0.7130222E+03  0.7818609E-02  0.9695218E-01
        4   -1    0    0  501    0  0.00000000000E+00  0.00000000000E+00  0.25535256575E+03  0.25535572391E+03  0.12699999809E+01 0. -1.
       -4   -1    0    0    0  501  0.00000000000E+00  0.00000000000E+00 -0.49773682191E+03  0.49773844214E+03  0.12699999809E+01 0.  1.
    10030    2    1    2    0    0  0.00000000000E+00  0.00000000000E+00 -0.24238425616E+03  0.75309416605E+03  0.71302222638E+03 0.  0.
        3    1    3    3  502    0 -0.25005535688E+03 -0.73308027715E+02 -0.37817327054E+03  0.45925677043E+03  0.10100000352E+00 0.  1.
       -3    1    3    3    0  502  0.25005535688E+03  0.73308027715E+02  0.13578901439E+03  0.29383739562E+03  0.10100000352E+00 0. -1.
</event>
<event>
 5   0  0.6689415E-03  0.7012866E+03  0.7818609E-02  0.9715034E-01
       -1   -1    0    0    0  501  0.00000000000E+00  0.00000000000E+00  0.40008335723E+03  0.40008335726E+03  0.50400001928E-02 0. -1.
        1   -1    0    0  501    0  0.00000000000E+00  0.00000000000E+00 -0.30731276963E+03  0.30731276967E+03  0.50400001928E-02 0.  1.
    10030    2    1    2    0    0  0.00000000000E+00  0.00000000000E+00  0.92770587603E+02  0.70739612693E+03  0.70128660224E+03 0.  0.
        1    1    3    3  502    0  0.24781899977E+03 -0.20840194271E+03  0.18211270897E+03  0.37149786697E+03  0.50400001928E-02 0. -1.
       -1    1    3    3    0  502 -0.24781899977E+03  0.20840194271E+03 -0.89342121365E+02  0.33589825996E+03  0.50400001928E-02 0.  1.
</event>
<event>
 5   0  0.1119786E-02  0.6993206E+03  0.7818609E-02  0.9718395E-01
        2   -1    0    0  501    0  0.00000000000E+00  0.00000000000E+00  0.45837308416E+03  0.45837308417E+03  0.25500000920E-02 0. -1.
       -2   -1    0    0    0  501  0.00000000000E+00  0.00000000000E+00 -0.26673103670E+03  0.26673103671E+03  0.25500000920E-02 0.  1.
    10030    2    1    2    0    0  0.00000000000E+00  0.00000000000E+00  0.19164204746E+03  0.72510412088E+03  0.69932060728E+03 0.  0.
        3    1    3    3  502    0  0.65337432619E+02 -0.33850931434E+03  0.15632287811E+03  0.37854245260E+03  0.10100000352E+00 0. -1.
       -3    1    3    3    0  502 -0.65337432619E+02  0.33850931434E+03  0.35319169350E+02  0.34656166828E+03  0.10100000352E+00 0.  1.
</event>
<event>
 5   0  0.6246998E-03  0.6941496E+03  0.7818609E-02  0.9727290E-01
       -1   -1    0    0    0  501  0.00000000000E+00  0.00000000000E+00  0.11114183220E+03  0.11114183232E+03  0.50400001928E-02 0.  1.
        1   -1    0    0  501    0  0.00000000000E+00  0.00000000000E+00 -0.10838485352E+04  0.10838485352E+04  0.50400001928E-02 0. -1.
    10030    2    1    2    0    0  0.00000000000E+00  0.00000000000E+00 -0.97270670295E+03  0.11949903675E+04  0.69414958648E+03 0.  0.
        4    1    3    3  502    0 -0.53140363768E+02  0.80303625916E+02  0.87680906368E+02  0.13023872250E+03  0.12699999809E+01 0.  1.
       -4    1    3    3    0  502  0.53140363768E+02 -0.80303625916E+02 -0.10603876093E+04  0.10647516450E+04  0.12699999809E+01 0. -1.
</event>
<event>
 5   0  0.6246998E-03  0.7147179E+03  0.7818609E-02  0.9692389E-01
       -1   -1    0    0    0  501  0.00000000000E+00  0.00000000000E+00  0.24582687042E+03  0.24582687047E+03  0.50400001928E-02 0. -1.
        1   -1    0    0  501    0  0.00000000000E+00  0.00000000000E+00 -0.51949331076E+03  0.51949331078E+03  0.50400001928E-02 0.  1.
    10030    2    1    2    0    0  0.00000000000E+00  0.00000000000E+00 -0.27366644034E+03  0.76532018125E+03  0.71471788788E+03 0.  0.
        4    1    3    3  502    0  0.22828483120E+03  0.17902323497E+03 -0.36027033521E+03  0.46255768305E+03  0.12699999809E+01 0. -1.
       -4    1    3    3    0  502 -0.22828483120E+03 -0.17902323497E+03  0.86603894869E+02  0.30276249820E+03  0.12699999809E+01 0.  1.
</event>
<event>
 5   0  0.6246998E-03  0.7005945E+03  0.7818609E-02  0.9716216E-01
        1   -1    0    0  501    0  0.00000000000E+00  0.00000000000E+00  0.87661702052E+03  0.87661702054E+03  0.50400001928E-02 0. -1.
       -1   -1    0    0    0  501  0.00000000000E+00  0.00000000000E+00 -0.13997921179E+03  0.13997921188E+03  0.50400001928E-02 0.  1.
    10030    2    1    2    0    0  0.00000000000E+00  0.00000000000E+00  0.73663780873E+03  0.10165962324E+04  0.70059448936E+03 0.  0.
        4    1    3    3  502    0  0.14940539598E+03 -0.18146668076E+03  0.74518492257E+03  0.78137974782E+03  0.12699999809E+01 0. -1.
       -4    1    3    3    0  502 -0.14940539598E+03  0.18146668076E+03 -0.85471138402E+01  0.23521648460E+03  0.12699999809E+01 0.  1.
</event>
<event>
 5   0  0.1079446E-02  0.6993806E+03  0.7818609E-02  0.9718292E-01
       -2   -1    0    0    0  501  0.00000000000E+00  0.00000000000E+00  0.47046537619E+02  0.47046537688E+02  0.25500000920E-02 0.  1.
        2   -1    0    0  501    0  0.00000000000E+00  0.00000000000E+00 -0.25991987040E+04  0.25991987040E+04  0.25500000920E-02 0. -1.
    10030    2    1    2    0    0  0.00000000000E+00  0.00000000000E+00 -0.25521521664E+04  0.26462452417E+04  0.69938058224E+03 0.  0.
        2    1    3    3  502    0  0.31161918473E+03  0.14261042293E+03 -0.10128695863E+04  0.10692750104E+04  0.25500000920E-02 0.  1.
       -2    1    3    3    0  502 -0.31161918473E+03 -0.14261042293E+03 -0.15392825801E+04  0.15769702313E+04  0.25500000920E-02 0. -1.
</event>
<event>
 5   0  0.1100119E-02  0.7008623E+03  0.7818609E-02  0.9715759E-01
        2   -1    0    0  501    0  0.00000000000E+00  0.00000000000E+00  0.55713988983E+03  0.55713988984E+03  0.25500000920E-02 0.  1.
       -2   -1    0    0    0  501  0.00000000000E+00  0.00000000000E+00 -0.22041497901E+03  0.22041497903E+03  0.25500000920E-02 0. -1.
    10030    2    1    2    0    0  0.00000000000E+00  0.00000000000E+00  0.33672491082E+03  0.77755486886E+03  0.70086226074E+03 0.  0.
        4    1    3    3  502    0 -0.54576987291E+02 -0.29486022610E+03 -0.32805476664E+02  0.30166042610E+03  0.12699999809E+01 0. -1.
       -4    1    3    3    0  502  0.54576987291E+02  0.29486022610E+03  0.36953038748E+03  0.47589444276E+03  0.12699999809E+01 0.  1.
</event>
<event>
 5   0  0.1119786E-02  0.6988415E+03  0.7818609E-02  0.9719215E-01
       -2   -1    0    0    0  501  0.00000000000E+00  0.00000000000E+00  0.23875413009E+03  0.23875413010E+03  0.25500000920E-02 0.  1.
        2   -1    0    0  501    0  0.00000000000E+00  0.00000000000E+00 -0.51138324137E+03  0.51138324138E+03  0.25500000920E-02 0. -1.
    10030    2    1    2    0    0  0.00000000000E+00  0.00000000000E+00 -0.27262911128E+03  0.75013737149E+03  0.69884150119E+03 0.  0.
        3    1    3    3  502    0 -0.10979364493E+03 -0.32790496359E+03 -0.19018327340E+03  0.39464667400E+03  0.10100000352E+00 0. -1.
       -3    1    3    3    0  502  0.10979364493E+03  0.32790496359E+03 -0.82445837881E+02  0.35549069749E+03  0.10100000352E+00 0.  1.
</event>
<event>
 5   0  0.6785252E-03  0.6889412E+03  0.7818609E-02  0.9736333E-01
       -1   -1    0    0    0  501  0.00000000000E+00  0.00000000000E+00  0.78412857161E+02  0.78412857323E+02  0.50400001928E-02 0.  1.
        1   -1    0    0  501    0  0.00000000000E+00  0.00000000000E+00 -0.15132720658E+04  0.15132720658E+04  0.50400001928E-02 0. -1.
    10030    2    1    2    0    0  0.00000000000E+00  0.00000000000E+00 -0.14348592086E+04  0.15916849231E+04  0.68894117738E+03 0.  0.
        3    1    3    3  502    0  0.91565692081E+02 -0.13986991853E+03 -0.14132667117E+04  0.14231200507E+04  0.10100000352E+00 0. -1.
       -3    1    3    3    0  502 -0.91565692081E+02  0.13986991853E+03 -0.21592496873E+02  0.16856487238E+03  0.10100000352E+00 0.  1.
</event>
<event>
 5   0  0.1119786E-02  0.6984980E+03  0.7818609E-02  0.9719804E-01
        2   -1    0    0  501    0  0.00000000000E+00  0.00000000000E+00  0.10833737674E+04  0.10833737674E+04  0.25500000920E-02 0. -1.
       -2   -1    0    0    0  501  0.00000000000E+00  0.00000000000E+00 -0.11258799104E+03  0.11258799107E+03  0.25500000920E-02 0.  1.
    10030    2    1    2    0    0  0.00000000000E+00  0.00000000000E+00  0.97078577636E+03  0.11959617585E+04  0.69849803445E+03 0.  0.
        3    1    3    3  502    0 -0.16135620105E+03 -0.19589072479E+02  0.10146656187E+04  0.10276020063E+04  0.10100000352E+00 0. -1.
       -3    1    3    3    0  502  0.16135620105E+03  0.19589072479E+02 -0.43879842352E+02  0.16835975215E+03  0.10100000352E+00 0.  1.
</event>
<event>
 5   0  0.4440500E-03  0.7012867E+03  0.7818609E-02  0.9715034E-01
        3   -1    0    0  501    0  0.00000000000E+00  0.00000000000E+00  0.21649782534E+03  0.21649784890E+03  0.10100000352E+00 0. -1.
       -3   -1    0    0    0  501  0.00000000000E+00  0.00000000000E+00 -0.56790748433E+03  0.56790749331E+03  0.10100000352E+00 0.  1.
    10030    2    1    2    0    0  0.00000000000E+00  0.00000000000E+00 -0.35140965899E+03  0.78440534221E+03  0.70128666924E+03 0.  0.
        4    1    3    3  502    0 -0.33664784044E+03  0.57573159936E+02 -0.26450385672E+03  0.43198418991E+03  0.12699999809E+01 0.  1.
       -4    1    3    3    0  502  0.33664784044E+03 -0.57573159936E+02 -0.86905802274E+02  0.35242115229E+03  0.12699999809E+01 0. -1.
</event>
<event>
 5   0  0.1079446E-02  0.7041761E+03  0.7818609E-02  0.9710117E-01
        2   -1    0    0  501    0  0.00000000000E+00  0.00000000000E+00  0.18793393597E+04  0.18793393597E+04  0.25500000920E-02 0.  1.
       -2   -1    0    0    0  501  0.00000000000E+00  0.00000000000E+00 -0.65962530293E+02  0.65962530342E+02  0.25500000920E-02 0. -1.
    10030    2    1    2    0    0  0.00000000000E+00  0.00000000000E+00  0.18133768294E+04  0.19453018900E+04  0.70417605610E+03 0.  0.
        2    1    3    3  502    0  0.31583840631E+03 -0.82259973742E+00  0.47683959208E+03  0.57195329542E+03  0.25500000920E-02 0.  1.
       -2    1    3    3    0  502 -0.31583840631E+03  0.82259973742E+00  0.13365372373E+04  0.13733485946E+04  0.25500000920E-02 0. -1.
</event>
<event>
 5   0  0.6785252E-03  0.7008882E+03  0.7818609E-02  0.9715714E-01
        1   -1    0    0  501    0  0.00000000000E+00  0.00000000000E+00  0.37374092184E+03  0.37374092188E+03  0.50400001928E-02 0. -1.
       -1   -1    0    0    0  501  0.00000000000E+00  0.00000000000E+00 -0.32859947669E+03  0.32859947673E+03  0.50400001928E-02 0.  1.
    10030    2    1    2    0    0  0.00000000000E+00  0.00000000000E+00  0.45141445150E+02  0.70234039861E+03  0.70088821180E+03 0.  0.
        3    1    3    3  502    0 -0.11194857930E+03 -0.10046583316E+03 -0.29460553020E+03  0.33078436582E+03  0.10100000352E+00 0.  1.
       -3    1    3    3    0  502  0.11194857930E+03  0.10046583316E+03  0.33974697535E+03  0.37155603279E+03  0.10100000352E+00 0. -1.
</event>
<event>
 5   0  0.1099980E-02  0.7019009E+03  0.7818609E-02  0.9713987E-01
       -2   -1    0    0    0  501  0.00000000000E+00  0.00000000000E+00  0.94213984959E+02  0.94213984993E+02  0.25500000920E-02 0. -1.
        2   -1    0    0  501    0  0.00000000000E+00  0.00000000000E+00 -0.13073028450E+04  0.13073028450E+04  0.25500000920E-02 0.  1.
    10030    2    1    2    0    0  0.00000000000E+00  0.00000000000E+00 -0.12130888601E+04  0.14015168300E+04  0.70190087791E+03 0.  0.
        5    1    3    3  502    0  0.15649537411E+03 -0.13041324970E+03 -0.36000357778E+02  0.20692156382E+03  0.46999998093E+01 0. -1.
       -5    1    3    3    0  502 -0.15649537411E+03  0.13041324970E+03 -0.11770885023E+04  0.11945952662E+04  0.46999998093E+01 0.  1.
</event>
<event>
 5   0  0.6990118E-03  0.6977036E+03  0.7818609E-02  0.9721168E-01
        1   -1    0    0  501    0  0.00000000000E+00  0.00000000000E+00  0.21474005349E+03  0.21474005355E+03  0.50400001928E-02 0.  1.
       -1   -1    0    0    0  501  0.00000000000E+00  0.00000000000E+00 -0.56672036438E+03  0.56672036441E+03  0.50400001928E-02 0. -1.
    10030    2    1    2    0    0  0.00000000000E+00  0.00000000000E+00 -0.35198031089E+03  0.78146041796E+03  0.69770355136E+03 0.  0.
        5    1    3    3  502    0  0.40856265976E+02 -0.15271086734E+03  0.17228060386E+03  0.23386436227E+03  0.46999998093E+01 0.  1.
       -5    1    3    3    0  502 -0.40856265976E+02  0.15271086734E+03 -0.52426091475E+03  0.54759605569E+03  0.46999998093E+01 0. -1.
</event>
<event>
 5   0  0.1099980E-02  0.7035206E+03  0.7818609E-02  0.9711230E-01
       -2   -1    0    0    0  501  0.00000000000E+00  0.00000000000E+00  0.10081783357E+03  0.10081783360E+03  0.25500000920E-02 0.  1.
        2   -1    0    0  501    0  0.00000000000E+00  0.00000000000E+00 -0.12273156958E+04  0.12273156958E+04  0.25500000920E-02 0. -1.
    10030    2    1    2    0    0  0.00000000000E+00  0.00000000000E+00 -0.11264978622E+04  0.13281335294E+04  0.70352060262E+03 0.  0.
        5    1    3    3  502    0  0.45080009300E+02  0.25170965922E+03 -0.10733190063E+03  0.27736652047E+03  0.46999998093E+01 0.  1.
       -5    1    3    3    0  502 -0.45080009300E+02 -0.25170965922E+03 -0.10191659616E+04  0.10507670089E+04  0.46999998093E+01 0. -1.
</event>
<event>
 5   0  0.1109788E-02  0.7006719E+03  0.7818609E-02  0.9716084E-01
        2   -1    0    0  501    0  0.00000000000E+00  0.00000000000E+00  0.23439132703E+03  0.23439132704E+03  0.25500000920E-02 0. -1.
       -2   -1    0    0    0  501  0.00000000000E+00  0.00000000000E+00 -0.52363411388E+03  0.52363411389E+03  0.25500000920E-02 0.  1.
    10030    2    1    2    0    0  0.00000000000E+00  0.00000000000E+00 -0.28924278686E+03  0.75802544093E+03  0.70067194845E+03 0.  0.
        1    1    3    3  502    0 -0.21529839133E+03 -0.30844895962E-02  0.15437384520E+03  0.26492391630E+03  0.50400001928E-02 0. -1.
       -1    1    3    3    0  502  0.21529839133E+03  0.30844895962E-02 -0.44361663206E+03  0.49310152462E+03  0.50400001928E-02 0.  1.
</event>
<event>
 5   0  0.1100119E-02  0.7304760E+03  0.7818609E-02  0.9666488E-01
       -2   -1    0    0    0  501  0.00000000000E+00  0.00000000000E+00  0.42678070456E+03  0.42678070457E+03  0.25500000920E-02 0.  1.
        2   -1    0    0  501    0  0.00000000000E+00  0.00000000000E+00 -0.31256986023E+03  0.31256986024E+03  0.25500000920E-02 0. -1.
    10030    2    1    2    0    0  0.00000000000E+00  0.00000000000E+00  0.11421084434E+03  0.73935056481E+03  0.73047596862E+03 0.  0.
        4    1    3    3  502    0 -0.18897548186E+03  0.19991791766E+03  0.30027044895E+03  0.40723809002E+03  0.12699999809E+01 0.  1.
       -4    1    3    3    0  502  0.18897548186E+03 -0.19991791766E+03 -0.18605960462E+03  0.33211247480E+03  0.12699999809E+01 0. -1.
</event>
<event>
 5   0  0.6785252E-03  0.7005471E+03  0.7818609E-02  0.9716297E-01
        1   -1    0    0  501    0  0.00000000000E+00  0.00000000000E+00  0.30762887092E+03  0.30762887096E+03  0.50400001928E-02 0. -1.
       -1   -1    0    0    0  501  0.00000000000E+00  0.00000000000E+00 -0.39882975055E+03  0.39882975058E+03  0.50400001928E-02 0.  1.
    10030    2    1    2    0    0  0.00000000000E+00  0.00000000000E+00 -0.91200879623E+02  0.70645862154E+03  0.70054706016E+03 0.  0.
        3    1    3    3  502    0  0.33445639392E+03 -0.65975030272E+02 -0.12676408818E+03  0.36370720133E+03  0.10100000352E+00 0.  1.
       -3    1    3    3    0  502 -0.33445639392E+03  0.65975030272E+02  0.35563208553E+02  0.34275142021E+03  0.10100000352E+00 0. -1.
</event>
<event>
 5   0  0.6246998E-03  0.7252466E+03  0.7818609E-02  0.9675005E-01
        1   -1    0    0  501    0  0.00000000000E+00  0.00000000000E+00  0.79804445295E+03  0.79804445296E+03  0.50400001928E-02 0. -1.
       -1   -1    0    0    0  501  0.00000000000E+00  0.00000000000E+00 -0.16477232632E+03  0.16477232639E+03  0.50400001928E-02 0.  1.
    10030    2    1    2    0    0  0.00000000000E+00  0.00000000000E+00  0.63327212663E+03  0.96281677936E+03  0.72524655410E+03 0.  0.
        4    1    3    3  502    0  0.33572837577E+02 -0.28738536388E+03  0.26457485393E+02  0.29054964159E+03  0.12699999809E+01 0.  1.
       -4    1    3    3    0  502 -0.33572837577E+02  0.28738536388E+03  0.60681464124E+03  0.67226713776E+03  0.12699999809E+01 0. -1.
</event>
<event>
 5   0  0.1109788E-02  0.7036752E+03  0.7818609E-02  0.9710968E-01
       -2   -1    0    0    0  501  0.00000000000E+00  0.00000000000E+00  0.65568513472E+02  0.65568513522E+02  0.25500000920E-02 0.  1.
        2   -1    0    0  501    0  0.00000000000E+00  0.00000000000E+00 -0.18879442078E+04  0.18879442078E+04  0.25500000920E-02 0. -1.
    10030    2    1    2    0    0  0.00000000000E+00  0.00000000000E+00 -0.18223756943E+04  0.19535127213E+04  0.70367519573E+03 0.  0.
        1    1    3    3  502    0 -0.66667868122E+02 -0.33804314730E+03 -0.11088985813E+04  0.11611950041E+04  0.50400001928E-02 0. -1.
       -1    1    3    3    0  502  0.66667868122E+02  0.33804314730E+03 -0.71347711303E+03  0.79231771716E+03  0.50400001928E-02 0.  1.
</event>
<event>
 5   0  0.6246998E-03  0.7029831E+03  0.7818609E-02  0.9712144E-01
       -1   -1    0    0    0  501  0.00000000000E+00  0.00000000000E+00  0.24673075828E+03  0.24673075833E+03  0.50400001928E-02 0.  1.
        1   -1    0    0  501    0  0.00000000000E+00  0.00000000000E+00 -0.50073333238E+03  0.50073333240E+03  0.50400001928E-02 0. -1.
    10030    2    1    2    0    0  0.00000000000E+00  0.00000000000E+00 -0.25400257410E+03  0.74746409073E+03  0.70298311451E+03 0.  0.
        4    1    3    3  502    0 -0.17654124357E+03 -0.21284405905E+03  0.10369572930E+03  0.29533679305E+03  0.12699999809E+01 0.  1.
       -4    1    3    3    0  502  0.17654124357E+03  0.21284405905E+03 -0.35769830340E+03  0.45212729768E+03  0.12699999809E+01 0. -1.
</event>
<event>
 5   0  0.1100119E-02  0.6909052E+03  0.7818609E-02  0.9732913E-01
        2   -1    0    0  501    0  0.00000000000E+00  0.00000000000E+00  0.57817897109E+03  0.57817897109E+03  0.25500000920E-02 0. -1.
       -2   -1    0    0    0  501  0.00000000000E+00  0.00000000000E+00 -0.20640233709E+03  0.20640233710E+03  0.25500000920E-02 0.  1.
    10030    2    1    2    0    0  0.00000000000E+00  0.00000000000E+00  0.37177663400E+03  0.78458130820E+03  0.69090517698E+03 0.  0.
        4    1    3    3  502    0  0.33061940669E+03 -0.38541117773E+02  0.29083789314E+03  0.44202138277E+03  0.12699999809E+01 0.  1.
       -4    1    3    3    0  502 -0.33061940669E+03  0.38541117773E+02  0.80938740855E+02  0.34255992543E+03  0.12699999809E+01 0. -1.
</event>
<event>
 5   0  0.1099980E-02  0.7024028E+03  0.7818609E-02  0.9713132E-01
       -2   -1    0    0    0  501  0.00000000000E+00  0.00000000000E+00  0.24346967922E+03  0.24346967924E+03  0.25500000920E-02 0.  1.
        2   -1    0    0  501    0  0.00000000000E+00  0.00000000000E+00 -0.50660277339E+03  0.50660277340E+03  0.25500000920E-02 0. -1.
    10030    2    1    2    0    0  0.00000000000E+00  0.00000000000E+00 -0.26313309417E+03  0.75007245264E+03  0.70240277545E+03 0.  0.
        5    1    3    3  502    0  0.31006935608E+03 -0.16460540775E+03 -0.14125880564E+03  0.37843636983E+03  0.46999998093E+01 0.  1.
       -5    1    3    3    0  502 -0.31006935608E+03  0.16460540775E+03 -0.12187428853E+03  0.37163608281E+03  0.46999998093E+01 0. -1.
</event>
<event>
 5   0  0.1099980E-02  0.7015356E+03  0.7818609E-02  0.9714610E-01
        2   -1    0    0  501    0  0.00000000000E+00  0.00000000000E+00  0.10501123510E+04  0.10501123510E+04  0.25500000920E-02 0.  1.
       -2   -1    0    0    0  501  0.00000000000E+00  0.00000000000E+00 -0.11716657376E+03  0.11716657379E+03  0.25500000920E-02 0. -1.
    10030    2    1    2    0    0  0.00000000000E+00  0.00000000000E+00  0.93294577727E+03  0.11672789248E+04  0.70153564771E+03 0.  0.
        5    1    3    3  502    0 -0.86797137137E+02  0.84588840729E+02 -0.81164613221E+02  0.14594108205E+03  0.46999998093E+01 0. -1.
       -5    1    3    3    0  502  0.86797137137E+02 -0.84588840729E+02  0.10141103905E+04  0.10213378428E+04  0.46999998093E+01 0.  1.
</event>
<event>
 5   0  0.6609285E-03  0.7011248E+03  0.7818609E-02  0.9715311E-01
        1   -1    0    0  501    0  0.00000000000E+00  0.00000000000E+00  0.59782039749E+03  0.59782039751E+03  0.50400001928E-02 0. -1.
       -1   -1    0    0    0  501  0.00000000000E+00  0.00000000000E+00 -0.20557009041E+03  0.20557009047E+03  0.50400001928E-02 0.  1.
    10030    2    1    2    0    0  0.00000000000E+00  0.00000000000E+00  0.39225030708E+03  0.80339048798E+03  0.70112479115E+03 0.  0.
        2    1    3    3  502    0 -0.16991397499E+03  0.62318795723E+01 -0.15515955369E+03  0.23018271509E+03  0.25500000920E-02 0.  1.
       -2    1    3    3    0  502  0.16991397499E+03 -0.62318795723E+01  0.54740986077E+03  0.57320777288E+03  0.25500000920E-02 0. -1.
</event>
<event>
 5   0  0.6609285E-03  0.7006944E+03  0.7818609E-02  0.9716045E-01
        1   -1    0    0  501    0  0.00000000000E+00  0.00000000000E+00  0.24117652118E+03  0.24117652124E+03  0.50400001928E-02 0. -1.
       -1   -1    0    0    0  501  0.00000000000E+00  0.00000000000E+00 -0.50893495369E+03  0.50893495371E+03  0.50400001928E-02 0.  1.
    10030    2    1    2    0    0  0.00000000000E+00  0.00000000000E+00 -0.26775843250E+03  0.75011147495E+03  0.70069440320E+03 0.  0.
        2    1    3    3  502    0  0.20304169009E+03  0.98323567795E+02  0.15307305706E+03  0.27262577410E+03  0.25500000920E-02 0. -1.
       -2    1    3    3    0  502 -0.20304169009E+03 -0.98323567795E+02 -0.42083148956E+03  0.47748570085E+03  0.25500000920E-02 0.  1.
</event>
<event>
 5   0  0.4440500E-03  0.7193150E+03  0.7818609E-02  0.9684759E-01
        3   -1    0    0  501    0  0.00000000000E+00  0.00000000000E+00  0.36150388518E+03  0.36150389929E+03  0.10100000352E+00 0. -1.
       -3   -1    0    0    0  501  0.00000000000E+00  0.00000000000E+00 -0.35782053517E+03  0.35782054943E+03  0.10100000352E+00 0.  1.
    10030    2    1    2    0    0  0.00000000000E+00  0.00000000000E+00  0.36833500072E+01  0.71932444871E+03  0.71931501823E+03 0.  0.
        2    1    3    3  502    0  0.17545676937E+03  0.31473299227E+02  0.31422034898E+03  0.36126178071E+03  0.25500000920E-02 0. -1.
       -2    1    3    3    0  502 -0.17545676937E+03 -0.31473299227E+02 -0.31053699897E+03  0.35806266800E+03  0.25500000920E-02 0.  1.
</event>
<event>
 5   0  0.6689415E-03  0.6718045E+03  0.7818609E-02  0.9766703E-01
        1   -1    0    0  501    0  0.00000000000E+00  0.00000000000E+00  0.43944059050E+03  0.43944059053E+03  0.50400001928E-02 0.  1.
       -1   -1    0    0    0  501  0.00000000000E+00  0.00000000000E+00 -0.25675901277E+03  0.25675901282E+03  0.50400001928E-02 0. -1.
    10030    2    1    2    0    0  0.00000000000E+00  0.00000000000E+00  0.18268157773E+03  0.69619960335E+03  0.67180453174E+03 0.  0.
        1    1    3    3  502    0 -0.79871506711E+01 -0.10068873085E+03 -0.24064878592E+03  0.26098630862E+03  0.50400001928E-02 0. -1.
       -1    1    3    3    0  502  0.79871506711E+01  0.10068873085E+03  0.42333036365E+03  0.43521329473E+03  0.50400001928E-02 0.  1.
</event>
<event>
 5   0  0.1099980E-02  0.7003950E+03  0.7818609E-02  0.9716557E-01
        2   -1    0    0  501    0  0.00000000000E+00  0.00000000000E+00  0.65871484411E+03  0.65871484412E+03  0.25500000920E-02 0. -1.
       -2   -1    0    0    0  501  0.00000000000E+00  0.00000000000E+00 -0.18617813721E+03  0.18617813723E+03  0.25500000920E-02 0.  1.
    10030    2    1    2    0    0  0.00000000000E+00  0.00000000000E+00  0.47253670690E+03  0.84489298135E+03  0.70039503893E+03 0.  0.
        5    1    3    3  502    0  0.27757722321E+03 -0.46049506615E+02  0.48770943885E+03  0.56307393711E+03  0.46999998093E+01 0. -1.
       -5    1    3    3    0  502 -0.27757722321E+03  0.46049506615E+02 -0.15172731953E+02  0.28181904424E+03  0.46999998093E+01 0.  1.
</event>
<event>
 5   0  0.1100119E-02  0.6993745E+03  0.7818609E-02  0.9718303E-01
       -2   -1    0    0    0  501  0.00000000000E+00  0.00000000000E+00  0.12350530258E+03  0.12350530260E+03  0.25500000920E-02 0.  1.
        2   -1    0    0  501    0  0.00000000000E+00  0.00000000000E+00 -0.99008839048E+03  0.99008839049E+03  0.25500000920E-02 0. -1.
    10030    2    1    2    0    0  0.00000000000E+00  0.00000000000E+00 -0.86658308791E+03  0.11135936931E+04  0.69937448126E+03 0.  0.
        4    1    3    3  502    0 -0.23295770380E+03  0.27862013351E+02 -0.20423415813E+02  0.23550862482E+03  0.12699999809E+01 0.  1.
       -4    1    3    3    0  502  0.23295770380E+03 -0.27862013351E+02 -0.84615967209E+03  0.87808506827E+03  0.12699999809E+01 0. -1.
</event>
<event>
 5   0  0.1109788E-02  0.7010217E+03  0.7818609E-02  0.9715487E-01
        2   -1    0    0  501    0  0.00000000000E+00  0.00000000000E+00  0.21796133109E+04  0.21796133109E+04  0.25500000920E-02 0.  1.
       -2   -1    0    0    0  501  0.00000000000E+00  0.00000000000E+00 -0.56366806908E+02  0.56366806966E+02  0.25500000920E-02 0. -1.
    10030    2    1    2    0    0  0.00000000000E+00  0.00000000000E+00  0.21232465040E+04  0.22359801179E+04  0.70102166213E+03 0.  0.
        1    1    3    3  502    0 -0.73545509556E+02 -0.32635965494E+03  0.13952116551E+04  0.14347596067E+04  0.50400001928E-02 0.  1.
       -1    1    3    3    0  502  0.73545509556E+02  0.32635965494E+03  0.72803484889E+03  0.80122051121E+03  0.50400001928E-02 0. -1.
</event>
<event>
 5   0  0.1109788E-02  0.7002075E+03  0.7818609E-02  0.9716877E-01
        2   -1    0    0  501    0  0.00000000000E+00  0.00000000000E+00  0.95475040109E+03  0.95475040109E+03  0.25500000920E-02 0. -1.
       -2   -1    0    0    0  501  0.00000000000E+00  0.00000000000E+00 -0.12838186730E+03  0.12838186732E+03  0.25500000920E-02 0.  1.
    10030    2    1    2    0    0  0.00000000000E+00  0.00000000000E+00  0.82636853379E+03  0.10831322684E+04  0.70020751012E+03 0.  0.
        1    1    3    3  502    0 -0.33248000098E+03  0.37908548893E+02  0.57238924171E+03  0.66303050698E+03  0.50400001928E-02 0. -1.
       -1    1    3    3    0  502  0.33248000098E+03 -0.37908548893E+02  0.25397929208E+03  0.42010176144E+03  0.50400001928E-02 0.  1.
</event>
<event>
 5   0  0.6609285E-03  0.6973852E+03  0.7818609E-02  0.9721714E-01
        1   -1    0    0  501    0  0.00000000000E+00  0.00000000000E+00  0.11656511200E+04  0.11656511200E+04  0.50400001928E-02 0. -1.
       -1   -1    0    0    0  501  0.00000000000E+00  0.00000000000E+00 -0.10430781760E+03  0.10430781772E+03  0.50400001928E-02 0.  1.
    10030    2    1    2    0    0  0.00000000000E+00  0.00000000000E+00  0.10613433024E+04  0.12699589378E+04  0.69738518625E+03 0.  0.
        2    1    3    3  502    0  0.24197563580E+03 -0.18307866624E+03  0.84353127858E+03  0.89644577321E+03  0.25500000920E-02 0. -1.
       -2    1    3    3    0  502 -0.24197563580E+03  0.18307866624E+03  0.21781202384E+03  0.37351316454E+03  0.25500000920E-02 0.  1.
</event>
<event>
 5   0  0.6990118E-03  0.6915016E+03  0.7818609E-02  0.9731877E-01
       -1   -1    0    0    0  501  0.00000000000E+00  0.00000000000E+00  0.11216564545E+03  0.11216564557E+03  0.50400001928E-02 0. -1.
        1   -1    0    0  501    0  0.00000000000E+00  0.00000000000E+00 -0.10657773752E+04  0.10657773752E+04  0.50400001928E-02 0.  1.
    10030    2    1    2    0    0  0.00000000000E+00  0.00000000000E+00 -0.95361172978E+03  0.11779430208E+04  0.69150157563E+03 0.  0.
        5    1    3    3  502    0 -0.26300260942E+03  0.15316961525E+03 -0.75614271785E+03  0.81511054671E+03  0.46999998093E+01 0.  1.
       -5    1    3    3    0  502  0.26300260942E+03 -0.15316961525E+03 -0.19746901193E+03  0.36283247411E+03  0.46999998093E+01 0. -1.
</event>
<event>
 5   0  0.1099980E-02  0.6962396E+03  0.7818609E-02  0.9723685E-01
        2   -1    0    0  501    0  0.00000000000E+00  0.00000000000E+00  0.13938793087E+04  0.13938793087E+04  0.25500000920E-02 0. -1.
       -2   -1    0    0    0  501  0.00000000000E+00  0.00000000000E+00 -0.86942535650E+02  0.86942535687E+02  0.25500000920E-02 0.  1.
    10030    2    1    2    0    0  0.00000000000E+00  0.00000000000E+00  0.13069367730E+04  0.14808218444E+04  0.69623961828E+03 0.  0.
        5    1    3    3  502    0 -0.10992346412E+03 -0.20230954505E+03  0.12087157969E+04  0.12304585680E+04  0.46999998093E+01 0. -1.
       -5    1    3    3    0  502  0.10992346412E+03  0.20230954505E+03  0.98220976117E+02  0.25036327632E+03  0.46999998093E+01 0.  1.
</event>
<event>
 5   0  0.6246998E-03  0.6985292E+03  0.7818609E-02  0.9719751E-01
       -1   -1    0    0    0  501  0.00000000000E+00  0.00000000000E+00  0.23006791483E+03  0.23006791488E+03  0.50400001928E-02 0.  1.
        1   -1    0    0  501    0  0.00000000000E+00  0.00000000000E+00 -0.53021635440E+03  0.53021635442E+03  0.50400001928E-02 0. -1.
    10030    2    1    2    0    0  0.00000000000E+00  0.00000000000E+00 -0.30014843957E+03  0.76028426930E+03  0.69852922943E+03 0.  0.
        4    1    3    3  502    0 -0.50110677586E+02  0.23911255453E+03 -0.42173653350E+03  0.48739020336E+03  0.12699999809E+01 0. -1.
       -4    1    3    3    0  502  0.50110677586E+02 -0.23911255453E+03  0.12158809393E+03  0.27289406594E+03  0.12699999809E+01 0.  1.
</event>
<event>
 5   0  0.1079446E-02  0.6910769E+03  0.7818609E-02  0.9732615E-01
       -2   -1    0    0    0  501  0.00000000000E+00  0.00000000000E+00  0.45799979014E+02  0.45799979085E+02  0.25500000920E-02 0.  1.
        2   -1    0    0  501    0  0.00000000000E+00  0.00000000000E+00 -0.26069184328E+04  0.26069184328E+04  0.25500000920E-02 0. -1.
    10030    2    1    2    0    0  0.00000000000E+00  0.00000000000E+00 -0.25611184537E+04  0.26527184118E+04  0.69107686869E+03 0.  0.
        2    1    3    3  502    0  0.33602633491E+03  0.57634611357E+02 -0.14963843549E+04  0.15347317628E+04  0.25500000920E-02 0.  1.
       -2    1    3    3    0  502 -0.33602633491E+03 -0.57634611357E+02 -0.10647340988E+04  0.11179866490E+04  0.25500000920E-02 0. -1.
</event>
<event>
 5   0  0.6689415E-03  0.6994204E+03  0.7818609E-02  0.9718224E-01
       -1   -1    0    0    0  501  0.00000000000E+00  0.00000000000E+00  0.12309153121E+03  0.12309153132E+03  0.50400001928E-02 0. -1.
        1   -1    0    0  501    0  0.00000000000E+00  0.00000000000E+00 -0.99354695994E+03  0.99354695996E+03  0.50400001928E-02 0.  1.
    10030    2    1    2    0    0  0.00000000000E+00  0.00000000000E+00 -0.87045542873E+03  0.11166384913E+04  0.69942037916E+03 0.  0.
        1    1    3    3  502    0 -0.31593537456E+03 -0.74584039529E+02 -0.22756180418E+03  0.39643702476E+03  0.50400001928E-02 0. -1.
       -1    1    3    3    0  502  0.31593537456E+03  0.74584039529E+02 -0.64289362456E+03  0.72020146652E+03  0.50400001928E-02 0.  1.
</event>
<event>
 5   0  0.1119786E-02  0.6883495E+03  0.7818609E-02  0.9737366E-01
       -2   -1    0    0    0  501  0.00000000000E+00  0.00000000000E+00  0.12258114994E+03  0.12258114997E+03  0.25500000920E-02 0.  1.
        2   -1    0    0  501    0  0.00000000000E+00  0.00000000000E+00 -0.96634964122E+03  0.96634964122E+03  0.25500000920E-02 0. -1.
    10030    2    1    2    0    0  0.00000000000E+00  0.00000000000E+00 -0.84376849127E+03  0.10889307912E+04  0.68834947601E+03 0.  0.
        3    1    3    3  502    0  0.23968544260E+03  0.87422106940E+02 -0.78732546419E+03  0.82763103672E+03  0.10100000352E+00 0. -1.
       -3    1    3    3    0  502 -0.23968544260E+03 -0.87422106940E+02 -0.56443027081E+02  0.26129975447E+03  0.10100000352E+00 0.  1.
</event>
<event>
 5   0  0.1099980E-02  0.7003672E+03  0.7818609E-02  0.9716604E-01
       -2   -1    0    0    0  501  0.00000000000E+00  0.00000000000E+00  0.11300241218E+04  0.11300241218E+04  0.25500000920E-02 0.  1.
        2   -1    0    0  501    0  0.00000000000E+00  0.00000000000E+00 -0.10851851927E+03  0.10851851930E+03  0.25500000920E-02 0. -1.
    10030    2    1    2    0    0  0.00000000000E+00  0.00000000000E+00  0.10215056025E+04  0.12385426411E+04  0.70036717358E+03 0.  0.
        5    1    3    3  502    0 -0.15274318478E+03 -0.27963286267E+03  0.76751747768E+03  0.83104162767E+03  0.46999998093E+01 0.  1.
       -5    1    3    3    0  502  0.15274318478E+03  0.27963286267E+03  0.25398812482E+03  0.40750101341E+03  0.46999998093E+01 0. -1.
</event>
<event>
 5   0  0.6689415E-03  0.7059287E+03  0.7818609E-02  0.9707147E-01
        1   -1    0    0  501    0  0.00000000000E+00  0.00000000000E+00  0.90420992384E+03  0.90420992385E+03  0.50400001928E-02 0. -1.
       -1   -1    0    0    0  501  0.00000000000E+00  0.00000000000E+00 -0.13778199238E+03  0.13778199247E+03  0.50400001928E-02 0.  1.
    10030    2    1    2    0    0  0.00000000000E+00  0.00000000000E+00  0.76642793146E+03  0.10419919163E+04  0.70592873547E+03 0.  0.
        1    1    3    3  502    0  0.30886989210E+03  0.16954701089E+03  0.41407190517E+03  0.54369324239E+03  0.50400001928E-02 0.  1.
       -1    1    3    3    0  502 -0.30886989210E+03 -0.16954701089E+03  0.35235602629E+03  0.49829867393E+03  0.50400001928E-02 0. -1.
</event>
<event>
 5   0  0.6246998E-03  0.7032670E+03  0.7818609E-02  0.9711662E-01
        1   -1    0    0  501    0  0.00000000000E+00  0.00000000000E+00  0.14504980886E+04  0.14504980886E+04  0.50400001928E-02 0. -1.
       -1   -1    0    0    0  501  0.00000000000E+00  0.00000000000E+00 -0.85243895317E+02  0.85243895466E+02  0.50400001928E-02 0.  1.
    10030    2    1    2    0    0  0.00000000000E+00  0.00000000000E+00  0.13652541933E+04  0.15357419841E+04  0.70326696878E+03 0.  0.
        4    1    3    3  502    0  0.31296556719E+03 -0.54453327351E+02  0.35338470589E+03  0.47517888670E+03  0.12699999809E+01 0.  1.
       -4    1    3    3    0  502 -0.31296556719E+03  0.54453327351E+02  0.10118694874E+04  0.10605630974E+04  0.12699999809E+01 0. -1.
</event>
<event>
 5   0  0.6990118E-03  0.7002359E+03  0.7818609E-02  0.9716829E-01
        1   -1    0    0  501    0  0.00000000000E+00  0.00000000000E+00  0.17526894200E+04  0.17526894200E+04  0.50400001928E-02 0.  1.
       -1   -1    0    0    0  501  0.00000000000E+00  0.00000000000E+00 -0.69939702051E+02  0.69939702232E+02  0.50400001928E-02 0. -1.
    10030    2    1    2    0    0  0.00000000000E+00  0.00000000000E+00  0.16827497180E+04  0.18226291223E+04  0.70023589167E+03 0.  0.
        5    1    3    3  502    0 -0.10127011750E+03  0.35040917603E+02  0.17088678532E+04  0.17122309810E+04  0.46999998093E+01 0.  1.
       -5    1    3    3    0  502  0.10127011750E+03 -0.35040917603E+02 -0.26118135241E+02  0.11039814125E+03  0.46999998093E+01 0. -1.
</event>
<event>
 5   0  0.6990118E-03  0.6967985E+03  0.7818609E-02  0.9722723E-01
        1   -1    0    0  501    0  0.00000000000E+00  0.00000000000E+00  0.72170807141E+03  0.72170807143E+03  0.50400001928E-02 0. -1.
       -1   -1    0    0    0  501  0.00000000000E+00  0.00000000000E+00 -0.16818717637E+03  0.16818717644E+03  0.50400001928E-02 0.  1.
    10030    2    1    2    0    0  0.00000000000E+00  0.00000000000E+00  0.55352089505E+03  0.88989524787E+03  0.69679851531E+03 0.  0.
        5    1    3    3  502    0  0.10222515258E+03  0.21748789408E+03 -0.45339689887E+02  0.24459914834E+03  0.46999998093E+01 0.  1.
       -5    1    3    3    0  502 -0.10222515258E+03 -0.21748789408E+03  0.59886058493E+03  0.64529609954E+03  0.46999998093E+01 0. -1.
</event>
<event>
 5   0  0.1099980E-02  0.6990636E+03  0.7818609E-02  0.9718835E-01
       -2   -1    0    0    0  501  0.00000000000E+00  0.00000000000E+00  0.92184288805E+02  0.92184288840E+02  0.25500000920E-02 0. -1.
        2   -1    0    0  501    0  0.00000000000E+00  0.00000000000E+00 -0.13253068331E+04  0.13253068331E+04  0.25500000920E-02 0.  1.
    10030    2    1    2    0    0  0.00000000000E+00  0.00000000000E+00 -0.12331225443E+04  0.14174911219E+04  0.69906356759E+03 0.  0.
        5    1    3    3  502    0 -0.20304103912E+02  0.77039047343E+02 -0.13065846158E+04  0.13090197552E+04  0.46999998093E+01 0.  1.
       -5    1    3    3    0  502  0.20304103912E+02 -0.77039047343E+02  0.73462071472E+02  0.10847136670E+03  0.46999998093E+01 0. -1.
</event>
<event>
 5   0  0.1099980E-02  0.6887508E+03  0.7818609E-02  0.9736666E-01
       -2   -1    0    0    0  501  0.00000000000E+00  0.00000000000E+00  0.15427144061E+03  0.15427144063E+03  0.25500000920E-02 0. -1.
        2   -1    0    0  501    0  0.00000000000E+00  0.00000000000E+00 -0.76873870464E+03  0.76873870464E+03  0.25500000920E-02 0.  1.
    10030    2    1    2    0    0  0.00000000000E+00  0.00000000000E+00 -0.61446726403E+03  0.92301014527E+03  0.68875083282E+03 0.  0.
        5    1    3    3  502    0  0.69810035259E+02 -0.18385318735E+03 -0.68603305370E+03  0.71367981357E+03  0.46999998093E+01 0.  1.
       -5    1    3    3    0  502 -0.69810035259E+02  0.18385318735E+03  0.71565789673E+02  0.20933033171E+03  0.46999998093E+01 0. -1.
</event>
<event>
 5   0  0.1119786E-02  0.6801681E+03  0.7818609E-02  0.9751762E-01
       -2   -1    0    0    0  501  0.00000000000E+00  0.00000000000E+00  0.66195776585E+02  0.66195776635E+02  0.25500000920E-02 0. -1.
        2   -1    0    0  501    0  0.00000000000E+00  0.00000000000E+00 -0.17471986745E+04  0.17471986745E+04  0.25500000920E-02 0.  1.
    10030    2    1    2    0    0  0.00000000000E+00  0.00000000000E+00 -0.16810028979E+04  0.18133944511E+04  0.68016813554E+03 0.  0.
        3    1    3    3  502    0 -0.82810039114E+02  0.29791917765E+03 -0.12179574114E+04  0.12565960390E+04  0.10100000352E+00 0.  1.
       -3    1    3    3    0  502  0.82810039114E+02 -0.29791917765E+03 -0.46304548647E+03  0.55679841211E+03  0.10100000352E+00 0. -1.
</event>
<event>
 5   0  0.1099980E-02  0.6998317E+03  0.7818609E-02  0.9717520E-01
       -2   -1    0    0    0  501  0.00000000000E+00  0.00000000000E+00  0.63350220258E+02  0.63350220309E+02  0.25500000920E-02 0. -1.
        2   -1    0    0  501    0  0.00000000000E+00  0.00000000000E+00 -0.19327649819E+04  0.19327649819E+04  0.25500000920E-02 0.  1.
    10030    2    1    2    0    0  0.00000000000E+00  0.00000000000E+00 -0.18694147616E+04  0.19961152022E+04  0.69983165794E+03 0.  0.
        5    1    3    3  502    0 -0.28588794129E+03 -0.20123072237E+03 -0.89505364700E+03  0.96092082900E+03  0.46999998093E+01 0.  1.
       -5    1    3    3    0  502  0.28588794129E+03  0.20123072237E+03 -0.97436111465E+03  0.10351943732E+04  0.46999998093E+01 0. -1.
</event>
<event>
 5   0  0.6609285E-03  0.6998516E+03  0.7818609E-02  0.9717486E-01
       -1   -1    0    0    0  501  0.00000000000E+00  0.00000000000E+00  0.12848743292E+03  0.12848743302E+03  0.50400001928E-02 0.  1.
        1   -1    0    0  501    0  0.00000000000E+00  0.00000000000E+00 -0.95299655500E+03  0.95299655502E+03  0.50400001928E-02 0. -1.
    10030    2    1    2    0    0  0.00000000000E+00  0.00000000000E+00 -0.82450912208E+03  0.10814839880E+04  0.69985164426E+03 0.  0.
        2    1    3    3  502    0  0.11792577815E+03  0.15380401140E+03 -0.86248197075E+03  0.88398943034E+03  0.25500000920E-02 0. -1.
       -2    1    3    3    0  502 -0.11792577815E+03 -0.15380401140E+03  0.37972848668E+02  0.19749455769E+03  0.25500000920E-02 0.  1.
</event>
<event>
 5   0  0.1119786E-02  0.7058377E+03  0.7818609E-02  0.9707301E-01
       -2   -1    0    0    0  501  0.00000000000E+00  0.00000000000E+00  0.92792953573E+02  0.92792953608E+02  0.25500000920E-02 0.  1.
        2   -1    0    0  501    0  0.00000000000E+00  0.00000000000E+00 -0.13422540620E+04  0.13422540620E+04  0.25500000920E-02 0. -1.
    10030    2    1    2    0    0  0.00000000000E+00  0.00000000000E+00 -0.12494611084E+04  0.14350470156E+04  0.70583771190E+03 0.  0.
        3    1    3    3  502    0  0.30120935873E+03 -0.16637279756E+03 -0.46535840436E+03  0.57876198930E+03  0.10100000352E+00 0.  1.
       -3    1    3    3    0  502 -0.30120935873E+03  0.16637279756E+03 -0.78410270406E+03  0.85628502630E+03  0.10100000352E+00 0. -1.
</event>
<event>
 5   0  0.1079446E-02  0.6971351E+03  0.7818609E-02  0.9722144E-01
        2   -1    0    0  501    0  0.00000000000E+00  0.00000000000E+00  0.34449842231E+03  0.34449842232E+03  0.25500000920E-02 0. -1.
       -2   -1    0    0    0  501  0.00000000000E+00  0.00000000000E+00 -0.35268474574E+03  0.35268474575E+03  0.25500000920E-02 0.  1.
    10030    2    1    2    0    0  0.00000000000E+00  0.00000000000E+00 -0.81863234328E+01  0.69718316807E+03  0.69713510452E+03 0.  0.
        2    1    3    3  502    0  0.88856509704E+02 -0.33613952282E+03  0.20689191642E+02  0.34830058969E+03  0.25500000920E-02 0.  1.
       -2    1    3    3    0  502 -0.88856509704E+02  0.33613952282E+03 -0.28875515074E+02  0.34888257838E+03  0.25500000920E-02 0. -1.
</event>
<event>
 5   0  0.1119786E-02  0.6980339E+03  0.7818609E-02  0.9720600E-01
       -2   -1    0    0    0  501  0.00000000000E+00  0.00000000000E+00  0.12701033981E+03  0.12701033983E+03  0.25500000920E-02 0. -1.
        2   -1    0    0  501    0  0.00000000000E+00  0.00000000000E+00 -0.95907810204E+03  0.95907810204E+03  0.25500000920E-02 0.  1.
    10030    2    1    2    0    0  0.00000000000E+00  0.00000000000E+00 -0.83206776223E+03  0.10860884419E+04  0.69803391223E+03 0.  0.
        3    1    3    3  502    0 -0.33070708686E+03  0.67635599368E+02 -0.27799365455E+03  0.43728964517E+03  0.10100000352E+00 0. -1.
       -3    1    3    3    0  502  0.33070708686E+03 -0.67635599368E+02 -0.55407410768E+03  0.64879879670E+03  0.10100000352E+00 0.  1.
</event>
<event>
 5   0  0.4440500E-03  0.6998259E+03  0.7818609E-02  0.9717530E-01
       -4   -1    0    0    0  501  0.00000000000E+00  0.00000000000E+00  0.97910754416E+03  0.97910836782E+03  0.12699999809E+01 0.  1.
        4   -1    0    0  501    0  0.00000000000E+00  0.00000000000E+00 -0.12504760663E+03  0.12505405561E+03  0.12699999809E+01 0. -1.
    10030    2    1    2    0    0  0.00000000000E+00  0.00000000000E+00  0.85405993753E+03  0.11041624234E+04  0.69982589293E+03 0.  0.
        1    1    3    3  502    0  0.19089807411E+03  0.21025163365E+03  0.74957147952E+03  0.80156423766E+03  0.50400001928E-02 0.  1.
       -1    1    3    3    0  502 -0.19089807411E+03 -0.21025163365E+03  0.10448845801E+03  0.30259818577E+03  0.50400001928E-02 0. -1.
</event>
<event>
 5   0  0.1079446E-02  0.7001638E+03  0.7818609E-02  0.9716952E-01
        2   -1    0    0  501    0  0.00000000000E+00  0.00000000000E+00  0.80793501952E+03  0.80793501952E+03  0.25500000920E-02 0. -1.
       -2   -1    0    0    0  501  0.00000000000E+00  0.00000000000E+00 -0.15169209183E+03  0.15169209185E+03  0.25500000920E-02 0.  1.
    10030    2    1    2    0    0  0.00000000000E+00  0.00000000000E+00  0.65624292769E+03  0.95962711137E+03  0.70016384707E+03 0.  0.
        2    1    3    3  502    0  0.17198453755E+03  0.27248229567E+01  0.74602606791E+03  0.76559845861E+03  0.25500000920E-02 0. -1.
       -2    1    3    3    0  502 -0.17198453755E+03 -0.27248229567E+01 -0.89783140226E+02  0.19402865276E+03  0.25500000920E-02 0.  1.
</event>
<event>
 5   0  0.6609285E-03  0.6876271E+03  0.7818609E-02  0.9738629E-01
       -1   -1    0    0    0  501  0.00000000000E+00  0.00000000000E+00  0.17045521306E+03  0.17045521313E+03  0.50400001928E-02 0. -1.
        1   -1    0    0  501    0  0.00000000000E+00  0.00000000000E+00 -0.69348271975E+03  0.69348271977E+03  0.50400001928E-02 0.  1.
    10030    2    1    2    0    0  0.00000000000E+00  0.00000000000E+00 -0.52302750670E+03  0.86393793290E+03  0.68762706400E+03 0.  0.
        2    1    3    3  502    0 -0.86424487816E+02 -0.22236717814E+03 -0.57256311863E+03  0.62027806574E+03  0.25500000920E-02 0.  1.
       -2    1    3    3    0  502  0.86424487816E+02  0.22236717814E+03  0.49535611937E+02  0.24365986716E+03  0.25500000920E-02 0. -1.
</event>
<event>
 5   0  0.6609285E-03  0.6999341E+03  0.7818609E-02  0.9717345E-01
       -1   -1    0    0    0  501  0.00000000000E+00  0.00000000000E+00  0.10534102723E+03  0.10534102735E+03  0.50400001928E-02 0. -1.
        1   -1    0    0  501    0  0.00000000000E+00  0.00000000000E+00 -0.11626709099E+04  0.11626709099E+04  0.50400001928E-02 0.  1.
    10030    2    1    2    0    0  0.00000000000E+00  0.00000000000E+00 -0.10573298827E+04  0.12680119372E+04  0.69993413423E+03 0.  0.
        2    1    3    3  502    0 -0.22644684207E+03 -0.21513611080E+03 -0.24270933514E+03  0.39556230839E+03  0.25500000920E-02 0. -1.
       -2    1    3    3    0  502  0.22644684207E+03  0.21513611080E+03 -0.81462054751E+03  0.87244962886E+03  0.25500000920E-02 0.  1.
</event>
<event>
 5   0  0.1100119E-02  0.7010594E+03  0.7818609E-02  0.9715422E-01
        2   -1    0    0  501    0  0.00000000000E+00  0.00000000000E+00  0.50562386830E+03  0.50562386831E+03  0.25500000920E-02 0. -1.
       -2   -1    0    0    0  501  0.00000000000E+00  0.00000000000E+00 -0.24300886177E+03  0.24300886178E+03  0.25500000920E-02 0.  1.
    10030    2    1    2    0    0  0.00000000000E+00  0.00000000000E+00  0.26261500653E+03  0.74863273009E+03  0.70105942894E+03 0.  0.
        4    1    3    3  502    0 -0.19899512252E+03  0.26014593921E+03  0.26465955255E+03  0.42109531003E+03  0.12699999809E+01 0. -1.
       -4    1    3    3    0  502  0.19899512252E+03 -0.26014593921E+03 -0.20445460196E+01  0.32753742006E+03  0.12699999809E+01 0.  1.
</event>
<event>
 5   0  0.4440500E-03  0.7000915E+03  0.7818609E-02  0.9717076E-01
       -3   -1    0    0    0  501  0.00000000000E+00  0.00000000000E+00  0.38554082210E+03  0.38554083533E+03  0.10100000352E+00 0. -1.
        3   -1    0    0  501    0  0.00000000000E+00  0.00000000000E+00 -0.31781855672E+03  0.31781857277E+03  0.10100000352E+00 0.  1.
    10030    2    1    2    0    0  0.00000000000E+00  0.00000000000E+00  0.67722265377E+02  0.70335940810E+03  0.70009153097E+03 0.  0.
        3    1    3    3  502    0 -0.23767951313E+03 -0.22663094383E+03 -0.87860877392E+02  0.33995982063E+03  0.10100000352E+00 0.  1.
       -3    1    3    3    0  502  0.23767951313E+03  0.22663094383E+03  0.15558314277E+03  0.36339958748E+03  0.10100000352E+00 0. -1.
</event>
<event>
 5   0  0.6785252E-03  0.7046621E+03  0.7818609E-02  0.9709292E-01
        1   -1    0    0  501    0  0.00000000000E+00  0.00000000000E+00  0.16225583246E+04  0.16225583247E+04  0.50400001928E-02 0. -1.
       -1   -1    0    0    0  501  0.00000000000E+00  0.00000000000E+00 -0.76507060673E+02  0.76507060839E+02  0.50400001928E-02 0.  1.
    10030    2    1    2    0    0  0.00000000000E+00  0.00000000000E+00  0.15460512640E+04  0.16990653855E+04  0.70466209870E+03 0.  0.
        3    1    3    3  502    0 -0.38375059313E+02 -0.80292282473E+01 -0.71231023767E+02  0.81307949374E+02  0.10100000352E+00 0.  1.
       -3    1    3    3    0  502  0.38375059313E+02  0.80292282473E+01  0.16172822877E+04  0.16177574361E+04  0.10100000352E+00 0. -1.
</event>
<event>
 5   0  0.4440500E-03  0.6990952E+03  0.7818609E-02  0.9718781E-01
        4   -1    0    0  501    0  0.00000000000E+00  0.00000000000E+00  0.28359674616E+03  0.28359958979E+03  0.12699999809E+01 0.  1.
       -4   -1    0    0    0  501  0.00000000000E+00  0.00000000000E+00 -0.43082948283E+03  0.43083135468E+03  0.12699999809E+01 0. -1.
    10030    2    1    2    0    0  0.00000000000E+00  0.00000000000E+00 -0.14723273667E+03  0.71443094447E+03  0.69909519786E+03 0.  0.
        4    1    3    3  502    0 -0.14243188334E+02  0.22572659298E+03 -0.34597070288E+03  0.41334332382E+03  0.12699999809E+01 0. -1.
       -4    1    3    3    0  502  0.14243188334E+02 -0.22572659298E+03  0.19873796621E+03  0.30108762065E+03  0.12699999809E+01 0.  1.
</event>
<event>
 5   0  0.1109788E-02  0.7057661E+03  0.7818609E-02  0.9707422E-01
       -2   -1    0    0    0  501  0.00000000000E+00  0.00000000000E+00  0.10911381500E+03  0.10911381503E+03  0.25500000920E-02 0. -1.
        2   -1    0    0  501    0  0.00000000000E+00  0.00000000000E+00 -0.11412528951E+04  0.11412528951E+04  0.25500000920E-02 0.  1.
    10030    2    1    2    0    0  0.00000000000E+00  0.00000000000E+00 -0.10321390801E+04  0.12503667101E+04  0.70576612920E+03 0.  0.
        1    1    3    3  502    0  0.20737547240E+03 -0.22514564677E+03 -0.20498919756E+03  0.36839614541E+03  0.50400001928E-02 0. -1.
       -1    1    3    3    0  502 -0.20737547240E+03  0.22514564677E+03 -0.82714988250E+03  0.88197056467E+03  0.50400001928E-02 0.  1.
</event>
<event>
 5   0  0.1119786E-02  0.6991457E+03  0.7818609E-02  0.9718694E-01
        2   -1    0    0  501    0  0.00000000000E+00  0.00000000000E+00  0.13134013790E+03  0.13134013792E+03  0.25500000920E-02 0.  1.
       -2   -1    0    0    0  501  0.00000000000E+00  0.00000000000E+00 -0.93041759722E+03  0.93041759723E+03  0.25500000920E-02 0. -1.
    10030    2    1    2    0    0  0.00000000000E+00  0.00000000000E+00 -0.79907745933E+03  0.10617577352E+04  0.69914569451E+03 0.  0.
        3    1    3    3  502    0 -0.32372563700E+03  0.68488654003E+01 -0.19946862672E+03  0.38030637420E+03  0.10100000352E+00 0.  1.
       -3    1    3    3    0  502  0.32372563700E+03 -0.68488654003E+01 -0.59960883261E+03  0.68145136095E+03  0.10100000352E+00 0. -1.
</event>
<event>
 5   0  0.1079446E-02  0.6946057E+03  0.7818609E-02  0.9726502E-01
       -2   -1    0    0    0  501  0.00000000000E+00  0.00000000000E+00  0.10233086217E+03  0.10233086220E+03  0.25500000920E-02 0. -1.
        2   -1    0    0  501    0  0.00000000000E+00  0.00000000000E+00 -0.11787184308E+04  0.11787184308E+04  0.25500000920E-02 0.  1.
    10030    2    1    2    0    0  0.00000000000E+00  0.00000000000E+00 -0.10763875686E+04  0.12810492930E+04  0.69460571059E+03 0.  0.
        2    1    3    3  502    0  0.66079702551E+02 -0.12702461650E+03 -0.11217496982E+04  0.11308510803E+04  0.25500000920E-02 0.  1.
       -2    1    3    3    0  502 -0.66079702551E+02  0.12702461650E+03  0.45362129622E+02  0.15019821270E+03  0.25500000920E-02 0. -1.
</event>
<event>
 5   0  0.6689415E-03  0.7016280E+03  0.7818609E-02  0.9714452E-01
        1   -1    0    0  501    0  0.00000000000E+00  0.00000000000E+00  0.18127225966E+04  0.18127225966E+04  0.50400001928E-02 0.  1.
       -1   -1    0    0    0  501  0.00000000000E+00  0.00000000000E+00 -0.67892604501E+02  0.67892604688E+02  0.50400001928E-02 0. -1.
    10030    2    1    2    0    0  0.00000000000E+00  0.00000000000E+00  0.17448299921E+04  0.18806152013E+04  0.70162798834E+03 0.  0.
        1    1    3    3  502    0 -0.25831948260E+03 -0.11977448557E+03  0.14216962891E+04  0.14499293848E+04  0.50400001928E-02 0.  1.
       -1    1    3    3    0  502  0.25831948260E+03  0.11977448557E+03  0.32313370301E+03  0.43068581650E+03  0.50400001928E-02 0. -1.
</event>
<event>
 5   0  0.1100119E-02  0.6958951E+03  0.7818609E-02  0.9724278E-01
        2   -1    0    0  501    0  0.00000000000E+00  0.00000000000E+00  0.77178394245E+03  0.77178394246E+03  0.25500000920E-02 0. -1.
       -2   -1    0    0    0  501  0.00000000000E+00  0.00000000000E+00 -0.15686709828E+03  0.15686709830E+03  0.25500000920E-02 0.  1.
    10030    2    1    2    0    0  0.00000000000E+00  0.00000000000E+00  0.61491684417E+03  0.92865104076E+03  0.69589512878E+03 0.  0.
        4    1    3    3  502    0  0.22630865550E+03  0.26044594370E+03  0.24750822886E+03  0.42462881838E+03  0.12699999809E+01 0.  1.
       -4    1    3    3    0  502 -0.22630865550E+03 -0.26044594370E+03  0.36740861531E+03  0.50402222238E+03  0.12699999809E+01 0. -1.
</event>
<event>
 5   0  0.6689415E-03  0.7025682E+03  0.7818609E-02  0.9712850E-01
       -1   -1    0    0    0  501  0.00000000000E+00  0.00000000000E+00  0.18904299393E+03  0.18904299400E+03  0.50400001928E-02 0.  1.
        1   -1    0    0  501    0  0.00000000000E+00  0.00000000000E+00 -0.65276437791E+03  0.65276437793E+03  0.50400001928E-02 0. -1.
    10030    2    1    2    0    0  0.00000000000E+00  0.00000000000E+00 -0.46372138398E+03  0.84180737193E+03  0.70256823830E+03 0.  0.
        1    1    3    3  502    0  0.18014019493E+03  0.27900931481E+03 -0.94701921918E+02  0.34534785597E+03  0.50400001928E-02 0.  1.
       -1    1    3    3    0  502 -0.18014019493E+03 -0.27900931481E+03 -0.36901946207E+03  0.49645951596E+03  0.50400001928E-02 0. -1.
</event>
<event>
 5   0  0.1119786E-02  0.7008772E+03  0.7818609E-02  0.9715733E-01
        2   -1    0    0  501    0  0.00000000000E+00  0.00000000000E+00  0.11381587465E+04  0.11381587465E+04  0.25500000920E-02 0. -1.
       -2   -1    0    0    0  501  0.00000000000E+00  0.00000000000E+00 -0.10789989917E+03  0.10789989920E+03  0.25500000920E-02 0.  1.
    10030    2    1    2    0    0  0.00000000000E+00  0.00000000000E+00  0.10302588473E+04  0.12460586457E+04  0.70087720466E+03 0.  0.
        3    1    3    3  502    0  0.16496556459E+03 -0.87016170826E+02 -0.12333032440E+02  0.18691593131E+03  0.10100000352E+00 0.  1.
       -3    1    3    3    0  502 -0.16496556459E+03  0.87016170826E+02  0.10425918798E+04  0.10591427144E+04  0.10100000352E+00 0. -1.
</event>
<event>
 5   0  0.1119786E-02  0.7012967E+03  0.7818609E-02  0.9715017E-01
        2   -1    0    0  501    0  0.00000000000E+00  0.00000000000E+00  0.71138726546E+03  0.71138726547E+03  0.25500000920E-02 0. -1.
       -2   -1    0    0    0  501  0.00000000000E+00  0.00000000000E+00 -0.17283730201E+03  0.17283730203E+03  0.25500000920E-02 0.  1.
    10030    2    1    2    0    0  0.00000000000E+00  0.00000000000E+00  0.53854996345E+03  0.88422456749E+03  0.70129667233E+03 0.  0.
        3    1    3    3  502    0  0.23741885785E+03  0.10447604255E+03 -0.28217800543E+02  0.26091993408E+03  0.10100000352E+00 0.  1.
       -3    1    3    3    0  502 -0.23741885785E+03 -0.10447604255E+03  0.56676776400E+03  0.62330463342E+03  0.10100000352E+00 0. -1.
</event>
<event>
 5   0  0.6246998E-03  0.7005803E+03  0.7818609E-02  0.9716240E-01
       -1   -1    0    0    0  501  0.00000000000E+00  0.00000000000E+00  0.65242032984E+02  0.65242033179E+02  0.50400001928E-02 0. -1.
        1   -1    0    0  501    0  0.00000000000E+00  0.00000000000E+00 -0.18807385456E+04  0.18807385456E+04  0.50400001928E-02 0.  1.
    10030    2    1    2    0    0  0.00000000000E+00  0.00000000000E+00 -0.18154965126E+04  0.19459805788E+04  0.70058034920E+03 0.  0.
        4    1    3    3  502    0  0.25695074019E+03  0.20288626874E+03 -0.56176310847E+03  0.65020452464E+03  0.12699999809E+01 0. -1.
       -4    1    3    3    0  502 -0.25695074019E+03 -0.20288626874E+03 -0.12537334041E+04  0.12957760541E+04  0.12699999809E+01 0.  1.
</event>
<event>
 5   0  0.6689415E-03  0.7012438E+03  0.7818609E-02  0.9715107E-01
        1   -1    0    0  501    0  0.00000000000E+00  0.00000000000E+00  0.23421634786E+03  0.23421634791E+03  0.50400001928E-02 0.  1.
       -1   -1    0    0    0  501  0.00000000000E+00  0.00000000000E+00 -0.52488104567E+03  0.52488104569E+03  0.50400001928E-02 0. -1.
    10030    2    1    2    0    0  0.00000000000E+00  0.00000000000E+00 -0.29066469781E+03  0.75909739360E+03  0.70124381382E+03 0.  0.
        1    1    3    3  502    0  0.27682825856E+03 -0.20710449117E+03 -0.20854122163E+03  0.40375189924E+03  0.50400001928E-02 0.  1.
       -1    1    3    3    0  502 -0.27682825856E+03  0.20710449117E+03 -0.82123476177E+02  0.35534549436E+03  0.50400001928E-02 0. -1.
</event>
<event>
 5   0  0.1109788E-02  0.6978556E+03  0.7818609E-02  0.9720906E-01
       -2   -1    0    0    0  501  0.00000000000E+00  0.00000000000E+00  0.47334008030E+03  0.47334008030E+03  0.25500000920E-02 0.  1.
        2   -1    0    0  501    0  0.00000000000E+00  0.00000000000E+00 -0.25721591774E+03  0.25721591775E+03  0.25500000920E-02 0. -1.
    10030    2    1    2    0    0  0.00000000000E+00  0.00000000000E+00  0.21612416256E+03  0.73055599806E+03  0.69785558152E+03 0.  0.
        1    1    3    3  502    0  0.17667413582E+03 -0.29442554622E+03  0.43102422868E+02  0.34606064702E+03  0.50400001928E-02 0. -1.
       -1    1    3    3    0  502 -0.17667413582E+03  0.29442554622E+03  0.17302173969E+03  0.38449535103E+03  0.50400001928E-02 0.  1.
</event>
<event>
 5   0  0.6609285E-03  0.6989771E+03  0.7818609E-02  0.9718983E-01
        1   -1    0    0  501    0  0.00000000000E+00  0.00000000000E+00  0.41436502429E+03  0.41436502432E+03  0.50400001928E-02 0. -1.
       -1   -1    0    0    0  501  0.00000000000E+00  0.00000000000E+00 -0.29476969945E+03  0.29476969949E+03  0.50400001928E-02 0.  1.
    10030    2    1    2    0    0  0.00000000000E+00  0.00000000000E+00  0.11959532484E+03  0.70913472381E+03  0.69897712036E+03 0.  0.
        2    1    3    3  502    0  0.20001816208E+03 -0.27089310155E+03  0.15470884035E+03  0.37057409910E+03  0.25500000920E-02 0. -1.
       -2    1    3    3    0  502 -0.20001816208E+03  0.27089310155E+03 -0.35113515512E+02  0.33856062472E+03  0.25500000920E-02 0.  1.
</event>
<event>
 5   0  0.1099980E-02  0.6969353E+03  0.7818609E-02  0.9722488E-01
        2   -1    0    0  501    0  0.00000000000E+00  0.00000000000E+00  0.15796938167E+04  0.15796938167E+04  0.25500000920E-02 0. -1.
       -2   -1    0    0    0  501  0.00000000000E+00  0.00000000000E+00 -0.76869138666E+02  0.76869138708E+02  0.25500000920E-02 0.  1.
    10030    2    1    2    0    0  0.00000000000E+00  0.00000000000E+00  0.15028246780E+04  0.16565629554E+04  0.69693529995E+03 0.  0.
        5    1    3    3  502    0  0.31851611885E+03  0.10550692201E+03  0.97468373413E+03  0.10308320426E+04  0.46999998093E+01 0. -1.
       -5    1    3    3    0  502 -0.31851611885E+03 -0.10550692201E+03  0.52814094388E+03  0.62573091274E+03  0.46999998093E+01 0.  1.
</event>
<event>
 5   0  0.6609285E-03  0.7002481E+03  0.7818609E-02  0.9716808E-01
       -1   -1    0    0    0  501  0.00000000000E+00  0.00000000000E+00  0.29154280829E+03  0.29154280833E+03  0.50400001928E-02 0.  1.
        1   -1    0    0  501    0  0.00000000000E+00  0.00000000000E+00 -0.42047637768E+03  0.42047637771E+03  0.50400001928E-02 0. -1.
    10030    2    1    2    0    0  0.00000000000E+00  0.00000000000E+00 -0.12893356940E+03  0.71201918604E+03  0.70024813886E+03 0.  0.
        2    1    3    3  502    0  0.19493878041E+03 -0.13931699845E+03 -0.32405518569E+03  0.40301627454E+03  0.25500000920E-02 0. -1.
       -2    1    3    3    0  502 -0.19493878041E+03  0.13931699845E+03  0.19512161629E+03  0.30900291150E+03  0.25500000920E-02 0.  1.
</event>
<event>
 5   0  0.6990118E-03  0.7086227E+03  0.7818609E-02  0.9702599E-01
        1   -1    0    0  501    0  0.00000000000E+00  0.00000000000E+00  0.38496354357E+03  0.38496354360E+03  0.50400001928E-02 0. -1.
       -1   -1    0    0    0  501  0.00000000000E+00  0.00000000000E+00 -0.32609975297E+03  0.32609975301E+03  0.50400001928E-02 0.  1.
    10030    2    1    2    0    0  0.00000000000E+00  0.00000000000E+00  0.58863790594E+02  0.71106329661E+03  0.70862265413E+03 0.  0.
        5    1    3    3  502    0  0.21925267543E+03  0.23141014966E+03  0.18453474838E+03  0.36837149239E+03  0.46999998093E+01 0. -1.
       -5    1    3    3    0  502 -0.21925267543E+03 -0.23141014966E+03 -0.12567095779E+03  0.34269180422E+03  0.46999998093E+01 0.  1.
</event>
<event>
 5   0  0.6689415E-03  0.6973563E+03  0.7818609E-02  0.9721764E-01
       -1   -1    0    0    0  501  0.00000000000E+00  0.00000000000E+00  0.20033549317E+03  0.20033549323E+03  0.50400001928E-02 0. -1.
        1   -1    0    0  501    0  0.00000000000E+00  0.00000000000E+00 -0.60686424759E+03  0.60686424761E+03  0.50400001928E-02 0.  1.
    10030    2    1    2    0    0  0.00000000000E+00  0.00000000000E+00 -0.40652875442E+03  0.80719974085E+03  0.69735628874E+03 0.  0.
        1    1    3    3  502    0 -0.32513191892E+03  0.23899535192E+02 -0.34641520877E+03  0.47569470185E+03  0.50400001928E-02 0.  1.
       -1    1    3    3    0  502  0.32513191892E+03 -0.23899535192E+02 -0.60113545655E+02  0.33150503899E+03  0.50400001928E-02 0. -1.
</event>
<event>
 5   0  0.1099980E-02  0.7021789E+03  0.7818609E-02  0.9713513E-01
       -2   -1    0    0    0  501  0.00000000000E+00  0.00000000000E+00  0.10404778160E+03  0.10404778163E+03  0.25500000920E-02 0. -1.
        2   -1    0    0  501    0  0.00000000000E+00  0.00000000000E+00 -0.11846844511E+04  0.11846844511E+04  0.25500000920E-02 0.  1.
    10030    2    1    2    0    0  0.00000000000E+00  0.00000000000E+00 -0.10806366695E+04  0.12887322327E+04  0.70217886338E+03 0.  0.
        5    1    3    3  502    0  0.15775954661E+02  0.23310672140E+03 -0.59425730863E+02  0.24112472249E+03  0.46999998093E+01 0. -1.
       -5    1    3    3    0  502 -0.15775954661E+02 -0.23310672140E+03 -0.10212109386E+04  0.10476075102E+04  0.46999998093E+01 0.  1.
</event>
<event>
 5   0  0.6609285E-03  0.6997056E+03  0.7818609E-02  0.9717736E-01
       -1   -1    0    0    0  501  0.00000000000E+00  0.00000000000E+00  0.13080226116E+03  0.13080226126E+03  0.50400001928E-02 0. -1.
        1   -1    0    0  501    0  0.00000000000E+00  0.00000000000E+00 -0.93574065731E+03  0.93574065733E+03  0.50400001928E-02 0.  1.
    10030    2    1    2    0    0  0.00000000000E+00  0.00000000000E+00 -0.80493839615E+03  0.10665429186E+04  0.69970563496E+03 0.  0.
        2    1    3    3  502    0 -0.23888338165E+03 -0.36684852677E+02 -0.78804099617E+03  0.82426916727E+03  0.25500000920E-02 0.  1.
       -2    1    3    3    0  502  0.23888338165E+03  0.36684852677E+02 -0.16897399975E+02  0.24227375132E+03  0.25500000920E-02 0. -1.
</event>
<event>
 5   0  0.6785252E-03  0.7006256E+03  0.7818609E-02  0.9716163E-01
        1   -1    0    0  501    0  0.00000000000E+00  0.00000000000E+00  0.87575042288E+03  0.87575042289E+03  0.50400001928E-02 0.  1.
       -1   -1    0    0    0  501  0.00000000000E+00  0.00000000000E+00 -0.14013018832E+03  0.14013018841E+03  0.50400001928E-02 0. -1.
    10030    2    1    2    0    0  0.00000000000E+00  0.00000000000E+00  0.73562023456E+03  0.10158806113E+04  0.70062563964E+03 0.  0.
        3    1    3    3  502    0 -0.13439970218E+03  0.32305754337E+03  0.34313496380E+03  0.49007251490E+03  0.10100000352E+00 0.  1.
       -3    1    3    3    0  502  0.13439970218E+03 -0.32305754337E+03  0.39248527076E+03  0.52580809640E+03  0.10100000352E+00 0. -1.
</event>
<event>
 5   0  0.1119786E-02  0.7013610E+03  0.7818609E-02  0.9714908E-01
        2   -1    0    0  501    0  0.00000000000E+00  0.00000000000E+00  0.18454601856E+04  0.18454601856E+04  0.25500000920E-02 0. -1.
       -2   -1    0    0    0  501  0.00000000000E+00  0.00000000000E+00 -0.66637476675E+02  0.66637476724E+02  0.25500000920E-02 0.  1.
    10030    2    1    2    0    0  0.00000000000E+00  0.00000000000E+00  0.17788227089E+04  0.19120976623E+04  0.70136099156E+03 0.  0.
        3    1    3    3  502    0  0.50170872518E+02 -0.82054032796E+02  0.18088016372E+04  0.18113567715E+04  0.10100000352E+00 0. -1.
       -3    1    3    3    0  502 -0.50170872518E+02  0.82054032796E+02 -0.29978928253E+02  0.10074089084E+03  0.10100000352E+00 0.  1.
</event>
<event>
 5   0  0.1099980E-02  0.6900103E+03  0.7818609E-02  0.9734470E-01
       -2   -1    0    0    0  501  0.00000000000E+00  0.00000000000E+00  0.33222862870E+03  0.33222862871E+03  0.25500000920E-02 0. -1.
        2   -1    0    0  501    0  0.00000000000E+00  0.00000000000E+00 -0.35827306749E+03  0.35827306750E+03  0.25500000920E-02 0.  1.
    10030    2    1    2    0    0  0.00000000000E+00  0.00000000000E+00 -0.26044438798E+02  0.69050169621E+03  0.69001034751E+03 0.  0.
        5    1    3    3  502    0 -0.16649067053E+03 -0.10191044748E+03  0.27161238236E+03  0.33451496070E+03  0.46999998093E+01 0. -1.
       -5    1    3    3    0  502  0.16649067053E+03  0.10191044748E+03 -0.29765682116E+03  0.35598673551E+03  0.46999998093E+01 0.  1.
</event>
<event>
 5   0  0.1109788E-02  0.7020340E+03  0.7818609E-02  0.9713760E-01
       -2   -1    0    0    0  501  0.00000000000E+00  0.00000000000E+00  0.17465750991E+03  0.17465750993E+03  0.25500000920E-02 0. -1.
        2   -1    0    0  501    0  0.00000000000E+00  0.00000000000E+00 -0.70545460254E+03  0.70545460254E+03  0.25500000920E-02 0.  1.
    10030    2    1    2    0    0  0.00000000000E+00  0.00000000000E+00 -0.53079709263E+03  0.88011211247E+03  0.70203402837E+03 0.  0.
        1    1    3    3  502    0  0.30884809749E+03 -0.14560836172E+03 -0.16336568666E+03  0.37851986728E+03  0.50400001928E-02 0. -1.
       -1    1    3    3    0  502 -0.30884809749E+03  0.14560836172E+03 -0.36743140597E+03  0.50159224519E+03  0.50400001928E-02 0.  1.
</event>
<event>
 5   0  0.6246998E-03  0.6678614E+03  0.7818609E-02  0.9773829E-01
       -1   -1    0    0    0  501  0.00000000000E+00  0.00000000000E+00  0.15213783116E+03  0.15213783124E+03  0.50400001928E-02 0. -1.
        1   -1    0    0  501    0  0.00000000000E+00  0.00000000000E+00 -0.73295186979E+03  0.73295186980E+03  0.50400001928E-02 0.  1.
    10030    2    1    2    0    0  0.00000000000E+00  0.00000000000E+00 -0.58081403863E+03  0.88508970104E+03  0.66786138639E+03 0.  0.
        4    1    3    3  502    0  0.50251011336E+02 -0.50966947862E+02  0.14184971301E+03  0.15888910565E+03  0.12699999809E+01 0. -1.
       -4    1    3    3    0  502 -0.50251011336E+02  0.50966947862E+02 -0.72266375164E+03  0.72620059539E+03  0.12699999809E+01 0.  1.
</event>
<event>
 5   0  0.6785252E-03  0.6930087E+03  0.7818609E-02  0.9729263E-01
        1   -1    0    0  501    0  0.00000000000E+00  0.00000000000E+00  0.12612594167E+04  0.12612594167E+04  0.50400001928E-02 0.  1.
       -1   -1    0    0    0  501  0.00000000000E+00  0.00000000000E+00 -0.95194751525E+02  0.95194751659E+02  0.50400001928E-02 0. -1.
    10030    2    1    2    0    0  0.00000000000E+00  0.00000000000E+00  0.11660646652E+04  0.13564541684E+04  0.69300873553E+03 0.  0.
        3    1    3    3  502    0  0.37025740786E+02 -0.10651078385E+03 -0.58276267365E+02  0.12693142281E+03  0.10100000352E+00 0. -1.
       -3    1    3    3    0  502 -0.37025740786E+02  0.10651078385E+03  0.12243409326E+04  0.12295227456E+04  0.10100000352E+00 0.  1.
</event>
<event>
 5   0  0.6689415E-03  0.6945236E+03  0.7818609E-02  0.9726644E-01
       -1   -1    0    0    0  501  0.00000000000E+00  0.00000000000E+00  0.19656170671E+03  0.19656170677E+03  0.50400001928E-02 0.  1.
        1   -1    0    0  501    0  0.00000000000E+00  0.00000000000E+00 -0.61350078568E+03  0.61350078570E+03  0.50400001928E-02 0. -1.
    10030    2    1    2    0    0  0.00000000000E+00  0.00000000000E+00 -0.41693907897E+03  0.81006249247E+03  0.69452361093E+03 0.  0.
        1    1    3    3  502    0  0.55387360015E+01  0.49511924805E+02  0.19237167383E+03  0.19871831625E+03  0.50400001928E-02 0.  1.
       -1    1    3    3    0  502 -0.55387360015E+01 -0.49511924805E+02 -0.60931075281E+03  0.61134417623E+03  0.50400001928E-02 0. -1.
</event>
<event>
 5   0  0.1079446E-02  0.7015092E+03  0.7818609E-02  0.9714655E-01
       -2   -1    0    0    0  501  0.00000000000E+00  0.00000000000E+00  0.15000215807E+03  0.15000215809E+03  0.25500000920E-02 0. -1.
        2   -1    0    0  501    0  0.00000000000E+00  0.00000000000E+00 -0.82018016493E+03  0.82018016493E+03  0.25500000920E-02 0.  1.
    10030    2    1    2    0    0  0.00000000000E+00  0.00000000000E+00 -0.67017800686E+03  0.97018232302E+03  0.70150921522E+03 0.  0.
        2    1    3    3  502    0  0.30008629535E+03 -0.83638617903E+02 -0.11216704301E+03  0.33110217246E+03  0.25500000920E-02 0. -1.
       -2    1    3    3    0  502 -0.30008629535E+03  0.83638617903E+02 -0.55801096385E+03  0.63908015056E+03  0.25500000920E-02 0.  1.
</event>
<event>
 5   0  0.6689415E-03  0.6992909E+03  0.7818609E-02  0.9718446E-01
        1   -1    0    0  501    0  0.00000000000E+00  0.00000000000E+00  0.12975323733E+04  0.12975323733E+04  0.50400001928E-02 0. -1.
       -1   -1    0    0    0  501  0.00000000000E+00  0.00000000000E+00 -0.94218801755E+02  0.94218801890E+02  0.50400001928E-02 0.  1.
    10030    2    1    2    0    0  0.00000000000E+00  0.00000000000E+00  0.12033135716E+04  0.13917511752E+04  0.69929091387E+03 0.  0.
        1    1    3    3  502    0 -0.11361829364E+03  0.56346967846E+02  0.12501422096E+04  0.12565586503E+04  0.50400001928E-02 0. -1.
       -1    1    3    3    0  502  0.11361829364E+03 -0.56346967846E+02 -0.46828638003E+02  0.13519252494E+03  0.50400001928E-02 0.  1.
</event>
<event>
 5   0  0.4440500E-03  0.6999588E+03  0.7818609E-02  0.9717303E-01
       -4   -1    0    0    0  501  0.00000000000E+00  0.00000000000E+00  0.27698847390E+03  0.27699138538E+03  0.12699999809E+01 0. -1.
        4   -1    0    0  501    0  0.00000000000E+00  0.00000000000E+00 -0.44219841709E+03  0.44220024081E+03  0.12699999809E+01 0.  1.
    10030    2    1    2    0    0  0.00000000000E+00  0.00000000000E+00 -0.16520994318E+03  0.71919162619E+03  0.69995876297E+03 0.  0.
        2    1    3    3  502    0  0.13117570150E+02 -0.23225957431E+03  0.18605424226E+03  0.29788044846E+03  0.25500000920E-02 0. -1.
       -2    1    3    3    0  502 -0.13117570150E+02  0.23225957431E+03 -0.35126418544E+03  0.42131117773E+03  0.25500000920E-02 0.  1.
</event>
<event>
 5   0  0.6246998E-03  0.7007828E+03  0.7818609E-02  0.9715894E-01
       -1   -1    0    0    0  501  0.00000000000E+00  0.00000000000E+00  0.99202226067E+02  0.99202226195E+02  0.50400001928E-02 0.  1.
        1   -1    0    0  501    0  0.00000000000E+00  0.00000000000E+00 -0.12376146925E+04  0.12376146925E+04  0.50400001928E-02 0. -1.
    10030    2    1    2    0    0  0.00000000000E+00  0.00000000000E+00 -0.11384124664E+04  0.13368169187E+04  0.70078279830E+03 0.  0.
        4    1    3    3  502    0  0.20738545715E+03  0.17729565223E+03 -0.98857597643E+03  0.10255372008E+04  0.12699999809E+01 0. -1.
       -4    1    3    3    0  502 -0.20738545715E+03 -0.17729565223E+03 -0.14983648997E+03  0.31127971788E+03  0.12699999809E+01 0.  1.
</event>
<event>
 5   0  0.1109788E-02  0.7010857E+03  0.7818609E-02  0.9715377E-01
        2   -1    0    0  501    0  0.00000000000E+00  0.00000000000E+00  0.90579999475E+03  0.90579999475E+03  0.25500000920E-02 0. -1.
       -2   -1    0    0    0  501  0.00000000000E+00  0.00000000000E+00 -0.13565939837E+03  0.13565939840E+03  0.25500000920E-02 0.  1.
    10030    2    1    2    0    0  0.00000000000E+00  0.00000000000E+00  0.77014059637E+03  0.10414593931E+04  0.70108567906E+03 0.  0.
        1    1    3    3  502    0 -0.15732127688E+03  0.74304422901E+02  0.83713250058E+03  0.85502161082E+03  0.50400001928E-02 0. -1.
       -1    1    3    3    0  502  0.15732127688E+03 -0.74304422901E+02 -0.66991904207E+02  0.18643778232E+03  0.50400001928E-02 0.  1.
</event>
<event>
 5   0  0.1119786E-02  0.6984169E+03  0.7818609E-02  0.9719943E-01
       -2   -1    0    0    0  501  0.00000000000E+00  0.00000000000E+00  0.86411733695E+02  0.86411733733E+02  0.25500000920E-02 0. -1.
        2   -1    0    0  501    0  0.00000000000E+00  0.00000000000E+00 -0.14112264797E+04  0.14112264797E+04  0.25500000920E-02 0.  1.
    10030    2    1    2    0    0  0.00000000000E+00  0.00000000000E+00 -0.13248147460E+04  0.14976382135E+04  0.69841685770E+03 0.  0.
        3    1    3    3  502    0 -0.22820795958E+03  0.25973075217E+03 -0.76762356405E+03  0.84189362910E+03  0.10100000352E+00 0. -1.
       -3    1    3    3    0  502  0.22820795958E+03 -0.25973075217E+03 -0.55719118200E+03  0.65574458438E+03  0.10100000352E+00 0.  1.
</event>
<event>
 5   0  0.4440500E-03  0.6994337E+03  0.7818609E-02  0.9718201E-01
        4   -1    0    0  501    0  0.00000000000E+00  0.00000000000E+00  0.14959850647E+04  0.14959856038E+04  0.12699999809E+01 0.  1.
       -4   -1    0    0    0  501  0.00000000000E+00  0.00000000000E+00 -0.81747929162E+02  0.81757793649E+02  0.12699999809E+01 0. -1.
    10030    2    1    2    0    0  0.00000000000E+00  0.00000000000E+00  0.14142371356E+04  0.15777433974E+04  0.69943373710E+03 0.  0.
        3    1    3    3  502    0  0.11950755301E+03 -0.21826360614E+02 -0.32625927589E+02  0.12578913544E+03  0.10100000352E+00 0. -1.
       -3    1    3    3    0  502 -0.11950755301E+03  0.21826360614E+02  0.14468630631E+04  0.14519542620E+04  0.10100000352E+00 0.  1.
</event>
<event>
 5   0  0.6990118E-03  0.6938616E+03  0.7818609E-02  0.9727788E-01
       -1   -1    0    0    0  501  0.00000000000E+00  0.00000000000E+00  0.27418178134E+03  0.27418178139E+03  0.50400001928E-02 0.  1.
        1   -1    0    0  501    0  0.00000000000E+00  0.00000000000E+00 -0.43898236559E+03  0.43898236561E+03  0.50400001928E-02 0. -1.
    10030    2    1    2    0    0  0.00000000000E+00  0.00000000000E+00 -0.16480058425E+03  0.71316414700E+03  0.69386156256E+03 0.  0.
        5    1    3    3  502    0 -0.18733443986E+03  0.85574928032E+02 -0.36931026750E+03  0.42288228190E+03  0.46999998093E+01 0. -1.
       -5    1    3    3    0  502  0.18733443986E+03 -0.85574928032E+02  0.20450968326E+03  0.29028186510E+03  0.46999998093E+01 0.  1.
</event>
<event>
 5   0  0.6990118E-03  0.7028550E+03  0.7818609E-02  0.9712362E-01
       -1   -1    0    0    0  501  0.00000000000E+00  0.00000000000E+00  0.17259790714E+03  0.17259790721E+03  0.50400001928E-02 0. -1.
        1   -1    0    0  501    0  0.00000000000E+00  0.00000000000E+00 -0.71554331973E+03  0.71554331975E+03  0.50400001928E-02 0.  1.
    10030    2    1    2    0    0  0.00000000000E+00  0.00000000000E+00 -0.54294541259E+03  0.88814122696E+03  0.70285497649E+03 0.  0.
        5    1    3    3  502    0 -0.18684794817E+03  0.29695440332E+03 -0.29627044900E+03  0.45923016270E+03  0.46999998093E+01 0.  1.
       -5    1    3    3    0  502  0.18684794817E+03 -0.29695440332E+03 -0.24667496359E+03  0.42891106426E+03  0.46999998093E+01 0. -1.
</event>
<event>
 5   0  0.1099980E-02  0.6988431E+03  0.7818609E-02  0.9719213E-01
       -2   -1    0    0    0  501  0.00000000000E+00  0.00000000000E+00  0.48007737765E+03  0.48007737766E+03  0.25500000920E-02 0.  1.
        2   -1    0    0  501    0  0.00000000000E+00  0.00000000000E+00 -0.25432443277E+03  0.25432443278E+03  0.25500000920E-02 0. -1.
    10030    2    1    2    0    0  0.00000000000E+00  0.00000000000E+00  0.22575294488E+03  0.73440181044E+03  0.69884306325E+03 0.  0.
        5    1    3    3  502    0  0.10899680839E+03 -0.33191885129E+03  0.11790411598E+03  0.36874638798E+03  0.46999998093E+01 0.  1.
       -5    1    3    3    0  502 -0.10899680839E+03  0.33191885129E+03  0.10784882890E+03  0.36565542246E+03  0.46999998093E+01 0. -1.
</event>
<event>
 5   0  0.1109788E-02  0.7025838E+03  0.7818609E-02  0.9712824E-01
        2   -1    0    0  501    0  0.00000000000E+00  0.00000000000E+00  0.21327679192E+04  0.21327679192E+04  0.25500000920E-02 0.  1.
       -2   -1    0    0    0  501  0.00000000000E+00  0.00000000000E+00 -0.57861905254E+02  0.57861905310E+02  0.25500000920E-02 0. -1.
    10030    2    1    2    0    0  0.00000000000E+00  0.00000000000E+00  0.20749060139E+04  0.21906298245E+04  0.70258384647E+03 0.  0.
        1    1    3    3  502    0  0.26932591284E+03  0.39076615406E+02  0.34485411967E+03  0.43930375946E+03  0.50400001928E-02 0. -1.
       -1    1    3    3    0  502 -0.26932591284E+03 -0.39076615406E+02  0.17300518943E+04  0.17513260650E+04  0.50400001928E-02 0.  1.
</event>
<event>
 5   0  0.6990118E-03  0.6992741E+03  0.7818609E-02  0.9718474E-01
        1   -1    0    0  501    0  0.00000000000E+00  0.00000000000E+00  0.69476884505E+03  0.69476884506E+03  0.50400001928E-02 0. -1.
       -1   -1    0    0    0  501  0.00000000000E+00  0.00000000000E+00 -0.17595215706E+03  0.17595215713E+03  0.50400001928E-02 0.  1.
    10030    2    1    2    0    0  0.00000000000E+00  0.00000000000E+00  0.51881668798E+03  0.87072100220E+03  0.69927412932E+03 0.  0.
        5    1    3    3  502    0  0.13863304721E+03 -0.17031679448E+03  0.59812673355E+03  0.63718491166E+03  0.46999998093E+01 0. -1.
       -5    1    3    3    0  502 -0.13863304721E+03  0.17031679448E+03 -0.79310045563E+02  0.23353609054E+03  0.46999998093E+01 0.  1.
</event>
<event>
 5   0  0.6609285E-03  0.6996617E+03  0.7818609E-02  0.9717811E-01
        1   -1    0    0  501    0  0.00000000000E+00  0.00000000000E+00  0.10133133243E+04  0.10133133243E+04  0.50400001928E-02 0. -1.
       -1   -1    0    0    0  501  0.00000000000E+00  0.00000000000E+00 -0.12077371796E+03  0.12077371807E+03  0.50400001928E-02 0.  1.
    10030    2    1    2    0    0  0.00000000000E+00  0.00000000000E+00  0.89253960630E+03  0.11340870423E+04  0.69966168310E+03 0.  0.
        2    1    3    3  502    0  0.59579549903E+02  0.20499735875E+03 -0.29526587289E+01  0.21350025307E+03  0.25500000920E-02 0.  1.
       -2    1    3    3    0  502 -0.59579549903E+02 -0.20499735875E+03  0.89549226503E+03  0.92058678928E+03  0.25500000920E-02 0. -1.
</event>
<event>
 5   0  0.1100119E-02  0.7002159E+03  0.7818609E-02  0.9716863E-01
        2   -1    0    0  501    0  0.00000000000E+00  0.00000000000E+00  0.19965884485E+04  0.19965884485E+04  0.25500000920E-02 0.  1.
       -2   -1    0    0    0  501  0.00000000000E+00  0.00000000000E+00 -0.61392504025E+02  0.61392504077E+02  0.25500000920E-02 0. -1.
    10030    2    1    2    0    0  0.00000000000E+00  0.00000000000E+00  0.19351959444E+04  0.20579809526E+04  0.70021586504E+03 0.  0.
        4    1    3    3  502    0  0.28726755566E+03 -0.19010921605E+03  0.11513728158E+04  0.12018007890E+04  0.12699999809E+01 0.  1.
       -4    1    3    3    0  502 -0.28726755566E+03  0.19010921605E+03  0.78382312863E+03  0.85618016354E+03  0.12699999809E+01 0. -1.
</event>
<event>
 5   0  0.1109788E-02  0.6984940E+03  0.7818609E-02  0.9719811E-01
        2   -1    0    0  501    0  0.00000000000E+00  0.00000000000E+00  0.10343295171E+04  0.10343295171E+04  0.25500000920E-02 0. -1.
       -2   -1    0    0    0  501  0.00000000000E+00  0.00000000000E+00 -0.11792514126E+03  0.11792514129E+03  0.25500000920E-02 0.  1.
    10030    2    1    2    0    0  0.00000000000E+00  0.00000000000E+00  0.91640437584E+03  0.11522546584E+04  0.69849396398E+03 0.  0.
        1    1    3    3  502    0 -0.26810349006E+03 -0.21706054367E+02  0.90728255763E+02  0.28387012981E+03  0.50400001928E-02 0.  1.
       -1    1    3    3    0  502  0.26810349006E+03  0.21706054367E+02  0.82567612008E+03  0.86838452858E+03  0.50400001928E-02 0. -1.
</event>
<event>
 5   0  0.1099980E-02  0.7011089E+03  0.7818609E-02  0.9715338E-01
        2   -1    0    0  501    0  0.00000000000E+00  0.00000000000E+00  0.12901891456E+04  0.12901891456E+04  0.25500000920E-02 0.  1.
       -2   -1    0    0    0  501  0.00000000000E+00  0.00000000000E+00 -0.95248382613E+02  0.95248382647E+02  0.25500000920E-02 0. -1.
    10030    2    1    2    0    0  0.00000000000E+00  0.00000000000E+00  0.11949407630E+04  0.13854375282E+04  0.70110891995E+03 0.  0.
        5    1    3    3  502    0  0.17599597001E+03  0.12056849535E+03  0.11470690079E+04  0.11667479344E+04  0.46999998093E+01 0.  1.
       -5    1    3    3    0  502 -0.17599597001E+03 -0.12056849535E+03  0.47871755097E+02  0.21868959387E+03  0.46999998093E+01 0. -1.
</event>
<event>
 5   0  0.1099980E-02  0.6965447E+03  0.7818609E-02  0.9723159E-01
        2   -1    0    0  501    0  0.00000000000E+00  0.00000000000E+00  0.11785225756E+04  0.11785225756E+04  0.25500000920E-02 0.  1.
       -2   -1    0    0    0  501  0.00000000000E+00  0.00000000000E+00 -0.10292008220E+03  0.10292008223E+03  0.25500000920E-02 0. -1.
    10030    2    1    2    0    0  0.00000000000E+00  0.00000000000E+00  0.10756024934E+04  0.12814426579E+04  0.69654473045E+03 0.  0.
        5    1    3    3  502    0  0.14465035200E+03 -0.31635740039E+03  0.56779598163E+03  0.66589796206E+03  0.46999998093E+01 0. -1.
       -5    1    3    3    0  502 -0.14465035200E+03  0.31635740039E+03  0.50780651181E+03  0.61554469581E+03  0.46999998093E+01 0.  1.
</event>
<event>
 5   0  0.1099980E-02  0.7176359E+03  0.7818609E-02  0.9687539E-01
       -2   -1    0    0    0  501  0.00000000000E+00  0.00000000000E+00  0.93650938863E+02  0.93650938898E+02  0.25500000920E-02 0. -1.
        2   -1    0    0  501    0  0.00000000000E+00  0.00000000000E+00 -0.13747896000E+04  0.13747896000E+04  0.25500000920E-02 0.  1.
    10030    2    1    2    0    0  0.00000000000E+00  0.00000000000E+00 -0.12811386611E+04  0.14684405389E+04  0.71763594336E+03 0.  0.
        5    1    3    3  502    0  0.71444707923E+02  0.24407215720E+03 -0.12269922175E+03  0.28240529957E+03  0.46999998093E+01 0. -1.
       -5    1    3    3    0  502 -0.71444707923E+02 -0.24407215720E+03 -0.11584394393E+04  0.11860352393E+04  0.46999998093E+01 0.  1.
</event>
<event>
 5   0  0.6990118E-03  0.7056550E+03  0.7818609E-02  0.9707610E-01
        1   -1    0    0  501    0  0.00000000000E+00  0.00000000000E+00  0.50785899731E+03  0.50785899734E+03  0.50400001928E-02 0. -1.
       -1   -1    0    0    0  501  0.00000000000E+00  0.00000000000E+00 -0.24512166783E+03  0.24512166788E+03  0.50400001928E-02 0.  1.
    10030    2    1    2    0    0  0.00000000000E+00  0.00000000000E+00  0.26273732948E+03  0.75298066522E+03  0.70565499919E+03 0.  0.
        5    1    3    3  502    0  0.63977923447E+02  0.23549427863E+03 -0.14050178630E+03  0.28162665340E+03  0.46999998093E+01 0.  1.
       -5    1    3    3    0  502 -0.63977923447E+02 -0.23549427863E+03  0.40323911578E+03  0.47135401181E+03  0.46999998093E+01 0. -1.
</event>
<event>
 5   0  0.1109788E-02  0.7001922E+03  0.7818609E-02  0.9716904E-01
       -2   -1    0    0    0  501  0.00000000000E+00  0.00000000000E+00  0.79186554096E+02  0.79186554137E+02  0.25500000920E-02 0. -1.
        2   -1    0    0  501    0  0.00000000000E+00  0.00000000000E+00 -0.15478293574E+04  0.15478293574E+04  0.25500000920E-02 0.  1.
    10030    2    1    2    0    0  0.00000000000E+00  0.00000000000E+00 -0.14686428033E+04  0.16270159115E+04  0.70019218268E+03 0.  0.
        1    1    3    3  502    0  0.83772365631E+02  0.30019705030E+03 -0.36376192401E+03  0.47901859634E+03  0.50400001928E-02 0. -1.
       -1    1    3    3    0  502 -0.83772365631E+02 -0.30019705030E+03 -0.11048808792E+04  0.11479973151E+04  0.50400001928E-02 0.  1.
</event>
<event>
 5   0  0.4440500E-03  0.6945311E+03  0.7818609E-02  0.9726631E-01
       -4   -1    0    0    0  501  0.00000000000E+00  0.00000000000E+00  0.48580407434E+03  0.48580573437E+03  0.12699999809E+01 0. -1.
        4   -1    0    0  501    0  0.00000000000E+00  0.00000000000E+00 -0.24823084034E+03  0.24823408911E+03  0.12699999809E+01 0.  1.
    10030    2    1    2    0    0  0.00000000000E+00  0.00000000000E+00  0.23757323401E+03  0.73403982348E+03  0.69453107989E+03 0.  0.
        5    1    3    3  502    0  0.33241976057E+03  0.20936684677E+02  0.22250162496E+03  0.40058744999E+03  0.46999998093E+01 0. -1.
       -5    1    3    3    0  502 -0.33241976057E+03 -0.20936684677E+02  0.15071609042E+02  0.33345237348E+03  0.46999998093E+01 0.  1.
</event>
<event>
 5   0  0.6609285E-03  0.6993084E+03  0.7818609E-02  0.9718416E-01
       -1   -1    0    0    0  501  0.00000000000E+00  0.00000000000E+00  0.13909948985E+04  0.13909948985E+04  0.50400001928E-02 0. -1.
        1   -1    0    0  501    0  0.00000000000E+00  0.00000000000E+00 -0.87892534045E+02  0.87892534190E+02  0.50400001928E-02 0.  1.
    10030    2    1    2    0    0  0.00000000000E+00  0.00000000000E+00  0.13031023644E+04  0.14788874327E+04  0.69930842004E+03 0.  0.
        2    1    3    3  502    0  0.26958596960E+03  0.96567672926E+02  0.10758604452E+04  0.11133182870E+04  0.25500000920E-02 0.  1.
       -2    1    3    3    0  502 -0.26958596960E+03 -0.96567672926E+02  0.22724191922E+03  0.36556914574E+03  0.25500000920E-02 0. -1.
</event>
<event>
 5   0  0.6689415E-03  0.7054208E+03  0.7818609E-02  0.9708007E-01
       -1   -1    0    0    0  501  0.00000000000E+00  0.00000000000E+00  0.12137837914E+03  0.12137837925E+03  0.50400001928E-02 0.  1.
        1   -1    0    0  501    0  0.00000000000E+00  0.00000000000E+00 -0.10249322114E+04  0.10249322115E+04  0.50400001928E-02 0. -1.
    10030    2    1    2    0    0  0.00000000000E+00  0.00000000000E+00 -0.90355383231E+03  0.11463105907E+04  0.70542075564E+03 0.  0.
        1    1    3    3  502    0 -0.15647373878E+03 -0.13914114202E+03  0.94500262161E+01  0.20960341446E+03  0.50400001928E-02 0.  1.
       -1    1    3    3    0  502  0.15647373878E+03  0.13914114202E+03 -0.91300385852E+03  0.93670717625E+03  0.50400001928E-02 0. -1.
</event>
<event>
 5   0  0.1109788E-02  0.6993618E+03  0.7818609E-02  0.9718324E-01
        2   -1    0    0  501    0  0.00000000000E+00  0.00000000000E+00  0.88865445827E+03  0.88865445828E+03  0.25500000920E-02 0.  1.
       -2   -1    0    0    0  501  0.00000000000E+00  0.00000000000E+00 -0.13759760338E+03  0.13759760340E+03  0.25500000920E-02 0. -1.
    10030    2    1    2    0    0  0.00000000000E+00  0.00000000000E+00  0.75105685489E+03  0.10262520617E+04  0.69936177678E+03 0.  0.
        1    1    3    3  502    0  0.14158550997E+03 -0.99977178855E+02 -0.70127438903E+02  0.18697526745E+03  0.50400001928E-02 0. -1.
       -1    1    3    3    0  502 -0.14158550997E+03  0.99977178855E+02  0.82118429380E+03  0.83927679423E+03  0.50400001928E-02 0.  1.
</event>
<event>
 5   0  0.6246998E-03  0.7001034E+03  0.7818609E-02  0.9717055E-01
       -1   -1    0    0    0  501  0.00000000000E+00  0.00000000000E+00  0.18799022298E+03  0.18799022305E+03  0.50400001928E-02 0. -1.
        1   -1    0    0  501    0  0.00000000000E+00  0.00000000000E+00 -0.65182212635E+03  0.65182212636E+03  0.50400001928E-02 0.  1.
    10030    2    1    2    0    0  0.00000000000E+00  0.00000000000E+00 -0.46383190336E+03  0.83981234942E+03  0.70010338355E+03 0.  0.
        4    1    3    3  502    0  0.63125784104E+02  0.21482462717E+03  0.90851423132E+02  0.24164039199E+03  0.12699999809E+01 0. -1.
       -4    1    3    3    0  502 -0.63125784104E+02 -0.21482462717E+03 -0.55468332649E+03  0.59817195742E+03  0.12699999809E+01 0.  1.
</event>
<event>
 5   0  0.6246998E-03  0.6991693E+03  0.7818609E-02  0.9718654E-01
        1   -1    0    0  501    0  0.00000000000E+00  0.00000000000E+00  0.20593540811E+03  0.20593540817E+03  0.50400001928E-02 0.  1.
       -1   -1    0    0    0  501  0.00000000000E+00  0.00000000000E+00 -0.59343580123E+03  0.59343580125E+03  0.50400001928E-02 0. -1.
    10030    2    1    2    0    0  0.00000000000E+00  0.00000000000E+00 -0.38750039312E+03  0.79937120942E+03  0.69916934700E+03 0.  0.
        4    1    3    3  502    0  0.22118703931E+03  0.65384047107E+02  0.10659393489E+03  0.25409183346E+03  0.12699999809E+01 0.  1.
       -4    1    3    3    0  502 -0.22118703931E+03 -0.65384047107E+02 -0.49409432801E+03  0.54527937596E+03  0.12699999809E+01 0. -1.
</event>
<event>
 5   0  0.6785252E-03  0.6999654E+03  0.7818609E-02  0.9717291E-01
       -1   -1    0    0    0  501  0.00000000000E+00  0.00000000000E+00  0.26553035485E+03  0.26553035490E+03  0.50400001928E-02 0.  1.
        1   -1    0    0  501    0  0.00000000000E+00  0.00000000000E+00 -0.46129524486E+03  0.46129524489E+03  0.50400001928E-02 0. -1.
    10030    2    1    2    0    0  0.00000000000E+00  0.00000000000E+00 -0.19576489001E+03  0.72682559979E+03  0.69996539939E+03 0.  0.
        3    1    3    3  502    0  0.12528150572E+03 -0.32100176313E+03 -0.34292829248E+02  0.34628542554E+03  0.10100000352E+00 0. -1.
       -3    1    3    3    0  502 -0.12528150572E+03  0.32100176313E+03 -0.16147206076E+03  0.38054017425E+03  0.10100000352E+00 0.  1.
</event>
<event>
 5   0  0.1079446E-02  0.6998396E+03  0.7818609E-02  0.9717507E-01
       -2   -1    0    0    0  501  0.00000000000E+00  0.00000000000E+00  0.26394370086E+03  0.26394370087E+03  0.25500000920E-02 0.  1.
        2   -1    0    0  501    0  0.00000000000E+00  0.00000000000E+00 -0.46390145512E+03  0.46390145512E+03  0.25500000920E-02 0. -1.
    10030    2    1    2    0    0  0.00000000000E+00  0.00000000000E+00 -0.19995775426E+03  0.72784515600E+03  0.69983960135E+03 0.  0.
        2    1    3    3  502    0 -0.14169986049E+03  0.24831795256E+03  0.10984495618E+03  0.30627858305E+03  0.25500000920E-02 0.  1.
       -2    1    3    3    0  502  0.14169986049E+03 -0.24831795256E+03 -0.30980271044E+03  0.42156657295E+03  0.25500000920E-02 0. -1.
</event>
<event>
 5   0  0.1100119E-02  0.6981332E+03  0.7818609E-02  0.9720430E-01
       -2   -1    0    0    0  501  0.00000000000E+00  0.00000000000E+00  0.27125293888E+03  0.27125293890E+03  0.25500000920E-02 0.  1.
        2   -1    0    0  501    0  0.00000000000E+00  0.00000000000E+00 -0.44920245038E+03  0.44920245039E+03  0.25500000920E-02 0. -1.
    10030    2    1    2    0    0  0.00000000000E+00  0.00000000000E+00 -0.17794951150E+03  0.72045538928E+03  0.69813318164E+03 0.  0.
        4    1    3    3  502    0  0.23998899624E+02 -0.25443430082E+03 -0.33434407503E+03  0.42083290511E+03  0.12699999809E+01 0. -1.
       -4    1    3    3    0  502 -0.23998899624E+02  0.25443430082E+03  0.15639456354E+03  0.29962248417E+03  0.12699999809E+01 0.  1.
</event>
<event>
 5   0  0.1099980E-02  0.7007067E+03  0.7818609E-02  0.9716024E-01
       -2   -1    0    0    0  501  0.00000000000E+00  0.00000000000E+00  0.57418779088E+02  0.57418779145E+02  0.25500000920E-02 0. -1.
        2   -1    0    0  501    0  0.00000000000E+00  0.00000000000E+00 -0.21377581259E+04  0.21377581259E+04  0.25500000920E-02 0.  1.
    10030    2    1    2    0    0  0.00000000000E+00  0.00000000000E+00 -0.20803393468E+04  0.21951769050E+04  0.70070667654E+03 0.  0.
        5    1    3    3  502    0 -0.63264865281E+02  0.21151400811E+03 -0.18804256227E+03  0.29003915948E+03  0.46999998093E+01 0. -1.
       -5    1    3    3    0  502  0.63264865281E+02 -0.21151400811E+03 -0.18922967845E+04  0.19051377455E+04  0.46999998093E+01 0.  1.
</event>
<event>
 5   0  0.1119786E-02  0.6970698E+03  0.7818609E-02  0.9722256E-01
       -2   -1    0    0    0  501  0.00000000000E+00  0.00000000000E+00  0.44704259539E+03  0.44704259540E+03  0.25500000920E-02 0.  1.
        2   -1    0    0  501    0  0.00000000000E+00  0.00000000000E+00 -0.27173374881E+03  0.27173374883E+03  0.25500000920E-02 0. -1.
    10030    2    1    2    0    0  0.00000000000E+00  0.00000000000E+00  0.17530884658E+03  0.71877634423E+03  0.69706975356E+03 0.  0.
        3    1    3    3  502    0 -0.26364863154E+03  0.21458849097E+03  0.83321659961E+01  0.34004155123E+03  0.10100000352E+00 0.  1.
       -3    1    3    3    0  502  0.26364863154E+03 -0.21458849097E+03  0.16697668058E+03  0.37873479300E+03  0.10100000352E+00 0. -1.
</event>
<event>
 5   0  0.1099980E-02  0.7010579E+03  0.7818609E-02  0.9715425E-01
        2   -1    0    0  501    0  0.00000000000E+00  0.00000000000E+00  0.50268947043E+03  0.50268947044E+03  0.25500000920E-02 0. -1.
       -2   -1    0    0    0  501  0.00000000000E+00  0.00000000000E+00 -0.24442634555E+03  0.24442634556E+03  0.25500000920E-02 0.  1.
    10030    2    1    2    0    0  0.00000000000E+00  0.00000000000E+00  0.25826312488E+03  0.74711581600E+03  0.70105791547E+03 0.  0.
        5    1    3    3  502    0 -0.82976021513E+02  0.27930534746E+03 -0.78479817330E+02  0.30179077022E+03  0.46999998093E+01 0.  1.
       -5    1    3    3    0  502  0.82976021513E+02 -0.27930534746E+03  0.33674294221E+03  0.44532504578E+03  0.46999998093E+01 0. -1.
</event>
<event>
 5   0  0.1079446E-02  0.7054412E+03  0.7818609E-02  0.9707972E-01
       -2   -1    0    0    0  501  0.00000000000E+00  0.00000000000E+00  0.11805490632E+03  0.11805490635E+03  0.25500000920E-02 0. -1.
        2   -1    0    0  501    0  0.00000000000E+00  0.00000000000E+00 -0.10538470971E+04  0.10538470971E+04  0.25500000920E-02 0.  1.
    10030    2    1    2    0    0  0.00000000000E+00  0.00000000000E+00 -0.93579219078E+03  0.11719020035E+04  0.70544119625E+03 0.  0.
        2    1    3    3  502    0  0.17761762454E+03 -0.29082752406E+03 -0.31670428441E+03  0.46522067136E+03  0.25500000920E-02 0. -1.
       -2    1    3    3    0  502 -0.17761762454E+03  0.29082752406E+03 -0.61908790638E+03  0.70668133209E+03  0.25500000920E-02 0.  1.
</event>
<event>
 5   0  0.6689415E-03  0.6990731E+03  0.7818609E-02  0.9718819E-01
       -1   -1    0    0    0  501  0.00000000000E+00  0.00000000000E+00  0.54366854594E+03  0.54366854596E+03  0.50400001928E-02 0.  1.
        1   -1    0    0  501    0  0.00000000000E+00  0.00000000000E+00 -0.22472477756E+03  0.22472477762E+03  0.50400001928E-02 0. -1.
    10030    2    1    2    0    0  0.00000000000E+00  0.00000000000E+00  0.31894376838E+03  0.76839332358E+03  0.69907308083E+03 0.  0.
        1    1    3    3  502    0 -0.96456095400E+02 -0.33590332475E+03  0.16650746648E+03  0.38711698275E+03  0.50400001928E-02 0.  1.
       -1    1    3    3    0  502  0.96456095400E+02  0.33590332475E+03  0.15243630190E+03  0.38127634083E+03  0.50400001928E-02 0. -1.
</event>
<event>
 5   0  0.6246998E-03  0.6956887E+03  0.7818609E-02  0.9724634E-01
        1   -1    0    0  501    0  0.00000000000E+00  0.00000000000E+00  0.76875505859E+03  0.76875505860E+03  0.50400001928E-02 0. -1.
       -1   -1    0    0    0  501  0.00000000000E+00  0.00000000000E+00 -0.15739174159E+03  0.15739174167E+03  0.50400001928E-02 0.  1.
    10030    2    1    2    0    0  0.00000000000E+00  0.00000000000E+00  0.61136331699E+03  0.92614680028E+03  0.69568871653E+03 0.  0.
        4    1    3    3  502    0  0.33062794583E+03 -0.50280860785E+02  0.43303228166E+03  0.54713944602E+03  0.12699999809E+01 0. -1.
       -4    1    3    3    0  502 -0.33062794583E+03  0.50280860785E+02  0.17833103533E+03  0.37900735426E+03  0.12699999809E+01 0.  1.
</event>
<event>
 5   0  0.1100119E-02  0.6993316E+03  0.7818609E-02  0.9718376E-01
        2   -1    0    0  501    0  0.00000000000E+00  0.00000000000E+00  0.78239764645E+03  0.78239764645E+03  0.25500000920E-02 0. -1.
       -2   -1    0    0    0  501  0.00000000000E+00  0.00000000000E+00 -0.15627115795E+03  0.15627115797E+03  0.25500000920E-02 0.  1.
    10030    2    1    2    0    0  0.00000000000E+00  0.00000000000E+00  0.62612648849E+03  0.93866880442E+03  0.69933164150E+03 0.  0.
        4    1    3    3  502    0 -0.16403746669E+03 -0.27799959325E+03  0.13262091236E+03  0.34897275484E+03  0.12699999809E+01 0. -1.
       -4    1    3    3    0  502  0.16403746669E+03  0.27799959325E+03  0.49350557613E+03  0.58969604959E+03  0.12699999809E+01 0.  1.
</event>
<event>
 5   0  0.1100119E-02  0.6938268E+03  0.7818609E-02  0.9727848E-01
       -2   -1    0    0    0  501  0.00000000000E+00  0.00000000000E+00  0.34661944717E+03  0.34661944718E+03  0.25500000920E-02 0.  1.
        2   -1    0    0  501    0  0.00000000000E+00  0.00000000000E+00 -0.34720763336E+03  0.34720763337E+03  0.25500000920E-02 0. -1.
    10030    2    1    2    0    0  0.00000000000E+00  0.00000000000E+00 -0.58818618845E+00  0.69382708055E+03  0.69382683124E+03 0.  0.
        4    1    3    3  502    0 -0.11194263370E+03  0.25995164093E+03  0.20030831242E+03  0.34674348124E+03  0.12699999809E+01 0.  1.
       -4    1    3    3    0  502  0.11194263370E+03 -0.25995164093E+03 -0.20089649860E+03  0.34708359931E+03  0.12699999809E+01 0. -1.
</event>
<event>
 5   0  0.6609285E-03  0.6940988E+03  0.7818609E-02  0.9727378E-01
        1   -1    0    0  501    0  0.00000000000E+00  0.00000000000E+00  0.49568620696E+03  0.49568620698E+03  0.50400001928E-02 0.  1.
       -1   -1    0    0    0  501  0.00000000000E+00  0.00000000000E+00 -0.24298292106E+03  0.24298292111E+03  0.50400001928E-02 0. -1.
    10030    2    1    2    0    0  0.00000000000E+00  0.00000000000E+00  0.25270328590E+03  0.73866912810E+03  0.69409878987E+03 0.  0.
        2    1    3    3  502    0 -0.64847618936E+02 -0.19571231586E+03 -0.17074261465E+03  0.26769677757E+03  0.25500000920E-02 0. -1.
       -2    1    3    3    0  502  0.64847618936E+02  0.19571231586E+03  0.42344590055E+03  0.47097235052E+03  0.25500000920E-02 0.  1.
</event>
<event>
 5   0  0.4440500E-03  0.6994462E+03  0.7818609E-02  0.9718180E-01
       -4   -1    0    0    0  501  0.00000000000E+00  0.00000000000E+00  0.31254376291E+03  0.31254634318E+03  0.12699999809E+01 0.  1.
        4   -1    0    0  501    0  0.00000000000E+00  0.00000000000E+00 -0.39131994414E+03  0.39132200498E+03  0.12699999809E+01 0. -1.
    10030    2    1    2    0    0  0.00000000000E+00  0.00000000000E+00 -0.78776181231E+02  0.70386834816E+03  0.69944618436E+03 0.  0.
        1    1    3    3  502    0  0.19979886403E+03  0.22324885893E+03  0.14215927777E+03  0.33161558974E+03  0.50400001928E-02 0.  1.
       -1    1    3    3    0  502 -0.19979886403E+03 -0.22324885893E+03 -0.22093545900E+03  0.37225275842E+03  0.50400001928E-02 0. -1.
</event>
<event>
 5   0  0.1079446E-02  0.6999025E+03  0.7818609E-02  0.9717399E-01
        2   -1    0    0  501    0  0.00000000000E+00  0.00000000000E+00  0.24556191146E+03  0.24556191148E+03  0.25500000920E-02 0. -1.
       -2   -1    0    0    0  501  0.00000000000E+00  0.00000000000E+00 -0.49871687018E+03  0.49871687019E+03  0.25500000920E-02 0.  1.
    10030    2    1    2    0    0  0.00000000000E+00  0.00000000000E+00 -0.25315495872E+03  0.74427878167E+03  0.69990247300E+03 0.  0.
        2    1    3    3  502    0  0.16338181905E+03  0.76851712000E+02  0.19220611941E+03  0.26371006196E+03  0.25500000920E-02 0. -1.
       -2    1    3    3    0  502 -0.16338181905E+03 -0.76851712000E+02 -0.44536107813E+03  0.48056871970E+03  0.25500000920E-02 0.  1.
</event>
<event>
 5   0  0.1119786E-02  0.6999145E+03  0.7818609E-02  0.9717378E-01
       -2   -1    0    0    0  501  0.00000000000E+00  0.00000000000E+00  0.44147828131E+03  0.44147828132E+03  0.25500000920E-02 0.  1.
        2   -1    0    0  501    0  0.00000000000E+00  0.00000000000E+00 -0.27740905728E+03  0.27740905729E+03  0.25500000920E-02 0. -1.
    10030    2    1    2    0    0  0.00000000000E+00  0.00000000000E+00  0.16406922403E+03  0.71888733861E+03  0.69991449145E+03 0.  0.
        3    1    3    3  502    0  0.34027162395E+03  0.79867795045E+02  0.64055218949E+02  0.35534029328E+03  0.10100000352E+00 0. -1.
       -3    1    3    3    0  502 -0.34027162395E+03 -0.79867795045E+02  0.10001400508E+03  0.36354704533E+03  0.10100000352E+00 0.  1.
</event>
<event>
 5   0  0.4440500E-03  0.6962660E+03  0.7818609E-02  0.9723639E-01
       -3   -1    0    0    0  501  0.00000000000E+00  0.00000000000E+00  0.10537628751E+03  0.10537633591E+03  0.10100000352E+00 0. -1.
        3   -1    0    0  501    0  0.00000000000E+00  0.00000000000E+00 -0.11501310675E+04  0.11501310720E+04  0.10100000352E+00 0.  1.
    10030    2    1    2    0    0  0.00000000000E+00  0.00000000000E+00 -0.10447547800E+04  0.12555074079E+04  0.69626596991E+03 0.  0.
        3    1    3    3  502    0 -0.16832435705E+03 -0.16510499558E+03 -0.60519186589E+02  0.24342417893E+03  0.10100000352E+00 0. -1.
       -3    1    3    3    0  502  0.16832435705E+03  0.16510499558E+03 -0.98423559342E+03  0.10120832289E+04  0.10100000352E+00 0.  1.
</event>
<event>
 5   0  0.4440500E-03  0.7001080E+03  0.7818609E-02  0.9717047E-01
        3   -1    0    0  501    0  0.00000000000E+00  0.00000000000E+00  0.13990384701E+04  0.13990384737E+04  0.10100000352E+00 0.  1.
       -3   -1    0    0    0  501  0.00000000000E+00  0.00000000000E+00 -0.87587127580E+02  0.87587185813E+02  0.10100000352E+00 0. -1.
    10030    2    1    2    0    0  0.00000000000E+00  0.00000000000E+00  0.13114513425E+04  0.14866256595E+04  0.70010801156E+03 0.  0.
        4    1    3    3  502    0  0.17506821220E+03  0.17402335705E+03  0.12869223940E+03  0.27838159620E+03  0.12699999809E+01 0. -1.
       -4    1    3    3    0  502 -0.17506821220E+03 -0.17402335705E+03  0.11827591031E+04  0.12082440633E+04  0.12699999809E+01 0.  1.
</event>
<event>
 5   0  0.1079446E-02  0.7015977E+03  0.7818609E-02  0.9714504E-01
        2   -1    0    0  501    0  0.00000000000E+00  0.00000000000E+00  0.10205991045E+04  0.10205991045E+04  0.25500000920E-02 0.  1.
       -2   -1    0    0    0  501  0.00000000000E+00  0.00000000000E+00 -0.12057607827E+03  0.12057607830E+03  0.25500000920E-02 0. -1.
    10030    2    1    2    0    0  0.00000000000E+00  0.00000000000E+00  0.90002302624E+03  0.11411751828E+04  0.70159771244E+03 0.  0.
        2    1    3    3  502    0  0.27412710817E+03  0.32133338577E+02  0.97830908699E+02  0.29282948893E+03  0.25500000920E-02 0. -1.
       -2    1    3    3    0  502 -0.27412710817E+03 -0.32133338577E+02  0.80219211754E+03  0.84834569389E+03  0.25500000920E-02 0.  1.
</event>
<event>
 5   0  0.1109788E-02  0.6992897E+03  0.7818609E-02  0.9718448E-01
        2   -1    0    0  501    0  0.00000000000E+00  0.00000000000E+00  0.11716745387E+04  0.11716745387E+04  0.25500000920E-02 0.  1.
       -2   -1    0    0    0  501  0.00000000000E+00  0.00000000000E+00 -0.10433914907E+03  0.10433914911E+03  0.25500000920E-02 0. -1.
    10030    2    1    2    0    0  0.00000000000E+00  0.00000000000E+00  0.10673353896E+04  0.12760136878E+04  0.69928970929E+03 0.  0.
        1    1    3    3  502    0  0.22412445967E+02 -0.12535407895E+03  0.11278558171E+04  0.11350218972E+04  0.50400001928E-02 0.  1.
       -1    1    3    3    0  502 -0.22412445967E+02  0.12535407895E+03 -0.60520427520E+02  0.14099179060E+03  0.50400001928E-02 0. -1.
</event>
<event>
 5   0  0.6785252E-03  0.7027343E+03  0.7818609E-02  0.9712568E-01
        1   -1    0    0  501    0  0.00000000000E+00  0.00000000000E+00  0.35835304012E+03  0.35835304015E+03  0.50400001928E-02 0.  1.
       -1   -1    0    0    0  501  0.00000000000E+00  0.00000000000E+00 -0.34451742099E+03  0.34451742102E+03  0.50400001928E-02 0. -1.
    10030    2    1    2    0    0  0.00000000000E+00  0.00000000000E+00  0.13835619131E+02  0.70287046117E+03  0.70273427470E+03 0.  0.
        3    1    3    3  502    0 -0.14533561151E+03 -0.23694304127E+03 -0.20805269183E+03  0.34720365429E+03  0.10100000352E+00 0. -1.
       -3    1    3    3    0  502  0.14533561151E+03  0.23694304127E+03  0.22188831096E+03  0.35566680688E+03  0.10100000352E+00 0.  1.
</event>
<event>
 5   0  0.1099980E-02  0.6992335E+03  0.7818609E-02  0.9718544E-01
       -2   -1    0    0    0  501  0.00000000000E+00  0.00000000000E+00  0.20512271849E+03  0.20512271850E+03  0.25500000920E-02 0.  1.
        2   -1    0    0  501    0  0.00000000000E+00  0.00000000000E+00 -0.59589639745E+03  0.59589639745E+03  0.25500000920E-02 0. -1.
    10030    2    1    2    0    0  0.00000000000E+00  0.00000000000E+00 -0.39077367896E+03  0.80101911595E+03  0.69923354893E+03 0.  0.
        5    1    3    3  502    0  0.13997191449E+03  0.31947794767E+03 -0.22228946092E+03  0.41363388441E+03  0.46999998093E+01 0. -1.
       -5    1    3    3    0  502 -0.13997191449E+03 -0.31947794767E+03 -0.16848421804E+03  0.38738523155E+03  0.46999998093E+01 0.  1.
</event>
<event>
 5   0  0.1100119E-02  0.7020274E+03  0.7818609E-02  0.9713771E-01
       -2   -1    0    0    0  501  0.00000000000E+00  0.00000000000E+00  0.18233879500E+03  0.18233879501E+03  0.25500000920E-02 0. -1.
        2   -1    0    0  501    0  0.00000000000E+00  0.00000000000E+00 -0.67572361968E+03  0.67572361969E+03  0.25500000920E-02 0.  1.
    10030    2    1    2    0    0  0.00000000000E+00  0.00000000000E+00 -0.49338482469E+03  0.85806241470E+03  0.70202743699E+03 0.  0.
        4    1    3    3  502    0  0.17204095469E+03  0.10826981478E+03  0.10307266902E+03  0.22791671918E+03  0.12699999809E+01 0. -1.
       -4    1    3    3    0  502 -0.17204095469E+03 -0.10826981478E+03 -0.59645749371E+03  0.63014569552E+03  0.12699999809E+01 0.  1.
</event>
<event>
 5   0  0.1079446E-02  0.6975372E+03  0.7818609E-02  0.9721453E-01
       -2   -1    0    0    0  501  0.00000000000E+00  0.00000000000E+00  0.12676435201E+03  0.12676435204E+03  0.25500000920E-02 0. -1.
        2   -1    0    0  501    0  0.00000000000E+00  0.00000000000E+00 -0.95957218894E+03  0.95957218894E+03  0.25500000920E-02 0.  1.
    10030    2    1    2    0    0  0.00000000000E+00  0.00000000000E+00 -0.83280783692E+03  0.10863365410E+04  0.69753722985E+03 0.  0.
        2    1    3    3  502    0 -0.53417423985E+02  0.94506220731E+01 -0.95296172988E+03  0.95450447567E+03  0.25500000920E-02 0.  1.
       -2    1    3    3    0  502  0.53417423985E+02 -0.94506220731E+01  0.12015389296E+03  0.13183206531E+03  0.25500000920E-02 0. -1.
</event>
<event>
 5   0  0.6785252E-03  0.7024859E+03  0.7818609E-02  0.9712990E-01
       -1   -1    0    0    0  501  0.00000000000E+00  0.00000000000E+00  0.75552676395E+02  0.75552676563E+02  0.50400001928E-02 0.  1.
        1   -1    0    0  501    0  0.00000000000E+00  0.00000000000E+00 -0.16329219937E+04  0.16329219937E+04  0.50400001928E-02 0. -1.
    10030    2    1    2    0    0  0.00000000000E+00  0.00000000000E+00 -0.15573693173E+04  0.17084746703E+04  0.70248594896E+03 0.  0.
        3    1    3    3  502    0 -0.61341177816E+02 -0.66292133463E+01 -0.16196397612E+04  0.16208145029E+04  0.10100000352E+00 0. -1.
       -3    1    3    3    0  502  0.61341177816E+02  0.66292133463E+01  0.62270443873E+02  0.87660167389E+02  0.10100000352E+00 0.  1.
</event>
<event>
 5   0  0.6990118E-03  0.7046871E+03  0.7818609E-02  0.9709250E-01
       -1   -1    0    0    0  501  0.00000000000E+00  0.00000000000E+00  0.12111628144E+03  0.12111628154E+03  0.50400001928E-02 0. -1.
        1   -1    0    0  501    0  0.00000000000E+00  0.00000000000E+00 -0.10250147688E+04  0.10250147688E+04  0.50400001928E-02 0.  1.
    10030    2    1    2    0    0  0.00000000000E+00  0.00000000000E+00 -0.90389848734E+03  0.11461310503E+04  0.70468710015E+03 0.  0.
        5    1    3    3  502    0 -0.62531411845E+02  0.12474126229E+03 -0.97810518306E+03  0.98801943256E+03  0.46999998093E+01 0.  1.
       -5    1    3    3    0  502  0.62531411845E+02 -0.12474126229E+03  0.74206695723E+02  0.15811161777E+03  0.46999998093E+01 0. -1.
</event>
<event>
 5   0  0.1109788E-02  0.6992696E+03  0.7818609E-02  0.9718482E-01
       -2   -1    0    0    0  501  0.00000000000E+00  0.00000000000E+00  0.25786733180E+03  0.25786733181E+03  0.25500000920E-02 0. -1.
        2   -1    0    0  501    0  0.00000000000E+00  0.00000000000E+00 -0.47405967990E+03  0.47405967990E+03  0.25500000920E-02 0.  1.
    10030    2    1    2    0    0  0.00000000000E+00  0.00000000000E+00 -0.21619234810E+03  0.73192701172E+03  0.69926963262E+03 0.  0.
        1    1    3    3  502    0  0.14690105090E+03  0.21708883383E+03  0.13409048746E+03  0.29442781693E+03  0.50400001928E-02 0. -1.
       -1    1    3    3    0  502 -0.14690105090E+03 -0.21708883383E+03 -0.35028283556E+03  0.43749919479E+03  0.50400001928E-02 0.  1.
</event>
<event>
 5   0  0.1099980E-02  0.6987740E+03  0.7818609E-02  0.9719331E-01
        2   -1    0    0  501    0  0.00000000000E+00  0.00000000000E+00  0.38325826073E+03  0.38325826073E+03  0.25500000920E-02 0.  1.
       -2   -1    0    0    0  501  0.00000000000E+00  0.00000000000E+00 -0.31850917621E+03  0.31850917622E+03  0.25500000920E-02 0. -1.
    10030    2    1    2    0    0  0.00000000000E+00  0.00000000000E+00  0.64749084520E+02  0.70176743695E+03  0.69877399180E+03 0.  0.
        5    1    3    3  502    0 -0.52482789935E+02 -0.12060607341E+03  0.35741037866E+03  0.38087338704E+03  0.46999998093E+01 0.  1.
       -5    1    3    3    0  502  0.52482789935E+02  0.12060607341E+03 -0.29266129414E+03  0.32089404991E+03  0.46999998093E+01 0. -1.
</event>
<event>
 5   0  0.1099980E-02  0.6973495E+03  0.7818609E-02  0.9721776E-01
       -2   -1    0    0    0  501  0.00000000000E+00  0.00000000000E+00  0.57912701166E+02  0.57912701222E+02  0.25500000920E-02 0.  1.
        2   -1    0    0  501    0  0.00000000000E+00  0.00000000000E+00 -0.20992645057E+04  0.20992645057E+04  0.25500000920E-02 0. -1.
    10030    2    1    2    0    0  0.00000000000E+00  0.00000000000E+00 -0.20413518045E+04  0.21571772069E+04  0.69734949071E+03 0.  0.
        5    1    3    3  502    0  0.82964178540E+02  0.77527392784E+02 -0.98848422918E+00  0.11365130291E+03  0.46999998093E+01 0.  1.
       -5    1    3    3    0  502 -0.82964178540E+02 -0.77527392784E+02 -0.20403633203E+04  0.20435259040E+04  0.46999998093E+01 0. -1.
</event>
<event>
 5   0  0.6246998E-03  0.6991952E+03  0.7818609E-02  0.9718609E-01
        1   -1    0    0  501    0  0.00000000000E+00  0.00000000000E+00  0.36525314228E+03  0.36525314232E+03  0.50400001928E-02 0. -1.
       -1   -1    0    0    0  501  0.00000000000E+00  0.00000000000E+00 -0.33461308927E+03  0.33461308930E+03  0.50400001928E-02 0.  1.
    10030    2    1    2    0    0  0.00000000000E+00  0.00000000000E+00  0.30640053019E+02  0.69986623162E+03  0.69919520115E+03 0.  0.
        4    1    3    3  502    0  0.28059385502E+03 -0.14996977734E+03  0.16034877522E+03  0.35628245566E+03  0.12699999809E+01 0. -1.
       -4    1    3    3    0  502 -0.28059385502E+03  0.14996977734E+03 -0.12970872220E+03  0.34358377597E+03  0.12699999809E+01 0.  1.
</event>
<event>
 5   0  0.6246998E-03  0.7016096E+03  0.7818609E-02  0.9714483E-01
        1   -1    0    0  501    0  0.00000000000E+00  0.00000000000E+00  0.28480325918E+03  0.28480325922E+03  0.50400001928E-02 0.  1.
       -1   -1    0    0    0  501  0.00000000000E+00  0.00000000000E+00 -0.43210187339E+03  0.43210187342E+03  0.50400001928E-02 0. -1.
    10030    2    1    2    0    0  0.00000000000E+00  0.00000000000E+00 -0.14729861421E+03  0.71690513264E+03  0.70160964037E+03 0.  0.
        4    1    3    3  502    0  0.16727897152E+03  0.29072782517E+03 -0.17863893723E+03  0.38002421691E+03  0.12699999809E+01 0. -1.
       -4    1    3    3    0  502 -0.16727897152E+03 -0.29072782517E+03  0.31340323027E+02  0.33688091573E+03  0.12699999809E+01 0.  1.
</event>
<event>
 5   0  0.6609285E-03  0.6920947E+03  0.7818609E-02  0.9730848E-01
        1   -1    0    0  501    0  0.00000000000E+00  0.00000000000E+00  0.12249665284E+04  0.12249665284E+04  0.50400001928E-02 0. -1.
       -1   -1    0    0    0  501  0.00000000000E+00  0.00000000000E+00 -0.97756767008E+02  0.97756767138E+02  0.50400001928E-02 0.  1.
    10030    2    1    2    0    0  0.00000000000E+00  0.00000000000E+00  0.11272097614E+04  0.13227232955E+04  0.69209469756E+03 0.  0.
        2    1    3    3  502    0 -0.15343955131E+03  0.23579419776E+03  0.17848185594E+03  0.33316418251E+03  0.25500000920E-02 0.  1.
       -2    1    3    3    0  502  0.15343955131E+03 -0.23579419776E+03  0.94872790541E+03  0.98955911300E+03  0.25500000920E-02 0. -1.
</event>
<event>
 5   0  0.1109788E-02  0.6993663E+03  0.7818609E-02  0.9718316E-01
        2   -1    0    0  501    0  0.00000000000E+00  0.00000000000E+00  0.27347157028E+03  0.27347157029E+03  0.25500000920E-02 0.  1.
       -2   -1    0    0    0  501  0.00000000000E+00  0.00000000000E+00 -0.44713356707E+03  0.44713356708E+03  0.25500000920E-02 0. -1.
    10030    2    1    2    0    0  0.00000000000E+00  0.00000000000E+00 -0.17366199679E+03  0.72060513737E+03  0.69936633811E+03 0.  0.
        1    1    3    3  502    0 -0.33039083968E+03  0.11276624613E+03 -0.66121217271E+02  0.35531162183E+03  0.50400001928E-02 0. -1.
       -1    1    3    3    0  502  0.33039083968E+03 -0.11276624613E+03 -0.10754077952E+03  0.36529351554E+03  0.50400001928E-02 0.  1.
</event>
<event>
 5   0  0.1099980E-02  0.7021375E+03  0.7818609E-02  0.9713584E-01
        2   -1    0    0  501    0  0.00000000000E+00  0.00000000000E+00  0.72731067202E+03  0.72731067203E+03  0.25500000920E-02 0. -1.
       -2   -1    0    0    0  501  0.00000000000E+00  0.00000000000E+00 -0.16945890566E+03  0.16945890568E+03  0.25500000920E-02 0.  1.
    10030    2    1    2    0    0  0.00000000000E+00  0.00000000000E+00  0.55785176636E+03  0.89676957770E+03  0.70213750951E+03 0.  0.
        5    1    3    3  502    0  0.14547355956E+03  0.43103895671E+02  0.68322894017E+03  0.69988883191E+03  0.46999998093E+01 0. -1.
       -5    1    3    3    0  502 -0.14547355956E+03 -0.43103895671E+02 -0.12537717381E+03  0.19688074579E+03  0.46999998093E+01 0.  1.
</event>
<event>
 5   0  0.1119786E-02  0.6995548E+03  0.7818609E-02  0.9717994E-01
        2   -1    0    0  501    0  0.00000000000E+00  0.00000000000E+00  0.19710758865E+04  0.19710758865E+04  0.25500000920E-02 0.  1.
       -2   -1    0    0    0  501  0.00000000000E+00  0.00000000000E+00 -0.62069774437E+02  0.62069774489E+02  0.25500000920E-02 0. -1.
    10030    2    1    2    0    0  0.00000000000E+00  0.00000000000E+00  0.19090061121E+04  0.20331456610E+04  0.69955481767E+03 0.  0.
        3    1    3    3  502    0 -0.27140508399E+03 -0.73875542398E+02  0.35025005593E+03  0.44921423315E+03  0.10100000352E+00 0. -1.
       -3    1    3    3    0  502  0.27140508399E+03  0.73875542398E+02  0.15587560562E+04  0.15839314279E+04  0.10100000352E+00 0.  1.
</event>
<event>
 5   0  0.6246998E-03  0.6997318E+03  0.7818609E-02  0.9717691E-01
        1   -1    0    0  501    0  0.00000000000E+00  0.00000000000E+00  0.64290302301E+03  0.64290302303E+03  0.50400001928E-02 0. -1.
       -1   -1    0    0    0  501  0.00000000000E+00  0.00000000000E+00 -0.19039595095E+03  0.19039595102E+03  0.50400001928E-02 0.  1.
    10030    2    1    2    0    0  0.00000000000E+00  0.00000000000E+00  0.45250707206E+03  0.83329897405E+03  0.69973175567E+03 0.  0.
        4    1    3    3  502    0  0.43110733093E+02 -0.31304846196E+03  0.47435951471E+02  0.31954601740E+03  0.12699999809E+01 0.  1.
       -4    1    3    3    0  502 -0.43110733093E+02  0.31304846196E+03  0.40507112059E+03  0.51375295666E+03  0.12699999809E+01 0. -1.
</event>
<event>
 5   0  0.1109788E-02  0.6863874E+03  0.7818609E-02  0.9740799E-01
        2   -1    0    0  501    0  0.00000000000E+00  0.00000000000E+00  0.99865140241E+03  0.99865140241E+03  0.25500000920E-02 0. -1.
       -2   -1    0    0    0  501  0.00000000000E+00  0.00000000000E+00 -0.11794098425E+03  0.11794098428E+03  0.25500000920E-02 0.  1.
    10030    2    1    2    0    0  0.00000000000E+00  0.00000000000E+00  0.88071041816E+03  0.11165923867E+04  0.68638743969E+03 0.  0.
        1    1    3    3  502    0 -0.69228686781E+02 -0.85549321480E+02 -0.88458233826E+02  0.14119545544E+03  0.50400001928E-02 0.  1.
       -1    1    3    3    0  502  0.69228686781E+02  0.85549321480E+02  0.96916865199E+03  0.97539693125E+03  0.50400001928E-02 0. -1.
</event>
<event>
 5   0  0.6246998E-03  0.7002338E+03  0.7818609E-02  0.9716832E-01
       -1   -1    0    0    0  501  0.00000000000E+00  0.00000000000E+00  0.19166198733E+03  0.19166198740E+03  0.50400001928E-02 0. -1.
        1   -1    0    0  501    0  0.00000000000E+00  0.00000000000E+00 -0.63957300671E+03  0.63957300673E+03  0.50400001928E-02 0.  1.
    10030    2    1    2    0    0  0.00000000000E+00  0.00000000000E+00 -0.44791101938E+03  0.83123499412E+03  0.70023377109E+03 0.  0.
        4    1    3    3  502    0 -0.43423969840E+02  0.15149275584E+03 -0.59508629876E+03  0.61560134186E+03  0.12699999809E+01 0.  1.
       -4    1    3    3    0  502  0.43423969840E+02 -0.15149275584E+03  0.14717527938E+03  0.21563365226E+03  0.12699999809E+01 0. -1.
</event>
<event>
 5   0  0.1119786E-02  0.7012555E+03  0.7818609E-02  0.9715088E-01
        2   -1    0    0  501    0  0.00000000000E+00  0.00000000000E+00  0.66810181013E+03  0.66810181013E+03  0.25500000920E-02 0.  1.
       -2   -1    0    0    0  501  0.00000000000E+00  0.00000000000E+00 -0.18401357994E+03  0.18401357996E+03  0.25500000920E-02 0. -1.
    10030    2    1    2    0    0  0.00000000000E+00  0.00000000000E+00  0.48408823018E+03  0.85211539010E+03  0.70125546232E+03 0.  0.
        3    1    3    3  502    0  0.25519795996E+03 -0.18546473283E+03  0.56099182765E+02  0.32042205667E+03  0.10100000352E+00 0. -1.
       -3    1    3    3    0  502 -0.25519795996E+03  0.18546473283E+03  0.42798904742E+03  0.53169333342E+03  0.10100000352E+00 0.  1.
</event>
<event>
 5   0  0.1100119E-02  0.7038438E+03  0.7818609E-02  0.9710681E-01
       -2   -1    0    0    0  501  0.00000000000E+00  0.00000000000E+00  0.24160866179E+03  0.24160866180E+03  0.25500000920E-02 0.  1.
        2   -1    0    0  501    0  0.00000000000E+00  0.00000000000E+00 -0.51260181890E+03  0.51260181891E+03  0.25500000920E-02 0. -1.
    10030    2    1    2    0    0  0.00000000000E+00  0.00000000000E+00 -0.27099315712E+03  0.75421048071E+03  0.70384384490E+03 0.  0.
        4    1    3    3  502    0  0.26776489362E+03 -0.13637551278E+03 -0.33177369938E+03  0.44762899732E+03  0.12699999809E+01 0. -1.
       -4    1    3    3    0  502 -0.26776489362E+03  0.13637551278E+03  0.60780542267E+02  0.30658148339E+03  0.12699999809E+01 0.  1.
</event>
<event>
 5   0  0.6689415E-03  0.7020343E+03  0.7818609E-02  0.9713760E-01
       -1   -1    0    0    0  501  0.00000000000E+00  0.00000000000E+00  0.33736727070E+03  0.33736727074E+03  0.50400001928E-02 0.  1.
        1   -1    0    0  501    0  0.00000000000E+00  0.00000000000E+00 -0.36521925734E+03  0.36521925738E+03  0.50400001928E-02 0. -1.
    10030    2    1    2    0    0  0.00000000000E+00  0.00000000000E+00 -0.27851986639E+02  0.70258652812E+03  0.70203425581E+03 0.  0.
        1    1    3    3  502    0  0.76785474738E+02  0.25286333519E+03 -0.24514269371E+03  0.36045917344E+03  0.50400001928E-02 0. -1.
       -1    1    3    3    0  502 -0.76785474738E+02 -0.25286333519E+03  0.21729070707E+03  0.34212735468E+03  0.50400001928E-02 0.  1.
</event>
<event>
 5   0  0.1109788E-02  0.6996070E+03  0.7818609E-02  0.9717904E-01
        2   -1    0    0  501    0  0.00000000000E+00  0.00000000000E+00  0.12672314081E+04  0.12672314081E+04  0.25500000920E-02 0. -1.
       -2   -1    0    0    0  501  0.00000000000E+00  0.00000000000E+00 -0.96558917213E+02  0.96558917247E+02  0.25500000920E-02 0.  1.
    10030    2    1    2    0    0  0.00000000000E+00  0.00000000000E+00  0.11706724909E+04  0.13637903253E+04  0.69960701153E+03 0.  0.
        1    1    3    3  502    0  0.26577051350E+03  0.44201596930E+02  0.10202448262E+04  0.10552190542E+04  0.50400001928E-02 0. -1.
       -1    1    3    3    0  502 -0.26577051350E+03 -0.44201596930E+02  0.15042766466E+03  0.30857127108E+03  0.50400001928E-02 0.  1.
</event>
<event>
 5   0  0.6785252E-03  0.7333462E+03  0.7818609E-02  0.9661846E-01
        1   -1    0    0  501    0  0.00000000000E+00  0.00000000000E+00  0.47018668240E+03  0.47018668243E+03  0.50400001928E-02 0.  1.
       -1   -1    0    0    0  501  0.00000000000E+00  0.00000000000E+00 -0.28594845426E+03  0.28594845430E+03  0.50400001928E-02 0. -1.
    10030    2    1    2    0    0  0.00000000000E+00  0.00000000000E+00  0.18423822814E+03  0.75613513673E+03  0.73334618039E+03 0.  0.
        3    1    3    3  502    0 -0.29746642538E+03  0.19172473686E+03  0.19104054504E+03  0.40217054716E+03  0.10100000352E+00 0.  1.
       -3    1    3    3    0  502  0.29746642538E+03 -0.19172473686E+03 -0.68023168978E+01  0.35396458957E+03  0.10100000352E+00 0. -1.
</event>
<event>
 5   0  0.6990118E-03  0.6987339E+03  0.7818609E-02  0.9719400E-01
        1   -1    0    0  501    0  0.00000000000E+00  0.00000000000E+00  0.85394851589E+03  0.85394851590E+03  0.50400001928E-02 0.  1.
       -1   -1    0    0    0  501  0.00000000000E+00  0.00000000000E+00 -0.14293280561E+03  0.14293280570E+03  0.50400001928E-02 0. -1.
    10030    2    1    2    0    0  0.00000000000E+00  0.00000000000E+00  0.71101571028E+03  0.99688132160E+03  0.69873387574E+03 0.  0.
        5    1    3    3  502    0  0.20549965371E+03  0.22301659091E+03  0.60290158896E+03  0.67489178649E+03  0.46999998093E+01 0.  1.
       -5    1    3    3    0  502 -0.20549965371E+03 -0.22301659091E+03  0.10811412131E+03  0.32198953511E+03  0.46999998093E+01 0. -1.
</event>
<event>
 5   0  0.6246998E-03  0.6986032E+03  0.7818609E-02  0.9719624E-01
       -1   -1    0    0    0  501  0.00000000000E+00  0.00000000000E+00  0.89859514830E+02  0.89859514971E+02  0.50400001928E-02 0. -1.
        1   -1    0    0  501    0  0.00000000000E+00  0.00000000000E+00 -0.13578038708E+04  0.13578038708E+04  0.50400001928E-02 0.  1.
    10030    2    1    2    0    0  0.00000000000E+00  0.00000000000E+00 -0.12679443560E+04  0.14476633858E+04  0.69860316969E+03 0.  0.
        4    1    3    3  502    0  0.13622945680E+03 -0.21086847167E+03 -0.13069001609E+03  0.28302909824E+03  0.12699999809E+01 0. -1.
       -4    1    3    3    0  502 -0.13622945680E+03  0.21086847167E+03 -0.11372543399E+04  0.11646342876E+04  0.12699999809E+01 0.  1.
</event>
<event>
 5   0  0.6785252E-03  0.6937612E+03  0.7818609E-02  0.9727961E-01
       -1   -1    0    0    0  501  0.00000000000E+00  0.00000000000E+00  0.12955383837E+03  0.12955383847E+03  0.50400001928E-02 0. -1.
        1   -1    0    0  501    0  0.00000000000E+00  0.00000000000E+00 -0.92877329379E+03  0.92877329381E+03  0.50400001928E-02 0.  1.
    10030    2    1    2    0    0  0.00000000000E+00  0.00000000000E+00 -0.79921945542E+03  0.10583271323E+04  0.69376118441E+03 0.  0.
        3    1    3    3  502    0 -0.21301752507E+03 -0.16276858570E+03 -0.63807195708E+02  0.27557475738E+03  0.10100000352E+00 0. -1.
       -3    1    3    3    0  502  0.21301752507E+03  0.16276858570E+03 -0.73541225971E+03  0.78275237490E+03  0.10100000352E+00 0.  1.
</event>
<event>
 5   0  0.6785252E-03  0.6774534E+03  0.7818609E-02  0.9756586E-01
        1   -1    0    0  501    0  0.00000000000E+00  0.00000000000E+00  0.30688734085E+03  0.30688734089E+03  0.50400001928E-02 0. -1.
       -1   -1    0    0    0  501  0.00000000000E+00  0.00000000000E+00 -0.37386937778E+03  0.37386937782E+03  0.50400001928E-02 0.  1.
    10030    2    1    2    0    0  0.00000000000E+00  0.00000000000E+00 -0.66982036934E+02  0.68075671871E+03  0.67745340563E+03 0.  0.
        3    1    3    3  502    0 -0.15811672869E+03 -0.29943524612E+03 -0.24881717226E+02  0.33953126006E+03  0.10100000352E+00 0.  1.
       -3    1    3    3    0  502  0.15811672869E+03  0.29943524612E+03 -0.42100319708E+02  0.34122545865E+03  0.10100000352E+00 0. -1.
</event>
<event>
 5   0  0.6246998E-03  0.6958969E+03  0.7818609E-02  0.9724275E-01
        1   -1    0    0  501    0  0.00000000000E+00  0.00000000000E+00  0.28734678282E+03  0.28734678287E+03  0.50400001928E-02 0.  1.
       -1   -1    0    0    0  501  0.00000000000E+00  0.00000000000E+00 -0.42133110746E+03  0.42133110749E+03  0.50400001928E-02 0. -1.
    10030    2    1    2    0    0  0.00000000000E+00  0.00000000000E+00 -0.13398432464E+03  0.70867789036E+03  0.69589694139E+03 0.  0.
        4    1    3    3  502    0 -0.23455626554E+03 -0.21502849459E+03  0.76350353458E+02  0.32723826879E+03  0.12699999809E+01 0.  1.
       -4    1    3    3    0  502  0.23455626554E+03  0.21502849459E+03 -0.21033467810E+03  0.38143962157E+03  0.12699999809E+01 0. -1.
</event>
<event>
 5   0  0.6689415E-03  0.6970730E+03  0.7818609E-02  0.9722251E-01
       -1   -1    0    0    0  501  0.00000000000E+00  0.00000000000E+00  0.28147448814E+03  0.28147448818E+03  0.50400001928E-02 0.  1.
        1   -1    0    0  501    0  0.00000000000E+00  0.00000000000E+00 -0.43157615399E+03  0.43157615402E+03  0.50400001928E-02 0. -1.
    10030    2    1    2    0    0  0.00000000000E+00  0.00000000000E+00 -0.15010166585E+03  0.71305064220E+03  0.69707295762E+03 0.  0.
        1    1    3    3  502    0  0.19496956206E+03 -0.53432677135E+02 -0.36547666553E+03  0.41766179402E+03  0.50400001928E-02 0. -1.
       -1    1    3    3    0  502 -0.19496956206E+03  0.53432677135E+02  0.21537499968E+03  0.29538884818E+03  0.50400001928E-02 0.  1.
</event>
<event>
 5   0  0.6689415E-03  0.6996155E+03  0.7818609E-02  0.9717890E-01
       -1   -1    0    0    0  501  0.00000000000E+00  0.00000000000E+00  0.87313099530E+02  0.87313099676E+02  0.50400001928E-02 0. -1.
        1   -1    0    0  501    0  0.00000000000E+00  0.00000000000E+00 -0.14014561115E+04  0.14014561115E+04  0.50400001928E-02 0.  1.
    10030    2    1    2    0    0  0.00000000000E+00  0.00000000000E+00 -0.13141430119E+04  0.14887692112E+04  0.69961554318E+03 0.  0.
        1    1    3    3  502    0 -0.31713504494E+03  0.49328237178E+02 -0.95314075078E+03  0.10057262066E+04  0.50400001928E-02 0.  1.
       -1    1    3    3    0  502  0.31713504494E+03 -0.49328237178E+02 -0.36100226116E+03  0.48304300461E+03  0.50400001928E-02 0. -1.
</event>
<event>
 5   0  0.6785252E-03  0.6974155E+03  0.7818609E-02  0.9721662E-01
       -1   -1    0    0    0  501  0.00000000000E+00  0.00000000000E+00  0.20746230064E+03  0.20746230070E+03  0.50400001928E-02 0.  1.
        1   -1    0    0  501    0  0.00000000000E+00  0.00000000000E+00 -0.58611666142E+03  0.58611666145E+03  0.50400001928E-02 0. -1.
    10030    2    1    2    0    0  0.00000000000E+00  0.00000000000E+00 -0.37865436079E+03  0.79357896214E+03  0.69741554629E+03 0.  0.
        3    1    3    3  502    0 -0.66554576656E+02  0.65495954763E+02  0.19297160928E+03  0.21437650046E+03  0.10100000352E+00 0.  1.
       -3    1    3    3    0  502  0.66554576656E+02 -0.65495954763E+02 -0.57162597006E+03  0.57920246168E+03  0.10100000352E+00 0. -1.
</event>
<event>
 5   0  0.1119786E-02  0.6960899E+03  0.7818609E-02  0.9723943E-01
       -2   -1    0    0    0  501  0.00000000000E+00  0.00000000000E+00  0.18805502318E+03  0.18805502320E+03  0.25500000920E-02 0. -1.
        2   -1    0    0  501    0  0.00000000000E+00  0.00000000000E+00 -0.64414802261E+03  0.64414802262E+03  0.25500000920E-02 0.  1.
    10030    2    1    2    0    0  0.00000000000E+00  0.00000000000E+00 -0.45609299943E+03  0.83220304581E+03  0.69608985435E+03 0.  0.
        3    1    3    3  502    0 -0.29582484520E+03 -0.92397668476E+02 -0.38691759035E+02  0.31232471980E+03  0.10100000352E+00 0.  1.
       -3    1    3    3    0  502  0.29582484520E+03  0.92397668476E+02 -0.41740124039E+03  0.51987832602E+03  0.10100000352E+00 0. -1.
</event>
<event>
 5   0  0.1079446E-02  0.6995723E+03  0.7818609E-02  0.9717964E-01
        2   -1    0    0  501    0  0.00000000000E+00  0.00000000000E+00  0.10625708148E+04  0.10625708148E+04  0.25500000920E-02 0.  1.
       -2   -1    0    0    0  501  0.00000000000E+00  0.00000000000E+00 -0.11514558262E+03  0.11514558265E+03  0.25500000920E-02 0. -1.
    10030    2    1    2    0    0  0.00000000000E+00  0.00000000000E+00  0.94742523221E+03  0.11777163975E+04  0.69957225666E+03 0.  0.
        2    1    3    3  502    0 -0.24216241327E+03  0.21597739191E+03  0.25381712042E+03  0.41196116181E+03  0.25500000920E-02 0.  1.
       -2    1    3    3    0  502  0.24216241327E+03 -0.21597739191E+03  0.69360811179E+03  0.76575523567E+03  0.25500000920E-02 0. -1.
</event>
<event>
 5   0  0.6990118E-03  0.6943273E+03  0.7818609E-02  0.9726983E-01
        1   -1    0    0  501    0  0.00000000000E+00  0.00000000000E+00  0.17265270016E+03  0.17265270024E+03  0.50400001928E-02 0. -1.
       -1   -1    0    0    0  501  0.00000000000E+00  0.00000000000E+00 -0.69806377806E+03  0.69806377808E+03  0.50400001928E-02 0.  1.
    10030    2    1    2    0    0  0.00000000000E+00  0.00000000000E+00 -0.52541107790E+03  0.87071647831E+03  0.69432728942E+03 0.  0.
        5    1    3    3  502    0  0.34302147993E+03 -0.26681585210E+02 -0.20489885599E+03  0.40047630875E+03  0.46999998093E+01 0.  1.
       -5    1    3    3    0  502 -0.34302147993E+03  0.26681585210E+02 -0.32051222191E+03  0.47024016957E+03  0.46999998093E+01 0. -1.
</event>
<event>
 5   0  0.1119786E-02  0.6996692E+03  0.7818609E-02  0.9717798E-01
        2   -1    0    0  501    0  0.00000000000E+00  0.00000000000E+00  0.38556253244E+03  0.38556253245E+03  0.25500000920E-02 0. -1.
       -2   -1    0    0    0  501  0.00000000000E+00  0.00000000000E+00 -0.31741740069E+03  0.31741740070E+03  0.25500000920E-02 0.  1.
    10030    2    1    2    0    0  0.00000000000E+00  0.00000000000E+00  0.68145131754E+02  0.70297993315E+03  0.69966922716E+03 0.  0.
        3    1    3    3  502    0  0.24943851109E+03  0.21003690041E+03 -0.93212229558E+02  0.33915129409E+03  0.10100000352E+00 0. -1.
       -3    1    3    3    0  502 -0.24943851109E+03 -0.21003690041E+03  0.16135736131E+03  0.36382863906E+03  0.10100000352E+00 0.  1.
</event>
<event>
 5   0  0.1109788E-02  0.7050075E+03  0.7818609E-02  0.9708707E-01
        2   -1    0    0  501    0  0.00000000000E+00  0.00000000000E+00  0.15953795801E+04  0.15953795801E+04  0.25500000920E-02 0. -1.
       -2   -1    0    0    0  501  0.00000000000E+00  0.00000000000E+00 -0.77886721291E+02  0.77886721332E+02  0.25500000920E-02 0.  1.
    10030    2    1    2    0    0  0.00000000000E+00  0.00000000000E+00  0.15174928588E+04  0.16732663014E+04  0.70500747441E+03 0.  0.
        1    1    3    3  502    0 -0.21279312012E+03 -0.21812954727E+03  0.11792974522E+04  0.12180327961E+04  0.50400001928E-02 0. -1.
       -1    1    3    3    0  502  0.21279312012E+03  0.21812954727E+03  0.33819540653E+03  0.45523350535E+03  0.50400001928E-02 0.  1.
</event>
<event>
 5   0  0.1100119E-02  0.6983790E+03  0.7818609E-02  0.9720008E-01
       -2   -1    0    0    0  501  0.00000000000E+00  0.00000000000E+00  0.10007689459E+03  0.10007689462E+03  0.25500000920E-02 0.  1.
        2   -1    0    0  501    0  0.00000000000E+00  0.00000000000E+00 -0.12183961400E+04  0.12183961400E+04  0.25500000920E-02 0. -1.
    10030    2    1    2    0    0  0.00000000000E+00  0.00000000000E+00 -0.11183192454E+04  0.13184730347E+04  0.69837898622E+03 0.  0.
        4    1    3    3  502    0  0.28424947570E+03 -0.31425116069E+02 -0.93743086119E+03  0.98008343255E+03  0.12699999809E+01 0. -1.
       -4    1    3    3    0  502 -0.28424947570E+03  0.31425116069E+02 -0.18088838426E+03  0.33838960211E+03  0.12699999809E+01 0.  1.
</event>
<event>
 5   0  0.1079446E-02  0.6939445E+03  0.7818609E-02  0.9727644E-01
       -2   -1    0    0    0  501  0.00000000000E+00  0.00000000000E+00  0.40698940928E+03  0.40698940928E+03  0.25500000920E-02 0.  1.
        2   -1    0    0  501    0  0.00000000000E+00  0.00000000000E+00 -0.29580562692E+03  0.29580562693E+03  0.25500000920E-02 0. -1.
    10030    2    1    2    0    0  0.00000000000E+00  0.00000000000E+00  0.11118378236E+03  0.70279503621E+03  0.69394454351E+03 0.  0.
        2    1    3    3  502    0  0.16411842097E+02 -0.10106538698E+03  0.39134110870E+03  0.40451381234E+03  0.25500000920E-02 0.  1.
       -2    1    3    3    0  502 -0.16411842097E+02  0.10106538698E+03 -0.28015732634E+03  0.29828122387E+03  0.25500000920E-02 0. -1.
</event>
<event>
 5   0  0.6990118E-03  0.6966044E+03  0.7818609E-02  0.9723057E-01
       -1   -1    0    0    0  501  0.00000000000E+00  0.00000000000E+00  0.15203645876E+03  0.15203645884E+03  0.50400001928E-02 0.  1.
        1   -1    0    0  501    0  0.00000000000E+00  0.00000000000E+00 -0.79792986924E+03  0.79792986925E+03  0.50400001928E-02 0. -1.
    10030    2    1    2    0    0  0.00000000000E+00  0.00000000000E+00 -0.64589341048E+03  0.94996632810E+03  0.69660442636E+03 0.  0.
        5    1    3    3  502    0  0.18285471116E+03 -0.68284773456E+02 -0.71628584671E+03  0.74241912682E+03  0.46999998093E+01 0. -1.
       -5    1    3    3    0  502 -0.18285471116E+03  0.68284773456E+02  0.70392436231E+02  0.20754720127E+03  0.46999998093E+01 0.  1.
</event>
<event>
 5   0  0.1079446E-02  0.6997390E+03  0.7818609E-02  0.9717679E-01
       -2   -1    0    0    0  501  0.00000000000E+00  0.00000000000E+00  0.23411221771E+03  0.23411221772E+03  0.25500000920E-02 0. -1.
        2   -1    0    0  501    0  0.00000000000E+00  0.00000000000E+00 -0.52286320065E+03  0.52286320065E+03  0.25500000920E-02 0.  1.
    10030    2    1    2    0    0  0.00000000000E+00  0.00000000000E+00 -0.28875098294E+03  0.75697541838E+03  0.69973898982E+03 0.  0.
        2    1    3    3  502    0 -0.15080918826E+03 -0.23174334886E+02  0.19622425342E+03  0.24856471732E+03  0.25500000920E-02 0. -1.
       -2    1    3    3    0  502  0.15080918826E+03  0.23174334886E+02 -0.48497523636E+03  0.50841070105E+03  0.25500000920E-02 0.  1.
</event>
<event>
 5   0  0.6990118E-03  0.6992737E+03  0.7818609E-02  0.9718475E-01
        1   -1    0    0  501    0  0.00000000000E+00  0.00000000000E+00  0.17965329746E+04  0.17965329746E+04  0.50400001928E-02 0.  1.
       -1   -1    0    0    0  501  0.00000000000E+00  0.00000000000E+00 -0.68045474426E+02  0.68045474613E+02  0.50400001928E-02 0. -1.
    10030    2    1    2    0    0  0.00000000000E+00  0.00000000000E+00  0.17284875002E+04  0.18645784493E+04  0.69927373399E+03 0.  0.
        5    1    3    3  502    0  0.21098219455E+03 -0.13547355053E+03  0.15138802809E+04  0.15345103989E+04  0.46999998093E+01 0.  1.
       -5    1    3    3    0  502 -0.21098219455E+03  0.13547355053E+03  0.21460721929E+03  0.33006805038E+03  0.46999998093E+01 0. -1.
</event>
<event>
 5   0  0.6609285E-03  0.6959794E+03  0.7818609E-02  0.9724133E-01
       -1   -1    0    0    0  501  0.00000000000E+00  0.00000000000E+00  0.10877509735E+03  0.10877509747E+03  0.50400001928E-02 0.  1.
        1   -1    0    0  501    0  0.00000000000E+00  0.00000000000E+00 -0.11132771285E+04  0.11132771285E+04  0.50400001928E-02 0. -1.
    10030    2    1    2    0    0  0.00000000000E+00  0.00000000000E+00 -0.10045020311E+04  0.12220522260E+04  0.69597939080E+03 0.  0.
        2    1    3    3  502    0  0.16282383879E+03  0.30731220745E+03 -0.52335314392E+03  0.62837163254E+03  0.25500000920E-02 0.  1.
       -2    1    3    3    0  502 -0.16282383879E+03 -0.30731220745E+03 -0.48114888722E+03  0.59368059342E+03  0.25500000920E-02 0. -1.
</event>
<event>
 5   0  0.6609285E-03  0.6973337E+03  0.7818609E-02  0.9721803E-01
       -1   -1    0    0    0  501  0.00000000000E+00  0.00000000000E+00  0.15352038164E+03  0.15352038172E+03  0.50400001928E-02 0.  1.
        1   -1    0    0  501    0  0.00000000000E+00  0.00000000000E+00 -0.79187244634E+03  0.79187244636E+03  0.50400001928E-02 0. -1.
    10030    2    1    2    0    0  0.00000000000E+00  0.00000000000E+00 -0.63835206471E+03  0.94539282808E+03  0.69733366538E+03 0.  0.
        2    1    3    3  502    0  0.83642261155E+02  0.33794956576E+03 -0.34499266296E+03  0.49012842639E+03  0.25500000920E-02 0. -1.
       -2    1    3    3    0  502 -0.83642261155E+02 -0.33794956576E+03 -0.29335940175E+03  0.45526440169E+03  0.25500000920E-02 0.  1.
</event>
<event>
 5   0  0.6609285E-03  0.7003596E+03  0.7818609E-02  0.9716617E-01
       -1   -1    0    0    0  501  0.00000000000E+00  0.00000000000E+00  0.80540383011E+02  0.80540383169E+02  0.50400001928E-02 0.  1.
        1   -1    0    0  501    0  0.00000000000E+00  0.00000000000E+00 -0.15225393756E+04  0.15225393756E+04  0.50400001928E-02 0. -1.
    10030    2    1    2    0    0  0.00000000000E+00  0.00000000000E+00 -0.14419989926E+04  0.16030797588E+04  0.70035963502E+03 0.  0.
        2    1    3    3  502    0 -0.37178633189E+02 -0.66405746995E+02 -0.15033808954E+04  0.15053059791E+04  0.25500000920E-02 0. -1.
       -2    1    3    3    0  502  0.37178633189E+02  0.66405746995E+02  0.61381902802E+02  0.97773779705E+02  0.25500000920E-02 0.  1.
</event>
<event>
 5   0  0.1109788E-02  0.7003400E+03  0.7818609E-02  0.9716651E-01
        2   -1    0    0  501    0  0.00000000000E+00  0.00000000000E+00  0.12015361265E+04  0.12015361265E+04  0.25500000920E-02 0. -1.
       -2   -1    0    0    0  501  0.00000000000E+00  0.00000000000E+00 -0.10205188947E+03  0.10205188950E+03  0.25500000920E-02 0.  1.
    10030    2    1    2    0    0  0.00000000000E+00  0.00000000000E+00  0.10994842370E+04  0.13035880160E+04  0.70034000883E+03 0.  0.
        1    1    3    3  502    0 -0.10940097836E+03 -0.10784917420E+03 -0.35978779660E+02  0.15777988165E+03  0.50400001928E-02 0.  1.
       -1    1    3    3    0  502  0.10940097836E+03  0.10784917420E+03  0.11354630167E+04  0.11458081343E+04  0.50400001928E-02 0. -1.
</event>
<event>
 5   0  0.1100119E-02  0.7007510E+03  0.7818609E-02  0.9715949E-01
       -2   -1    0    0    0  501  0.00000000000E+00  0.00000000000E+00  0.14287122979E+03  0.14287122981E+03  0.25500000920E-02 0. -1.
        2   -1    0    0  501    0  0.00000000000E+00  0.00000000000E+00 -0.85925632137E+03  0.85925632137E+03  0.25500000920E-02 0.  1.
    10030    2    1    2    0    0  0.00000000000E+00  0.00000000000E+00 -0.71638509158E+03  0.10021275512E+04  0.70075104666E+03 0.  0.
        4    1    3    3  502    0 -0.11893858657E+03 -0.23898664084E+03 -0.68272976970E+03  0.73306381251E+03  0.12699999809E+01 0.  1.
       -4    1    3    3    0  502  0.11893858657E+03  0.23898664084E+03 -0.33655321882E+02  0.26906373867E+03  0.12699999809E+01 0. -1.
</event>
<event>
 5   0  0.4440500E-03  0.6995130E+03  0.7818609E-02  0.9718065E-01
       -3   -1    0    0    0  501  0.00000000000E+00  0.00000000000E+00  0.29602645716E+03  0.29602647439E+03  0.10100000352E+00 0. -1.
        3   -1    0    0  501    0  0.00000000000E+00  0.00000000000E+00 -0.41323874013E+03  0.41323875247E+03  0.10100000352E+00 0.  1.
    10030    2    1    2    0    0  0.00000000000E+00  0.00000000000E+00 -0.11721228297E+03  0.70926522686E+03  0.69951300399E+03 0.  0.
        3    1    3    3  502    0 -0.35125331587E+02 -0.31362797088E+03 -0.21148385845E+03  0.37989699344E+03  0.10100000352E+00 0. -1.
       -3    1    3    3    0  502  0.35125331587E+02  0.31362797088E+03  0.94271575484E+02  0.32936823342E+03  0.10100000352E+00 0.  1.
</event>
<event>
 5   0  0.6785252E-03  0.6998991E+03  0.7818609E-02  0.9717405E-01
       -1   -1    0    0    0  501  0.00000000000E+00  0.00000000000E+00  0.20339193008E+03  0.20339193014E+03  0.50400001928E-02 0.  1.
        1   -1    0    0  501    0  0.00000000000E+00  0.00000000000E+00 -0.60211177041E+03  0.60211177043E+03  0.50400001928E-02 0. -1.
    10030    2    1    2    0    0  0.00000000000E+00  0.00000000000E+00 -0.39871984033E+03  0.80550370057E+03  0.69989906455E+03 0.  0.
        3    1    3    3  502    0  0.24130712234E+03  0.72729921908E+02  0.80060997135E+02  0.26444005426E+03  0.10100000352E+00 0.  1.
       -3    1    3    3    0  502 -0.24130712234E+03 -0.72729921908E+02 -0.47878083747E+03  0.54106364631E+03  0.10100000352E+00 0. -1.
</event>
<event>
 5   0  0.1119786E-02  0.6990783E+03  0.7818609E-02  0.9718810E-01
       -2   -1    0    0    0  501  0.00000000000E+00  0.00000000000E+00  0.20992612283E+03  0.20992612285E+03  0.25500000920E-02 0. -1.
        2   -1    0    0  501    0  0.00000000000E+00  0.00000000000E+00 -0.58200294565E+03  0.58200294566E+03  0.25500000920E-02 0.  1.
    10030    2    1    2    0    0  0.00000000000E+00  0.00000000000E+00 -0.37207682282E+03  0.79192906850E+03  0.69907831282E+03 0.  0.
        3    1    3    3  502    0 -0.32604671670E+02  0.33709810159E+03 -0.28400868646E+03  0.44199450098E+03  0.10100000352E+00 0. -1.
       -3    1    3    3    0  502  0.32604671670E+02 -0.33709810159E+03 -0.88068136367E+02  0.34993456753E+03  0.10100000352E+00 0.  1.
</event>
<event>
 5   0  0.6785252E-03  0.7020886E+03  0.7818609E-02  0.9713667E-01
       -1   -1    0    0    0  501  0.00000000000E+00  0.00000000000E+00  0.64268658795E+03  0.64268658797E+03  0.50400001928E-02 0. -1.
        1   -1    0    0  501    0  0.00000000000E+00  0.00000000000E+00 -0.19174526758E+03  0.19174526764E+03  0.50400001928E-02 0.  1.
    10030    2    1    2    0    0  0.00000000000E+00  0.00000000000E+00  0.45094132038E+03  0.83443185561E+03  0.70208863204E+03 0.  0.
        3    1    3    3  502    0 -0.60406257687E+02 -0.33550988365E+03  0.12591794226E+03  0.36341592752E+03  0.10100000352E+00 0.  1.
       -3    1    3    3    0  502  0.60406257687E+02  0.33550988365E+03  0.32502337812E+03  0.47101592809E+03  0.10100000352E+00 0. -1.
</event>
<event>
 5   0  0.6609285E-03  0.7068189E+03  0.7818609E-02  0.9705642E-01
       -1   -1    0    0    0  501  0.00000000000E+00  0.00000000000E+00  0.21488183508E+03  0.21488183514E+03  0.50400001928E-02 0. -1.
        1   -1    0    0  501    0  0.00000000000E+00  0.00000000000E+00 -0.58124141577E+03  0.58124141579E+03  0.50400001928E-02 0.  1.
    10030    2    1    2    0    0  0.00000000000E+00  0.00000000000E+00 -0.36635958069E+03  0.79612325093E+03  0.70681885113E+03 0.  0.
        2    1    3    3  502    0  0.33164817421E+03 -0.22307482655E+02 -0.31838875362E+03  0.46028201538E+03  0.25500000920E-02 0.  1.
       -2    1    3    3    0  502 -0.33164817421E+03  0.22307482655E+02 -0.47970827075E+02  0.33584123555E+03  0.25500000920E-02 0. -1.
</event>
<event>
 5   0  0.1079446E-02  0.6990616E+03  0.7818609E-02  0.9718838E-01
        2   -1    0    0  501    0  0.00000000000E+00  0.00000000000E+00  0.12007946457E+04  0.12007946457E+04  0.25500000920E-02 0. -1.
       -2   -1    0    0    0  501  0.00000000000E+00  0.00000000000E+00 -0.10174243023E+03  0.10174243026E+03  0.25500000920E-02 0.  1.
    10030    2    1    2    0    0  0.00000000000E+00  0.00000000000E+00  0.10990522155E+04  0.13025370760E+04  0.69906155803E+03 0.  0.
        2    1    3    3  502    0 -0.30498994988E+03  0.19779021052E+02  0.23352991805E+03  0.38463788403E+03  0.25500000920E-02 0.  1.
       -2    1    3    3    0  502  0.30498994988E+03 -0.19779021052E+02  0.86552229743E+03  0.91789919194E+03  0.25500000920E-02 0. -1.
</event>
<event>
 5   0  0.6990118E-03  0.7018477E+03  0.7818609E-02  0.9714078E-01
        1   -1    0    0  501    0  0.00000000000E+00  0.00000000000E+00  0.10473661117E+04  0.10473661117E+04  0.50400001928E-02 0.  1.
       -1   -1    0    0    0  501  0.00000000000E+00  0.00000000000E+00 -0.11757831416E+03  0.11757831427E+03  0.50400001928E-02 0. -1.
    10030    2    1    2    0    0  0.00000000000E+00  0.00000000000E+00  0.92978779753E+03  0.11649444260E+04  0.70184768088E+03 0.  0.
        5    1    3    3  502    0 -0.34043670217E+03 -0.39880366883E+01  0.60585595164E+03  0.69497955133E+03  0.46999998093E+01 0.  1.
       -5    1    3    3    0  502  0.34043670217E+03  0.39880366883E+01  0.32393184588E+03  0.46996487464E+03  0.46999998093E+01 0. -1.
</event>
<event>
 5   0  0.6246998E-03  0.7014680E+03  0.7818609E-02  0.9714725E-01
        1   -1    0    0  501    0  0.00000000000E+00  0.00000000000E+00  0.56197301452E+03  0.56197301455E+03  0.50400001928E-02 0.  1.
       -1   -1    0    0    0  501  0.00000000000E+00  0.00000000000E+00 -0.21889723814E+03  0.21889723820E+03  0.50400001928E-02 0. -1.
    10030    2    1    2    0    0  0.00000000000E+00  0.00000000000E+00  0.34307577639E+03  0.78087025274E+03  0.70146800588E+03 0.  0.
        4    1    3    3  502    0  0.18077320562E+03  0.24682240708E+03 -0.19375682185E+02  0.30655714389E+03  0.12699999809E+01 0. -1.
       -4    1    3    3    0  502 -0.18077320562E+03 -0.24682240708E+03  0.36245145857E+03  0.47431310885E+03  0.12699999809E+01 0.  1.
</event>
<event>
 5   0  0.1100119E-02  0.6582757E+03  0.7818609E-02  0.9791373E-01
        2   -1    0    0  501    0  0.00000000000E+00  0.00000000000E+00  0.68421830916E+03  0.68421830916E+03  0.25500000920E-02 0. -1.
       -2   -1    0    0    0  501  0.00000000000E+00  0.00000000000E+00 -0.15832917591E+03  0.15832917593E+03  0.25500000920E-02 0.  1.
    10030    2    1    2    0    0  0.00000000000E+00  0.00000000000E+00  0.52588913325E+03  0.84254748510E+03  0.65827569010E+03 0.  0.
        4    1    3    3  502    0  0.16809052553E+03 -0.13062673962E+03 -0.58347030529E+02  0.22073458893E+03  0.12699999809E+01 0.  1.
       -4    1    3    3    0  502 -0.16809052553E+03  0.13062673962E+03  0.58423616378E+03  0.62181289617E+03  0.12699999809E+01 0. -1.
</event>
<event>
 5   0  0.6246998E-03  0.7011889E+03  0.7818609E-02  0.9715201E-01
       -1   -1    0    0    0  501  0.00000000000E+00  0.00000000000E+00  0.74415569973E+02  0.74415570144E+02  0.50400001928E-02 0. -1.
        1   -1    0    0  501    0  0.00000000000E+00  0.00000000000E+00 -0.16517573102E+04  0.16517573102E+04  0.50400001928E-02 0.  1.
    10030    2    1    2    0    0  0.00000000000E+00  0.00000000000E+00 -0.15773417402E+04  0.17261728803E+04  0.70118888140E+03 0.  0.
        4    1    3    3  502    0 -0.23962539246E+03  0.24768670520E+03 -0.94718000503E+03  0.10079288702E+04  0.12699999809E+01 0.  1.
       -4    1    3    3    0  502  0.23962539246E+03 -0.24768670520E+03 -0.63016173517E+03  0.71824401008E+03  0.12699999809E+01 0. -1.
</event>
<event>
 5   0  0.1100119E-02  0.7007490E+03  0.7818609E-02  0.9715952E-01
       -2   -1    0    0    0  501  0.00000000000E+00  0.00000000000E+00  0.34610146679E+03  0.34610146680E+03  0.25500000920E-02 0. -1.
        2   -1    0    0  501    0  0.00000000000E+00  0.00000000000E+00 -0.35470028729E+03  0.35470028730E+03  0.25500000920E-02 0.  1.
    10030    2    1    2    0    0  0.00000000000E+00  0.00000000000E+00 -0.85988204985E+01  0.70080175410E+03  0.70074899846E+03 0.  0.
        4    1    3    3  502    0  0.53618110540E+02  0.10818723954E+03  0.32463460384E+03  0.34636486469E+03  0.12699999809E+01 0. -1.
       -4    1    3    3    0  502 -0.53618110540E+02 -0.10818723954E+03 -0.33323342434E+03  0.35443688941E+03  0.12699999809E+01 0.  1.
</event>
<event>
 5   0  0.1099980E-02  0.7007246E+03  0.7818609E-02  0.9715994E-01
       -2   -1    0    0    0  501  0.00000000000E+00  0.00000000000E+00  0.80468549031E+03  0.80468549032E+03  0.25500000920E-02 0.  1.
        2   -1    0    0  501    0  0.00000000000E+00  0.00000000000E+00 -0.15254870421E+03  0.15254870423E+03  0.25500000920E-02 0. -1.
    10030    2    1    2    0    0  0.00000000000E+00  0.00000000000E+00  0.65213678610E+03  0.95723419455E+03  0.70072456459E+03 0.  0.
        5    1    3    3  502    0 -0.34037957733E+03  0.81226804701E+02  0.30339057198E+03  0.46316733437E+03  0.46999998093E+01 0.  1.
       -5    1    3    3    0  502  0.34037957733E+03 -0.81226804701E+02  0.34874621412E+03  0.49406686018E+03  0.46999998093E+01 0. -1.
</event>
<event>
 5   0  0.6246998E-03  0.7009638E+03  0.7818609E-02  0.9715585E-01
       -1   -1    0    0    0  501  0.00000000000E+00  0.00000000000E+00  0.69152955182E+03  0.69152955183E+03  0.50400001928E-02 0.  1.
        1   -1    0    0  501    0  0.00000000000E+00  0.00000000000E+00 -0.17763166680E+03  0.17763166687E+03  0.50400001928E-02 0. -1.
    10030    2    1    2    0    0  0.00000000000E+00  0.00000000000E+00  0.51389788502E+03  0.86916121870E+03  0.70096375646E+03 0.  0.
        4    1    3    3  502    0  0.84442583205E+02 -0.22108189003E+03 -0.63592805321E+02  0.24505797221E+03  0.12699999809E+01 0. -1.
       -4    1    3    3    0  502 -0.84442583205E+02  0.22108189003E+03  0.57749069034E+03  0.62410324649E+03  0.12699999809E+01 0.  1.
</event>
<event>
 5   0  0.1099980E-02  0.6984624E+03  0.7818609E-02  0.9719865E-01
        2   -1    0    0  501    0  0.00000000000E+00  0.00000000000E+00  0.14109135911E+04  0.14109135911E+04  0.25500000920E-02 0. -1.
       -2   -1    0    0    0  501  0.00000000000E+00  0.00000000000E+00 -0.86442177817E+02  0.86442177854E+02  0.25500000920E-02 0.  1.
    10030    2    1    2    0    0  0.00000000000E+00  0.00000000000E+00  0.13244714133E+04  0.14973557689E+04  0.69846243579E+03 0.  0.
        5    1    3    3  502    0  0.22592097792E+03 -0.19670617358E+03  0.27750630776E+03  0.40836925427E+03  0.46999998093E+01 0.  1.
       -5    1    3    3    0  502 -0.22592097792E+03  0.19670617358E+03  0.10469651055E+04  0.10889865147E+04  0.46999998093E+01 0. -1.
</event>
<event>
 5   0  0.4440500E-03  0.6975487E+03  0.7818609E-02  0.9721433E-01
        4   -1    0    0  501    0  0.00000000000E+00  0.00000000000E+00  0.73777362910E+02  0.73788292959E+02  0.12699999809E+01 0.  1.
       -4   -1    0    0    0  501  0.00000000000E+00  0.00000000000E+00 -0.16486589180E+04  0.16486594072E+04  0.12699999809E+01 0. -1.
    10030    2    1    2    0    0  0.00000000000E+00  0.00000000000E+00 -0.15748815551E+04  0.17224477001E+04  0.69754868437E+03 0.  0.
        4    1    3    3  502    0 -0.45430158227E+02  0.20543462271E+03 -0.10057661752E+03  0.23320495787E+03  0.12699999809E+01 0.  1.
       -4    1    3    3    0  502  0.45430158227E+02 -0.20543462271E+03 -0.14743049376E+04  0.14892427423E+04  0.12699999809E+01 0. -1.
</event>
<event>
 5   0  0.4440500E-03  0.6999554E+03  0.7818609E-02  0.9717308E-01
       -3   -1    0    0    0  501  0.00000000000E+00  0.00000000000E+00  0.10250919931E+04  0.10250919981E+04  0.10100000352E+00 0. -1.
        3   -1    0    0  501    0  0.00000000000E+00  0.00000000000E+00 -0.11948621241E+03  0.11948625510E+03  0.10100000352E+00 0.  1.
    10030    2    1    2    0    0  0.00000000000E+00  0.00000000000E+00  0.90560578069E+03  0.11445782532E+04  0.69995538974E+03 0.  0.
        3    1    3    3  502    0  0.76698105867E+02 -0.21174449156E+03  0.89086394296E+03  0.91888895097E+03  0.10100000352E+00 0. -1.
       -3    1    3    3    0  502 -0.76698105867E+02  0.21174449156E+03  0.14741837733E+02  0.22568930221E+03  0.10100000352E+00 0.  1.
</event>
<event>
 5   0  0.1079446E-02  0.6923427E+03  0.7818609E-02  0.9730417E-01
       -2   -1    0    0    0  501  0.00000000000E+00  0.00000000000E+00  0.20460964194E+03  0.20460964196E+03  0.25500000920E-02 0.  1.
        2   -1    0    0  501    0  0.00000000000E+00  0.00000000000E+00 -0.58567435738E+03  0.58567435738E+03  0.25500000920E-02 0. -1.
    10030    2    1    2    0    0  0.00000000000E+00  0.00000000000E+00 -0.38106471543E+03  0.79028399934E+03  0.69234274912E+03 0.  0.
        2    1    3    3  502    0  0.28947052745E+03  0.19723026984E+02  0.24997106002E+02  0.29121648197E+03  0.25500000920E-02 0.  1.
       -2    1    3    3    0  502 -0.28947052745E+03 -0.19723026984E+02 -0.40606182144E+03  0.49906751737E+03  0.25500000920E-02 0. -1.
</event>
<event>
 5   0  0.6785252E-03  0.7018204E+03  0.7818609E-02  0.9714124E-01
        1   -1    0    0  501    0  0.00000000000E+00  0.00000000000E+00  0.50014042395E+03  0.50014042397E+03  0.50400001928E-02 0.  1.
       -1   -1    0    0    0  501  0.00000000000E+00  0.00000000000E+00 -0.24620681111E+03  0.24620681116E+03  0.50400001928E-02 0. -1.
    10030    2    1    2    0    0  0.00000000000E+00  0.00000000000E+00  0.25393361284E+03  0.74634723514E+03  0.70182042979E+03 0.  0.
        3    1    3    3  502    0 -0.21820751794E+03  0.24679508235E+03 -0.15984939489E+01  0.32943117482E+03  0.10100000352E+00 0. -1.
       -3    1    3    3    0  502  0.21820751794E+03 -0.24679508235E+03  0.25553210678E+03  0.41691606032E+03  0.10100000352E+00 0.  1.
</event>
</LesHouchesEvents>
