<LesHouchesEvents version="3.0">
<header>
<!--
#*********************************************************************
#                                                                    *
#                        MadGraph5_aMC@NLO                           *
#                                                                    *
#                           Going Beyond                             *
#                                                                    *
#                   http://madgraph.hep.uiuc.edu                     *
#                   http://madgraph.phys.ucl.ac.be                   *
#                   http://amcatnlo.cern.ch                          *
#                                                                    *
#                     The MadGraph5_aMC@NLO team                     *
#                                                                    *
#....................................................................*
#                                                                    *
# This file contains all the information necessary to reproduce      *
# the events generated:                                              *
#                                                                    *
# 1. software version                                                *
# 2. proc_card          : code generation info including model       *
# 3. param_card         : model primary parameters in the LH format  *
# 4. run_card           : running parameters (collider and cuts)     *
# 5. pythia_card        : present only if pythia has been run        *
# 6. pgs_card           : present only if pgs has been run           *
# 7. delphes_cards      : present only if delphes has been run       *
#                                                                    *
#                                                                    *
#*********************************************************************
-->
<MGVersion>
#5.2.2.3
</MGVersion>
<MG5ProcCard>
#************************************************************
#*                     MadGraph5_aMC@NLO                    *
#*                                                          *
#*                *                       *                 *
#*                  *        * *        *                   *
#*                    * * * * 5 * * * *                     *
#*                  *        * *        *                   *
#*                *                       *                 *
#*                                                          *
#*                                                          *
#*         VERSION 2.2.3                 2015-02-10         *
#*                                                          *
#*    The MadGraph5_aMC@NLO Development Team - Find us at   *
#*    https://server06.fynu.ucl.ac.be/projects/madgraph     *
#*                                                          *
#************************************************************
#*                                                          *
#*               Command File for MadGraph5_aMC@NLO         *
#*                                                          *
#*     run as ./bin/mg5_aMC  filename                       *
#*                                                          *
#************************************************************
set group_subprocesses Auto
set ignore_six_quark_processes False
set loop_optimized_output True
set gauge unitary
set complex_mass_scheme False
import model sm
define p = g u c d s u~ c~ d~ s~
define j = g u c d s u~ c~ d~ s~
define l+ = e+ mu+
define l- = e- mu-
define vl = ve vm vt
define vl~ = ve~ vm~ vt~
import model Zprime_UFO
generate p p > zph, zph > j j
add process p p > zph, zph > b b~
output Dijet_signal
</MG5ProcCard>
<MGProcCard>
#*********************************************************************
#                        MadGraph/MadEvent                           *
#                   http://madgraph.hep.uiuc.edu                     *
#                                                                    *
#                          proc_card.dat                             *
#*********************************************************************
#                                                                    *
#            This Files is generated by MADGRAPH 5                   *
#                                                                    *
# WARNING: This Files is generated for MADEVENT (compatibility issue)*
#          This files is NOT a valid MG4 proc_card.dat               *
#          Running this in MG4 will NEVER reproduce the result of MG5*
#                                                                    *
#*********************************************************************
#*********************************************************************
# Process(es) requested : mg2 input                                  *
#*********************************************************************
# Begin PROCESS # This is TAG. Do not modify this line
p p > zph , zph > j j           #Process
# Be carefull the coupling are here in MG5 convention
          
end_coup           # End the couplings input

done               # this tells MG there are no more procs
# End PROCESS  # This is TAG. Do not modify this line
#*********************************************************************
# Model information                                                  *
#*********************************************************************
# Begin MODEL  # This is TAG. Do not modify this line
Zprime_UFO
# End   MODEL  # This is TAG. Do not modify this line
#*********************************************************************
# Start multiparticle definitions                                    *
#*********************************************************************
# Begin MULTIPARTICLES # This is TAG. Do not modify this line

# End  MULTIPARTICLES # This is TAG. Do not modify this line
</MGProcCard>
<MGRunCard>
#*********************************************************************
#                       MadGraph5_aMC@NLO                            *
#                                                                    *
#                     run_card.dat MadEvent                          *
#                                                                    *
#  This file is used to set the parameters of the run.               *
#                                                                    *
#  Some notation/conventions:                                        *
#                                                                    *
#   Lines starting with a '# ' are info or comments                  *
#                                                                    *
#   mind the format:   value    = variable     ! comment             *
#*********************************************************************
#
#*******************                                                 
# Running parameters
#*******************                                                 
#                                                                    
#*********************************************************************
# Tag name for the run (one word)                                    *
#*********************************************************************
  tag_1     = run_tag ! name of the run 
#*********************************************************************
# Run to generate the grid pack                                      *
#*********************************************************************
  .false.     = gridpack  !True = setting up the grid pack
#*********************************************************************
# Number of events and rnd seed                                      *
# Warning: Do not generate more than 1M events in a single run       *
# If you want to run Pythia, avoid more than 50k events in a run.    *
#*********************************************************************
  2000 = nevents ! Number of unweighted events requested 
 3063 = iseed   ! rnd seed (0=assigned automatically=default))
#*********************************************************************
# Collider type and energy                                           *
# lpp: 0=No PDF, 1=proton, -1=antiproton, 2=photon from proton,      *
#                                         3=photon from electron     *
#*********************************************************************
        1     = lpp1    ! beam 1 type 
        1     = lpp2    ! beam 2 type
     4000     = ebeam1  ! beam 1 total energy in GeV
     4000     = ebeam2  ! beam 2 total energy in GeV
#*********************************************************************
# Beam polarization from -100 (left-handed) to 100 (right-handed)    *
#*********************************************************************
        0     = polbeam1 ! beam polarization for beam 1
        0     = polbeam2 ! beam polarization for beam 2
#*********************************************************************
# PDF CHOICE: this automatically fixes also alpha_s and its evol.    *
#*********************************************************************
 'nn23lo1'    = pdlabel     ! PDF set                                     
 230000    = lhaid     ! if pdlabel=lhapdf, this is the lhapdf number
#*********************************************************************
# Renormalization and factorization scales                           *
#*********************************************************************
 F        = fixed_ren_scale  ! if .true. use fixed ren scale
 F        = fixed_fac_scale  ! if .true. use fixed fac scale
 91.1880  = scale            ! fixed ren scale
 91.1880  = dsqrt_q2fact1    ! fixed fact scale for pdf1
 91.1880  = dsqrt_q2fact2    ! fixed fact scale for pdf2
 1        = scalefact        ! scale factor for event-by-event scales
#*********************************************************************
# Matching - Warning! ickkw > 1 is still beta
#*********************************************************************
 0        = ickkw            ! 0 no matching, 1 MLM, 2 CKKW matching
 1        = highestmult      ! for ickkw=2, highest mult group
 1        = ktscheme         ! for ickkw=1, 1 Durham kT, 2 Pythia pTE
 1        = alpsfact         ! scale factor for QCD emission vx
 F        = chcluster        ! cluster only according to channel diag
 T        = pdfwgt           ! for ickkw=1, perform pdf reweighting
 5        = asrwgtflavor     ! highest quark flavor for a_s reweight
 T        = clusinfo         ! include clustering tag in output
 3.0      = lhe_version       ! Change the way clustering information pass to shower.        
#*********************************************************************
#**********************************************************
#
#**********************************************************
# Automatic ptj and mjj cuts if xqcut > 0
# (turn off for VBF and single top processes)
#**********************************************************
   T  = auto_ptj_mjj  ! Automatic setting of ptj and mjj
#**********************************************************
#                                                                    
#**********************************
# BW cutoff (M+/-bwcutoff*Gamma)
#**********************************
  15  = bwcutoff      ! (M+/-bwcutoff*Gamma)
#**********************************************************
# Apply pt/E/eta/dr/mij cuts on decay products or not
# (note that etmiss/ptll/ptheavy/ht/sorted cuts always apply)
#**********************************************************
   T  = cut_decays    ! Cut decay products 
#*************************************************************
# Number of helicities to sum per event (0 = all helicities)
# 0 gives more stable result, but longer run time (needed for
# long decay chains e.g.).
# Use >=2 if most helicities contribute, e.g. pure QCD.
#*************************************************************
   0  = nhel          ! Number of helicities used per event
#*******************                                                 
# Standard Cuts
#*******************                                                 
#                                                                    
#*********************************************************************
# Minimum and maximum pt's (for max, -1 means no cut)                *
#*********************************************************************
 20  = ptj       ! minimum pt for the jets 
  0  = ptb       ! minimum pt for the b 
 10  = pta       ! minimum pt for the photons 
 10  = ptl       ! minimum pt for the charged leptons 
  0  = misset    ! minimum missing Et (sum of neutrino's momenta)
  0  = ptheavy   ! minimum pt for one heavy final state
 1.0 = ptonium   ! minimum pt for the quarkonium states
 -1  = ptjmax    ! maximum pt for the jets
 -1  = ptbmax    ! maximum pt for the b
 -1  = ptamax    ! maximum pt for the photons
 -1  = ptlmax    ! maximum pt for the charged leptons
 -1  = missetmax ! maximum missing Et (sum of neutrino's momenta)
#*********************************************************************
# Minimum and maximum E's (in the center of mass frame)              *
#*********************************************************************
  0  = ej     ! minimum E for the jets 
  0  = eb     ! minimum E for the b 
  0  = ea     ! minimum E for the photons 
  0  = el     ! minimum E for the charged leptons 
 -1   = ejmax ! maximum E for the jets
 -1   = ebmax ! maximum E for the b
 -1   = eamax ! maximum E for the photons
 -1   = elmax ! maximum E for the charged leptons
#*********************************************************************
# Maximum and minimum absolute rapidity (for max, -1 means no cut)   *
#*********************************************************************
   5  = etaj    ! max rap for the jets 
  -1  = etab    ! max rap for the b
 2.5  = etaa    ! max rap for the photons 
 2.5  = etal    ! max rap for the charged leptons 
 0.6  = etaonium ! max rap for the quarkonium states
   0  = etajmin ! min rap for the jets
   0  = etabmin ! min rap for the b
   0  = etaamin ! min rap for the photons
   0  = etalmin ! main rap for the charged leptons
#*********************************************************************
# Minimum and maximum DeltaR distance                                *
#*********************************************************************
 0.4 = drjj    ! min distance between jets 
 0   = drbb    ! min distance between b's 
 0.4 = drll    ! min distance between leptons 
 0.4 = draa    ! min distance between gammas 
 0   = drbj    ! min distance between b and jet 
 0.4 = draj    ! min distance between gamma and jet 
 0.4 = drjl    ! min distance between jet and lepton 
 0   = drab    ! min distance between gamma and b 
 0   = drbl    ! min distance between b and lepton 
 0.4 = dral    ! min distance between gamma and lepton 
 -1  = drjjmax ! max distance between jets
 -1  = drbbmax ! max distance between b's
 -1  = drllmax ! max distance between leptons
 -1  = draamax ! max distance between gammas
 -1  = drbjmax ! max distance between b and jet
 -1  = drajmax ! max distance between gamma and jet
 -1  = drjlmax ! max distance between jet and lepton
 -1  = drabmax ! max distance between gamma and b
 -1  = drblmax ! max distance between b and lepton
 -1  = dralmax ! maxdistance between gamma and lepton
#*********************************************************************
# Minimum and maximum invariant mass for pairs                       *
# WARNING: for four lepton final state mmll cut require to have      *
#          different lepton masses for each flavor!                  *           
#*********************************************************************
 0   = mmjj    ! min invariant mass of a jet pair 
 0   = mmbb    ! min invariant mass of a b pair 
 0   = mmaa    ! min invariant mass of gamma gamma pair
 0   = mmll    ! min invariant mass of l+l- (same flavour) lepton pair
 -1  = mmjjmax ! max invariant mass of a jet pair
 -1  = mmbbmax ! max invariant mass of a b pair
 -1  = mmaamax ! max invariant mass of gamma gamma pair
 -1  = mmllmax ! max invariant mass of l+l- (same flavour) lepton pair
#*********************************************************************
# Minimum and maximum invariant mass for all letpons                 *
#*********************************************************************
 0   = mmnl    ! min invariant mass for all letpons (l+- and vl) 
 -1  = mmnlmax ! max invariant mass for all letpons (l+- and vl) 
#*********************************************************************
# Minimum and maximum pt for 4-momenta sum of leptons                *
#*********************************************************************
 0   = ptllmin  ! Minimum pt for 4-momenta sum of leptons(l and vl)
 -1  = ptllmax  ! Maximum pt for 4-momenta sum of leptons(l and vl)
#*********************************************************************
# Inclusive cuts                                                     *
#*********************************************************************
 0  = xptj ! minimum pt for at least one jet  
 0  = xptb ! minimum pt for at least one b 
 0  = xpta ! minimum pt for at least one photon 
 0  = xptl ! minimum pt for at least one charged lepton 
#*********************************************************************
# Control the pt's of the jets sorted by pt                          *
#*********************************************************************
 0   = ptj1min ! minimum pt for the leading jet in pt
 0   = ptj2min ! minimum pt for the second jet in pt
 0   = ptj3min ! minimum pt for the third jet in pt
 0   = ptj4min ! minimum pt for the fourth jet in pt
 -1  = ptj1max ! maximum pt for the leading jet in pt 
 -1  = ptj2max ! maximum pt for the second jet in pt
 -1  = ptj3max ! maximum pt for the third jet in pt
 -1  = ptj4max ! maximum pt for the fourth jet in pt
 0   = cutuse  ! reject event if fails any (0) / all (1) jet pt cuts
#*********************************************************************
# Control the pt's of leptons sorted by pt                           *
#*********************************************************************
 0   = ptl1min ! minimum pt for the leading lepton in pt
 0   = ptl2min ! minimum pt for the second lepton in pt
 0   = ptl3min ! minimum pt for the third lepton in pt
 0   = ptl4min ! minimum pt for the fourth lepton in pt
 -1  = ptl1max ! maximum pt for the leading lepton in pt 
 -1  = ptl2max ! maximum pt for the second lepton in pt
 -1  = ptl3max ! maximum pt for the third lepton in pt
 -1  = ptl4max ! maximum pt for the fourth lepton in pt
#*********************************************************************
# Control the Ht(k)=Sum of k leading jets                            *
#*********************************************************************
 0   = htjmin ! minimum jet HT=Sum(jet pt)
 -1  = htjmax ! maximum jet HT=Sum(jet pt)
 0   = ihtmin  !inclusive Ht for all partons (including b)
 -1  = ihtmax  !inclusive Ht for all partons (including b)
 0   = ht2min ! minimum Ht for the two leading jets
 0   = ht3min ! minimum Ht for the three leading jets
 0   = ht4min ! minimum Ht for the four leading jets
 -1  = ht2max ! maximum Ht for the two leading jets
 -1  = ht3max ! maximum Ht for the three leading jets
 -1  = ht4max ! maximum Ht for the four leading jets
#***********************************************************************
# Photon-isolation cuts, according to hep-ph/9801442                   *
# When ptgmin=0, all the other parameters are ignored                  *
# When ptgmin>0, pta and draj are not going to be used                 *
#***********************************************************************
   0 = ptgmin ! Min photon transverse momentum
 0.4 = R0gamma ! Radius of isolation code
 1.0 = xn ! n parameter of eq.(3.4) in hep-ph/9801442
 1.0 = epsgamma ! epsilon_gamma parameter of eq.(3.4) in hep-ph/9801442
 .true. = isoEM ! isolate photons from EM energy (photons and leptons)
#*********************************************************************
# WBF cuts                                                           *
#*********************************************************************
 0   = xetamin ! minimum rapidity for two jets in the WBF case  
 0   = deltaeta ! minimum rapidity for two jets in the WBF case 
#*********************************************************************
# KT DURHAM CUT                                                      *
#*********************************************************************
 -1    =  ktdurham        
 0.4  =  dparameter 
#*********************************************************************
# maximal pdg code for quark to be considered as a light jet         *
# (otherwise b cuts are applied)                                     *
#*********************************************************************
 4 = maxjetflavor    ! Maximum jet pdg code
#*********************************************************************
# Jet measure cuts                                                   *
#*********************************************************************
 0   = xqcut   ! minimum kt jet measure between partons
#*********************************************************************
#
#*********************************************************************
# Store info for systematics studies                                 *
# WARNING: If use_syst is T, matched Pythia output is                *
#          meaningful ONLY if plotted taking matchscale              *
#          reweighting into account!                                 *
#*********************************************************************
   F  = use_syst      ! Enable systematics studies
#
#**************************************
# Parameter of the systematics study
#  will be used by SysCalc (if installed)
#**************************************                                  
#
0.5 1 2 = sys_scalefact  # factorization/renormalization scale factor
0.5 1 2 = sys_alpsfact  # \alpha_s emission scale factors
30 50 = sys_matchscale # variation of merging scale
# PDF sets and number of members (0 or none for all members).
CT10nlo.LHgrid = sys_pdf # matching scales
# MSTW2008nlo68cl.LHgrid 1  = sys_pdf
</MGRunCard>
<slha>
######################################################################
## PARAM_CARD AUTOMATICALY GENERATED BY MG5 FOLLOWING UFO MODEL   ####
######################################################################
##                                                                  ##
##  Width set on Auto will be computed following the information    ##
##        present in the decay.py files of the model.               ##
##        See  arXiv:1402.1178 for more details.                    ##
##                                                                  ##
######################################################################

###################################
## INFORMATION FOR CKMBLOCK
###################################
Block ckmblock 
    1 2.277360e-01 # cabi 

###################################
## INFORMATION FOR FRBLOCK
###################################
Block frblock 
    1 1.600000e+00 # gz 

###################################
## INFORMATION FOR MASS
###################################
Block mass 
    1 5.040000e-03 # MD 
    2 2.550000e-03 # MU 
    3 1.010000e-01 # MS 
    4 1.270000e+00 # MC 
    5 4.700000e+00 # MB 
    6 1.720000e+02 # MT 
   11 5.110000e-04 # Me 
   13 1.056600e-01 # MM 
   15 1.777000e+00 # MTA 
   23 9.118760e+01 # MZ 
   25 1.200000e+02 # MH 
  10030 3.800000e+03 # MZph 
  10031 3.000000e+02 # MZpl 
## Dependent parameters, given by model restrictions.
## Those values should be edited following the 
## analytical expression. MG5 ignores those values 
## but they are important for interfacing the output of MG5
## to external program such as Pythia.
  12 0.000000 # ve : 0.0 
  14 0.000000 # vm : 0.0 
  16 0.000000 # vt : 0.0 
  21 0.000000 # g : 0.0 
  22 0.000000 # a : 0.0 
  24 79.824360 # w+ : cmath.sqrt(MZ__exp__2/2. + cmath.sqrt(MZ__exp__4/4. - (aEW*cmath.pi*MZ__exp__2)/(Gf*sqrt__2))) 

###################################
## INFORMATION FOR SMINPUTS
###################################
Block sminputs 
    1 1.279000e+02 # aEWM1 
    2 1.166370e-05 # Gf 
    3 1.184000e-01 # aS 

###################################
## INFORMATION FOR YUKAWA
###################################
Block yukawa 
    1 5.040000e-03 # ymdo 
    2 2.550000e-03 # ymup 
    3 1.010000e-01 # yms 
    4 1.270000e+00 # ymc 
    5 4.700000e+00 # ymb 
    6 1.720000e+02 # ymt 
   11 5.110000e-04 # yme 
   13 1.056600e-01 # ymm 
   15 1.777000e+00 # ymtau 

###################################
## INFORMATION FOR DECAY
###################################
DECAY   6 1.508336e+00 # WT 
DECAY  23 2.495200e+00 # WZ 
DECAY  24 2.085000e+00 # WW 
DECAY  25 5.753088e-03 # WH 
## Dependent parameters, given by model restrictions.
## Those values should be edited following the 
## analytical expression. MG5 ignores those values 
## but they are important for interfacing the output of MG5
## to external program such as Pythia.
DECAY  1 0.000000 # d : 0.0 
DECAY  2 0.000000 # u : 0.0 
DECAY  3 0.000000 # s : 0.0 
DECAY  4 0.000000 # c : 0.0 
DECAY  5 0.000000 # b : 0.0 
DECAY  11 0.000000 # e- : 0.0 
DECAY  12 0.000000 # ve : 0.0 
DECAY  13 0.000000 # mu- : 0.0 
DECAY  14 0.000000 # vm : 0.0 
DECAY  15 0.000000 # ta- : 0.0 
DECAY  16 0.000000 # vt : 0.0 
DECAY  21 0.000000 # g : 0.0 
DECAY  22 0.000000 # a : 0.0 
DECAY  10030 0.308725 # zph : (gz__exp__2*MZph*(5 + cmath.sqrt(1 - (4*MT__exp__2)/MZph__exp__2)))/(144.*cmath.pi) 
DECAY  10031 0.132629 # zpl : (5*gz__exp__2*MZpl)/(144.*cmath.pi) 
#===========================================================
# QUANTUM NUMBERS OF NEW STATE(S) (NON SM PDG CODE)
#===========================================================

Block QNUMBERS 10030  # zph 
        1 0  # 3 times electric charge
        2 3  # number of spin states (2S+1)
        3 1  # colour rep (1: singlet, 3: triplet, 8: octet)
        4 0  # Particle/Antiparticle distinction (0=own anti)
Block QNUMBERS 10031  # zpl 
        1 0  # 3 times electric charge
        2 3  # number of spin states (2S+1)
        3 1  # colour rep (1: singlet, 3: triplet, 8: octet)
        4 0  # Particle/Antiparticle distinction (0=own anti)
</slha>
## END BANNER##
<MGGenerationInfo>
#  Number of Events        :         3493
#  Integrated weight (pb)  :  0.34042E-03
#  Max wgt                 :  0.24634E-06
#  Average wgt             :  0.97458E-07
</MGGenerationInfo>
</header>
<init>
     2212     2212  0.40000000000E+04  0.40000000000E+04 0 0  247000  247000 2   1
  0.34033631112E-03  0.30169581284E-05  0.24633930000E-06   0
</init>
<event>
 5   0  0.1372748E-06  0.3882007E+04  0.7818609E-02  0.8028782E-01
        2   -1    0    0  501    0  0.00000000000E+00  0.00000000000E+00  0.13276364406E+04  0.13276364406E+04  0.25500000920E-02 0.  1.
       -2   -1    0    0    0  501  0.00000000000E+00  0.00000000000E+00 -0.28377453880E+04  0.28377453880E+04  0.25500000920E-02 0. -1.
    10030    2    1    2    0    0  0.00000000000E+00  0.00000000000E+00 -0.15101089474E+04  0.41653818286E+04  0.38820067935E+04 0.  0.
        1    1    3    3  502    0 -0.44968772669E+03  0.11380629541E+04 -0.23717188138E+04  0.26687930738E+04  0.50400001928E-02 0. -1.
       -1    1    3    3    0  502  0.44968772669E+03 -0.11380629541E+04  0.86160986643E+03  0.14965887548E+04  0.50400001928E-02 0.  1.
</event>
<event>
 5   0  0.1372748E-06  0.2894594E+04  0.7818609E-02  0.8274488E-01
       -2   -1    0    0    0  501  0.00000000000E+00  0.00000000000E+00  0.10956381792E+04  0.10956381792E+04  0.25500000920E-02 0. -1.
        2   -1    0    0  501    0  0.00000000000E+00  0.00000000000E+00 -0.19118250095E+04  0.19118250095E+04  0.25500000920E-02 0.  1.
    10030    2    1    2    0    0  0.00000000000E+00  0.00000000000E+00 -0.81618683023E+03  0.30074631887E+04  0.28945939076E+04 0.  0.
        1    1    3    3  502    0 -0.14113255076E+04 -0.10725728822E+03 -0.94110003228E+02  0.14185205345E+04  0.50400001928E-02 0. -1.
       -1    1    3    3    0  502  0.14113255076E+04  0.10725728822E+03 -0.72207682701E+03  0.15889426542E+04  0.50400001928E-02 0.  1.
</event>
<event>
 5   0  0.1337854E-06  0.3784654E+04  0.7818609E-02  0.8049456E-01
        2   -1    0    0  501    0  0.00000000000E+00  0.00000000000E+00  0.11026979545E+04  0.11026979545E+04  0.25500000920E-02 0. -1.
       -2   -1    0    0    0  501  0.00000000000E+00  0.00000000000E+00 -0.32474001078E+04  0.32474001078E+04  0.25500000920E-02 0.  1.
    10030    2    1    2    0    0  0.00000000000E+00  0.00000000000E+00 -0.21447021534E+04  0.43500980623E+04  0.37846539901E+04 0.  0.
        3    1    3    3  502    0 -0.72409896201E+03  0.76250320584E+02  0.93525018439E+03  0.11852537010E+04  0.10100000352E+00 0. -1.
       -3    1    3    3    0  502  0.72409896201E+03 -0.76250320584E+02 -0.30799523377E+04  0.31648443613E+04  0.10100000352E+00 0.  1.
</event>
<event>
 5   0  0.1372748E-06  0.2420898E+04  0.7818609E-02  0.8431721E-01
       -2   -1    0    0    0  501  0.00000000000E+00  0.00000000000E+00  0.66727102557E+03  0.66727102558E+03  0.25500000920E-02 0. -1.
        2   -1    0    0  501    0  0.00000000000E+00  0.00000000000E+00 -0.21957895100E+04  0.21957895100E+04  0.25500000920E-02 0.  1.
    10030    2    1    2    0    0  0.00000000000E+00  0.00000000000E+00 -0.15285184844E+04  0.28630605356E+04  0.24208979477E+04 0.  0.
        1    1    3    3  502    0  0.39447995355E+03 -0.41087248414E+03 -0.20273962101E+04  0.21058884170E+04  0.50400001928E-02 0.  1.
       -1    1    3    3    0  502 -0.39447995355E+03  0.41087248414E+03  0.49887772568E+03  0.75717211860E+03  0.50400001928E-02 0. -1.
</event>
<event>
 5   0  0.1337854E-06  0.3686959E+04  0.7818609E-02  0.8070858E-01
        2   -1    0    0  501    0  0.00000000000E+00  0.00000000000E+00  0.21568164817E+04  0.21568164817E+04  0.25500000920E-02 0. -1.
       -2   -1    0    0    0  501  0.00000000000E+00  0.00000000000E+00 -0.15756632791E+04  0.15756632791E+04  0.25500000920E-02 0.  1.
    10030    2    1    2    0    0  0.00000000000E+00  0.00000000000E+00  0.58115320256E+03  0.37324797608E+04  0.36869589257E+04 0.  0.
        3    1    3    3  502    0 -0.13273057625E+04  0.12632428789E+04  0.49529438307E+03  0.18981147738E+04  0.10100000352E+00 0. -1.
       -3    1    3    3    0  502  0.13273057625E+04 -0.12632428789E+04  0.85858819484E+02  0.18343649870E+04  0.10100000352E+00 0.  1.
</event>
<event>
 5   0  0.4795023E-07  0.1990009E+04  0.7818609E-02  0.8611306E-01
       -1   -1    0    0    0  501  0.00000000000E+00  0.00000000000E+00  0.14486038778E+04  0.14486038778E+04  0.50400001928E-02 0.  1.
        1   -1    0    0  501    0  0.00000000000E+00  0.00000000000E+00 -0.68344026938E+03  0.68344026939E+03  0.50400001928E-02 0. -1.
    10030    2    1    2    0    0  0.00000000000E+00  0.00000000000E+00  0.76516360840E+03  0.21320441472E+04  0.19900092708E+04 0.  0.
        3    1    3    3  502    0 -0.79211164064E+02  0.98520957183E+03  0.50530864184E+03  0.11100671793E+04  0.10100000352E+00 0.  1.
       -3    1    3    3    0  502  0.79211164064E+02 -0.98520957183E+03  0.25985496657E+03  0.10219769678E+04  0.10100000352E+00 0. -1.
</event>
<event>
 5   0  0.5284458E-07  0.2124406E+04  0.7818609E-02  0.8550568E-01
        1   -1    0    0  501    0  0.00000000000E+00  0.00000000000E+00  0.14157750727E+04  0.14157750727E+04  0.50400001928E-02 0.  1.
       -1   -1    0    0    0  501  0.00000000000E+00  0.00000000000E+00 -0.79693098033E+03  0.79693098035E+03  0.50400001928E-02 0. -1.
    10030    2    1    2    0    0  0.00000000000E+00  0.00000000000E+00  0.61884409240E+03  0.22127060531E+04  0.21244058150E+04 0.  0.
        5    1    3    3  502    0 -0.16604534250E+03  0.74460295998E+03 -0.46038395560E+03  0.89105561013E+03  0.46999998093E+01 0. -1.
       -5    1    3    3    0  502  0.16604534250E+03 -0.74460295998E+03  0.10792280480E+04  0.13216504430E+04  0.46999998093E+01 0.  1.
</event>
<event>
 5   0  0.1372748E-06  0.3794782E+04  0.7818609E-02  0.8047276E-01
        2   -1    0    0  501    0  0.00000000000E+00  0.00000000000E+00  0.26297155114E+04  0.26297155114E+04  0.25500000920E-02 0.  1.
       -2   -1    0    0    0  501  0.00000000000E+00  0.00000000000E+00 -0.13690046094E+04  0.13690046094E+04  0.25500000920E-02 0. -1.
    10030    2    1    2    0    0  0.00000000000E+00  0.00000000000E+00  0.12607109020E+04  0.39987201207E+04  0.37947820261E+04 0.  0.
        1    1    3    3  502    0  0.78601125626E+03  0.63332827025E+03 -0.10625894986E+04  0.14656107381E+04  0.50400001928E-02 0. -1.
       -1    1    3    3    0  502 -0.78601125626E+03 -0.63332827025E+03  0.23233004007E+04  0.25331093827E+04  0.50400001928E-02 0.  1.
</event>
<event>
 5   0  0.4255250E-07  0.3685126E+04  0.7818609E-02  0.8071266E-01
       -1   -1    0    0    0  501  0.00000000000E+00  0.00000000000E+00  0.19207069701E+04  0.19207069701E+04  0.50400001928E-02 0.  1.
        1   -1    0    0  501    0  0.00000000000E+00  0.00000000000E+00 -0.17675982287E+04  0.17675982287E+04  0.50400001928E-02 0. -1.
    10030    2    1    2    0    0  0.00000000000E+00  0.00000000000E+00  0.15310874140E+03  0.36883051988E+04  0.36851259074E+04 0.  0.
        2    1    3    3  502    0  0.14023271184E+03  0.56635372061E+03  0.18258083311E+04  0.19167675425E+04  0.25500000920E-02 0.  1.
       -2    1    3    3    0  502 -0.14023271184E+03 -0.56635372061E+03 -0.16726995897E+04  0.17715376563E+04  0.25500000920E-02 0. -1.
</event>
<event>
 5   0  0.1372748E-06  0.2282142E+04  0.7818609E-02  0.8484996E-01
        2   -1    0    0  501    0  0.00000000000E+00  0.00000000000E+00  0.16726635982E+04  0.16726635982E+04  0.25500000920E-02 0. -1.
       -2   -1    0    0    0  501  0.00000000000E+00  0.00000000000E+00 -0.77842479721E+03  0.77842479722E+03  0.25500000920E-02 0.  1.
    10030    2    1    2    0    0  0.00000000000E+00  0.00000000000E+00  0.89423880101E+03  0.24510883954E+04  0.22821418205E+04 0.  0.
        1    1    3    3  502    0 -0.53394692614E+03  0.40396002413E+03 -0.54527474945E+03  0.86348571120E+03  0.50400001928E-02 0.  1.
       -1    1    3    3    0  502  0.53394692614E+03 -0.40396002413E+03  0.14395135505E+04  0.15876026842E+04  0.50400001928E-02 0. -1.
</event>
<event>
 5   0  0.1184616E-06  0.3105062E+04  0.7818609E-02  0.8214350E-01
        2   -1    0    0  501    0  0.00000000000E+00  0.00000000000E+00  0.20067636891E+04  0.20067636891E+04  0.25500000920E-02 0.  1.
       -2   -1    0    0    0  501  0.00000000000E+00  0.00000000000E+00 -0.12011146250E+04  0.12011146250E+04  0.25500000920E-02 0. -1.
    10030    2    1    2    0    0  0.00000000000E+00  0.00000000000E+00  0.80564906416E+03  0.32078783141E+04  0.31050624573E+04 0.  0.
        5    1    3    3  502    0  0.11505489849E+04 -0.63916331987E+03  0.12535211255E+04  0.18175890675E+04  0.46999998093E+01 0. -1.
       -5    1    3    3    0  502 -0.11505489849E+04  0.63916331987E+03 -0.44787206136E+03  0.13902892467E+04  0.46999998093E+01 0.  1.
</event>
<event>
 5   0  0.1184616E-06  0.2453606E+04  0.7818609E-02  0.8419702E-01
        2   -1    0    0  501    0  0.00000000000E+00  0.00000000000E+00  0.16887231710E+04  0.16887231710E+04  0.25500000920E-02 0. -1.
       -2   -1    0    0    0  501  0.00000000000E+00  0.00000000000E+00 -0.89123317801E+03  0.89123317801E+03  0.25500000920E-02 0.  1.
    10030    2    1    2    0    0  0.00000000000E+00  0.00000000000E+00  0.79748999301E+03  0.25799563490E+04  0.24536064220E+04 0.  0.
        5    1    3    3  502    0 -0.24728818345E+03  0.79392129070E+03  0.13471692916E+04  0.15831454929E+04  0.46999998093E+01 0. -1.
       -5    1    3    3    0  502  0.24728818345E+03 -0.79392129070E+03 -0.54967929862E+03  0.99681085609E+03  0.46999998093E+01 0.  1.
</event>
<event>
 5   0  0.4795023E-07  0.3688508E+04  0.7818609E-02  0.8070513E-01
       -1   -1    0    0    0  501  0.00000000000E+00  0.00000000000E+00  0.14299161749E+04  0.14299161749E+04  0.50400001928E-02 0. -1.
        1   -1    0    0  501    0  0.00000000000E+00  0.00000000000E+00 -0.23786522097E+04  0.23786522097E+04  0.50400001928E-02 0.  1.
    10030    2    1    2    0    0  0.00000000000E+00  0.00000000000E+00 -0.94873603475E+03  0.38085683846E+04  0.36885082454E+04 0.  0.
        3    1    3    3  502    0 -0.17426180716E+04  0.57054219573E+03 -0.67837727470E+03  0.19551040580E+04  0.10100000352E+00 0.  1.
       -3    1    3    3    0  502  0.17426180716E+04 -0.57054219573E+03 -0.27035876004E+03  0.18534643266E+04  0.10100000352E+00 0. -1.
</event>
<event>
 5   0  0.5284458E-07  0.4039954E+04  0.7818609E-02  0.7996535E-01
        1   -1    0    0  501    0  0.00000000000E+00  0.00000000000E+00  0.21823664600E+04  0.21823664600E+04  0.50400001928E-02 0.  1.
       -1   -1    0    0    0  501  0.00000000000E+00  0.00000000000E+00 -0.18696713234E+04  0.18696713234E+04  0.50400001928E-02 0. -1.
    10030    2    1    2    0    0  0.00000000000E+00  0.00000000000E+00  0.31269513652E+03  0.40520377834E+04  0.40399544490E+04 0.  0.
        5    1    3    3  502    0 -0.11950297578E+04  0.44673309611E+03 -0.14144205942E+04  0.19048029527E+04  0.46999998093E+01 0. -1.
       -5    1    3    3    0  502  0.11950297578E+04 -0.44673309611E+03  0.17271157307E+04  0.21472348308E+04  0.46999998093E+01 0.  1.
</event>
<event>
 5   0  0.5284458E-07  0.2169833E+04  0.7818609E-02  0.8531090E-01
       -1   -1    0    0    0  501  0.00000000000E+00  0.00000000000E+00  0.69664904513E+03  0.69664904515E+03  0.50400001928E-02 0.  1.
        1   -1    0    0  501    0  0.00000000000E+00  0.00000000000E+00 -0.16895787029E+04  0.16895787029E+04  0.50400001928E-02 0. -1.
    10030    2    1    2    0    0  0.00000000000E+00  0.00000000000E+00 -0.99292965774E+03  0.23862277480E+04  0.21698326111E+04 0.  0.
        5    1    3    3  502    0 -0.93173578661E+03 -0.29643946519E+03  0.20540393954E+02  0.97798360434E+03  0.46999998093E+01 0.  1.
       -5    1    3    3    0  502  0.93173578661E+03  0.29643946519E+03 -0.10134700517E+04  0.14082441437E+04  0.46999998093E+01 0. -1.
</event>
<event>
 5   0  0.1372748E-06  0.3545880E+04  0.7818609E-02  0.8103002E-01
       -2   -1    0    0    0  501  0.00000000000E+00  0.00000000000E+00  0.13740641054E+04  0.13740641054E+04  0.25500000920E-02 0.  1.
        2   -1    0    0  501    0  0.00000000000E+00  0.00000000000E+00 -0.22876055846E+04  0.22876055846E+04  0.25500000920E-02 0. -1.
    10030    2    1    2    0    0  0.00000000000E+00  0.00000000000E+00 -0.91354147922E+03  0.36616696900E+04  0.35458802694E+04 0.  0.
        1    1    3    3  502    0  0.71095454730E+03  0.15452161930E+04 -0.97327075940E+03  0.19596952371E+04  0.50400001928E-02 0. -1.
       -1    1    3    3    0  502 -0.71095454730E+03 -0.15452161930E+04  0.59729280179E+02  0.17019744529E+04  0.50400001928E-02 0.  1.
</event>
<event>
 5   0  0.8030324E-07  0.2026179E+04  0.7818609E-02  0.8594478E-01
        1   -1    0    0  501    0  0.00000000000E+00  0.00000000000E+00  0.10406477272E+04  0.10406477272E+04  0.50400001928E-02 0.  1.
       -1   -1    0    0    0  501  0.00000000000E+00  0.00000000000E+00 -0.98626098376E+03  0.98626098377E+03  0.50400001928E-02 0. -1.
    10030    2    1    2    0    0  0.00000000000E+00  0.00000000000E+00  0.54386743458E+02  0.20269087110E+04  0.20261789173E+04 0.  0.
        1    1    3    3  502    0  0.87989520254E+03  0.50168083120E+03  0.59483183355E+01  0.10128843006E+04  0.50400001928E-02 0. -1.
       -1    1    3    3    0  502 -0.87989520254E+03 -0.50168083120E+03  0.48438425122E+02  0.10140244104E+04  0.50400001928E-02 0.  1.
</event>
<event>
 5   0  0.4795023E-07  0.1913558E+04  0.7818609E-02  0.8648137E-01
       -1   -1    0    0    0  501  0.00000000000E+00  0.00000000000E+00  0.64966072872E+03  0.64966072874E+03  0.50400001928E-02 0. -1.
        1   -1    0    0  501    0  0.00000000000E+00  0.00000000000E+00 -0.14090825832E+04  0.14090825832E+04  0.50400001928E-02 0.  1.
    10030    2    1    2    0    0  0.00000000000E+00  0.00000000000E+00 -0.75942185451E+03  0.20587433120E+04  0.19135575433E+04 0.  0.
        3    1    3    3  502    0 -0.76204072781E+03  0.30885351398E+03  0.14661937899E+03  0.83522081896E+03  0.10100000352E+00 0.  1.
       -3    1    3    3    0  502  0.76204072781E+03 -0.30885351398E+03 -0.90604123349E+03  0.12235224930E+04  0.10100000352E+00 0. -1.
</event>
<event>
 5   0  0.1341932E-06  0.3602952E+04  0.7818609E-02  0.8089816E-01
       -2   -1    0    0    0  501  0.00000000000E+00  0.00000000000E+00  0.12363326060E+04  0.12363326060E+04  0.25500000920E-02 0.  1.
        2   -1    0    0  501    0  0.00000000000E+00  0.00000000000E+00 -0.26249540072E+04  0.26249540072E+04  0.25500000920E-02 0. -1.
    10030    2    1    2    0    0  0.00000000000E+00  0.00000000000E+00 -0.13886214013E+04  0.38612866132E+04  0.36029522496E+04 0.  0.
        2    1    3    3  502    0 -0.13189136076E+03 -0.10451148076E+04 -0.22604816951E+04  0.24938800665E+04  0.25500000920E-02 0. -1.
       -2    1    3    3    0  502  0.13189136076E+03  0.10451148076E+04  0.87186029385E+03  0.13674065467E+04  0.25500000920E-02 0.  1.
</event>
<event>
 5   0  0.5284458E-07  0.2427095E+04  0.7818609E-02  0.8429429E-01
        1   -1    0    0  501    0  0.00000000000E+00  0.00000000000E+00  0.12052329849E+04  0.12052329849E+04  0.50400001928E-02 0.  1.
       -1   -1    0    0    0  501  0.00000000000E+00  0.00000000000E+00 -0.12219193114E+04  0.12219193114E+04  0.50400001928E-02 0. -1.
    10030    2    1    2    0    0  0.00000000000E+00  0.00000000000E+00 -0.16686326547E+02  0.24271522963E+04  0.24270949375E+04 0.  0.
        5    1    3    3  502    0  0.33972522209E+03  0.62861654453E+03  0.97254870491E+03  0.12068326562E+04  0.46999998093E+01 0.  1.
       -5    1    3    3    0  502 -0.33972522209E+03 -0.62861654453E+03 -0.98923503146E+03  0.12203196401E+04  0.46999998093E+01 0. -1.
</event>
<event>
 5   0  0.1337854E-06  0.2784283E+04  0.7818609E-02  0.8308164E-01
       -2   -1    0    0    0  501  0.00000000000E+00  0.00000000000E+00  0.99379468051E+03  0.99379468051E+03  0.25500000920E-02 0.  1.
        2   -1    0    0  501    0  0.00000000000E+00  0.00000000000E+00 -0.19501599347E+04  0.19501599347E+04  0.25500000920E-02 0. -1.
    10030    2    1    2    0    0  0.00000000000E+00  0.00000000000E+00 -0.95636525415E+03  0.29439546152E+04  0.27842834405E+04 0.  0.
        3    1    3    3  502    0  0.60398165044E+03  0.96966417735E+03 -0.13194325682E+04  0.17452635225E+04  0.10100000352E+00 0. -1.
       -3    1    3    3    0  502 -0.60398165044E+03 -0.96966417735E+03  0.36306731402E+03  0.11986910927E+04  0.10100000352E+00 0.  1.
</event>
<event>
 5   0  0.4795023E-07  0.3917004E+04  0.7818609E-02  0.8021502E-01
       -1   -1    0    0    0  501  0.00000000000E+00  0.00000000000E+00  0.16539246014E+04  0.16539246014E+04  0.50400001928E-02 0. -1.
        1   -1    0    0  501    0  0.00000000000E+00  0.00000000000E+00 -0.23191681205E+04  0.23191681205E+04  0.50400001928E-02 0.  1.
    10030    2    1    2    0    0  0.00000000000E+00  0.00000000000E+00 -0.66524351917E+03  0.39730927219E+04  0.39170035533E+04 0.  0.
        3    1    3    3  502    0  0.12664053413E+04 -0.67799357789E+03  0.10177080398E+04  0.17604509208E+04  0.10100000352E+00 0. -1.
       -3    1    3    3    0  502 -0.12664053413E+04  0.67799357789E+03 -0.16829515589E+04  0.22126418011E+04  0.10100000352E+00 0.  1.
</event>
<event>
 5   0  0.1341932E-06  0.1976140E+04  0.7818609E-02  0.8617858E-01
       -2   -1    0    0    0  501  0.00000000000E+00  0.00000000000E+00  0.64939444037E+03  0.64939444037E+03  0.25500000920E-02 0. -1.
        2   -1    0    0  501    0  0.00000000000E+00  0.00000000000E+00 -0.15033739978E+04  0.15033739978E+04  0.25500000920E-02 0.  1.
    10030    2    1    2    0    0  0.00000000000E+00  0.00000000000E+00 -0.85397955746E+03  0.21527684382E+04  0.19761403958E+04 0.  0.
        2    1    3    3  502    0  0.81911663316E+03 -0.40224118250E+03 -0.83970922409E+03  0.12401054829E+04  0.25500000920E-02 0. -1.
       -2    1    3    3    0  502 -0.81911663316E+03  0.40224118250E+03 -0.14270333372E+02  0.91266295533E+03  0.25500000920E-02 0.  1.
</event>
<event>
 5   0  0.4255250E-07  0.3840145E+04  0.7818609E-02  0.8037594E-01
        1   -1    0    0  501    0  0.00000000000E+00  0.00000000000E+00  0.19860701468E+04  0.19860701468E+04  0.50400001928E-02 0.  1.
       -1   -1    0    0    0  501  0.00000000000E+00  0.00000000000E+00 -0.18562683237E+04  0.18562683237E+04  0.50400001928E-02 0. -1.
    10030    2    1    2    0    0  0.00000000000E+00  0.00000000000E+00  0.12980182315E+03  0.38423384705E+04  0.38401453630E+04 0.  0.
        2    1    3    3  502    0  0.10454980491E+03  0.43994399272E+03 -0.18022295677E+04  0.18580938602E+04  0.25500000920E-02 0. -1.
       -2    1    3    3    0  502 -0.10454980491E+03 -0.43994399272E+03  0.19320313909E+04  0.19842446104E+04  0.25500000920E-02 0.  1.
</event>
<event>
 5   0  0.1337854E-06  0.3829167E+04  0.7818609E-02  0.8039925E-01
       -2   -1    0    0    0  501  0.00000000000E+00  0.00000000000E+00  0.13518716536E+04  0.13518716536E+04  0.25500000920E-02 0.  1.
        2   -1    0    0  501    0  0.00000000000E+00  0.00000000000E+00 -0.27115222446E+04  0.27115222447E+04  0.25500000920E-02 0. -1.
    10030    2    1    2    0    0  0.00000000000E+00  0.00000000000E+00 -0.13596505911E+04  0.40633938982E+04  0.38291670429E+04 0.  0.
        3    1    3    3  502    0 -0.93656557501E+03  0.16697359706E+04 -0.70250460968E+03  0.20392856653E+04  0.10100000352E+00 0. -1.
       -3    1    3    3    0  502  0.93656557501E+03 -0.16697359706E+04 -0.65714598139E+03  0.20241082330E+04  0.10100000352E+00 0.  1.
</event>
<event>
 5   0  0.1184616E-06  0.1957999E+04  0.7818609E-02  0.8626513E-01
        2   -1    0    0  501    0  0.00000000000E+00  0.00000000000E+00  0.13585930349E+04  0.13585930349E+04  0.25500000920E-02 0.  1.
       -2   -1    0    0    0  501  0.00000000000E+00  0.00000000000E+00 -0.70546534917E+03  0.70546534917E+03  0.25500000920E-02 0. -1.
    10030    2    1    2    0    0  0.00000000000E+00  0.00000000000E+00  0.65312768571E+03  0.20640583841E+04  0.19579992949E+04 0.  0.
        5    1    3    3  502    0 -0.58916675328E+02 -0.84685328855E+03 -0.18748346850E+03  0.86936977628E+03  0.46999998093E+01 0. -1.
       -5    1    3    3    0  502  0.58916675328E+02  0.84685328855E+03  0.84061115421E+03  0.11946886078E+04  0.46999998093E+01 0.  1.
</event>
<event>
 5   0  0.4255250E-07  0.3639555E+04  0.7818609E-02  0.8081491E-01
        1   -1    0    0  501    0  0.00000000000E+00  0.00000000000E+00  0.16294701370E+04  0.16294701370E+04  0.50400001928E-02 0. -1.
       -1   -1    0    0    0  501  0.00000000000E+00  0.00000000000E+00 -0.20323115968E+04  0.20323115968E+04  0.50400001928E-02 0.  1.
    10030    2    1    2    0    0  0.00000000000E+00  0.00000000000E+00 -0.40284145977E+03  0.36617817338E+04  0.36395554982E+04 0.  0.
        2    1    3    3  502    0  0.28348102057E+03  0.17744140073E+04  0.87884413118E+02  0.17990637088E+04  0.25500000920E-02 0. -1.
       -2    1    3    3    0  502 -0.28348102057E+03 -0.17744140073E+04 -0.49072587289E+03  0.18627180250E+04  0.25500000920E-02 0.  1.
</event>
<event>
 5   0  0.1337854E-06  0.1888248E+04  0.7818609E-02  0.8660728E-01
        2   -1    0    0  501    0  0.00000000000E+00  0.00000000000E+00  0.24369056088E+04  0.24369056088E+04  0.25500000920E-02 0. -1.
       -2   -1    0    0    0  501  0.00000000000E+00  0.00000000000E+00 -0.36577948910E+03  0.36577948911E+03  0.25500000920E-02 0.  1.
    10030    2    1    2    0    0  0.00000000000E+00  0.00000000000E+00  0.20711261197E+04  0.28026850979E+04  0.18882479589E+04 0.  0.
        3    1    3    3  502    0 -0.60608141318E+03 -0.58829833466E+03  0.40945016938E+03  0.93865811740E+03  0.10100000352E+00 0.  1.
       -3    1    3    3    0  502  0.60608141318E+03  0.58829833466E+03  0.16616759503E+04  0.18640269805E+04  0.10100000352E+00 0. -1.
</event>
<event>
 5   0  0.1372748E-06  0.4180898E+04  0.7818609E-02  0.7969016E-01
       -2   -1    0    0    0  501  0.00000000000E+00  0.00000000000E+00  0.15785589079E+04  0.15785589079E+04  0.25500000920E-02 0. -1.
        2   -1    0    0  501    0  0.00000000000E+00  0.00000000000E+00 -0.27683330595E+04  0.27683330595E+04  0.25500000920E-02 0.  1.
    10030    2    1    2    0    0  0.00000000000E+00  0.00000000000E+00 -0.11897741516E+04  0.43468919674E+04  0.41808978993E+04 0.  0.
        1    1    3    3  502    0  0.66127585166E+03  0.14038977614E+04  0.86135125681E+03  0.17748635621E+04  0.50400001928E-02 0. -1.
       -1    1    3    3    0  502 -0.66127585166E+03 -0.14038977614E+04 -0.20511254084E+04  0.25720284053E+04  0.50400001928E-02 0.  1.
</event>
<event>
 5   0  0.1337854E-06  0.2396662E+04  0.7818609E-02  0.8440754E-01
        2   -1    0    0  501    0  0.00000000000E+00  0.00000000000E+00  0.15069402656E+04  0.15069402656E+04  0.25500000920E-02 0.  1.
       -2   -1    0    0    0  501  0.00000000000E+00  0.00000000000E+00 -0.95292272422E+03  0.95292272422E+03  0.25500000920E-02 0. -1.
    10030    2    1    2    0    0  0.00000000000E+00  0.00000000000E+00  0.55401754137E+03  0.24598629898E+04  0.23966623651E+04 0.  0.
        3    1    3    3  502    0 -0.22698076409E+03 -0.11318729515E+04  0.60695283761E+03  0.13042424632E+04  0.10100000352E+00 0. -1.
       -3    1    3    3    0  502  0.22698076409E+03  0.11318729515E+04 -0.52935296247E+02  0.11556205266E+04  0.10100000352E+00 0.  1.
</event>
<event>
 5   0  0.8030324E-07  0.3774059E+04  0.7818609E-02  0.8051745E-01
        1   -1    0    0  501    0  0.00000000000E+00  0.00000000000E+00  0.11288138195E+04  0.11288138195E+04  0.50400001928E-02 0. -1.
       -1   -1    0    0    0  501  0.00000000000E+00  0.00000000000E+00 -0.31545332276E+04  0.31545332276E+04  0.50400001928E-02 0.  1.
    10030    2    1    2    0    0  0.00000000000E+00  0.00000000000E+00 -0.20257194081E+04  0.42833470471E+04  0.37740591947E+04 0.  0.
        1    1    3    3  502    0 -0.57538026260E+03 -0.70994782463E+01 -0.30525311189E+04  0.31062934635E+04  0.50400001928E-02 0.  1.
       -1    1    3    3    0  502  0.57538026260E+03  0.70994782463E+01  0.10268117108E+04  0.11770535836E+04  0.50400001928E-02 0. -1.
</event>
<event>
 5   0  0.4795023E-07  0.3819182E+04  0.7818609E-02  0.8042051E-01
       -1   -1    0    0    0  501  0.00000000000E+00  0.00000000000E+00  0.19869177135E+04  0.19869177135E+04  0.50400001928E-02 0.  1.
        1   -1    0    0  501    0  0.00000000000E+00  0.00000000000E+00 -0.18352740778E+04  0.18352740778E+04  0.50400001928E-02 0. -1.
    10030    2    1    2    0    0  0.00000000000E+00  0.00000000000E+00  0.15164363567E+03  0.38221917913E+04  0.38191824122E+04 0.  0.
        3    1    3    3  502    0 -0.16532744485E+04  0.95220260536E+03 -0.50648872241E+01  0.19078867542E+04  0.10100000352E+00 0.  1.
       -3    1    3    3    0  502  0.16532744485E+04 -0.95220260536E+03  0.15670852290E+03  0.19143050371E+04  0.10100000352E+00 0. -1.
</event>
<event>
 5   0  0.4255250E-07  0.3828066E+04  0.7818609E-02  0.8040159E-01
       -3   -1    0    0    0  501  0.00000000000E+00  0.00000000000E+00  0.24862996913E+04  0.24862996933E+04  0.10100000352E+00 0.  1.
        3   -1    0    0  501    0  0.00000000000E+00  0.00000000000E+00 -0.14734838479E+04  0.14734838514E+04  0.10100000352E+00 0. -1.
    10030    2    1    2    0    0  0.00000000000E+00  0.00000000000E+00  0.10128158433E+04  0.39597835447E+04  0.38280660638E+04 0.  0.
        2    1    3    3  502    0  0.57972879542E+03 -0.18026145713E+04  0.21748065209E+03  0.19059912389E+04  0.25500000920E-02 0.  1.
       -2    1    3    3    0  502 -0.57972879542E+03  0.18026145713E+04  0.79533519124E+03  0.20537923058E+04  0.25500000920E-02 0. -1.
</event>
<event>
 5   0  0.1214844E-06  0.3776416E+04  0.7818609E-02  0.8051235E-01
        2   -1    0    0  501    0  0.00000000000E+00  0.00000000000E+00  0.22126759748E+04  0.22126759748E+04  0.25500000920E-02 0.  1.
       -2   -1    0    0    0  501  0.00000000000E+00  0.00000000000E+00 -0.16113202149E+04  0.16113202149E+04  0.25500000920E-02 0. -1.
    10030    2    1    2    0    0  0.00000000000E+00  0.00000000000E+00  0.60135575994E+03  0.38239961897E+04  0.37764160402E+04 0.  0.
        4    1    3    3  502    0  0.31461551282E+03 -0.75771379661E+03  0.20227561593E+04  0.21828094767E+04  0.12699999809E+01 0.  1.
       -4    1    3    3    0  502 -0.31461551282E+03  0.75771379661E+03 -0.14214003994E+04  0.16411867130E+04  0.12699999809E+01 0. -1.
</event>
<event>
 5   0  0.1214844E-06  0.1902973E+04  0.7818609E-02  0.8653378E-01
       -2   -1    0    0    0  501  0.00000000000E+00  0.00000000000E+00  0.63798815327E+03  0.63798815327E+03  0.25500000920E-02 0. -1.
        2   -1    0    0  501    0  0.00000000000E+00  0.00000000000E+00 -0.14190328775E+04  0.14190328775E+04  0.25500000920E-02 0.  1.
    10030    2    1    2    0    0  0.00000000000E+00  0.00000000000E+00 -0.78104472425E+03  0.20570210308E+04  0.19029725852E+04 0.  0.
        4    1    3    3  502    0 -0.19317077187E+03  0.91995422561E+03 -0.54973381069E+03  0.10889626256E+04  0.12699999809E+01 0.  1.
       -4    1    3    3    0  502  0.19317077187E+03 -0.91995422561E+03 -0.23131091356E+03  0.96805840524E+03  0.12699999809E+01 0. -1.
</event>
<event>
 5   0  0.4255250E-07  0.3763644E+04  0.7818609E-02  0.8054002E-01
        1   -1    0    0  501    0  0.00000000000E+00  0.00000000000E+00  0.18819010774E+04  0.18819010774E+04  0.50400001928E-02 0.  1.
       -1   -1    0    0    0  501  0.00000000000E+00  0.00000000000E+00 -0.18817432487E+04  0.18817432487E+04  0.50400001928E-02 0. -1.
    10030    2    1    2    0    0  0.00000000000E+00  0.00000000000E+00  0.15782872232E+00  0.37636443261E+04  0.37636443228E+04 0.  0.
        2    1    3    3  502    0  0.68307105402E+03  0.22622294016E+03 -0.17387401587E+04  0.18817492455E+04  0.25500000920E-02 0. -1.
       -2    1    3    3    0  502 -0.68307105402E+03 -0.22622294016E+03  0.17388979874E+04  0.18818950806E+04  0.25500000920E-02 0.  1.
</event>
<event>
 5   0  0.4255250E-07  0.1944410E+04  0.7818609E-02  0.8633061E-01
        3   -1    0    0  501    0  0.00000000000E+00  0.00000000000E+00  0.11352652333E+04  0.11352652378E+04  0.10100000352E+00 0. -1.
       -3   -1    0    0    0  501  0.00000000000E+00  0.00000000000E+00 -0.83256544489E+03  0.83256545102E+03  0.10100000352E+00 0.  1.
    10030    2    1    2    0    0  0.00000000000E+00  0.00000000000E+00  0.30269978844E+03  0.19678306888E+04  0.19444100540E+04 0.  0.
        3    1    3    3  502    0  0.77847094902E+03 -0.30887179044E+03 -0.34832149122E+03  0.90705384230E+03  0.10100000352E+00 0.  1.
       -3    1    3    3    0  502 -0.77847094902E+03  0.30887179044E+03  0.65102127966E+03  0.10607768465E+04  0.10100000352E+00 0. -1.
</event>
<event>
 5   0  0.1341932E-06  0.3227147E+04  0.7818609E-02  0.8181684E-01
       -2   -1    0    0    0  501  0.00000000000E+00  0.00000000000E+00  0.20218754685E+04  0.20218754685E+04  0.25500000920E-02 0.  1.
        2   -1    0    0  501    0  0.00000000000E+00  0.00000000000E+00 -0.12877248113E+04  0.12877248113E+04  0.25500000920E-02 0. -1.
    10030    2    1    2    0    0  0.00000000000E+00  0.00000000000E+00  0.73415065726E+03  0.33096002798E+04  0.32271468551E+04 0.  0.
        2    1    3    3  502    0  0.46310570920E+03 -0.12455272394E+04  0.13057836661E+04  0.18630287128E+04  0.25500000920E-02 0.  1.
       -2    1    3    3    0  502 -0.46310570920E+03  0.12455272394E+04 -0.57163300885E+03  0.14465715671E+04  0.25500000920E-02 0. -1.
</event>
<event>
 5   0  0.1337854E-06  0.3298687E+04  0.7818609E-02  0.8163229E-01
       -2   -1    0    0    0  501  0.00000000000E+00  0.00000000000E+00  0.17372698244E+04  0.17372698244E+04  0.25500000920E-02 0.  1.
        2   -1    0    0  501    0  0.00000000000E+00  0.00000000000E+00 -0.15658675878E+04  0.15658675878E+04  0.25500000920E-02 0. -1.
    10030    2    1    2    0    0  0.00000000000E+00  0.00000000000E+00  0.17140223655E+03  0.33031374122E+04  0.32986873203E+04 0.  0.
        3    1    3    3  502    0 -0.51729105392E+03 -0.11750613598E+04 -0.95105802020E+03  0.15977705098E+04  0.10100000352E+00 0.  1.
       -3    1    3    3    0  502  0.51729105392E+03  0.11750613598E+04  0.11224602567E+04  0.17053669025E+04  0.10100000352E+00 0. -1.
</event>
<event>
 5   0  0.1372748E-06  0.2114795E+04  0.7818609E-02  0.8554754E-01
       -2   -1    0    0    0  501  0.00000000000E+00  0.00000000000E+00  0.78390930049E+03  0.78390930050E+03  0.25500000920E-02 0.  1.
        2   -1    0    0  501    0  0.00000000000E+00  0.00000000000E+00 -0.14262994832E+04  0.14262994832E+04  0.25500000920E-02 0. -1.
    10030    2    1    2    0    0  0.00000000000E+00  0.00000000000E+00 -0.64239018271E+03  0.22102087837E+04  0.21147949595E+04 0.  0.
        1    1    3    3  502    0  0.10080504638E+04  0.12066307941E+03 -0.12285372579E+02  0.10153207605E+04  0.50400001928E-02 0. -1.
       -1    1    3    3    0  502 -0.10080504638E+04 -0.12066307941E+03 -0.63010481013E+03  0.11948880232E+04  0.50400001928E-02 0.  1.
</event>
<event>
 5   0  0.1341932E-06  0.3502831E+04  0.7818609E-02  0.8113119E-01
       -2   -1    0    0    0  501  0.00000000000E+00  0.00000000000E+00  0.24837445380E+04  0.24837445380E+04  0.25500000920E-02 0. -1.
        2   -1    0    0  501    0  0.00000000000E+00  0.00000000000E+00 -0.12350130005E+04  0.12350130006E+04  0.25500000920E-02 0.  1.
    10030    2    1    2    0    0  0.00000000000E+00  0.00000000000E+00  0.12487315375E+04  0.37187575386E+04  0.35028313088E+04 0.  0.
        2    1    3    3  502    0 -0.49184835857E+02 -0.91057466559E+03  0.22118301727E+04  0.23924376862E+04  0.25500000920E-02 0. -1.
       -2    1    3    3    0  502  0.49184835857E+02  0.91057466559E+03 -0.96309863519E+03  0.13263198524E+04  0.25500000920E-02 0.  1.
</event>
<event>
 5   0  0.1337854E-06  0.3786913E+04  0.7818609E-02  0.8048969E-01
       -2   -1    0    0    0  501  0.00000000000E+00  0.00000000000E+00  0.12888682418E+04  0.12888682418E+04  0.25500000920E-02 0.  1.
        2   -1    0    0  501    0  0.00000000000E+00  0.00000000000E+00 -0.27816483079E+04  0.27816483079E+04  0.25500000920E-02 0. -1.
    10030    2    1    2    0    0  0.00000000000E+00  0.00000000000E+00 -0.14927800661E+04  0.40705165497E+04  0.37869133415E+04 0.  0.
        3    1    3    3  502    0 -0.82852161090E+03  0.10447537403E+04 -0.21913959846E+04  0.25651851413E+04  0.10100000352E+00 0. -1.
       -3    1    3    3    0  502  0.82852161090E+03 -0.10447537403E+04  0.69861591848E+03  0.15053314085E+04  0.10100000352E+00 0.  1.
</event>
<event>
 5   0  0.4255250E-07  0.2522763E+04  0.7818609E-02  0.8394921E-01
        3   -1    0    0  501    0  0.00000000000E+00  0.00000000000E+00  0.18093285728E+04  0.18093285756E+04  0.10100000352E+00 0.  1.
       -3   -1    0    0    0  501  0.00000000000E+00  0.00000000000E+00 -0.87937795920E+03  0.87937796500E+03  0.10100000352E+00 0. -1.
    10030    2    1    2    0    0  0.00000000000E+00  0.00000000000E+00  0.92995061356E+03  0.26887065406E+04  0.25227633099E+04 0.  0.
        1    1    3    3  502    0 -0.21954371300E+03 -0.10968558395E+04 -0.15628435495E+03  0.11294764160E+04  0.50400001928E-02 0. -1.
       -1    1    3    3    0  502  0.21954371300E+03  0.10968558395E+04  0.10862349685E+04  0.15592301246E+04  0.50400001928E-02 0.  1.
</event>
<event>
 5   0  0.1184616E-06  0.3786545E+04  0.7818609E-02  0.8049048E-01
       -2   -1    0    0    0  501  0.00000000000E+00  0.00000000000E+00  0.18936003448E+04  0.18936003448E+04  0.25500000920E-02 0. -1.
        2   -1    0    0  501    0  0.00000000000E+00  0.00000000000E+00 -0.18929451045E+04  0.18929451045E+04  0.25500000920E-02 0.  1.
    10030    2    1    2    0    0  0.00000000000E+00  0.00000000000E+00  0.65524029236E+00  0.37865454493E+04  0.37865453927E+04 0.  0.
        5    1    3    3  502    0 -0.16691088180E+04 -0.51707320299E+03  0.72914205816E+03  0.18933988419E+04  0.46999998093E+01 0. -1.
       -5    1    3    3    0  502  0.16691088180E+04  0.51707320299E+03 -0.72848681787E+03  0.18931466075E+04  0.46999998093E+01 0.  1.
</event>
<event>
 5   0  0.5284458E-07  0.3451180E+04  0.7818609E-02  0.8125458E-01
       -1   -1    0    0    0  501  0.00000000000E+00  0.00000000000E+00  0.11219535356E+04  0.11219535357E+04  0.50400001928E-02 0. -1.
        1   -1    0    0  501    0  0.00000000000E+00  0.00000000000E+00 -0.26539969445E+04  0.26539969445E+04  0.50400001928E-02 0.  1.
    10030    2    1    2    0    0  0.00000000000E+00  0.00000000000E+00 -0.15320434088E+04  0.37759504801E+04  0.34511802361E+04 0.  0.
        5    1    3    3  502    0  0.90204251014E+03  0.76065425639E+03 -0.21436215569E+04  0.24469186863E+04  0.46999998093E+01 0.  1.
       -5    1    3    3    0  502 -0.90204251014E+03 -0.76065425639E+03  0.61157814811E+03  0.13290317939E+04  0.46999998093E+01 0. -1.
</event>
<event>
 5   0  0.1337854E-06  0.3591242E+04  0.7818609E-02  0.8092501E-01
       -2   -1    0    0    0  501  0.00000000000E+00  0.00000000000E+00  0.12327913630E+04  0.12327913631E+04  0.25500000920E-02 0.  1.
        2   -1    0    0  501    0  0.00000000000E+00  0.00000000000E+00 -0.26154092657E+04  0.26154092657E+04  0.25500000920E-02 0. -1.
    10030    2    1    2    0    0  0.00000000000E+00  0.00000000000E+00 -0.13826179026E+04  0.38482006287E+04  0.35912415422E+04 0.  0.
        3    1    3    3  502    0  0.48482154675E+03  0.96557995441E+03  0.84548335578E+03  0.13719470455E+04  0.10100000352E+00 0.  1.
       -3    1    3    3    0  502 -0.48482154675E+03 -0.96557995441E+03 -0.22281012584E+04  0.24762535832E+04  0.10100000352E+00 0. -1.
</event>
<event>
 5   0  0.4795023E-07  0.2442456E+04  0.7818609E-02  0.8423777E-01
        1   -1    0    0  501    0  0.00000000000E+00  0.00000000000E+00  0.17169262024E+04  0.17169262025E+04  0.50400001928E-02 0. -1.
       -1   -1    0    0    0  501  0.00000000000E+00  0.00000000000E+00 -0.86864444940E+03  0.86864444942E+03  0.50400001928E-02 0.  1.
    10030    2    1    2    0    0  0.00000000000E+00  0.00000000000E+00  0.84828175304E+03  0.25855706519E+04  0.24424564813E+04 0.  0.
        3    1    3    3  502    0  0.23960958766E+03 -0.37027110770E+03  0.16296772035E+04  0.16883012899E+04  0.10100000352E+00 0. -1.
       -3    1    3    3    0  502 -0.23960958766E+03  0.37027110770E+03 -0.78139545046E+03  0.89726936195E+03  0.10100000352E+00 0.  1.
</event>
<event>
 5   0  0.4255250E-07  0.2218539E+04  0.7818609E-02  0.8510751E-01
       -3   -1    0    0    0  501  0.00000000000E+00  0.00000000000E+00  0.82053083511E+03  0.82053084132E+03  0.10100000352E+00 0.  1.
        3   -1    0    0  501    0  0.00000000000E+00  0.00000000000E+00 -0.14996126719E+04  0.14996126753E+04  0.10100000352E+00 0. -1.
    10030    2    1    2    0    0  0.00000000000E+00  0.00000000000E+00 -0.67908183676E+03  0.23201435166E+04  0.22185386624E+04 0.  0.
        2    1    3    3  502    0  0.44250473564E+02  0.10914208630E+04 -0.54157450749E+03  0.12192048851E+04  0.25500000920E-02 0.  1.
       -2    1    3    3    0  502 -0.44250473564E+02 -0.10914208630E+04 -0.13750732927E+03  0.11009386315E+04  0.25500000920E-02 0. -1.
</event>
<event>
 5   0  0.4255250E-07  0.3812292E+04  0.7818609E-02  0.8043522E-01
       -1   -1    0    0    0  501  0.00000000000E+00  0.00000000000E+00  0.16551096429E+04  0.16551096429E+04  0.50400001928E-02 0.  1.
        1   -1    0    0  501    0  0.00000000000E+00  0.00000000000E+00 -0.21952578232E+04  0.21952578232E+04  0.50400001928E-02 0. -1.
    10030    2    1    2    0    0  0.00000000000E+00  0.00000000000E+00 -0.54014818029E+03  0.38503674661E+04  0.38122919047E+04 0.  0.
        2    1    3    3  502    0  0.21196876536E+02 -0.14528647461E+04 -0.15161413731E+04  0.20999880813E+04  0.25500000920E-02 0. -1.
       -2    1    3    3    0  502 -0.21196876536E+02  0.14528647461E+04  0.97599319284E+03  0.17503793848E+04  0.25500000920E-02 0.  1.
</event>
<event>
 5   0  0.1214844E-06  0.3161863E+04  0.7818609E-02  0.8198962E-01
       -2   -1    0    0    0  501  0.00000000000E+00  0.00000000000E+00  0.12591574165E+04  0.12591574165E+04  0.25500000920E-02 0. -1.
        2   -1    0    0  501    0  0.00000000000E+00  0.00000000000E+00 -0.19849337788E+04  0.19849337788E+04  0.25500000920E-02 0.  1.
    10030    2    1    2    0    0  0.00000000000E+00  0.00000000000E+00 -0.72577636228E+03  0.32440911953E+04  0.31618627984E+04 0.  0.
        4    1    3    3  502    0  0.15075581674E+04  0.77851541133E+02  0.11895259567E+03  0.15142469493E+04  0.12699999809E+01 0. -1.
       -4    1    3    3    0  502 -0.15075581674E+04 -0.77851541133E+02 -0.84472895795E+03  0.17298442461E+04  0.12699999809E+01 0.  1.
</event>
<event>
 5   0  0.1372748E-06  0.3793981E+04  0.7818609E-02  0.8047448E-01
        2   -1    0    0  501    0  0.00000000000E+00  0.00000000000E+00  0.15361023314E+04  0.15361023314E+04  0.25500000920E-02 0.  1.
       -2   -1    0    0    0  501  0.00000000000E+00  0.00000000000E+00 -0.23426648233E+04  0.23426648233E+04  0.25500000920E-02 0. -1.
    10030    2    1    2    0    0  0.00000000000E+00  0.00000000000E+00 -0.80656249195E+03  0.38787671547E+04  0.37939809681E+04 0.  0.
        1    1    3    3  502    0 -0.44106688471E+03  0.17831480559E+04 -0.88759341706E+03  0.20400929048E+04  0.50400001928E-02 0. -1.
       -1    1    3    3    0  502  0.44106688471E+03 -0.17831480559E+04  0.81030925108E+02  0.18386742499E+04  0.50400001928E-02 0.  1.
</event>
<event>
 5   0  0.8030324E-07  0.3382677E+04  0.7818609E-02  0.8142171E-01
       -1   -1    0    0    0  501  0.00000000000E+00  0.00000000000E+00  0.12447271043E+04  0.12447271043E+04  0.50400001928E-02 0.  1.
        1   -1    0    0  501    0  0.00000000000E+00  0.00000000000E+00 -0.22981950620E+04  0.22981950620E+04  0.50400001928E-02 0. -1.
    10030    2    1    2    0    0  0.00000000000E+00  0.00000000000E+00 -0.10534679577E+04  0.35429221663E+04  0.33826768599E+04 0.  0.
        1    1    3    3  502    0  0.13214072490E+04  0.10521688043E+04 -0.43633552692E+03  0.17445816125E+04  0.50400001928E-02 0. -1.
       -1    1    3    3    0  502 -0.13214072490E+04 -0.10521688043E+04 -0.61713243074E+03  0.17983405538E+04  0.50400001928E-02 0.  1.
</event>
<event>
 5   0  0.1341932E-06  0.2555482E+04  0.7818609E-02  0.8383482E-01
        2   -1    0    0  501    0  0.00000000000E+00  0.00000000000E+00  0.15652538240E+04  0.15652538240E+04  0.25500000920E-02 0.  1.
       -2   -1    0    0    0  501  0.00000000000E+00  0.00000000000E+00 -0.10430399494E+04  0.10430399494E+04  0.25500000920E-02 0. -1.
    10030    2    1    2    0    0  0.00000000000E+00  0.00000000000E+00  0.52221387462E+03  0.26082937733E+04  0.25554821614E+04 0.  0.
        2    1    3    3  502    0 -0.17733945738E+03  0.17533612355E+02  0.15525078277E+04  0.15627019120E+04  0.25500000920E-02 0.  1.
       -2    1    3    3    0  502  0.17733945738E+03 -0.17533612355E+02 -0.10302939531E+04  0.10455918613E+04  0.25500000920E-02 0. -1.
</event>
<event>
 5   0  0.1341932E-06  0.3859508E+04  0.7818609E-02  0.8033504E-01
       -2   -1    0    0    0  501  0.00000000000E+00  0.00000000000E+00  0.16799474092E+04  0.16799474092E+04  0.25500000920E-02 0. -1.
        2   -1    0    0  501    0  0.00000000000E+00  0.00000000000E+00 -0.22167064159E+04  0.22167064159E+04  0.25500000920E-02 0.  1.
    10030    2    1    2    0    0  0.00000000000E+00  0.00000000000E+00 -0.53675900674E+03  0.38966538251E+04  0.38595078444E+04 0.  0.
        2    1    3    3  502    0  0.15434282919E+04  0.35365698612E+03 -0.13820397825E+04  0.21017321705E+04  0.25500000920E-02 0.  1.
       -2    1    3    3    0  502 -0.15434282919E+04 -0.35365698612E+03  0.84528077580E+03  0.17949216546E+04  0.25500000920E-02 0. -1.
</event>
<event>
 5   0  0.1079205E-06  0.2491269E+04  0.7818609E-02  0.8406103E-01
       -1   -1    0    0    0  501  0.00000000000E+00  0.00000000000E+00  0.68352939805E+03  0.68352939807E+03  0.50400001928E-02 0. -1.
        1   -1    0    0  501    0  0.00000000000E+00  0.00000000000E+00 -0.22699903051E+04  0.22699903051E+04  0.50400001928E-02 0.  1.
    10030    2    1    2    0    0  0.00000000000E+00  0.00000000000E+00 -0.15864609070E+04  0.29535197031E+04  0.24912688388E+04 0.  0.
        4    1    3    3  502    0 -0.23480925638E+03 -0.67688013485E+03 -0.20012695624E+04  0.21256489781E+04  0.12699999809E+01 0.  1.
       -4    1    3    3    0  502  0.23480925638E+03  0.67688013485E+03  0.41480865540E+03  0.82787072501E+03  0.12699999809E+01 0. -1.
</event>
<event>
 5   0  0.4255250E-07  0.2306810E+04  0.7818609E-02  0.8475241E-01
        1   -1    0    0  501    0  0.00000000000E+00  0.00000000000E+00  0.14074766932E+04  0.14074766933E+04  0.50400001928E-02 0.  1.
       -1   -1    0    0    0  501  0.00000000000E+00  0.00000000000E+00 -0.94519701098E+03  0.94519701099E+03  0.50400001928E-02 0. -1.
    10030    2    1    2    0    0  0.00000000000E+00  0.00000000000E+00  0.46227968227E+03  0.23526737042E+04  0.23068097134E+04 0.  0.
        2    1    3    3  502    0  0.25880843695E+03  0.10749466479E+04 -0.10379577525E+03  0.11105249505E+04  0.25500000920E-02 0. -1.
       -2    1    3    3    0  502 -0.25880843695E+03 -0.10749466479E+04  0.56607545752E+03  0.12421487537E+04  0.25500000920E-02 0.  1.
</event>
<event>
 5   0  0.4255250E-07  0.2513783E+04  0.7818609E-02  0.8398092E-01
       -1   -1    0    0    0  501  0.00000000000E+00  0.00000000000E+00  0.13674137593E+04  0.13674137593E+04  0.50400001928E-02 0. -1.
        1   -1    0    0  501    0  0.00000000000E+00  0.00000000000E+00 -0.11553019785E+04  0.11553019785E+04  0.50400001928E-02 0.  1.
    10030    2    1    2    0    0  0.00000000000E+00  0.00000000000E+00  0.21211178079E+03  0.25227157378E+04  0.25137826649E+04 0.  0.
        2    1    3    3  502    0  0.49635503444E+03 -0.11144715917E+04  0.40938912508E+03  0.12868623487E+04  0.25500000920E-02 0. -1.
       -2    1    3    3    0  502 -0.49635503444E+03  0.11144715917E+04 -0.19727734429E+03  0.12358533891E+04  0.25500000920E-02 0.  1.
</event>
<event>
 5   0  0.1214844E-06  0.3718283E+04  0.7818609E-02  0.8063922E-01
       -2   -1    0    0    0  501  0.00000000000E+00  0.00000000000E+00  0.17053858655E+04  0.17053858655E+04  0.25500000920E-02 0.  1.
        2   -1    0    0  501    0  0.00000000000E+00  0.00000000000E+00 -0.20267595262E+04  0.20267595262E+04  0.25500000920E-02 0. -1.
    10030    2    1    2    0    0  0.00000000000E+00  0.00000000000E+00 -0.32137366066E+03  0.37321453917E+04  0.37182829633E+04 0.  0.
        4    1    3    3  502    0  0.14636570761E+04 -0.63081229202E+03 -0.11214331148E+04  0.19488022034E+04  0.12699999809E+01 0. -1.
       -4    1    3    3    0  502 -0.14636570761E+04  0.63081229202E+03  0.80005945413E+03  0.17833431883E+04  0.12699999809E+01 0.  1.
</event>
<event>
 5   0  0.1184616E-06  0.3226460E+04  0.7818609E-02  0.8181864E-01
       -2   -1    0    0    0  501  0.00000000000E+00  0.00000000000E+00  0.99400306333E+03  0.99400306334E+03  0.25500000920E-02 0.  1.
        2   -1    0    0  501    0  0.00000000000E+00  0.00000000000E+00 -0.26182120810E+04  0.26182120810E+04  0.25500000920E-02 0. -1.
    10030    2    1    2    0    0  0.00000000000E+00  0.00000000000E+00 -0.16242090177E+04  0.36122151444E+04  0.32264598736E+04 0.  0.
        5    1    3    3  502    0  0.25255701799E+03  0.30834867092E+02  0.97139094799E+03  0.10041704538E+04  0.46999998093E+01 0.  1.
       -5    1    3    3    0  502 -0.25255701799E+03 -0.30834867092E+02 -0.25955999657E+04  0.26080446906E+04  0.46999998093E+01 0. -1.
</event>
<event>
 5   0  0.1184616E-06  0.3826920E+04  0.7818609E-02  0.8040403E-01
       -2   -1    0    0    0  501  0.00000000000E+00  0.00000000000E+00  0.25400205502E+04  0.25400205502E+04  0.25500000920E-02 0. -1.
        2   -1    0    0  501    0  0.00000000000E+00  0.00000000000E+00 -0.14414562347E+04  0.14414562347E+04  0.25500000920E-02 0.  1.
    10030    2    1    2    0    0  0.00000000000E+00  0.00000000000E+00  0.10985643155E+04  0.39814767849E+04  0.38269196273E+04 0.  0.
        5    1    3    3  502    0  0.12562152386E+04  0.77995653388E+03 -0.71421933278E+03  0.16421145714E+04  0.46999998093E+01 0.  1.
       -5    1    3    3    0  502 -0.12562152386E+04 -0.77995653388E+03  0.18127836483E+04  0.23393622135E+04  0.46999998093E+01 0. -1.
</event>
<event>
 5   0  0.1214844E-06  0.3868415E+04  0.7818609E-02  0.8031630E-01
        2   -1    0    0  501    0  0.00000000000E+00  0.00000000000E+00  0.19259417022E+04  0.19259417022E+04  0.25500000920E-02 0.  1.
       -2   -1    0    0    0  501  0.00000000000E+00  0.00000000000E+00 -0.19425089266E+04  0.19425089266E+04  0.25500000920E-02 0. -1.
    10030    2    1    2    0    0  0.00000000000E+00  0.00000000000E+00 -0.16567224437E+02  0.38684506288E+04  0.38684151528E+04 0.  0.
        4    1    3    3  502    0  0.18515638287E+04  0.42384360476E+03  0.35672017726E+03  0.19326621305E+04  0.12699999809E+01 0.  1.
       -4    1    3    3    0  502 -0.18515638287E+04 -0.42384360476E+03 -0.37328740170E+03  0.19357884983E+04  0.12699999809E+01 0. -1.
</event>
<event>
 5   0  0.8030324E-07  0.3652594E+04  0.7818609E-02  0.8078550E-01
        1   -1    0    0  501    0  0.00000000000E+00  0.00000000000E+00  0.18568866683E+04  0.18568866683E+04  0.50400001928E-02 0. -1.
       -1   -1    0    0    0  501  0.00000000000E+00  0.00000000000E+00 -0.17962112335E+04  0.17962112336E+04  0.50400001928E-02 0.  1.
    10030    2    1    2    0    0  0.00000000000E+00  0.00000000000E+00  0.60675434796E+02  0.36530979019E+04  0.36525939786E+04 0.  0.
        1    1    3    3  502    0 -0.41180781879E+03  0.89686905184E+03  0.15672347650E+04  0.18520757501E+04  0.50400001928E-02 0. -1.
       -1    1    3    3    0  502  0.41180781879E+03 -0.89686905184E+03 -0.15065593302E+04  0.18010221518E+04  0.50400001928E-02 0.  1.
</event>
<event>
 5   0  0.4255250E-07  0.3788924E+04  0.7818609E-02  0.8048536E-01
       -1   -1    0    0    0  501  0.00000000000E+00  0.00000000000E+00  0.15506201109E+04  0.15506201109E+04  0.50400001928E-02 0.  1.
        1   -1    0    0  501    0  0.00000000000E+00  0.00000000000E+00 -0.23145494703E+04  0.23145494703E+04  0.50400001928E-02 0. -1.
    10030    2    1    2    0    0  0.00000000000E+00  0.00000000000E+00 -0.76392935938E+03  0.38651695812E+04  0.37889243626E+04 0.  0.
        2    1    3    3  502    0  0.85692329677E+03 -0.45500913880E+03 -0.20418640670E+04  0.22606547107E+04  0.25500000920E-02 0. -1.
       -2    1    3    3    0  502 -0.85692329677E+03  0.45500913880E+03  0.12779347076E+04  0.16045148705E+04  0.25500000920E-02 0.  1.
</event>
<event>
 5   0  0.1341932E-06  0.3721571E+04  0.7818609E-02  0.8063198E-01
        2   -1    0    0  501    0  0.00000000000E+00  0.00000000000E+00  0.26017590512E+04  0.26017590512E+04  0.25500000920E-02 0. -1.
       -2   -1    0    0    0  501  0.00000000000E+00  0.00000000000E+00 -0.13308389853E+04  0.13308389854E+04  0.25500000920E-02 0.  1.
    10030    2    1    2    0    0  0.00000000000E+00  0.00000000000E+00  0.12709200659E+04  0.39325980366E+04  0.37215708382E+04 0.  0.
        2    1    3    3  502    0 -0.57931807281E+03  0.11964501876E+04 -0.74045591856E+03  0.15216364376E+04  0.25500000920E-02 0.  1.
       -2    1    3    3    0  502  0.57931807281E+03 -0.11964501876E+04  0.20113759844E+04  0.24109615990E+04  0.25500000920E-02 0. -1.
</event>
<event>
 5   0  0.4255250E-07  0.3751050E+04  0.7818609E-02  0.8056742E-01
       -1   -1    0    0    0  501  0.00000000000E+00  0.00000000000E+00  0.31711354229E+04  0.31711354229E+04  0.50400001928E-02 0.  1.
        1   -1    0    0  501    0  0.00000000000E+00  0.00000000000E+00 -0.11092538935E+04  0.11092538935E+04  0.50400001928E-02 0. -1.
    10030    2    1    2    0    0  0.00000000000E+00  0.00000000000E+00  0.20618815294E+04  0.42803893165E+04  0.37510501542E+04 0.  0.
        2    1    3    3  502    0 -0.33560204933E+03  0.16390342646E+03 -0.10663890533E+04  0.11299020673E+04  0.25500000920E-02 0. -1.
       -2    1    3    3    0  502  0.33560204933E+03 -0.16390342646E+03  0.31282705827E+04  0.31504872492E+04  0.25500000920E-02 0.  1.
</event>
<event>
 5   0  0.1337854E-06  0.3793619E+04  0.7818609E-02  0.8047526E-01
       -2   -1    0    0    0  501  0.00000000000E+00  0.00000000000E+00  0.21406538642E+04  0.21406538642E+04  0.25500000920E-02 0. -1.
        2   -1    0    0  501    0  0.00000000000E+00  0.00000000000E+00 -0.16807416907E+04  0.16807416907E+04  0.25500000920E-02 0.  1.
    10030    2    1    2    0    0  0.00000000000E+00  0.00000000000E+00  0.45991217355E+03  0.38213955549E+04  0.37936189555E+04 0.  0.
        3    1    3    3  502    0 -0.16942842259E+03 -0.14298884614E+04 -0.10138312437E+04  0.17610056227E+04  0.10100000352E+00 0.  1.
       -3    1    3    3    0  502  0.16942842259E+03  0.14298884614E+04  0.14737434173E+04  0.20603899322E+04  0.10100000352E+00 0. -1.
</event>
<event>
 5   0  0.1184616E-06  0.3153366E+04  0.7818609E-02  0.8201243E-01
        2   -1    0    0  501    0  0.00000000000E+00  0.00000000000E+00  0.23416313991E+04  0.23416313991E+04  0.25500000920E-02 0. -1.
       -2   -1    0    0    0  501  0.00000000000E+00  0.00000000000E+00 -0.10616226848E+04  0.10616226848E+04  0.25500000920E-02 0.  1.
    10030    2    1    2    0    0  0.00000000000E+00  0.00000000000E+00  0.12800087143E+04  0.34032540839E+04  0.31533658289E+04 0.  0.
        5    1    3    3  502    0 -0.29328165566E+03 -0.13637465847E+04 -0.15314011122E+03  0.14033149541E+04  0.46999998093E+01 0.  1.
       -5    1    3    3    0  502  0.29328165566E+03  0.13637465847E+04  0.14331488255E+04  0.19999391298E+04  0.46999998093E+01 0. -1.
</event>
<event>
 5   0  0.5284458E-07  0.2112093E+04  0.7818609E-02  0.8555935E-01
       -1   -1    0    0    0  501  0.00000000000E+00  0.00000000000E+00  0.55454608346E+03  0.55454608348E+03  0.50400001928E-02 0.  1.
        1   -1    0    0  501    0  0.00000000000E+00  0.00000000000E+00 -0.20110757232E+04  0.20110757232E+04  0.50400001928E-02 0. -1.
    10030    2    1    2    0    0  0.00000000000E+00  0.00000000000E+00 -0.14565296397E+04  0.25656218067E+04  0.21120929580E+04 0.  0.
        5    1    3    3  502    0  0.21108362886E+03 -0.63435297484E+03 -0.17212660112E+04  0.18465477969E+04  0.46999998093E+01 0. -1.
       -5    1    3    3    0  502 -0.21108362886E+03  0.63435297484E+03  0.26473637149E+03  0.71907400971E+03  0.46999998093E+01 0.  1.
</event>
<event>
 5   0  0.1337854E-06  0.1993717E+04  0.7818609E-02  0.8609564E-01
       -2   -1    0    0    0  501  0.00000000000E+00  0.00000000000E+00  0.54745436384E+03  0.54745436385E+03  0.25500000920E-02 0. -1.
        2   -1    0    0  501    0  0.00000000000E+00  0.00000000000E+00 -0.18151774386E+04  0.18151774386E+04  0.25500000920E-02 0.  1.
    10030    2    1    2    0    0  0.00000000000E+00  0.00000000000E+00 -0.12677230747E+04  0.23626318024E+04  0.19937169407E+04 0.  0.
        3    1    3    3  502    0  0.37483910052E+02  0.18851469104E+03 -0.17930111412E+04  0.18032836146E+04  0.10100000352E+00 0.  1.
       -3    1    3    3    0  502 -0.37483910052E+02 -0.18851469104E+03  0.52528806644E+03  0.55934818780E+03  0.10100000352E+00 0. -1.
</event>
<event>
 5   0  0.1372748E-06  0.3685430E+04  0.7818609E-02  0.8071198E-01
       -2   -1    0    0    0  501  0.00000000000E+00  0.00000000000E+00  0.11691414585E+04  0.11691414585E+04  0.25500000920E-02 0. -1.
        2   -1    0    0  501    0  0.00000000000E+00  0.00000000000E+00 -0.29043523711E+04  0.29043523711E+04  0.25500000920E-02 0.  1.
    10030    2    1    2    0    0  0.00000000000E+00  0.00000000000E+00 -0.17352109125E+04  0.40734938296E+04  0.36854301064E+04 0.  0.
        1    1    3    3  502    0  0.54383431021E+03 -0.58165262371E+03 -0.27043689302E+04  0.28191642099E+04  0.50400001928E-02 0.  1.
       -1    1    3    3    0  502 -0.54383431021E+03  0.58165262371E+03  0.96915801769E+03  0.12543296197E+04  0.50400001928E-02 0. -1.
</event>
<event>
 5   0  0.1372748E-06  0.1877261E+04  0.7818609E-02  0.8666259E-01
       -2   -1    0    0    0  501  0.00000000000E+00  0.00000000000E+00  0.34191590547E+03  0.34191590548E+03  0.25500000920E-02 0. -1.
        2   -1    0    0  501    0  0.00000000000E+00  0.00000000000E+00 -0.25767358978E+04  0.25767358978E+04  0.25500000920E-02 0.  1.
    10030    2    1    2    0    0  0.00000000000E+00  0.00000000000E+00 -0.22348199923E+04  0.29186518033E+04  0.18772607573E+04 0.  0.
        1    1    3    3  502    0  0.48052361739E+03 -0.28558848232E+02 -0.23702142131E+04  0.24186016561E+04  0.50400001928E-02 0.  1.
       -1    1    3    3    0  502 -0.48052361739E+03  0.28558848232E+02  0.13539422079E+03  0.50005014722E+03  0.50400001928E-02 0. -1.
</event>
<event>
 5   0  0.1341932E-06  0.3458469E+04  0.7818609E-02  0.8123703E-01
       -2   -1    0    0    0  501  0.00000000000E+00  0.00000000000E+00  0.14944691198E+04  0.14944691198E+04  0.25500000920E-02 0. -1.
        2   -1    0    0  501    0  0.00000000000E+00  0.00000000000E+00 -0.20008789775E+04  0.20008789775E+04  0.25500000920E-02 0.  1.
    10030    2    1    2    0    0  0.00000000000E+00  0.00000000000E+00 -0.50640985775E+03  0.34953480973E+04  0.34584689354E+04 0.  0.
        2    1    3    3  502    0 -0.89250940399E+03  0.94395852690E+03 -0.14066996452E+04  0.19147936256E+04  0.25500000920E-02 0.  1.
       -2    1    3    3    0  502  0.89250940399E+03 -0.94395852690E+03  0.90028978743E+03  0.15805544717E+04  0.25500000920E-02 0. -1.
</event>
<event>
 5   0  0.4795023E-07  0.3378825E+04  0.7818609E-02  0.8143123E-01
       -1   -1    0    0    0  501  0.00000000000E+00  0.00000000000E+00  0.13641695353E+04  0.13641695353E+04  0.50400001928E-02 0.  1.
        1   -1    0    0  501    0  0.00000000000E+00  0.00000000000E+00 -0.20921992602E+04  0.20921992602E+04  0.50400001928E-02 0. -1.
    10030    2    1    2    0    0  0.00000000000E+00  0.00000000000E+00 -0.72802972484E+03  0.34563687955E+04  0.33788249393E+04 0.  0.
        3    1    3    3  502    0  0.11922283815E+04  0.10619942315E+04  0.20081121109E+03  0.16092126690E+04  0.10100000352E+00 0.  1.
       -3    1    3    3    0  502 -0.11922283815E+04 -0.10619942315E+04 -0.92884093593E+03  0.18471561265E+04  0.10100000352E+00 0. -1.
</event>
<event>
 5   0  0.1372748E-06  0.2628095E+04  0.7818609E-02  0.8358720E-01
       -2   -1    0    0    0  501  0.00000000000E+00  0.00000000000E+00  0.73394918348E+03  0.73394918349E+03  0.25500000920E-02 0.  1.
        2   -1    0    0  501    0  0.00000000000E+00  0.00000000000E+00 -0.23526432126E+04  0.23526432126E+04  0.25500000920E-02 0. -1.
    10030    2    1    2    0    0  0.00000000000E+00  0.00000000000E+00 -0.16186940291E+04  0.30865923961E+04  0.26280947966E+04 0.  0.
        1    1    3    3  502    0 -0.80593351904E+03 -0.86005631314E+03 -0.14916414682E+04  0.19011101937E+04  0.50400001928E-02 0. -1.
       -1    1    3    3    0  502  0.80593351904E+03  0.86005631314E+03 -0.12705256088E+03  0.11854822024E+04  0.50400001928E-02 0.  1.
</event>
<event>
 5   0  0.1214844E-06  0.2070025E+04  0.7818609E-02  0.8574564E-01
        2   -1    0    0  501    0  0.00000000000E+00  0.00000000000E+00  0.12764659204E+04  0.12764659204E+04  0.25500000920E-02 0.  1.
       -2   -1    0    0    0  501  0.00000000000E+00  0.00000000000E+00 -0.83923190582E+03  0.83923190583E+03  0.25500000920E-02 0. -1.
    10030    2    1    2    0    0  0.00000000000E+00  0.00000000000E+00  0.43723401457E+03  0.21156978262E+04  0.20700250502E+04 0.  0.
        4    1    3    3  502    0  0.95976135093E+03 -0.15258033452E+03  0.58260192930E+03  0.11330707084E+04  0.12699999809E+01 0. -1.
       -4    1    3    3    0  502 -0.95976135093E+03  0.15258033452E+03 -0.14536791473E+03  0.98262711786E+03  0.12699999809E+01 0.  1.
</event>
<event>
 5   0  0.1337854E-06  0.2394372E+04  0.7818609E-02  0.8441614E-01
        2   -1    0    0  501    0  0.00000000000E+00  0.00000000000E+00  0.10631653030E+04  0.10631653030E+04  0.25500000920E-02 0.  1.
       -2   -1    0    0    0  501  0.00000000000E+00  0.00000000000E+00 -0.13481006906E+04  0.13481006906E+04  0.25500000920E-02 0. -1.
    10030    2    1    2    0    0  0.00000000000E+00  0.00000000000E+00 -0.28493538758E+03  0.24112659936E+04  0.23943716329E+04 0.  0.
        3    1    3    3  502    0 -0.48755431979E+03  0.23891326598E+03  0.93204963702E+03  0.10786590284E+04  0.10100000352E+00 0.  1.
       -3    1    3    3    0  502  0.48755431979E+03 -0.23891326598E+03 -0.12169850246E+04  0.13326069652E+04  0.10100000352E+00 0. -1.
</event>
<event>
 5   0  0.4255250E-07  0.2060384E+04  0.7818609E-02  0.8578898E-01
       -1   -1    0    0    0  501  0.00000000000E+00  0.00000000000E+00  0.11704884030E+04  0.11704884030E+04  0.50400001928E-02 0.  1.
        1   -1    0    0  501    0  0.00000000000E+00  0.00000000000E+00 -0.90671151733E+03  0.90671151734E+03  0.50400001928E-02 0. -1.
    10030    2    1    2    0    0  0.00000000000E+00  0.00000000000E+00  0.26377688565E+03  0.20771999203E+04  0.20603837661E+04 0.  0.
        2    1    3    3  502    0 -0.52023961532E+03  0.30821682387E+03  0.97275114325E+03  0.11453783893E+04  0.25500000920E-02 0.  1.
       -2    1    3    3    0  502  0.52023961532E+03 -0.30821682387E+03 -0.70897425759E+03  0.93182153109E+03  0.25500000920E-02 0. -1.
</event>
<event>
 5   0  0.1372748E-06  0.3814265E+04  0.7818609E-02  0.8043101E-01
        2   -1    0    0  501    0  0.00000000000E+00  0.00000000000E+00  0.22810072866E+04  0.22810072866E+04  0.25500000920E-02 0.  1.
       -2   -1    0    0    0  501  0.00000000000E+00  0.00000000000E+00 -0.15945382947E+04  0.15945382947E+04  0.25500000920E-02 0. -1.
    10030    2    1    2    0    0  0.00000000000E+00  0.00000000000E+00  0.68646899192E+03  0.38755455813E+04  0.38142645262E+04 0.  0.
        1    1    3    3  502    0  0.15333262209E+04  0.67289718688E+03  0.12707385942E+04  0.21020600607E+04  0.50400001928E-02 0.  1.
       -1    1    3    3    0  502 -0.15333262209E+04 -0.67289718688E+03 -0.58426960223E+03  0.17734855207E+04  0.50400001928E-02 0. -1.
</event>
<event>
 5   0  0.1214844E-06  0.2251266E+04  0.7818609E-02  0.8497388E-01
       -2   -1    0    0    0  501  0.00000000000E+00  0.00000000000E+00  0.95939470634E+03  0.95939470634E+03  0.25500000920E-02 0.  1.
        2   -1    0    0  501    0  0.00000000000E+00  0.00000000000E+00 -0.13206765158E+04  0.13206765158E+04  0.25500000920E-02 0. -1.
    10030    2    1    2    0    0  0.00000000000E+00  0.00000000000E+00 -0.36128180948E+03  0.22800712222E+04  0.22512663619E+04 0.  0.
        4    1    3    3  502    0 -0.36953430270E+02  0.54531854870E+02  0.95744015947E+03  0.95970440817E+03  0.12699999809E+01 0.  1.
       -4    1    3    3    0  502  0.36953430270E+02 -0.54531854870E+02 -0.13187219690E+04  0.13203668140E+04  0.12699999809E+01 0. -1.
</event>
<event>
 5   0  0.1337854E-06  0.3813659E+04  0.7818609E-02  0.8043230E-01
        2   -1    0    0  501    0  0.00000000000E+00  0.00000000000E+00  0.26914814904E+04  0.26914814904E+04  0.25500000920E-02 0.  1.
       -2   -1    0    0    0  501  0.00000000000E+00  0.00000000000E+00 -0.13509284810E+04  0.13509284810E+04  0.25500000920E-02 0. -1.
    10030    2    1    2    0    0  0.00000000000E+00  0.00000000000E+00  0.13405530094E+04  0.40424099713E+04  0.38136591360E+04 0.  0.
        3    1    3    3  502    0 -0.12031748194E+04  0.13893579372E+04  0.12087367804E+04  0.21997703831E+04  0.10100000352E+00 0.  1.
       -3    1    3    3    0  502  0.12031748194E+04 -0.13893579372E+04  0.13181622902E+03  0.18426395883E+04  0.10100000352E+00 0. -1.
</event>
<event>
 5   0  0.4795023E-07  0.3858408E+04  0.7818609E-02  0.8033736E-01
        1   -1    0    0  501    0  0.00000000000E+00  0.00000000000E+00  0.21043585780E+04  0.21043585780E+04  0.50400001928E-02 0. -1.
       -1   -1    0    0    0  501  0.00000000000E+00  0.00000000000E+00 -0.17686280962E+04  0.17686280962E+04  0.50400001928E-02 0.  1.
    10030    2    1    2    0    0  0.00000000000E+00  0.00000000000E+00  0.33573048178E+03  0.38729866742E+04  0.38584078092E+04 0.  0.
        3    1    3    3  502    0  0.34770614397E+03  0.15920157174E+04 -0.86870995333E+03  0.18466376473E+04  0.10100000352E+00 0.  1.
       -3    1    3    3    0  502 -0.34770614397E+03 -0.15920157174E+04  0.12044404351E+04  0.20263490269E+04  0.10100000352E+00 0. -1.
</event>
<event>
 5   0  0.1341932E-06  0.3717151E+04  0.7818609E-02  0.8064172E-01
       -2   -1    0    0    0  501  0.00000000000E+00  0.00000000000E+00  0.22841736893E+04  0.22841736893E+04  0.25500000920E-02 0. -1.
        2   -1    0    0  501    0  0.00000000000E+00  0.00000000000E+00 -0.15122767768E+04  0.15122767768E+04  0.25500000920E-02 0.  1.
    10030    2    1    2    0    0  0.00000000000E+00  0.00000000000E+00  0.77189691257E+03  0.37964504661E+04  0.37171509652E+04 0.  0.
        2    1    3    3  502    0  0.12610854357E+04  0.13378366446E+04  0.66408036738E+03  0.19547752040E+04  0.25500000920E-02 0.  1.
       -2    1    3    3    0  502 -0.12610854357E+04 -0.13378366446E+04  0.10781654519E+03  0.18416752621E+04  0.25500000920E-02 0. -1.
</event>
<event>
 5   0  0.4795023E-07  0.3783302E+04  0.7818609E-02  0.8049748E-01
       -1   -1    0    0    0  501  0.00000000000E+00  0.00000000000E+00  0.20002392021E+04  0.20002392021E+04  0.50400001928E-02 0. -1.
        1   -1    0    0  501    0  0.00000000000E+00  0.00000000000E+00 -0.17889576800E+04  0.17889576800E+04  0.50400001928E-02 0.  1.
    10030    2    1    2    0    0  0.00000000000E+00  0.00000000000E+00  0.21128152206E+03  0.37891968821E+04  0.37833018819E+04 0.  0.
        3    1    3    3  502    0 -0.53332702688E+02  0.21457880958E+03 -0.17759708697E+04  0.17896818105E+04  0.10100000352E+00 0.  1.
       -3    1    3    3    0  502  0.53332702688E+02 -0.21457880958E+03  0.19872523918E+04  0.19995150716E+04  0.10100000352E+00 0. -1.
</event>
<event>
 5   0  0.4255250E-07  0.3788348E+04  0.7818609E-02  0.8048660E-01
       -1   -1    0    0    0  501  0.00000000000E+00  0.00000000000E+00  0.24383631791E+04  0.24383631791E+04  0.50400001928E-02 0. -1.
        1   -1    0    0  501    0  0.00000000000E+00  0.00000000000E+00 -0.14714362284E+04  0.14714362285E+04  0.50400001928E-02 0.  1.
    10030    2    1    2    0    0  0.00000000000E+00  0.00000000000E+00  0.96692695062E+03  0.39097994075E+04  0.37883484105E+04 0.  0.
        2    1    3    3  502    0  0.14522158421E+04 -0.66878504064E+03 -0.56482187784E+03  0.16956497387E+04  0.25500000920E-02 0.  1.
       -2    1    3    3    0  502 -0.14522158421E+04  0.66878504064E+03  0.15317488285E+04  0.22141496688E+04  0.25500000920E-02 0. -1.
</event>
<event>
 5   0  0.1184616E-06  0.3946767E+04  0.7818609E-02  0.8015372E-01
       -2   -1    0    0    0  501  0.00000000000E+00  0.00000000000E+00  0.15261282228E+04  0.15261282228E+04  0.25500000920E-02 0. -1.
        2   -1    0    0  501    0  0.00000000000E+00  0.00000000000E+00 -0.25517138177E+04  0.25517138177E+04  0.25500000920E-02 0.  1.
    10030    2    1    2    0    0  0.00000000000E+00  0.00000000000E+00 -0.10255855949E+04  0.40778420405E+04  0.39467670181E+04 0.  0.
        5    1    3    3  502    0 -0.12287996032E+04 -0.11516080858E+03  0.10781537664E+04  0.16387947128E+04  0.46999998093E+01 0.  1.
       -5    1    3    3    0  502  0.12287996032E+04  0.11516080858E+03 -0.21037393613E+04  0.24390473277E+04  0.46999998093E+01 0. -1.
</event>
<event>
 5   0  0.4795023E-07  0.2241253E+04  0.7818609E-02  0.8501451E-01
        1   -1    0    0  501    0  0.00000000000E+00  0.00000000000E+00  0.12573838671E+04  0.12573838671E+04  0.50400001928E-02 0.  1.
       -1   -1    0    0    0  501  0.00000000000E+00  0.00000000000E+00 -0.99874292723E+03  0.99874292724E+03  0.50400001928E-02 0. -1.
    10030    2    1    2    0    0  0.00000000000E+00  0.00000000000E+00  0.25864093988E+03  0.22561267944E+04  0.22412525463E+04 0.  0.
        3    1    3    3  502    0 -0.21286594340E+03 -0.56737605636E+03  0.10782193456E+04  0.12368445604E+04  0.10100000352E+00 0.  1.
       -3    1    3    3    0  502  0.21286594340E+03  0.56737605636E+03 -0.81957840570E+03  0.10192822340E+04  0.10100000352E+00 0. -1.
</event>
<event>
 5   0  0.1214844E-06  0.3757245E+04  0.7818609E-02  0.8055393E-01
       -2   -1    0    0    0  501  0.00000000000E+00  0.00000000000E+00  0.18580641520E+04  0.18580641520E+04  0.25500000920E-02 0. -1.
        2   -1    0    0  501    0  0.00000000000E+00  0.00000000000E+00 -0.18994081525E+04  0.18994081525E+04  0.25500000920E-02 0.  1.
    10030    2    1    2    0    0  0.00000000000E+00  0.00000000000E+00 -0.41344000439E+02  0.37574723045E+04  0.37572448407E+04 0.  0.
        4    1    3    3  502    0 -0.10461808170E+02  0.86262563825E+03 -0.16896014059E+04  0.18970996191E+04  0.12699999809E+01 0.  1.
       -4    1    3    3    0  502  0.10461808170E+02 -0.86262563825E+03  0.16482574054E+04  0.18603726854E+04  0.12699999809E+01 0. -1.
</event>
<event>
 5   0  0.1337854E-06  0.2748407E+04  0.7818609E-02  0.8319467E-01
        2   -1    0    0  501    0  0.00000000000E+00  0.00000000000E+00  0.21177958658E+04  0.21177958658E+04  0.25500000920E-02 0.  1.
       -2   -1    0    0    0  501  0.00000000000E+00  0.00000000000E+00 -0.89169872724E+03  0.89169872724E+03  0.25500000920E-02 0. -1.
    10030    2    1    2    0    0  0.00000000000E+00  0.00000000000E+00  0.12260971385E+04  0.30094945930E+04  0.27484074502E+04 0.  0.
        3    1    3    3  502    0  0.62620424057E+03  0.72228730262E+03 -0.46795419765E+03  0.10643363377E+04  0.10100000352E+00 0. -1.
       -3    1    3    3    0  502 -0.62620424057E+03 -0.72228730262E+03  0.16940513362E+04  0.19451582553E+04  0.10100000352E+00 0.  1.
</event>
<event>
 5   0  0.1337854E-06  0.3732361E+04  0.7818609E-02  0.8060828E-01
        2   -1    0    0  501    0  0.00000000000E+00  0.00000000000E+00  0.25958438921E+04  0.25958438921E+04  0.25500000920E-02 0. -1.
       -2   -1    0    0    0  501  0.00000000000E+00  0.00000000000E+00 -0.13416178157E+04  0.13416178157E+04  0.25500000920E-02 0.  1.
    10030    2    1    2    0    0  0.00000000000E+00  0.00000000000E+00  0.12542260764E+04  0.39374617078E+04  0.37323614040E+04 0.  0.
        3    1    3    3  502    0 -0.16701064464E+04 -0.37448179470E+03  0.14117151946E+04  0.22186554391E+04  0.10100000352E+00 0. -1.
       -3    1    3    3    0  502  0.16701064464E+04  0.37448179470E+03 -0.15748911824E+03  0.17188062687E+04  0.10100000352E+00 0.  1.
</event>
<event>
 5   0  0.5284458E-07  0.3466036E+04  0.7818609E-02  0.8121886E-01
       -1   -1    0    0    0  501  0.00000000000E+00  0.00000000000E+00  0.13930266171E+04  0.13930266171E+04  0.50400001928E-02 0.  1.
        1   -1    0    0  501    0  0.00000000000E+00  0.00000000000E+00 -0.21559900800E+04  0.21559900800E+04  0.50400001928E-02 0. -1.
    10030    2    1    2    0    0  0.00000000000E+00  0.00000000000E+00 -0.76296346290E+03  0.35490166971E+04  0.34660361035E+04 0.  0.
        5    1    3    3  502    0 -0.12566832584E+04  0.48662566240E+03  0.73422511253E+03  0.15346549948E+04  0.46999998093E+01 0. -1.
       -5    1    3    3    0  502  0.12566832584E+04 -0.48662566240E+03 -0.14971885754E+04  0.20143617023E+04  0.46999998093E+01 0.  1.
</event>
<event>
 5   0  0.1341932E-06  0.2393248E+04  0.7818609E-02  0.8442036E-01
        2   -1    0    0  501    0  0.00000000000E+00  0.00000000000E+00  0.26238598305E+04  0.26238598305E+04  0.25500000920E-02 0. -1.
       -2   -1    0    0    0  501  0.00000000000E+00  0.00000000000E+00 -0.54572607398E+03  0.54572607399E+03  0.25500000920E-02 0.  1.
    10030    2    1    2    0    0  0.00000000000E+00  0.00000000000E+00  0.20781337565E+04  0.31695859045E+04  0.23932477715E+04 0.  0.
        2    1    3    3  502    0  0.33227274473E+03 -0.39689211395E+03  0.24679202352E+04  0.25216182927E+04  0.25500000920E-02 0. -1.
       -2    1    3    3    0  502 -0.33227274473E+03  0.39689211395E+03 -0.38978647863E+03  0.64796761179E+03  0.25500000920E-02 0.  1.
</event>
<event>
 5   0  0.1214844E-06  0.3780636E+04  0.7818609E-02  0.8050323E-01
        2   -1    0    0  501    0  0.00000000000E+00  0.00000000000E+00  0.18221615760E+04  0.18221615760E+04  0.25500000920E-02 0. -1.
       -2   -1    0    0    0  501  0.00000000000E+00  0.00000000000E+00 -0.19610235300E+04  0.19610235300E+04  0.25500000920E-02 0.  1.
    10030    2    1    2    0    0  0.00000000000E+00  0.00000000000E+00 -0.13886195399E+03  0.37831851061E+04  0.37806357805E+04 0.  0.
        4    1    3    3  502    0  0.13144506671E+02  0.10433823744E+04  0.15078553992E+04  0.18336981963E+04  0.12699999809E+01 0. -1.
       -4    1    3    3    0  502 -0.13144506671E+02 -0.10433823744E+04 -0.16467173532E+04  0.19494869098E+04  0.12699999809E+01 0.  1.
</event>
<event>
 5   0  0.1214844E-06  0.2818280E+04  0.7818609E-02  0.8297615E-01
       -2   -1    0    0    0  501  0.00000000000E+00  0.00000000000E+00  0.84295889520E+03  0.84295889520E+03  0.25500000920E-02 0. -1.
        2   -1    0    0  501    0  0.00000000000E+00  0.00000000000E+00 -0.23556023501E+04  0.23556023501E+04  0.25500000920E-02 0.  1.
    10030    2    1    2    0    0  0.00000000000E+00  0.00000000000E+00 -0.15126434549E+04  0.31985612453E+04  0.28182802945E+04 0.  0.
        4    1    3    3  502    0  0.52601138025E+03 -0.16546083581E+03  0.71542476305E+03  0.90327153438E+03  0.12699999809E+01 0. -1.
       -4    1    3    3    0  502 -0.52601138025E+03  0.16546083581E+03 -0.22280682180E+04  0.22952897109E+04  0.12699999809E+01 0.  1.
</event>
<event>
 5   0  0.1079205E-06  0.3829007E+04  0.7818609E-02  0.8039959E-01
        1   -1    0    0  501    0  0.00000000000E+00  0.00000000000E+00  0.13311039889E+04  0.13311039889E+04  0.50400001928E-02 0.  1.
       -1   -1    0    0    0  501  0.00000000000E+00  0.00000000000E+00 -0.27535970024E+04  0.27535970024E+04  0.50400001928E-02 0. -1.
    10030    2    1    2    0    0  0.00000000000E+00  0.00000000000E+00 -0.14224930135E+04  0.40847009913E+04  0.38290071578E+04 0.  0.
        4    1    3    3  502    0 -0.73279164221E+03  0.53960987537E+03 -0.25081137910E+04  0.26681077208E+04  0.12699999809E+01 0. -1.
       -4    1    3    3    0  502  0.73279164221E+03 -0.53960987537E+03  0.10856207775E+04  0.14165932705E+04  0.12699999809E+01 0.  1.
</event>
<event>
 5   0  0.4255250E-07  0.3857202E+04  0.7818609E-02  0.8033990E-01
        3   -1    0    0  501    0  0.00000000000E+00  0.00000000000E+00  0.20455455882E+04  0.20455455907E+04  0.10100000352E+00 0. -1.
       -3   -1    0    0    0  501  0.00000000000E+00  0.00000000000E+00 -0.18183424888E+04  0.18183424916E+04  0.10100000352E+00 0.  1.
    10030    2    1    2    0    0  0.00000000000E+00  0.00000000000E+00  0.22720309944E+03  0.38638880824E+04  0.38572023365E+04 0.  0.
        1    1    3    3  502    0 -0.35584827123E+03 -0.18380108823E+04  0.57764359614E+03  0.19592304918E+04  0.50400001928E-02 0. -1.
       -1    1    3    3    0  502  0.35584827123E+03  0.18380108823E+04 -0.35044049670E+03  0.19046575906E+04  0.50400001928E-02 0.  1.
</event>
<event>
 5   0  0.4795023E-07  0.4102834E+04  0.7818609E-02  0.7984117E-01
        1   -1    0    0  501    0  0.00000000000E+00  0.00000000000E+00  0.13585256381E+04  0.13585256381E+04  0.50400001928E-02 0. -1.
       -1   -1    0    0    0  501  0.00000000000E+00  0.00000000000E+00 -0.30977044291E+04  0.30977044291E+04  0.50400001928E-02 0.  1.
    10030    2    1    2    0    0  0.00000000000E+00  0.00000000000E+00 -0.17391787911E+04  0.44562300672E+04  0.41028335995E+04 0.  0.
        3    1    3    3  502    0  0.11399104250E+04  0.14312786870E+04 -0.18770380075E+04  0.26213023764E+04  0.10100000352E+00 0. -1.
       -3    1    3    3    0  502 -0.11399104250E+04 -0.14312786870E+04  0.13785921641E+03  0.18349276908E+04  0.10100000352E+00 0.  1.
</event>
<event>
 5   0  0.1079205E-06  0.3067251E+04  0.7818609E-02  0.8224783E-01
        1   -1    0    0  501    0  0.00000000000E+00  0.00000000000E+00  0.22546811345E+04  0.22546811345E+04  0.50400001928E-02 0. -1.
       -1   -1    0    0    0  501  0.00000000000E+00  0.00000000000E+00 -0.10431663444E+04  0.10431663444E+04  0.50400001928E-02 0.  1.
    10030    2    1    2    0    0  0.00000000000E+00  0.00000000000E+00  0.12115147900E+04  0.32978474789E+04  0.30672511973E+04 0.  0.
        4    1    3    3  502    0 -0.37288360771E+03 -0.90171580632E+03  0.18778696283E+04  0.21162536554E+04  0.12699999809E+01 0. -1.
       -4    1    3    3    0  502  0.37288360771E+03  0.90171580632E+03 -0.66635483827E+03  0.11815938235E+04  0.12699999809E+01 0.  1.
</event>
<event>
 5   0  0.4795023E-07  0.3753346E+04  0.7818609E-02  0.8056242E-01
       -1   -1    0    0    0  501  0.00000000000E+00  0.00000000000E+00  0.27514809957E+04  0.27514809957E+04  0.50400001928E-02 0. -1.
        1   -1    0    0  501    0  0.00000000000E+00  0.00000000000E+00 -0.12800018786E+04  0.12800018786E+04  0.50400001928E-02 0.  1.
    10030    2    1    2    0    0  0.00000000000E+00  0.00000000000E+00  0.14714791171E+04  0.40314828743E+04  0.37533456241E+04 0.  0.
        3    1    3    3  502    0 -0.75548712076E+03 -0.16185739016E+04  0.13540340315E+04  0.22414170591E+04  0.10100000352E+00 0. -1.
       -3    1    3    3    0  502  0.75548712076E+03  0.16185739016E+04  0.11744508561E+03  0.17900658152E+04  0.10100000352E+00 0.  1.
</event>
<event>
 5   0  0.1341932E-06  0.3723879E+04  0.7818609E-02  0.8062691E-01
       -2   -1    0    0    0  501  0.00000000000E+00  0.00000000000E+00  0.16797078428E+04  0.16797078428E+04  0.25500000920E-02 0. -1.
        2   -1    0    0  501    0  0.00000000000E+00  0.00000000000E+00 -0.20639410249E+04  0.20639410249E+04  0.25500000920E-02 0.  1.
    10030    2    1    2    0    0  0.00000000000E+00  0.00000000000E+00 -0.38423318216E+03  0.37436488677E+04  0.37238785837E+04 0.  0.
        2    1    3    3  502    0 -0.12604947815E+02  0.16968398209E+04  0.57836847262E+03  0.17927449212E+04  0.25500000920E-02 0. -1.
       -2    1    3    3    0  502  0.12604947815E+02 -0.16968398209E+04 -0.96260165478E+03  0.19509039465E+04  0.25500000920E-02 0.  1.
</event>
<event>
 5   0  0.1079205E-06  0.2911463E+04  0.7818609E-02  0.8269475E-01
       -1   -1    0    0    0  501  0.00000000000E+00  0.00000000000E+00  0.15008320707E+04  0.15008320707E+04  0.50400001928E-02 0.  1.
        1   -1    0    0  501    0  0.00000000000E+00  0.00000000000E+00 -0.14119863905E+04  0.14119863905E+04  0.50400001928E-02 0. -1.
    10030    2    1    2    0    0  0.00000000000E+00  0.00000000000E+00  0.88845680120E+02  0.29128184612E+04  0.29114631773E+04 0.  0.
        4    1    3    3  502    0  0.81312234851E+03 -0.13184053811E+03 -0.11563870847E+04  0.14197825833E+04  0.12699999809E+01 0. -1.
       -4    1    3    3    0  502 -0.81312234851E+03  0.13184053811E+03  0.12452327649E+04  0.14930358779E+04  0.12699999809E+01 0.  1.
</event>
<event>
 5   0  0.1214844E-06  0.3601460E+04  0.7818609E-02  0.8090157E-01
        2   -1    0    0  501    0  0.00000000000E+00  0.00000000000E+00  0.22706662010E+04  0.22706662010E+04  0.25500000920E-02 0.  1.
       -2   -1    0    0    0  501  0.00000000000E+00  0.00000000000E+00 -0.14280516426E+04  0.14280516426E+04  0.25500000920E-02 0. -1.
    10030    2    1    2    0    0  0.00000000000E+00  0.00000000000E+00  0.84261455834E+03  0.36987178436E+04  0.36014600362E+04 0.  0.
        4    1    3    3  502    0 -0.60418763864E+03  0.34871833207E+02 -0.13204789182E+04  0.14525580655E+04  0.12699999809E+01 0. -1.
       -4    1    3    3    0  502  0.60418763864E+03 -0.34871833207E+02  0.21630934765E+04  0.22461597781E+04  0.12699999809E+01 0.  1.
</event>
<event>
 5   0  0.4795023E-07  0.2007560E+04  0.7818609E-02  0.8603094E-01
       -1   -1    0    0    0  501  0.00000000000E+00  0.00000000000E+00  0.67475853520E+03  0.67475853522E+03  0.50400001928E-02 0. -1.
        1   -1    0    0  501    0  0.00000000000E+00  0.00000000000E+00 -0.14932365796E+04  0.14932365797E+04  0.50400001928E-02 0.  1.
    10030    2    1    2    0    0  0.00000000000E+00  0.00000000000E+00 -0.81847804444E+03  0.21679951149E+04  0.20075598394E+04 0.  0.
        3    1    3    3  502    0 -0.63289091883E+03 -0.77531821471E+03 -0.49222312257E+03  0.11153263477E+04  0.10100000352E+00 0.  1.
       -3    1    3    3    0  502  0.63289091883E+03  0.77531821471E+03 -0.32625492187E+03  0.10526687672E+04  0.10100000352E+00 0. -1.
</event>
<event>
 5   0  0.5284458E-07  0.3008484E+04  0.7818609E-02  0.8241312E-01
       -1   -1    0    0    0  501  0.00000000000E+00  0.00000000000E+00  0.12169374183E+04  0.12169374183E+04  0.50400001928E-02 0.  1.
        1   -1    0    0  501    0  0.00000000000E+00  0.00000000000E+00 -0.18593754184E+04  0.18593754184E+04  0.50400001928E-02 0. -1.
    10030    2    1    2    0    0  0.00000000000E+00  0.00000000000E+00 -0.64243800013E+03  0.30763128367E+04  0.30084836854E+04 0.  0.
        5    1    3    3  502    0 -0.50326844834E+03 -0.16734901528E+03 -0.17605905958E+04  0.18387458117E+04  0.46999998093E+01 0. -1.
       -5    1    3    3    0  502  0.50326844834E+03  0.16734901528E+03  0.11181525957E+04  0.12375670250E+04  0.46999998093E+01 0.  1.
</event>
<event>
 5   0  0.1341932E-06  0.3694389E+04  0.7818609E-02  0.8069206E-01
       -2   -1    0    0    0  501  0.00000000000E+00  0.00000000000E+00  0.15054832324E+04  0.15054832324E+04  0.25500000920E-02 0. -1.
        2   -1    0    0  501    0  0.00000000000E+00  0.00000000000E+00 -0.22664662508E+04  0.22664662508E+04  0.25500000920E-02 0.  1.
    10030    2    1    2    0    0  0.00000000000E+00  0.00000000000E+00 -0.76098301843E+03  0.37719494832E+04  0.36943886841E+04 0.  0.
        2    1    3    3  502    0  0.11115578506E+04  0.13479081106E+04 -0.99284108579E+03  0.20095150040E+04  0.25500000920E-02 0. -1.
       -2    1    3    3    0  502 -0.11115578506E+04 -0.13479081106E+04  0.23185806736E+03  0.17624344791E+04  0.25500000920E-02 0.  1.
</event>
<event>
 5   0  0.1372748E-06  0.3706262E+04  0.7818609E-02  0.8066575E-01
       -2   -1    0    0    0  501  0.00000000000E+00  0.00000000000E+00  0.23560276798E+04  0.23560276798E+04  0.25500000920E-02 0.  1.
        2   -1    0    0  501    0  0.00000000000E+00  0.00000000000E+00 -0.14575785523E+04  0.14575785523E+04  0.25500000920E-02 0. -1.
    10030    2    1    2    0    0  0.00000000000E+00  0.00000000000E+00  0.89844912754E+03  0.38136062321E+04  0.37062624919E+04 0.  0.
        1    1    3    3  502    0 -0.66780186373E+03  0.12465826265E+04 -0.78302781170E+03  0.16164962505E+04  0.50400001928E-02 0. -1.
       -1    1    3    3    0  502  0.66780186373E+03 -0.12465826265E+04  0.16814769392E+04  0.21971099816E+04  0.50400001928E-02 0.  1.
</event>
<event>
 5   0  0.1184616E-06  0.3824766E+04  0.7818609E-02  0.8040861E-01
       -2   -1    0    0    0  501  0.00000000000E+00  0.00000000000E+00  0.15045042080E+04  0.15045042080E+04  0.25500000920E-02 0. -1.
        2   -1    0    0  501    0  0.00000000000E+00  0.00000000000E+00 -0.24308392582E+04  0.24308392582E+04  0.25500000920E-02 0.  1.
    10030    2    1    2    0    0  0.00000000000E+00  0.00000000000E+00 -0.92633505019E+03  0.39353434662E+04  0.38247655577E+04 0.  0.
        5    1    3    3  502    0  0.15007507963E+04 -0.11852652635E+04 -0.45401626449E+03  0.19655176305E+04  0.46999998093E+01 0. -1.
       -5    1    3    3    0  502 -0.15007507963E+04  0.11852652635E+04 -0.47231878570E+03  0.19698258357E+04  0.46999998093E+01 0.  1.
</event>
<event>
 5   0  0.1079205E-06  0.3500180E+04  0.7818609E-02  0.8113747E-01
       -1   -1    0    0    0  501  0.00000000000E+00  0.00000000000E+00  0.10249029668E+04  0.10249029668E+04  0.50400001928E-02 0.  1.
        1   -1    0    0  501    0  0.00000000000E+00  0.00000000000E+00 -0.29883951801E+04  0.29883951801E+04  0.50400001928E-02 0. -1.
    10030    2    1    2    0    0  0.00000000000E+00  0.00000000000E+00 -0.19634922133E+04  0.40132981470E+04  0.35001800446E+04 0.  0.
        4    1    3    3  502    0  0.78487232224E+03  0.46504598208E+03 -0.26941815672E+04  0.28444521894E+04  0.12699999809E+01 0. -1.
       -4    1    3    3    0  502 -0.78487232224E+03 -0.46504598208E+03  0.73068935391E+03  0.11688459576E+04  0.12699999809E+01 0.  1.
</event>
<event>
 5   0  0.4795023E-07  0.2401216E+04  0.7818609E-02  0.8439048E-01
       -1   -1    0    0    0  501  0.00000000000E+00  0.00000000000E+00  0.43719989727E+03  0.43719989730E+03  0.50400001928E-02 0.  1.
        1   -1    0    0  501    0  0.00000000000E+00  0.00000000000E+00 -0.32970272628E+04  0.32970272628E+04  0.50400001928E-02 0. -1.
    10030    2    1    2    0    0  0.00000000000E+00  0.00000000000E+00 -0.28598273655E+04  0.37342271601E+04  0.24012163423E+04 0.  0.
        3    1    3    3  502    0  0.96988222437E+03  0.38407064149E+03 -0.23542453932E+04  0.25750054696E+04  0.10100000352E+00 0. -1.
       -3    1    3    3    0  502 -0.96988222437E+03 -0.38407064149E+03 -0.50558197232E+03  0.11592216905E+04  0.10100000352E+00 0.  1.
</event>
<event>
 5   0  0.4255250E-07  0.3890869E+04  0.7818609E-02  0.8026931E-01
       -3   -1    0    0    0  501  0.00000000000E+00  0.00000000000E+00  0.29442714009E+04  0.29442714026E+04  0.10100000352E+00 0. -1.
        3   -1    0    0  501    0  0.00000000000E+00  0.00000000000E+00 -0.12854506069E+04  0.12854506108E+04  0.10100000352E+00 0.  1.
    10030    2    1    2    0    0  0.00000000000E+00  0.00000000000E+00  0.16588207940E+04  0.42297220135E+04  0.38908690398E+04 0.  0.
        1    1    3    3  502    0  0.42684916016E+03  0.22170561246E+02 -0.12337761486E+04  0.13057164027E+04  0.50400001928E-02 0.  1.
       -1    1    3    3    0  502 -0.42684916016E+03 -0.22170561246E+02  0.28925969426E+04  0.29240056108E+04  0.50400001928E-02 0. -1.
</event>
<event>
 5   0  0.1337854E-06  0.3835617E+04  0.7818609E-02  0.8038554E-01
       -2   -1    0    0    0  501  0.00000000000E+00  0.00000000000E+00  0.27870890242E+04  0.27870890242E+04  0.25500000920E-02 0.  1.
        2   -1    0    0  501    0  0.00000000000E+00  0.00000000000E+00 -0.13196528917E+04  0.13196528917E+04  0.25500000920E-02 0. -1.
    10030    2    1    2    0    0  0.00000000000E+00  0.00000000000E+00  0.14674361325E+04  0.41067419159E+04  0.38356173376E+04 0.  0.
        3    1    3    3  502    0  0.24947128502E+03 -0.15397747765E+04  0.19283118903E+04  0.24802276188E+04  0.10100000352E+00 0.  1.
       -3    1    3    3    0  502 -0.24947128502E+03  0.15397747765E+04 -0.46087575776E+03  0.16265142971E+04  0.10100000352E+00 0. -1.
</event>
<event>
 5   0  0.1341932E-06  0.3856437E+04  0.7818609E-02  0.8034151E-01
        2   -1    0    0  501    0  0.00000000000E+00  0.00000000000E+00  0.12510176512E+04  0.12510176512E+04  0.25500000920E-02 0. -1.
       -2   -1    0    0    0  501  0.00000000000E+00  0.00000000000E+00 -0.29720015675E+04  0.29720015675E+04  0.25500000920E-02 0.  1.
    10030    2    1    2    0    0  0.00000000000E+00  0.00000000000E+00 -0.17209839163E+04  0.42230192187E+04  0.38564369153E+04 0.  0.
        2    1    3    3  502    0  0.97356414676E+03  0.15160658147E+04 -0.16126167239E+04  0.24180188999E+04  0.25500000920E-02 0.  1.
       -2    1    3    3    0  502 -0.97356414676E+03 -0.15160658147E+04 -0.10836719249E+03  0.18050003188E+04  0.25500000920E-02 0. -1.
</event>
<event>
 5   0  0.4255250E-07  0.3868082E+04  0.7818609E-02  0.8031700E-01
        1   -1    0    0  501    0  0.00000000000E+00  0.00000000000E+00  0.15538385110E+04  0.15538385110E+04  0.50400001928E-02 0. -1.
       -1   -1    0    0    0  501  0.00000000000E+00  0.00000000000E+00 -0.24072738718E+04  0.24072738718E+04  0.50400001928E-02 0.  1.
    10030    2    1    2    0    0  0.00000000000E+00  0.00000000000E+00 -0.85343536085E+03  0.39611123828E+04  0.38680821339E+04 0.  0.
        2    1    3    3  502    0 -0.15532499691E+04 -0.48408754195E+03  0.64418121558E+03  0.17498273210E+04  0.25500000920E-02 0. -1.
       -2    1    3    3    0  502  0.15532499691E+04  0.48408754195E+03 -0.14976165764E+04  0.22112850618E+04  0.25500000920E-02 0.  1.
</event>
<event>
 5   0  0.4255250E-07  0.2352250E+04  0.7818609E-02  0.8457600E-01
        1   -1    0    0  501    0  0.00000000000E+00  0.00000000000E+00  0.12897523776E+04  0.12897523776E+04  0.50400001928E-02 0. -1.
       -1   -1    0    0    0  501  0.00000000000E+00  0.00000000000E+00 -0.10725086178E+04  0.10725086178E+04  0.50400001928E-02 0.  1.
    10030    2    1    2    0    0  0.00000000000E+00  0.00000000000E+00  0.21724375984E+03  0.23622609954E+04  0.23522504456E+04 0.  0.
        2    1    3    3  502    0 -0.64881087911E+03  0.91468284113E+03 -0.24738682421E+03  0.11483903942E+04  0.25500000920E-02 0. -1.
       -2    1    3    3    0  502  0.64881087911E+03 -0.91468284113E+03  0.46463058405E+03  0.12138706012E+04  0.25500000920E-02 0.  1.
</event>
<event>
 5   0  0.1214844E-06  0.3652626E+04  0.7818609E-02  0.8078542E-01
       -2   -1    0    0    0  501  0.00000000000E+00  0.00000000000E+00  0.25729619760E+04  0.25729619760E+04  0.25500000920E-02 0. -1.
        2   -1    0    0  501    0  0.00000000000E+00  0.00000000000E+00 -0.12963343920E+04  0.12963343920E+04  0.25500000920E-02 0.  1.
    10030    2    1    2    0    0  0.00000000000E+00  0.00000000000E+00  0.12766275840E+04  0.38692963680E+04  0.36526259588E+04 0.  0.
        4    1    3    3  502    0  0.15881477985E+04  0.68418369228E+03  0.12606100897E+04  0.21399673282E+04  0.12699999809E+01 0. -1.
       -4    1    3    3    0  502 -0.15881477985E+04 -0.68418369228E+03  0.16017494285E+02  0.17293290397E+04  0.12699999809E+01 0.  1.
</event>
<event>
 5   0  0.5284458E-07  0.3788679E+04  0.7818609E-02  0.8048589E-01
       -1   -1    0    0    0  501  0.00000000000E+00  0.00000000000E+00  0.15580020184E+04  0.15580020184E+04  0.50400001928E-02 0. -1.
        1   -1    0    0  501    0  0.00000000000E+00  0.00000000000E+00 -0.23032848648E+04  0.23032848648E+04  0.50400001928E-02 0.  1.
    10030    2    1    2    0    0  0.00000000000E+00  0.00000000000E+00 -0.74528284642E+03  0.38612868832E+04  0.37886791727E+04 0.  0.
        5    1    3    3  502    0 -0.15015860716E+04  0.34023023522E+03 -0.14974143614E+04  0.21477404878E+04  0.46999998093E+01 0.  1.
       -5    1    3    3    0  502  0.15015860716E+04 -0.34023023522E+03  0.75213151501E+03  0.17135463954E+04  0.46999998093E+01 0. -1.
</event>
<event>
 5   0  0.1372748E-06  0.3751228E+04  0.7818609E-02  0.8056703E-01
        2   -1    0    0  501    0  0.00000000000E+00  0.00000000000E+00  0.18680257375E+04  0.18680257375E+04  0.25500000920E-02 0.  1.
       -2   -1    0    0    0  501  0.00000000000E+00  0.00000000000E+00 -0.18832327293E+04  0.18832327293E+04  0.25500000920E-02 0. -1.
    10030    2    1    2    0    0  0.00000000000E+00  0.00000000000E+00 -0.15206991809E+02  0.37512584668E+04  0.37512276433E+04 0.  0.
        1    1    3    3  502    0  0.56385110230E+03  0.16185837846E+03  0.17739276336E+04  0.18684071959E+04  0.50400001928E-02 0.  1.
       -1    1    3    3    0  502 -0.56385110230E+03 -0.16185837846E+03 -0.17891346254E+04  0.18828512709E+04  0.50400001928E-02 0. -1.
</event>
<event>
 5   0  0.4255250E-07  0.3772194E+04  0.7818609E-02  0.8052148E-01
       -1   -1    0    0    0  501  0.00000000000E+00  0.00000000000E+00  0.19067808546E+04  0.19067808546E+04  0.50400001928E-02 0.  1.
        1   -1    0    0  501    0  0.00000000000E+00  0.00000000000E+00 -0.18656374463E+04  0.18656374463E+04  0.50400001928E-02 0. -1.
    10030    2    1    2    0    0  0.00000000000E+00  0.00000000000E+00  0.41143408224E+02  0.37724183009E+04  0.37721939315E+04 0.  0.
        2    1    3    3  502    0  0.34165217844E+03 -0.66430383902E+03  0.17525338207E+04  0.19050985786E+04  0.25500000920E-02 0.  1.
       -2    1    3    3    0  502 -0.34165217844E+03  0.66430383902E+03 -0.17113904124E+04  0.18673197223E+04  0.25500000920E-02 0. -1.
</event>
<event>
 5   0  0.1079205E-06  0.1900511E+04  0.7818609E-02  0.8654602E-01
       -1   -1    0    0    0  501  0.00000000000E+00  0.00000000000E+00  0.10449177932E+04  0.10449177932E+04  0.50400001928E-02 0.  1.
        1   -1    0    0  501    0  0.00000000000E+00  0.00000000000E+00 -0.86416902380E+03  0.86416902381E+03  0.50400001928E-02 0. -1.
    10030    2    1    2    0    0  0.00000000000E+00  0.00000000000E+00  0.18074876943E+03  0.19090868170E+04  0.19005110779E+04 0.  0.
        4    1    3    3  502    0 -0.49379517878E+03 -0.32562604135E+02  0.90526236262E+03  0.10316954783E+04  0.12699999809E+01 0.  1.
       -4    1    3    3    0  502  0.49379517878E+03  0.32562604135E+02 -0.72451359319E+03  0.87739133879E+03  0.12699999809E+01 0. -1.
</event>
<event>
 5   0  0.1214844E-06  0.3807122E+04  0.7818609E-02  0.8044628E-01
        2   -1    0    0  501    0  0.00000000000E+00  0.00000000000E+00  0.12976394791E+04  0.12976394791E+04  0.25500000920E-02 0.  1.
       -2   -1    0    0    0  501  0.00000000000E+00  0.00000000000E+00 -0.27924120483E+04  0.27924120483E+04  0.25500000920E-02 0. -1.
    10030    2    1    2    0    0  0.00000000000E+00  0.00000000000E+00 -0.14947725692E+04  0.40900515274E+04  0.38071218083E+04 0.  0.
        4    1    3    3  502    0 -0.54808593580E+02 -0.12116723840E+04 -0.23235174050E+04  0.26210472511E+04  0.12699999809E+01 0. -1.
       -4    1    3    3    0  502  0.54808593580E+02  0.12116723840E+04  0.82874483579E+03  0.14690042763E+04  0.12699999809E+01 0.  1.
</event>
<event>
 5   0  0.1341932E-06  0.2841419E+04  0.7818609E-02  0.8290524E-01
       -2   -1    0    0    0  501  0.00000000000E+00  0.00000000000E+00  0.12337462920E+04  0.12337462920E+04  0.25500000920E-02 0.  1.
        2   -1    0    0  501    0  0.00000000000E+00  0.00000000000E+00 -0.16360047452E+04  0.16360047452E+04  0.25500000920E-02 0. -1.
    10030    2    1    2    0    0  0.00000000000E+00  0.00000000000E+00 -0.40225845319E+03  0.28697510372E+04  0.28414185106E+04 0.  0.
        2    1    3    3  502    0 -0.10070847714E+04  0.68368513473E+03 -0.94108030505E+03  0.15385958666E+04  0.25500000920E-02 0. -1.
       -2    1    3    3    0  502  0.10070847714E+04 -0.68368513473E+03  0.53882185186E+03  0.13311551706E+04  0.25500000920E-02 0.  1.
</event>
<event>
 5   0  0.1184616E-06  0.3721988E+04  0.7818609E-02  0.8063106E-01
       -2   -1    0    0    0  501  0.00000000000E+00  0.00000000000E+00  0.25866728704E+04  0.25866728704E+04  0.25500000920E-02 0. -1.
        2   -1    0    0  501    0  0.00000000000E+00  0.00000000000E+00 -0.13389012500E+04  0.13389012500E+04  0.25500000920E-02 0.  1.
    10030    2    1    2    0    0  0.00000000000E+00  0.00000000000E+00  0.12477716205E+04  0.39255741204E+04  0.37219884683E+04 0.  0.
        5    1    3    3  502    0 -0.10020235294E+04 -0.26862484731E+02  0.22776122895E+04  0.24884357693E+04  0.46999998093E+01 0. -1.
       -5    1    3    3    0  502  0.10020235294E+04  0.26862484731E+02 -0.10298406691E+04  0.14371383511E+04  0.46999998093E+01 0.  1.
</event>
<event>
 5   0  0.1341932E-06  0.3804612E+04  0.7818609E-02  0.8045166E-01
        2   -1    0    0  501    0  0.00000000000E+00  0.00000000000E+00  0.21706948155E+04  0.21706948155E+04  0.25500000920E-02 0. -1.
       -2   -1    0    0    0  501  0.00000000000E+00  0.00000000000E+00 -0.16671010441E+04  0.16671010441E+04  0.25500000920E-02 0.  1.
    10030    2    1    2    0    0  0.00000000000E+00  0.00000000000E+00  0.50359377141E+03  0.38377958597E+04  0.38046117244E+04 0.  0.
        2    1    3    3  502    0  0.32843545370E+02 -0.15459468006E+04  0.13694943567E+04  0.20655616674E+04  0.25500000920E-02 0. -1.
       -2    1    3    3    0  502 -0.32843545370E+02  0.15459468006E+04 -0.86590058531E+03  0.17722341923E+04  0.25500000920E-02 0.  1.
</event>
<event>
 5   0  0.1184616E-06  0.3852488E+04  0.7818609E-02  0.8034984E-01
       -2   -1    0    0    0  501  0.00000000000E+00  0.00000000000E+00  0.17705699341E+04  0.17705699341E+04  0.25500000920E-02 0.  1.
        2   -1    0    0  501    0  0.00000000000E+00  0.00000000000E+00 -0.20956054113E+04  0.20956054113E+04  0.25500000920E-02 0. -1.
    10030    2    1    2    0    0  0.00000000000E+00  0.00000000000E+00 -0.32503547718E+03  0.38661753454E+04  0.38524879935E+04 0.  0.
        5    1    3    3  502    0  0.46389818263E+03  0.10625768727E+04  0.13811679759E+04  0.18033075727E+04  0.46999998093E+01 0.  1.
       -5    1    3    3    0  502 -0.46389818263E+03 -0.10625768727E+04 -0.17062034531E+04  0.20628677727E+04  0.46999998093E+01 0. -1.
</event>
<event>
 5   0  0.5284458E-07  0.2352270E+04  0.7818609E-02  0.8457592E-01
        1   -1    0    0  501    0  0.00000000000E+00  0.00000000000E+00  0.21467029009E+04  0.21467029009E+04  0.50400001928E-02 0.  1.
       -1   -1    0    0    0  501  0.00000000000E+00  0.00000000000E+00 -0.64438055371E+03  0.64438055373E+03  0.50400001928E-02 0. -1.
    10030    2    1    2    0    0  0.00000000000E+00  0.00000000000E+00  0.15023223472E+04  0.27910834547E+04  0.23522700559E+04 0.  0.
        5    1    3    3  502    0 -0.10923322390E+04 -0.41864781413E+03  0.60673423189E+03  0.13178028042E+04  0.46999998093E+01 0.  1.
       -5    1    3    3    0  502  0.10923322390E+04  0.41864781413E+03  0.89558811534E+03  0.14732806505E+04  0.46999998093E+01 0. -1.
</event>
<event>
 5   0  0.1372748E-06  0.3758546E+04  0.7818609E-02  0.8055110E-01
        2   -1    0    0  501    0  0.00000000000E+00  0.00000000000E+00  0.22526036605E+04  0.22526036605E+04  0.25500000920E-02 0.  1.
       -2   -1    0    0    0  501  0.00000000000E+00  0.00000000000E+00 -0.15678151835E+04  0.15678151835E+04  0.25500000920E-02 0. -1.
    10030    2    1    2    0    0  0.00000000000E+00  0.00000000000E+00  0.68478847702E+03  0.38204188440E+04  0.37585455811E+04 0.  0.
        1    1    3    3  502    0  0.88222412048E+03 -0.86370152151E+03 -0.10977450336E+04  0.16520726001E+04  0.50400001928E-02 0.  1.
       -1    1    3    3    0  502 -0.88222412048E+03  0.86370152151E+03  0.17825335106E+04  0.21683462439E+04  0.50400001928E-02 0. -1.
</event>
<event>
 5   0  0.5284458E-07  0.3795655E+04  0.7818609E-02  0.8047088E-01
        1   -1    0    0  501    0  0.00000000000E+00  0.00000000000E+00  0.29391987048E+04  0.29391987048E+04  0.50400001928E-02 0.  1.
       -1   -1    0    0    0  501  0.00000000000E+00  0.00000000000E+00 -0.12254185395E+04  0.12254185395E+04  0.50400001928E-02 0. -1.
    10030    2    1    2    0    0  0.00000000000E+00  0.00000000000E+00  0.17137801653E+04  0.41646172443E+04  0.37956546651E+04 0.  0.
        5    1    3    3  502    0  0.82677676601E+03 -0.74076755612E+03 -0.83203486576E+03  0.13872997156E+04  0.46999998093E+01 0. -1.
       -5    1    3    3    0  502 -0.82677676601E+03  0.74076755612E+03  0.25458150311E+04  0.27773175287E+04  0.46999998093E+01 0.  1.
</event>
<event>
 5   0  0.1341932E-06  0.2460842E+04  0.7818609E-02  0.8417070E-01
        2   -1    0    0  501    0  0.00000000000E+00  0.00000000000E+00  0.18117638792E+04  0.18117638792E+04  0.25500000920E-02 0.  1.
       -2   -1    0    0    0  501  0.00000000000E+00  0.00000000000E+00 -0.83561423567E+03  0.83561423568E+03  0.25500000920E-02 0. -1.
    10030    2    1    2    0    0  0.00000000000E+00  0.00000000000E+00  0.97614964356E+03  0.26473781149E+04  0.24608418797E+04 0.  0.
        2    1    3    3  502    0  0.40316154750E+03 -0.76741365362E+03  0.14274615624E+04  0.16700627118E+04  0.25500000920E-02 0.  1.
       -2    1    3    3    0  502 -0.40316154750E+03  0.76741365362E+03 -0.45131191883E+03  0.97731540314E+03  0.25500000920E-02 0. -1.
</event>
<event>
 5   0  0.1337854E-06  0.2676858E+04  0.7818609E-02  0.8342553E-01
        2   -1    0    0  501    0  0.00000000000E+00  0.00000000000E+00  0.19142058568E+04  0.19142058568E+04  0.25500000920E-02 0. -1.
       -2   -1    0    0    0  501  0.00000000000E+00  0.00000000000E+00 -0.93584086307E+03  0.93584086307E+03  0.25500000920E-02 0.  1.
    10030    2    1    2    0    0  0.00000000000E+00  0.00000000000E+00  0.97836499372E+03  0.28500467199E+04  0.26768579052E+04 0.  0.
        3    1    3    3  502    0  0.24032150051E+03  0.48437325772E+03  0.17927406190E+04  0.18725092292E+04  0.10100000352E+00 0. -1.
       -3    1    3    3    0  502 -0.24032150051E+03 -0.48437325772E+03 -0.81437562525E+03  0.97753749064E+03  0.10100000352E+00 0.  1.
</event>
<event>
 5   0  0.1372748E-06  0.3820765E+04  0.7818609E-02  0.8041713E-01
        2   -1    0    0  501    0  0.00000000000E+00  0.00000000000E+00  0.25785282390E+04  0.25785282390E+04  0.25500000920E-02 0.  1.
       -2   -1    0    0    0  501  0.00000000000E+00  0.00000000000E+00 -0.14153660201E+04  0.14153660201E+04  0.25500000920E-02 0. -1.
    10030    2    1    2    0    0  0.00000000000E+00  0.00000000000E+00  0.11631622190E+04  0.39938942591E+04  0.38207649765E+04 0.  0.
        1    1    3    3  502    0  0.42712187029E+03 -0.60074177950E+03  0.24238947418E+04  0.25334935361E+04  0.50400001928E-02 0.  1.
       -1    1    3    3    0  502 -0.42712187029E+03  0.60074177950E+03 -0.12607325229E+04  0.14604007231E+04  0.50400001928E-02 0. -1.
</event>
<event>
 5   0  0.1184616E-06  0.2367839E+04  0.7818609E-02  0.8451643E-01
        2   -1    0    0  501    0  0.00000000000E+00  0.00000000000E+00  0.49742606440E+03  0.49742606440E+03  0.25500000920E-02 0. -1.
       -2   -1    0    0    0  501  0.00000000000E+00  0.00000000000E+00 -0.28178361862E+04  0.28178361862E+04  0.25500000920E-02 0.  1.
    10030    2    1    2    0    0  0.00000000000E+00  0.00000000000E+00 -0.23204101218E+04  0.33152622506E+04  0.23678388157E+04 0.  0.
        5    1    3    3  502    0 -0.19337499188E+03 -0.79587599585E+03 -0.23571498278E+04  0.24953937342E+04  0.46999998093E+01 0.  1.
       -5    1    3    3    0  502  0.19337499188E+03  0.79587599585E+03  0.36739705903E+02  0.81986851644E+03  0.46999998093E+01 0. -1.
</event>
<event>
 5   0  0.1079205E-06  0.3236331E+04  0.7818609E-02  0.8179288E-01
        1   -1    0    0  501    0  0.00000000000E+00  0.00000000000E+00  0.22314456616E+04  0.22314456617E+04  0.50400001928E-02 0. -1.
       -1   -1    0    0    0  501  0.00000000000E+00  0.00000000000E+00 -0.11734365491E+04  0.11734365491E+04  0.50400001928E-02 0.  1.
    10030    2    1    2    0    0  0.00000000000E+00  0.00000000000E+00  0.10580091125E+04  0.34048822108E+04  0.32363311924E+04 0.  0.
        4    1    3    3  502    0 -0.47399161060E+03 -0.13237841680E+04  0.13715799547E+04  0.19642570492E+04  0.12699999809E+01 0. -1.
       -4    1    3    3    0  502  0.47399161060E+03  0.13237841680E+04 -0.31357084216E+03  0.14406251616E+04  0.12699999809E+01 0.  1.
</event>
<event>
 5   0  0.1214844E-06  0.3774800E+04  0.7818609E-02  0.8051585E-01
       -2   -1    0    0    0  501  0.00000000000E+00  0.00000000000E+00  0.14816036939E+04  0.14816036939E+04  0.25500000920E-02 0.  1.
        2   -1    0    0  501    0  0.00000000000E+00  0.00000000000E+00 -0.24043393206E+04  0.24043393206E+04  0.25500000920E-02 0. -1.
    10030    2    1    2    0    0  0.00000000000E+00  0.00000000000E+00 -0.92273562672E+03  0.38859430145E+04  0.37747996073E+04 0.  0.
        4    1    3    3  502    0 -0.61399861083E+03  0.52637573125E+03  0.12941913115E+04  0.15261056543E+04  0.12699999809E+01 0.  1.
       -4    1    3    3    0  502  0.61399861083E+03 -0.52637573125E+03 -0.22169269382E+04  0.23598373602E+04  0.12699999809E+01 0. -1.
</event>
<event>
 5   0  0.1079205E-06  0.3801543E+04  0.7818609E-02  0.8045824E-01
        1   -1    0    0  501    0  0.00000000000E+00  0.00000000000E+00  0.25642368685E+04  0.25642368685E+04  0.50400001928E-02 0. -1.
       -1   -1    0    0    0  501  0.00000000000E+00  0.00000000000E+00 -0.14089696007E+04  0.14089696007E+04  0.50400001928E-02 0.  1.
    10030    2    1    2    0    0  0.00000000000E+00  0.00000000000E+00  0.11552672678E+04  0.39732064692E+04  0.38015427377E+04 0.  0.
        4    1    3    3  502    0 -0.13590512033E+04  0.29079487757E+03 -0.77758731901E+03  0.15925531343E+04  0.12699999809E+01 0.  1.
       -4    1    3    3    0  502  0.13590512033E+04 -0.29079487757E+03  0.19328545868E+04  0.23806533349E+04  0.12699999809E+01 0. -1.
</event>
<event>
 5   0  0.4795023E-07  0.2873487E+04  0.7818609E-02  0.8280810E-01
        1   -1    0    0  501    0  0.00000000000E+00  0.00000000000E+00  0.23265465127E+04  0.23265465127E+04  0.50400001928E-02 0. -1.
       -1   -1    0    0    0  501  0.00000000000E+00  0.00000000000E+00 -0.88725125476E+03  0.88725125477E+03  0.50400001928E-02 0.  1.
    10030    2    1    2    0    0  0.00000000000E+00  0.00000000000E+00  0.14392952580E+04  0.32137977675E+04  0.28734866018E+04 0.  0.
        3    1    3    3  502    0 -0.82629642576E+03 -0.39259823890E+03 -0.51940690780E+03  0.10519898795E+04  0.10100000352E+00 0.  1.
       -3    1    3    3    0  502  0.82629642576E+03  0.39259823890E+03  0.19587021658E+04  0.21618078880E+04  0.10100000352E+00 0. -1.
</event>
<event>
 5   0  0.1372748E-06  0.3841317E+04  0.7818609E-02  0.8037346E-01
        2   -1    0    0  501    0  0.00000000000E+00  0.00000000000E+00  0.22818044376E+04  0.22818044376E+04  0.25500000920E-02 0. -1.
       -2   -1    0    0    0  501  0.00000000000E+00  0.00000000000E+00 -0.16166720191E+04  0.16166720191E+04  0.25500000920E-02 0.  1.
    10030    2    1    2    0    0  0.00000000000E+00  0.00000000000E+00  0.66513241856E+03  0.38984764567E+04  0.38413171633E+04 0.  0.
        1    1    3    3  502    0  0.37663205594E+03  0.16956711874E+04 -0.49924981792E+03  0.18073192474E+04  0.50400001928E-02 0.  1.
       -1    1    3    3    0  502 -0.37663205594E+03 -0.16956711874E+04  0.11643822365E+04  0.20911572093E+04  0.50400001928E-02 0. -1.
</event>
<event>
 5   0  0.1214844E-06  0.3830867E+04  0.7818609E-02  0.8039563E-01
        2   -1    0    0  501    0  0.00000000000E+00  0.00000000000E+00  0.11547955664E+04  0.11547955664E+04  0.25500000920E-02 0. -1.
       -2   -1    0    0    0  501  0.00000000000E+00  0.00000000000E+00 -0.31770862438E+04  0.31770862438E+04  0.25500000920E-02 0.  1.
    10030    2    1    2    0    0  0.00000000000E+00  0.00000000000E+00 -0.20222906774E+04  0.43318818101E+04  0.38308667992E+04 0.  0.
        4    1    3    3  502    0 -0.58837182988E+03  0.11331043829E+04  0.60345247975E+03  0.14121839331E+04  0.12699999809E+01 0. -1.
       -4    1    3    3    0  502  0.58837182988E+03 -0.11331043829E+04 -0.26257431572E+04  0.29196978770E+04  0.12699999809E+01 0.  1.
</event>
<event>
 5   0  0.1372748E-06  0.2192433E+04  0.7818609E-02  0.8521584E-01
       -2   -1    0    0    0  501  0.00000000000E+00  0.00000000000E+00  0.10260155684E+04  0.10260155684E+04  0.25500000920E-02 0. -1.
        2   -1    0    0  501    0  0.00000000000E+00  0.00000000000E+00 -0.11712208105E+04  0.11712208105E+04  0.25500000920E-02 0.  1.
    10030    2    1    2    0    0  0.00000000000E+00  0.00000000000E+00 -0.14520524214E+03  0.21972363789E+04  0.21924331557E+04 0.  0.
        1    1    3    3  502    0  0.45618749358E+03 -0.30915810103E+03 -0.10223099797E+04  0.11613799789E+04  0.50400001928E-02 0.  1.
       -1    1    3    3    0  502 -0.45618749358E+03  0.30915810103E+03  0.87710473757E+03  0.10358564000E+04  0.50400001928E-02 0. -1.
</event>
<event>
 5   0  0.1337854E-06  0.3749695E+04  0.7818609E-02  0.8057037E-01
        2   -1    0    0  501    0  0.00000000000E+00  0.00000000000E+00  0.26324844765E+04  0.26324844765E+04  0.25500000920E-02 0. -1.
       -2   -1    0    0    0  501  0.00000000000E+00  0.00000000000E+00 -0.13352610168E+04  0.13352610168E+04  0.25500000920E-02 0.  1.
    10030    2    1    2    0    0  0.00000000000E+00  0.00000000000E+00  0.12972234597E+04  0.39677454933E+04  0.37496954003E+04 0.  0.
        3    1    3    3  502    0  0.10253249393E+04  0.15522987518E+04  0.89480252716E+03  0.20643629087E+04  0.10100000352E+00 0. -1.
       -3    1    3    3    0  502 -0.10253249393E+04 -0.15522987518E+04  0.40242093253E+03  0.19033825846E+04  0.10100000352E+00 0.  1.
</event>
<event>
 5   0  0.1341932E-06  0.3797628E+04  0.7818609E-02  0.8046664E-01
        2   -1    0    0  501    0  0.00000000000E+00  0.00000000000E+00  0.31112074550E+04  0.31112074550E+04  0.25500000920E-02 0.  1.
       -2   -1    0    0    0  501  0.00000000000E+00  0.00000000000E+00 -0.11588731040E+04  0.11588731040E+04  0.25500000920E-02 0. -1.
    10030    2    1    2    0    0  0.00000000000E+00  0.00000000000E+00  0.19523343510E+04  0.42700805590E+04  0.37976280179E+04 0.  0.
        2    1    3    3  502    0 -0.13658251415E+04  0.12201372988E+04  0.15398096681E+04  0.23927446916E+04  0.25500000920E-02 0.  1.
       -2    1    3    3    0  502  0.13658251415E+04 -0.12201372988E+04  0.41252468290E+03  0.18773358674E+04  0.25500000920E-02 0. -1.
</event>
<event>
 5   0  0.1372748E-06  0.3859487E+04  0.7818609E-02  0.8033508E-01
        2   -1    0    0  501    0  0.00000000000E+00  0.00000000000E+00  0.22666005184E+04  0.22666005184E+04  0.25500000920E-02 0.  1.
       -2   -1    0    0    0  501  0.00000000000E+00  0.00000000000E+00 -0.16429493209E+04  0.16429493209E+04  0.25500000920E-02 0. -1.
    10030    2    1    2    0    0  0.00000000000E+00  0.00000000000E+00  0.62365119750E+03  0.39095498393E+04  0.38594868998E+04 0.  0.
        1    1    3    3  502    0 -0.13857466853E+03 -0.10497224272E+04  0.19460689244E+04  0.22154693343E+04  0.50400001928E-02 0.  1.
       -1    1    3    3    0  502  0.13857466853E+03  0.10497224272E+04 -0.13224177269E+04  0.16940805050E+04  0.50400001928E-02 0. -1.
</event>
<event>
 5   0  0.1184616E-06  0.3673380E+04  0.7818609E-02  0.8073887E-01
        2   -1    0    0  501    0  0.00000000000E+00  0.00000000000E+00  0.25321804383E+04  0.25321804383E+04  0.25500000920E-02 0. -1.
       -2   -1    0    0    0  501  0.00000000000E+00  0.00000000000E+00 -0.13322235187E+04  0.13322235187E+04  0.25500000920E-02 0.  1.
    10030    2    1    2    0    0  0.00000000000E+00  0.00000000000E+00  0.11999569196E+04  0.38644039570E+04  0.36733800965E+04 0.  0.
        5    1    3    3  502    0 -0.38571747575E+02  0.43529376910E+03 -0.12767297250E+04  0.13494551959E+04  0.46999998093E+01 0.  1.
       -5    1    3    3    0  502  0.38571747575E+02 -0.43529376910E+03  0.24766866446E+04  0.25149487611E+04  0.46999998093E+01 0. -1.
</event>
<event>
 5   0  0.1341932E-06  0.2679632E+04  0.7818609E-02  0.8341644E-01
        2   -1    0    0  501    0  0.00000000000E+00  0.00000000000E+00  0.17975486691E+04  0.17975486691E+04  0.25500000920E-02 0.  1.
       -2   -1    0    0    0  501  0.00000000000E+00  0.00000000000E+00 -0.99864173602E+03  0.99864173602E+03  0.25500000920E-02 0. -1.
    10030    2    1    2    0    0  0.00000000000E+00  0.00000000000E+00  0.79890693313E+03  0.27961904052E+04  0.26796321565E+04 0.  0.
        2    1    3    3  502    0 -0.12147406027E+04  0.15727059703E+03  0.96600491321E+03  0.15599661102E+04  0.25500000920E-02 0.  1.
       -2    1    3    3    0  502  0.12147406027E+04 -0.15727059703E+03 -0.16709798009E+03  0.12362242950E+04  0.25500000920E-02 0. -1.
</event>
<event>
 5   0  0.5284458E-07  0.2378808E+04  0.7818609E-02  0.8447480E-01
       -1   -1    0    0    0  501  0.00000000000E+00  0.00000000000E+00  0.80936991727E+03  0.80936991729E+03  0.50400001928E-02 0. -1.
        1   -1    0    0  501    0  0.00000000000E+00  0.00000000000E+00 -0.17478800434E+04  0.17478800434E+04  0.50400001928E-02 0.  1.
    10030    2    1    2    0    0  0.00000000000E+00  0.00000000000E+00 -0.93851012617E+03  0.25572499607E+04  0.23788077066E+04 0.  0.
        5    1    3    3  502    0  0.35116299494E+03  0.10679771402E+04 -0.51838570204E+02  0.11254332270E+04  0.46999998093E+01 0. -1.
       -5    1    3    3    0  502 -0.35116299494E+03 -0.10679771402E+04 -0.88667155596E+03  0.14318167338E+04  0.46999998093E+01 0.  1.
</event>
<event>
 5   0  0.4795023E-07  0.2543194E+04  0.7818609E-02  0.8387757E-01
        1   -1    0    0  501    0  0.00000000000E+00  0.00000000000E+00  0.13150758208E+04  0.13150758208E+04  0.50400001928E-02 0.  1.
       -1   -1    0    0    0  501  0.00000000000E+00  0.00000000000E+00 -0.12295561365E+04  0.12295561365E+04  0.50400001928E-02 0. -1.
    10030    2    1    2    0    0  0.00000000000E+00  0.00000000000E+00  0.85519684275E+02  0.25446319574E+04  0.25431944837E+04 0.  0.
        3    1    3    3  502    0  0.79749295792E+03 -0.23760453467E+03 -0.91929733188E+03  0.12399832771E+04  0.10100000352E+00 0. -1.
       -3    1    3    3    0  502 -0.79749295792E+03  0.23760453467E+03  0.10048170162E+04  0.13046486803E+04  0.10100000352E+00 0.  1.
</event>
<event>
 5   0  0.1214844E-06  0.3783174E+04  0.7818609E-02  0.8049775E-01
        2   -1    0    0  501    0  0.00000000000E+00  0.00000000000E+00  0.22595129878E+04  0.22595129878E+04  0.25500000920E-02 0.  1.
       -2   -1    0    0    0  501  0.00000000000E+00  0.00000000000E+00 -0.15835717937E+04  0.15835717937E+04  0.25500000920E-02 0. -1.
    10030    2    1    2    0    0  0.00000000000E+00  0.00000000000E+00  0.67594119415E+03  0.38430847815E+04  0.37831738183E+04 0.  0.
        4    1    3    3  502    0  0.32570767087E+03  0.12188870080E+04 -0.10937200759E+04  0.16697293920E+04  0.12699999809E+01 0. -1.
       -4    1    3    3    0  502 -0.32570767087E+03 -0.12188870080E+04  0.17696612701E+04  0.21733553894E+04  0.12699999809E+01 0.  1.
</event>
<event>
 5   0  0.1184616E-06  0.3687079E+04  0.7818609E-02  0.8070831E-01
        2   -1    0    0  501    0  0.00000000000E+00  0.00000000000E+00  0.21275132566E+04  0.21275132566E+04  0.25500000920E-02 0.  1.
       -2   -1    0    0    0  501  0.00000000000E+00  0.00000000000E+00 -0.15974695947E+04  0.15974695947E+04  0.25500000920E-02 0. -1.
    10030    2    1    2    0    0  0.00000000000E+00  0.00000000000E+00  0.53004366190E+03  0.37249828512E+04  0.36870789195E+04 0.  0.
        5    1    3    3  502    0  0.16012166391E+03  0.18310306813E+04  0.40897646771E+03  0.18829753435E+04  0.46999998093E+01 0.  1.
       -5    1    3    3    0  502 -0.16012166391E+03 -0.18310306813E+04  0.12106719419E+03  0.18420075077E+04  0.46999998093E+01 0. -1.
</event>
<event>
 5   0  0.1184616E-06  0.3750468E+04  0.7818609E-02  0.8056869E-01
        2   -1    0    0  501    0  0.00000000000E+00  0.00000000000E+00  0.22641387244E+04  0.22641387244E+04  0.25500000920E-02 0. -1.
       -2   -1    0    0    0  501  0.00000000000E+00  0.00000000000E+00 -0.15531305960E+04  0.15531305960E+04  0.25500000920E-02 0.  1.
    10030    2    1    2    0    0  0.00000000000E+00  0.00000000000E+00  0.71100812840E+03  0.38172693204E+04  0.37504683049E+04 0.  0.
        5    1    3    3  502    0  0.94472866992E+03  0.13747503596E+04  0.12275197035E+04  0.20710571029E+04  0.46999998093E+01 0. -1.
       -5    1    3    3    0  502 -0.94472866992E+03 -0.13747503596E+04 -0.51651157513E+03  0.17462122174E+04  0.46999998093E+01 0.  1.
</event>
<event>
 5   0  0.1079205E-06  0.2228292E+04  0.7818609E-02  0.8506744E-01
       -1   -1    0    0    0  501  0.00000000000E+00  0.00000000000E+00  0.75085739342E+03  0.75085739344E+03  0.50400001928E-02 0. -1.
        1   -1    0    0  501    0  0.00000000000E+00  0.00000000000E+00 -0.16532057455E+04  0.16532057455E+04  0.50400001928E-02 0.  1.
    10030    2    1    2    0    0  0.00000000000E+00  0.00000000000E+00 -0.90234835210E+03  0.24040631390E+04  0.22282924017E+04 0.  0.
        4    1    3    3  502    0  0.39027652204E+03 -0.71252379543E+03 -0.12737561043E+04  0.15107819660E+04  0.12699999809E+01 0.  1.
       -4    1    3    3    0  502 -0.39027652204E+03  0.71252379543E+03  0.37140775217E+03  0.89328117297E+03  0.12699999809E+01 0. -1.
</event>
<event>
 5   0  0.1372748E-06  0.2166211E+04  0.7818609E-02  0.8532625E-01
        2   -1    0    0  501    0  0.00000000000E+00  0.00000000000E+00  0.17777785610E+04  0.17777785610E+04  0.25500000920E-02 0.  1.
       -2   -1    0    0    0  501  0.00000000000E+00  0.00000000000E+00 -0.65987822683E+03  0.65987822684E+03  0.25500000920E-02 0. -1.
    10030    2    1    2    0    0  0.00000000000E+00  0.00000000000E+00  0.11179003342E+04  0.24376567878E+04  0.21662108527E+04 0.  0.
        1    1    3    3  502    0 -0.21173886476E+03  0.46671150859E+03  0.16327005024E+04  0.17112463031E+04  0.50400001928E-02 0.  1.
       -1    1    3    3    0  502  0.21173886476E+03 -0.46671150859E+03 -0.51480016827E+03  0.72641048477E+03  0.50400001928E-02 0. -1.
</event>
<event>
 5   0  0.1214844E-06  0.2027383E+04  0.7818609E-02  0.8593924E-01
        2   -1    0    0  501    0  0.00000000000E+00  0.00000000000E+00  0.90764853423E+03  0.90764853424E+03  0.25500000920E-02 0.  1.
       -2   -1    0    0    0  501  0.00000000000E+00  0.00000000000E+00 -0.11321234624E+04  0.11321234624E+04  0.25500000920E-02 0. -1.
    10030    2    1    2    0    0  0.00000000000E+00  0.00000000000E+00 -0.22447492815E+03  0.20397719966E+04  0.20273827475E+04 0.  0.
        4    1    3    3  502    0 -0.19114280915E+03  0.97824835838E+03 -0.29792740259E+03  0.10403209958E+04  0.12699999809E+01 0.  1.
       -4    1    3    3    0  502  0.19114280915E+03 -0.97824835838E+03  0.73452474442E+02  0.99945100083E+03  0.12699999809E+01 0. -1.
</event>
<event>
 5   0  0.1341932E-06  0.3685599E+04  0.7818609E-02  0.8071161E-01
        2   -1    0    0  501    0  0.00000000000E+00  0.00000000000E+00  0.27605515804E+04  0.27605515804E+04  0.25500000920E-02 0. -1.
       -2   -1    0    0    0  501  0.00000000000E+00  0.00000000000E+00 -0.12301565313E+04  0.12301565313E+04  0.25500000920E-02 0.  1.
    10030    2    1    2    0    0  0.00000000000E+00  0.00000000000E+00  0.15303950492E+04  0.39907081117E+04  0.36855993035E+04 0.  0.
        2    1    3    3  502    0  0.12324256503E+04  0.85311397072E+03  0.19259673326E+04  0.24404972028E+04  0.25500000920E-02 0. -1.
       -2    1    3    3    0  502 -0.12324256503E+04 -0.85311397072E+03 -0.39557228346E+03  0.15502109089E+04  0.25500000920E-02 0.  1.
</event>
<event>
 5   0  0.1341932E-06  0.3587272E+04  0.7818609E-02  0.8093413E-01
        2   -1    0    0  501    0  0.00000000000E+00  0.00000000000E+00  0.19612437178E+04  0.19612437178E+04  0.25500000920E-02 0.  1.
       -2   -1    0    0    0  501  0.00000000000E+00  0.00000000000E+00 -0.16403519879E+04  0.16403519879E+04  0.25500000920E-02 0. -1.
    10030    2    1    2    0    0  0.00000000000E+00  0.00000000000E+00  0.32089172988E+03  0.36015957057E+04  0.35872719614E+04 0.  0.
        2    1    3    3  502    0  0.12331350806E+04 -0.10828768369E+04  0.88713541058E+03  0.18655437834E+04  0.25500000920E-02 0. -1.
       -2    1    3    3    0  502 -0.12331350806E+04  0.10828768369E+04 -0.56624368070E+03  0.17360519223E+04  0.25500000920E-02 0.  1.
</event>
<event>
 5   0  0.4255250E-07  0.3838610E+04  0.7818609E-02  0.8037920E-01
       -1   -1    0    0    0  501  0.00000000000E+00  0.00000000000E+00  0.20928063533E+04  0.20928063533E+04  0.50400001928E-02 0.  1.
        1   -1    0    0  501    0  0.00000000000E+00  0.00000000000E+00 -0.17601873471E+04  0.17601873471E+04  0.50400001928E-02 0. -1.
    10030    2    1    2    0    0  0.00000000000E+00  0.00000000000E+00  0.33261900622E+03  0.38529937005E+04  0.38386097812E+04 0.  0.
        2    1    3    3  502    0  0.73809536768E+03  0.46583629088E+03 -0.15494649860E+04  0.17783784649E+04  0.25500000920E-02 0. -1.
       -2    1    3    3    0  502 -0.73809536768E+03 -0.46583629088E+03  0.18820839922E+04  0.20746152355E+04  0.25500000920E-02 0.  1.
</event>
<event>
 5   0  0.5284458E-07  0.2704683E+04  0.7818609E-02  0.8333487E-01
        1   -1    0    0  501    0  0.00000000000E+00  0.00000000000E+00  0.25260605265E+04  0.25260605265E+04  0.50400001928E-02 0.  1.
       -1   -1    0    0    0  501  0.00000000000E+00  0.00000000000E+00 -0.72398407698E+03  0.72398407700E+03  0.50400001928E-02 0. -1.
    10030    2    1    2    0    0  0.00000000000E+00  0.00000000000E+00  0.18020764495E+04  0.32500446035E+04  0.27046830489E+04 0.  0.
        5    1    3    3  502    0 -0.13286647883E+04 -0.25186897664E+03  0.89602471329E+03  0.16222424227E+04  0.46999998093E+01 0.  1.
       -5    1    3    3    0  502  0.13286647883E+04  0.25186897664E+03  0.90605173625E+03  0.16278021808E+04  0.46999998093E+01 0. -1.
</event>
<event>
 5   0  0.1184616E-06  0.3917183E+04  0.7818609E-02  0.8021465E-01
        2   -1    0    0  501    0  0.00000000000E+00  0.00000000000E+00  0.16796894683E+04  0.16796894683E+04  0.25500000920E-02 0.  1.
       -2   -1    0    0    0  501  0.00000000000E+00  0.00000000000E+00 -0.22838030909E+04  0.22838030909E+04  0.25500000920E-02 0. -1.
    10030    2    1    2    0    0  0.00000000000E+00  0.00000000000E+00 -0.60411362259E+03  0.39634925592E+04  0.39171826608E+04 0.  0.
        5    1    3    3  502    0 -0.11620588923E+04  0.36755868440E+03 -0.18533415691E+04  0.22181923535E+04  0.46999998093E+01 0. -1.
       -5    1    3    3    0  502  0.11620588923E+04 -0.36755868440E+03  0.12492279465E+04  0.17453002057E+04  0.46999998093E+01 0.  1.
</event>
<event>
 5   0  0.1372748E-06  0.3718304E+04  0.7818609E-02  0.8063917E-01
        2   -1    0    0  501    0  0.00000000000E+00  0.00000000000E+00  0.23379303928E+04  0.23379303928E+04  0.25500000920E-02 0.  1.
       -2   -1    0    0    0  501  0.00000000000E+00  0.00000000000E+00 -0.14784214005E+04  0.14784214005E+04  0.25500000920E-02 0. -1.
    10030    2    1    2    0    0  0.00000000000E+00  0.00000000000E+00  0.85950899228E+03  0.38163517934E+04  0.37183040896E+04 0.  0.
        1    1    3    3  502    0  0.64282998446E+03 -0.69220203682E+03  0.20732504099E+04  0.22783198439E+04  0.50400001928E-02 0.  1.
       -1    1    3    3    0  502 -0.64282998446E+03  0.69220203682E+03 -0.12137414176E+04  0.15380319495E+04  0.50400001928E-02 0. -1.
</event>
<event>
 5   0  0.8030324E-07  0.3876613E+04  0.7818609E-02  0.8029911E-01
        1   -1    0    0  501    0  0.00000000000E+00  0.00000000000E+00  0.19141489923E+04  0.19141489923E+04  0.50400001928E-02 0.  1.
       -1   -1    0    0    0  501  0.00000000000E+00  0.00000000000E+00 -0.19627685304E+04  0.19627685305E+04  0.50400001928E-02 0. -1.
    10030    2    1    2    0    0  0.00000000000E+00  0.00000000000E+00 -0.48619538132E+02  0.38769175228E+04  0.38766126475E+04 0.  0.
        1    1    3    3  502    0  0.10019503166E+04 -0.97845356971E+02  0.16321879831E+04  0.19176850010E+04  0.50400001928E-02 0.  1.
       -1    1    3    3    0  502 -0.10019503166E+04  0.97845356971E+02 -0.16808075213E+04  0.19592325218E+04  0.50400001928E-02 0. -1.
</event>
<event>
 5   0  0.5284458E-07  0.2389743E+04  0.7818609E-02  0.8443354E-01
        1   -1    0    0  501    0  0.00000000000E+00  0.00000000000E+00  0.12584446932E+04  0.12584446932E+04  0.50400001928E-02 0.  1.
       -1   -1    0    0    0  501  0.00000000000E+00  0.00000000000E+00 -0.11345096974E+04  0.11345096974E+04  0.50400001928E-02 0. -1.
    10030    2    1    2    0    0  0.00000000000E+00  0.00000000000E+00  0.12393499572E+03  0.23929543906E+04  0.23897428381E+04 0.  0.
        5    1    3    3  502    0  0.73803882601E+02  0.66371344584E+03 -0.93018849955E+03  0.11450918242E+04  0.46999998093E+01 0. -1.
       -5    1    3    3    0  502 -0.73803882601E+02 -0.66371344584E+03  0.10541234953E+04  0.12478625664E+04  0.46999998093E+01 0.  1.
</event>
<event>
 5   0  0.1184616E-06  0.3749964E+04  0.7818609E-02  0.8056979E-01
       -2   -1    0    0    0  501  0.00000000000E+00  0.00000000000E+00  0.14994639782E+04  0.14994639782E+04  0.25500000920E-02 0.  1.
        2   -1    0    0  501    0  0.00000000000E+00  0.00000000000E+00 -0.23445425821E+04  0.23445425821E+04  0.25500000920E-02 0. -1.
    10030    2    1    2    0    0  0.00000000000E+00  0.00000000000E+00 -0.84507860387E+03  0.38440065603E+04  0.37499638117E+04 0.  0.
        5    1    3    3  502    0 -0.13681915611E+04  0.89496268060E+03  0.51842938100E+03  0.17151377381E+04  0.46999998093E+01 0.  1.
       -5    1    3    3    0  502  0.13681915611E+04 -0.89496268060E+03 -0.13635079849E+04  0.21288688222E+04  0.46999998093E+01 0. -1.
</event>
<event>
 5   0  0.1184616E-06  0.3702711E+04  0.7818609E-02  0.8067361E-01
       -2   -1    0    0    0  501  0.00000000000E+00  0.00000000000E+00  0.14178695970E+04  0.14178695970E+04  0.25500000920E-02 0.  1.
        2   -1    0    0  501    0  0.00000000000E+00  0.00000000000E+00 -0.24173713620E+04  0.24173713620E+04  0.25500000920E-02 0. -1.
    10030    2    1    2    0    0  0.00000000000E+00  0.00000000000E+00 -0.99950176501E+03  0.38352409589E+04  0.37027110925E+04 0.  0.
        5    1    3    3  502    0 -0.14756734500E+04 -0.41317547103E+03 -0.15757640654E+04  0.21980401681E+04  0.46999998093E+01 0. -1.
       -5    1    3    3    0  502  0.14756734500E+04  0.41317547103E+03  0.57626230034E+03  0.16372007909E+04  0.46999998093E+01 0.  1.
</event>
<event>
 5   0  0.1341932E-06  0.3623589E+04  0.7818609E-02  0.8085110E-01
       -2   -1    0    0    0  501  0.00000000000E+00  0.00000000000E+00  0.26628789354E+04  0.26628789354E+04  0.25500000920E-02 0.  1.
        2   -1    0    0  501    0  0.00000000000E+00  0.00000000000E+00 -0.12327258973E+04  0.12327258973E+04  0.25500000920E-02 0. -1.
    10030    2    1    2    0    0  0.00000000000E+00  0.00000000000E+00  0.14301530381E+04  0.38956048326E+04  0.36235892841E+04 0.  0.
        2    1    3    3  502    0  0.14373644235E+04  0.11029102355E+04  0.70096273418E+03  0.19426209687E+04  0.25500000920E-02 0. -1.
       -2    1    3    3    0  502 -0.14373644235E+04 -0.11029102355E+04  0.72919030390E+03  0.19529838639E+04  0.25500000920E-02 0.  1.
</event>
<event>
 5   0  0.1214844E-06  0.3967877E+04  0.7818609E-02  0.8011058E-01
        2   -1    0    0  501    0  0.00000000000E+00  0.00000000000E+00  0.15772256087E+04  0.15772256087E+04  0.25500000920E-02 0. -1.
       -2   -1    0    0    0  501  0.00000000000E+00  0.00000000000E+00 -0.24955282375E+04  0.24955282375E+04  0.25500000920E-02 0.  1.
    10030    2    1    2    0    0  0.00000000000E+00  0.00000000000E+00 -0.91830262881E+03  0.40727538462E+04  0.39678765320E+04 0.  0.
        4    1    3    3  502    0 -0.14952141746E+04 -0.12298596341E+04 -0.14350662925E+02  0.19360856649E+04  0.12699999809E+01 0. -1.
       -4    1    3    3    0  502  0.14952141746E+04  0.12298596341E+04 -0.90395196589E+03  0.21366681813E+04  0.12699999809E+01 0.  1.
</event>
<event>
 5   0  0.4795023E-07  0.3885986E+04  0.7818609E-02  0.8027950E-01
        1   -1    0    0  501    0  0.00000000000E+00  0.00000000000E+00  0.30013146213E+04  0.30013146213E+04  0.50400001928E-02 0.  1.
       -1   -1    0    0    0  501  0.00000000000E+00  0.00000000000E+00 -0.12578559465E+04  0.12578559465E+04  0.50400001928E-02 0. -1.
    10030    2    1    2    0    0  0.00000000000E+00  0.00000000000E+00  0.17434586748E+04  0.42591705678E+04  0.38859858177E+04 0.  0.
        3    1    3    3  502    0  0.17571375759E+04  0.60113076305E+03  0.14978425087E+04  0.23858798893E+04  0.10100000352E+00 0. -1.
       -3    1    3    3    0  502 -0.17571375759E+04 -0.60113076305E+03  0.24561616608E+03  0.18732906785E+04  0.10100000352E+00 0.  1.
</event>
<event>
 5   0  0.4795023E-07  0.3780202E+04  0.7818609E-02  0.8050417E-01
        1   -1    0    0  501    0  0.00000000000E+00  0.00000000000E+00  0.30987886993E+04  0.30987886993E+04  0.50400001928E-02 0.  1.
       -1   -1    0    0    0  501  0.00000000000E+00  0.00000000000E+00 -0.11528637620E+04  0.11528637620E+04  0.50400001928E-02 0. -1.
    10030    2    1    2    0    0  0.00000000000E+00  0.00000000000E+00  0.19459249373E+04  0.42516524613E+04  0.37802016864E+04 0.  0.
        3    1    3    3  502    0 -0.53157601579E+03 -0.16328752929E+04  0.18611507385E+04  0.25323382208E+04  0.10100000352E+00 0.  1.
       -3    1    3    3    0  502  0.53157601579E+03  0.16328752929E+04  0.84774198788E+02  0.17193142405E+04  0.10100000352E+00 0. -1.
</event>
<event>
 5   0  0.4255250E-07  0.2788100E+04  0.7818609E-02  0.8306972E-01
        3   -1    0    0  501    0  0.00000000000E+00  0.00000000000E+00  0.16350968059E+04  0.16350968090E+04  0.10100000352E+00 0.  1.
       -3   -1    0    0    0  501  0.00000000000E+00  0.00000000000E+00 -0.11885385377E+04  0.11885385420E+04  0.10100000352E+00 0. -1.
    10030    2    1    2    0    0  0.00000000000E+00  0.00000000000E+00  0.44655826821E+03  0.28236353510E+04  0.27881001253E+04 0.  0.
        3    1    3    3  502    0 -0.31043119995E+03  0.67277547147E+03 -0.97261023220E+03  0.12226876293E+04  0.10100000352E+00 0. -1.
       -3    1    3    3    0  502  0.31043119995E+03 -0.67277547147E+03  0.14191685004E+04  0.16009477217E+04  0.10100000352E+00 0.  1.
</event>
<event>
 5   0  0.1372748E-06  0.3664978E+04  0.7818609E-02  0.8075768E-01
        2   -1    0    0  501    0  0.00000000000E+00  0.00000000000E+00  0.14374984739E+04  0.14374984739E+04  0.25500000920E-02 0. -1.
       -2   -1    0    0    0  501  0.00000000000E+00  0.00000000000E+00 -0.23360135331E+04  0.23360135331E+04  0.25500000920E-02 0.  1.
    10030    2    1    2    0    0  0.00000000000E+00  0.00000000000E+00 -0.89851505925E+03  0.37735120070E+04  0.36649779747E+04 0.  0.
        1    1    3    3  502    0 -0.14126381595E+04 -0.10054941859E+04 -0.10596464073E+04  0.20320963648E+04  0.50400001928E-02 0.  1.
       -1    1    3    3    0  502  0.14126381595E+04  0.10054941859E+04  0.16113134802E+03  0.17414156422E+04  0.50400001928E-02 0. -1.
</event>
<event>
 5   0  0.1214844E-06  0.3725829E+04  0.7818609E-02  0.8062262E-01
        2   -1    0    0  501    0  0.00000000000E+00  0.00000000000E+00  0.20773399733E+04  0.20773399733E+04  0.25500000920E-02 0. -1.
       -2   -1    0    0    0  501  0.00000000000E+00  0.00000000000E+00 -0.16706221506E+04  0.16706221506E+04  0.25500000920E-02 0.  1.
    10030    2    1    2    0    0  0.00000000000E+00  0.00000000000E+00  0.40671782276E+03  0.37479621239E+04  0.37258288601E+04 0.  0.
        4    1    3    3  502    0 -0.12341578881E+04 -0.10079212874E+04  0.11741814173E+04  0.19793318640E+04  0.12699999809E+01 0. -1.
       -4    1    3    3    0  502  0.12341578881E+04  0.10079212874E+04 -0.76746359453E+03  0.17686302599E+04  0.12699999809E+01 0.  1.
</event>
<event>
 5   0  0.8030324E-07  0.3837241E+04  0.7818609E-02  0.8038210E-01
        1   -1    0    0  501    0  0.00000000000E+00  0.00000000000E+00  0.17748741601E+04  0.17748741601E+04  0.50400001928E-02 0. -1.
       -1   -1    0    0    0  501  0.00000000000E+00  0.00000000000E+00 -0.20740088366E+04  0.20740088366E+04  0.50400001928E-02 0.  1.
    10030    2    1    2    0    0  0.00000000000E+00  0.00000000000E+00 -0.29913467646E+03  0.38488829967E+04  0.38372410359E+04 0.  0.
        1    1    3    3  502    0 -0.21563758742E+03 -0.19008519851E+04 -0.29498023891E+01  0.19130464029E+04  0.50400001928E-02 0.  1.
       -1    1    3    3    0  502  0.21563758742E+03  0.19008519851E+04 -0.29618487407E+03  0.19358365938E+04  0.50400001928E-02 0. -1.
</event>
<event>
 5   0  0.1372748E-06  0.3820718E+04  0.7818609E-02  0.8041723E-01
       -2   -1    0    0    0  501  0.00000000000E+00  0.00000000000E+00  0.16743042702E+04  0.16743042702E+04  0.25500000920E-02 0. -1.
        2   -1    0    0  501    0  0.00000000000E+00  0.00000000000E+00 -0.21796944484E+04  0.21796944484E+04  0.25500000920E-02 0.  1.
    10030    2    1    2    0    0  0.00000000000E+00  0.00000000000E+00 -0.50539017813E+03  0.38539987186E+04  0.38207181119E+04 0.  0.
        1    1    3    3  502    0  0.90419075406E+03  0.12210803112E+04 -0.14207425811E+04  0.20801700719E+04  0.50400001928E-02 0.  1.
       -1    1    3    3    0  502 -0.90419075406E+03 -0.12210803112E+04  0.91535240295E+03  0.17738286467E+04  0.50400001928E-02 0. -1.
</event>
<event>
 5   0  0.5284458E-07  0.3811758E+04  0.7818609E-02  0.8043636E-01
        1   -1    0    0  501    0  0.00000000000E+00  0.00000000000E+00  0.21962426185E+04  0.21962426185E+04  0.50400001928E-02 0. -1.
       -1   -1    0    0    0  501  0.00000000000E+00  0.00000000000E+00 -0.16539040432E+04  0.16539040432E+04  0.50400001928E-02 0.  1.
    10030    2    1    2    0    0  0.00000000000E+00  0.00000000000E+00  0.54233857528E+03  0.38501466617E+04  0.38117578866E+04 0.  0.
        5    1    3    3  502    0 -0.18582172440E+04  0.42338954182E+03  0.28234537364E+03  0.19266476144E+04  0.46999998093E+01 0. -1.
       -5    1    3    3    0  502  0.18582172440E+04 -0.42338954182E+03  0.25999320164E+03  0.19234990473E+04  0.46999998093E+01 0.  1.
</event>
<event>
 5   0  0.1341932E-06  0.3828381E+04  0.7818609E-02  0.8040092E-01
        2   -1    0    0  501    0  0.00000000000E+00  0.00000000000E+00  0.14401925326E+04  0.14401925326E+04  0.25500000920E-02 0. -1.
       -2   -1    0    0    0  501  0.00000000000E+00  0.00000000000E+00 -0.25441915751E+04  0.25441915751E+04  0.25500000920E-02 0.  1.
    10030    2    1    2    0    0  0.00000000000E+00  0.00000000000E+00 -0.11039990425E+04  0.39843841077E+04  0.38283812286E+04 0.  0.
        2    1    3    3  502    0  0.86164257934E+03 -0.25052336686E+02  0.12267590865E+04  0.14993309876E+04  0.25500000920E-02 0. -1.
       -2    1    3    3    0  502 -0.86164257934E+03  0.25052336686E+02 -0.23307581289E+04  0.24850531201E+04  0.25500000920E-02 0.  1.
</event>
<event>
 5   0  0.1341932E-06  0.2584403E+04  0.7818609E-02  0.8373518E-01
        2   -1    0    0  501    0  0.00000000000E+00  0.00000000000E+00  0.20864536909E+04  0.20864536909E+04  0.25500000920E-02 0. -1.
       -2   -1    0    0    0  501  0.00000000000E+00  0.00000000000E+00 -0.80029815254E+03  0.80029815254E+03  0.25500000920E-02 0.  1.
    10030    2    1    2    0    0  0.00000000000E+00  0.00000000000E+00  0.12861555384E+04  0.28867518435E+04  0.25844032458E+04 0.  0.
        2    1    3    3  502    0  0.64704916512E+03  0.11130569454E+04  0.51961807020E+03  0.13883700244E+04  0.25500000920E-02 0. -1.
       -2    1    3    3    0  502 -0.64704916512E+03 -0.11130569454E+04  0.76653746820E+03  0.14983818191E+04  0.25500000920E-02 0.  1.
</event>
<event>
 5   0  0.1214844E-06  0.3792685E+04  0.7818609E-02  0.8047726E-01
       -2   -1    0    0    0  501  0.00000000000E+00  0.00000000000E+00  0.16033113848E+04  0.16033113848E+04  0.25500000920E-02 0. -1.
        2   -1    0    0  501    0  0.00000000000E+00  0.00000000000E+00 -0.22429300539E+04  0.22429300539E+04  0.25500000920E-02 0.  1.
    10030    2    1    2    0    0  0.00000000000E+00  0.00000000000E+00 -0.63961866906E+03  0.38462414387E+04  0.37926852180E+04 0.  0.
        4    1    3    3  502    0  0.89338502264E+03 -0.16619578494E+04 -0.51188551341E+03  0.19550624245E+04  0.12699999809E+01 0.  1.
       -4    1    3    3    0  502 -0.89338502264E+03  0.16619578494E+04 -0.12773315565E+03  0.18911790142E+04  0.12699999809E+01 0. -1.
</event>
<event>
 5   0  0.1184616E-06  0.3202412E+04  0.7818609E-02  0.8188180E-01
        2   -1    0    0  501    0  0.00000000000E+00  0.00000000000E+00  0.23287804590E+04  0.23287804590E+04  0.25500000920E-02 0. -1.
       -2   -1    0    0    0  501  0.00000000000E+00  0.00000000000E+00 -0.11009455786E+04  0.11009455786E+04  0.25500000920E-02 0.  1.
    10030    2    1    2    0    0  0.00000000000E+00  0.00000000000E+00  0.12278348804E+04  0.34297260376E+04  0.32024119347E+04 0.  0.
        5    1    3    3  502    0  0.14600929146E+04 -0.38333598104E+03  0.11856861836E+04  0.19195550551E+04  0.46999998093E+01 0. -1.
       -5    1    3    3    0  502 -0.14600929146E+04  0.38333598104E+03  0.42148696830E+02  0.15101709825E+04  0.46999998093E+01 0.  1.
</event>
<event>
 5   0  0.1372748E-06  0.3777631E+04  0.7818609E-02  0.8050972E-01
       -2   -1    0    0    0  501  0.00000000000E+00  0.00000000000E+00  0.27544271774E+04  0.27544271774E+04  0.25500000920E-02 0. -1.
        2   -1    0    0  501    0  0.00000000000E+00  0.00000000000E+00 -0.12952326758E+04  0.12952326758E+04  0.25500000920E-02 0.  1.
    10030    2    1    2    0    0  0.00000000000E+00  0.00000000000E+00  0.14591945016E+04  0.40496598532E+04  0.37776310478E+04 0.  0.
        1    1    3    3  502    0 -0.89966359463E+03  0.53002948454E+03 -0.95768662007E+03  0.14168590263E+04  0.50400001928E-02 0.  1.
       -1    1    3    3    0  502  0.89966359463E+03 -0.53002948454E+03  0.24168811217E+04  0.26328008269E+04  0.50400001928E-02 0. -1.
</event>
<event>
 5   0  0.1184616E-06  0.2149764E+04  0.7818609E-02  0.8539633E-01
       -2   -1    0    0    0  501  0.00000000000E+00  0.00000000000E+00  0.17885839021E+04  0.17885839021E+04  0.25500000920E-02 0. -1.
        2   -1    0    0  501    0  0.00000000000E+00  0.00000000000E+00 -0.64597015605E+03  0.64597015606E+03  0.25500000920E-02 0.  1.
    10030    2    1    2    0    0  0.00000000000E+00  0.00000000000E+00  0.11426137461E+04  0.24345540582E+04  0.21497644730E+04 0.  0.
        5    1    3    3  502    0  0.21044179116E+03  0.10434070613E+04  0.40194342544E+03  0.11377893699E+04  0.46999998093E+01 0. -1.
       -5    1    3    3    0  502 -0.21044179116E+03 -0.10434070613E+04  0.74067032064E+03  0.12967646883E+04  0.46999998093E+01 0.  1.
</event>
<event>
 5   0  0.1079205E-06  0.3724859E+04  0.7818609E-02  0.8062475E-01
        1   -1    0    0  501    0  0.00000000000E+00  0.00000000000E+00  0.11732808907E+04  0.11732808907E+04  0.50400001928E-02 0. -1.
       -1   -1    0    0    0  501  0.00000000000E+00  0.00000000000E+00 -0.29563626551E+04  0.29563626551E+04  0.50400001928E-02 0.  1.
    10030    2    1    2    0    0  0.00000000000E+00  0.00000000000E+00 -0.17830817644E+04  0.41296435458E+04  0.37248590895E+04 0.  0.
        4    1    3    3  502    0  0.10394497392E+04  0.44206953129E+03  0.75017637863E+03  0.13559673458E+04  0.12699999809E+01 0. -1.
       -4    1    3    3    0  502 -0.10394497392E+04 -0.44206953129E+03 -0.25332581430E+04  0.27736762000E+04  0.12699999809E+01 0.  1.
</event>
<event>
 5   0  0.1214844E-06  0.1890873E+04  0.7818609E-02  0.8659413E-01
        2   -1    0    0  501    0  0.00000000000E+00  0.00000000000E+00  0.21860611410E+04  0.21860611410E+04  0.25500000920E-02 0.  1.
       -2   -1    0    0    0  501  0.00000000000E+00  0.00000000000E+00 -0.40888632834E+03  0.40888632835E+03  0.25500000920E-02 0. -1.
    10030    2    1    2    0    0  0.00000000000E+00  0.00000000000E+00  0.17771748127E+04  0.25949474693E+04  0.18908733574E+04 0.  0.
        4    1    3    3  502    0  0.78944646827E+03 -0.33606152269E+03  0.14335446861E+04  0.16706929860E+04  0.12699999809E+01 0.  1.
       -4    1    3    3    0  502 -0.78944646827E+03  0.33606152269E+03  0.34363012653E+03  0.92425448338E+03  0.12699999809E+01 0. -1.
</event>
<event>
 5   0  0.1341932E-06  0.3926449E+04  0.7818609E-02  0.8019551E-01
       -2   -1    0    0    0  501  0.00000000000E+00  0.00000000000E+00  0.13993668249E+04  0.13993668249E+04  0.25500000920E-02 0.  1.
        2   -1    0    0  501    0  0.00000000000E+00  0.00000000000E+00 -0.27542811782E+04  0.27542811782E+04  0.25500000920E-02 0. -1.
    10030    2    1    2    0    0  0.00000000000E+00  0.00000000000E+00 -0.13549143533E+04  0.41536480030E+04  0.39264486280E+04 0.  0.
        2    1    3    3  502    0  0.18933284346E+04  0.39833278565E+03 -0.10297244639E+04  0.21917331136E+04  0.25500000920E-02 0. -1.
       -2    1    3    3    0  502 -0.18933284346E+04 -0.39833278565E+03 -0.32518988935E+03  0.19619148895E+04  0.25500000920E-02 0.  1.
</event>
<event>
 5   0  0.4255250E-07  0.2618368E+04  0.7818609E-02  0.8361989E-01
       -1   -1    0    0    0  501  0.00000000000E+00  0.00000000000E+00  0.92290828646E+03  0.92290828647E+03  0.50400001928E-02 0. -1.
        1   -1    0    0  501    0  0.00000000000E+00  0.00000000000E+00 -0.18571326606E+04  0.18571326606E+04  0.50400001928E-02 0.  1.
    10030    2    1    2    0    0  0.00000000000E+00  0.00000000000E+00 -0.93422437418E+03  0.27800409471E+04  0.26183682870E+04 0.  0.
        2    1    3    3  502    0 -0.43953618842E+03 -0.86862681262E+03 -0.13965238520E+04  0.17023464599E+04  0.25500000920E-02 0.  1.
       -2    1    3    3    0  502  0.43953618842E+03  0.86862681262E+03  0.46229947779E+03  0.10776944872E+04  0.25500000920E-02 0. -1.
</event>
<event>
 5   0  0.1184616E-06  0.3819309E+04  0.7818609E-02  0.8042024E-01
       -2   -1    0    0    0  501  0.00000000000E+00  0.00000000000E+00  0.24409629977E+04  0.24409629977E+04  0.25500000920E-02 0. -1.
        2   -1    0    0  501    0  0.00000000000E+00  0.00000000000E+00 -0.14939922511E+04  0.14939922511E+04  0.25500000920E-02 0.  1.
    10030    2    1    2    0    0  0.00000000000E+00  0.00000000000E+00  0.94697074662E+03  0.39349552487E+04  0.38193087352E+04 0.  0.
        5    1    3    3  502    0 -0.91290242983E+03 -0.20691693780E+03 -0.12414122711E+04  0.15547771488E+04  0.46999998093E+01 0.  1.
       -5    1    3    3    0  502  0.91290242983E+03  0.20691693780E+03  0.21883830177E+04  0.23801781000E+04  0.46999998093E+01 0. -1.
</event>
<event>
 5   0  0.4255250E-07  0.3594274E+04  0.7818609E-02  0.8091805E-01
        1   -1    0    0  501    0  0.00000000000E+00  0.00000000000E+00  0.27976814130E+04  0.27976814130E+04  0.50400001928E-02 0. -1.
       -1   -1    0    0    0  501  0.00000000000E+00  0.00000000000E+00 -0.11544207155E+04  0.11544207155E+04  0.50400001928E-02 0.  1.
    10030    2    1    2    0    0  0.00000000000E+00  0.00000000000E+00  0.16432606976E+04  0.39521021285E+04  0.35942739898E+04 0.  0.
        2    1    3    3  502    0 -0.28664836023E+03 -0.24824231830E+02  0.27721920018E+04  0.27870830666E+04  0.25500000920E-02 0. -1.
       -2    1    3    3    0  502  0.28664836023E+03  0.24824231830E+02 -0.11289313043E+04  0.11650190619E+04  0.25500000920E-02 0.  1.
</event>
<event>
 5   0  0.5284458E-07  0.2345300E+04  0.7818609E-02  0.8460271E-01
        1   -1    0    0  501    0  0.00000000000E+00  0.00000000000E+00  0.11815490558E+04  0.11815490558E+04  0.50400001928E-02 0. -1.
       -1   -1    0    0    0  501  0.00000000000E+00  0.00000000000E+00 -0.11638178844E+04  0.11638178844E+04  0.50400001928E-02 0.  1.
    10030    2    1    2    0    0  0.00000000000E+00  0.00000000000E+00  0.17731171428E+02  0.23453669402E+04  0.23452999146E+04 0.  0.
        5    1    3    3  502    0  0.17598504406E+03 -0.63437023469E+03 -0.96156902167E+03  0.11653469028E+04  0.46999998093E+01 0.  1.
       -5    1    3    3    0  502 -0.17598504406E+03  0.63437023469E+03  0.97930019310E+03  0.11800200374E+04  0.46999998093E+01 0. -1.
</event>
<event>
 5   0  0.4795023E-07  0.3792116E+04  0.7818609E-02  0.8047849E-01
        1   -1    0    0  501    0  0.00000000000E+00  0.00000000000E+00  0.17016607800E+04  0.17016607801E+04  0.50400001928E-02 0.  1.
       -1   -1    0    0    0  501  0.00000000000E+00  0.00000000000E+00 -0.21126630627E+04  0.21126630627E+04  0.50400001928E-02 0. -1.
    10030    2    1    2    0    0  0.00000000000E+00  0.00000000000E+00 -0.41100228261E+03  0.38143238427E+04  0.37921159662E+04 0.  0.
        3    1    3    3  502    0  0.10050745877E+04 -0.30063855342E+03  0.13831397584E+04  0.17359821624E+04  0.10100000352E+00 0.  1.
       -3    1    3    3    0  502 -0.10050745877E+04  0.30063855342E+03 -0.17941420410E+04  0.20783416803E+04  0.10100000352E+00 0. -1.
</event>
<event>
 5   0  0.1372748E-06  0.2202304E+04  0.7818609E-02  0.8517470E-01
       -2   -1    0    0    0  501  0.00000000000E+00  0.00000000000E+00  0.84857910272E+03  0.84857910272E+03  0.25500000920E-02 0.  1.
        2   -1    0    0  501    0  0.00000000000E+00  0.00000000000E+00 -0.14289010587E+04  0.14289010587E+04  0.25500000920E-02 0. -1.
    10030    2    1    2    0    0  0.00000000000E+00  0.00000000000E+00 -0.58032195598E+03  0.22774801614E+04  0.22023038648E+04 0.  0.
        1    1    3    3  502    0 -0.63834638232E+03  0.30956891026E+03 -0.11610579826E+04  0.13606522895E+04  0.50400001928E-02 0. -1.
       -1    1    3    3    0  502  0.63834638232E+03 -0.30956891026E+03  0.58073602663E+03  0.91682787189E+03  0.50400001928E-02 0.  1.
</event>
<event>
 5   0  0.1337854E-06  0.3219021E+04  0.7818609E-02  0.8183812E-01
        2   -1    0    0  501    0  0.00000000000E+00  0.00000000000E+00  0.17564454632E+04  0.17564454632E+04  0.25500000920E-02 0.  1.
       -2   -1    0    0    0  501  0.00000000000E+00  0.00000000000E+00 -0.14748670006E+04  0.14748670006E+04  0.25500000920E-02 0. -1.
    10030    2    1    2    0    0  0.00000000000E+00  0.00000000000E+00  0.28157846263E+03  0.32313124638E+04  0.32190206287E+04 0.  0.
        3    1    3    3  502    0 -0.48368839602E+03  0.18783968270E+03  0.16701834708E+04  0.17489285426E+04  0.10100000352E+00 0.  1.
       -3    1    3    3    0  502  0.48368839602E+03 -0.18783968270E+03 -0.13886050082E+04  0.14823839212E+04  0.10100000352E+00 0. -1.
</event>
<event>
 5   0  0.1184616E-06  0.1885773E+04  0.7818609E-02  0.8661971E-01
        2   -1    0    0  501    0  0.00000000000E+00  0.00000000000E+00  0.21565597589E+04  0.21565597589E+04  0.25500000920E-02 0.  1.
       -2   -1    0    0    0  501  0.00000000000E+00  0.00000000000E+00 -0.41224682995E+03  0.41224682996E+03  0.25500000920E-02 0. -1.
    10030    2    1    2    0    0  0.00000000000E+00  0.00000000000E+00  0.17443129290E+04  0.25688065889E+04  0.18857729707E+04 0.  0.
        5    1    3    3  502    0  0.66073964445E+03 -0.66383798929E+03  0.10198477270E+04  0.13846910233E+04  0.46999998093E+01 0.  1.
       -5    1    3    3    0  502 -0.66073964445E+03  0.66383798929E+03  0.72446520196E+03  0.11841155656E+04  0.46999998093E+01 0. -1.
</event>
<event>
 5   0  0.1214844E-06  0.3663003E+04  0.7818609E-02  0.8076211E-01
        2   -1    0    0  501    0  0.00000000000E+00  0.00000000000E+00  0.10328156907E+04  0.10328156907E+04  0.25500000920E-02 0.  1.
       -2   -1    0    0    0  501  0.00000000000E+00  0.00000000000E+00 -0.32478182096E+04  0.32478182096E+04  0.25500000920E-02 0. -1.
    10030    2    1    2    0    0  0.00000000000E+00  0.00000000000E+00 -0.22150025189E+04  0.42806339004E+04  0.36630029252E+04 0.  0.
        4    1    3    3  502    0  0.10816858529E+04  0.14443307793E+04 -0.74118188670E+03  0.19507659743E+04  0.12699999809E+01 0. -1.
       -4    1    3    3    0  502 -0.10816858529E+04 -0.14443307793E+04 -0.14738206322E+04  0.23298679261E+04  0.12699999809E+01 0.  1.
</event>
<event>
 5   0  0.1372748E-06  0.3628658E+04  0.7818609E-02  0.8083959E-01
        2   -1    0    0  501    0  0.00000000000E+00  0.00000000000E+00  0.23245426946E+04  0.23245426946E+04  0.25500000920E-02 0.  1.
       -2   -1    0    0    0  501  0.00000000000E+00  0.00000000000E+00 -0.14161020461E+04  0.14161020461E+04  0.25500000920E-02 0. -1.
    10030    2    1    2    0    0  0.00000000000E+00  0.00000000000E+00  0.90844064856E+03  0.37406447407E+04  0.36286579701E+04 0.  0.
        1    1    3    3  502    0 -0.16021048588E+03 -0.15855390981E+04  0.13482740964E+04  0.20874493217E+04  0.50400001928E-02 0.  1.
       -1    1    3    3    0  502  0.16021048588E+03  0.15855390981E+04 -0.43983344788E+03  0.16531954190E+04  0.50400001928E-02 0. -1.
</event>
<event>
 5   0  0.4255250E-07  0.3870262E+04  0.7818609E-02  0.8031243E-01
        1   -1    0    0  501    0  0.00000000000E+00  0.00000000000E+00  0.19700301290E+04  0.19700301291E+04  0.50400001928E-02 0.  1.
       -1   -1    0    0    0  501  0.00000000000E+00  0.00000000000E+00 -0.19008500883E+04  0.19008500883E+04  0.50400001928E-02 0. -1.
    10030    2    1    2    0    0  0.00000000000E+00  0.00000000000E+00  0.69180040783E+02  0.38708802173E+04  0.38702619781E+04 0.  0.
        2    1    3    3  502    0 -0.17265490334E+04  0.59442799842E+03 -0.60614929136E+03  0.19239888704E+04  0.25500000920E-02 0. -1.
       -2    1    3    3    0  502  0.17265490334E+04 -0.59442799842E+03  0.67532933215E+03  0.19468913469E+04  0.25500000920E-02 0.  1.
</event>
<event>
 5   0  0.5284458E-07  0.3626556E+04  0.7818609E-02  0.8084436E-01
        1   -1    0    0  501    0  0.00000000000E+00  0.00000000000E+00  0.24720722726E+04  0.24720722726E+04  0.50400001928E-02 0. -1.
       -1   -1    0    0    0  501  0.00000000000E+00  0.00000000000E+00 -0.13300486578E+04  0.13300486578E+04  0.50400001928E-02 0.  1.
    10030    2    1    2    0    0  0.00000000000E+00  0.00000000000E+00  0.11420236148E+04  0.38021209304E+04  0.36265556155E+04 0.  0.
        5    1    3    3  502    0 -0.14681917858E+04  0.45973223721E+03  0.15771660769E+04  0.22032738763E+04  0.46999998093E+01 0. -1.
       -5    1    3    3    0  502  0.14681917858E+04 -0.45973223721E+03 -0.43514246209E+03  0.15988470541E+04  0.46999998093E+01 0.  1.
</event>
<event>
 5   0  0.1337854E-06  0.2960255E+04  0.7818609E-02  0.8255172E-01
        2   -1    0    0  501    0  0.00000000000E+00  0.00000000000E+00  0.16064663098E+04  0.16064663098E+04  0.25500000920E-02 0. -1.
       -2   -1    0    0    0  501  0.00000000000E+00  0.00000000000E+00 -0.13637246785E+04  0.13637246785E+04  0.25500000920E-02 0.  1.
    10030    2    1    2    0    0  0.00000000000E+00  0.00000000000E+00  0.24274163129E+03  0.29701909883E+04  0.29602552268E+04 0.  0.
        3    1    3    3  502    0 -0.11871369198E+04  0.84951328436E+03 -0.12401261019E+03  0.14650413046E+04  0.10100000352E+00 0.  1.
       -3    1    3    3    0  502  0.11871369198E+04 -0.84951328436E+03  0.36675424148E+03  0.15051496837E+04  0.10100000352E+00 0. -1.
</event>
<event>
 5   0  0.1337854E-06  0.3298562E+04  0.7818609E-02  0.8163261E-01
       -2   -1    0    0    0  501  0.00000000000E+00  0.00000000000E+00  0.10900454710E+04  0.10900454710E+04  0.25500000920E-02 0.  1.
        2   -1    0    0  501    0  0.00000000000E+00  0.00000000000E+00 -0.24954266863E+04  0.24954266863E+04  0.25500000920E-02 0. -1.
    10030    2    1    2    0    0  0.00000000000E+00  0.00000000000E+00 -0.14053812153E+04  0.35854721574E+04  0.32985624492E+04 0.  0.
        3    1    3    3  502    0  0.39941167407E+03  0.23504750322E+03  0.10178145527E+04  0.11183574956E+04  0.10100000352E+00 0.  1.
       -3    1    3    3    0  502 -0.39941167407E+03 -0.23504750322E+03 -0.24231957680E+04  0.24671146618E+04  0.10100000352E+00 0. -1.
</event>
<event>
 5   0  0.4255250E-07  0.3733573E+04  0.7818609E-02  0.8060562E-01
       -1   -1    0    0    0  501  0.00000000000E+00  0.00000000000E+00  0.13525929818E+04  0.13525929819E+04  0.50400001928E-02 0.  1.
        1   -1    0    0  501    0  0.00000000000E+00  0.00000000000E+00 -0.25764525572E+04  0.25764525572E+04  0.50400001928E-02 0. -1.
    10030    2    1    2    0    0  0.00000000000E+00  0.00000000000E+00 -0.12238595754E+04  0.39290455391E+04  0.37335728984E+04 0.  0.
        2    1    3    3  502    0  0.17429072917E+04  0.58669069077E+03 -0.27425675068E+03  0.18593408938E+04  0.25500000920E-02 0. -1.
       -2    1    3    3    0  502 -0.17429072917E+04 -0.58669069077E+03 -0.94960282471E+03  0.20697046453E+04  0.25500000920E-02 0.  1.
</event>
<event>
 5   0  0.4795023E-07  0.3691208E+04  0.7818609E-02  0.8069913E-01
        1   -1    0    0  501    0  0.00000000000E+00  0.00000000000E+00  0.21345922998E+04  0.21345922998E+04  0.50400001928E-02 0.  1.
       -1   -1    0    0    0  501  0.00000000000E+00  0.00000000000E+00 -0.15957400169E+04  0.15957400169E+04  0.50400001928E-02 0. -1.
    10030    2    1    2    0    0  0.00000000000E+00  0.00000000000E+00  0.53885228293E+03  0.37303323167E+04  0.36912081234E+04 0.  0.
        3    1    3    3  502    0  0.12295940001E+04  0.13759155771E+04  0.30456917375E+03  0.18702426238E+04  0.10100000352E+00 0.  1.
       -3    1    3    3    0  502 -0.12295940001E+04 -0.13759155771E+04  0.23428310918E+03  0.18600896929E+04  0.10100000352E+00 0. -1.
</event>
<event>
 5   0  0.1184616E-06  0.3843605E+04  0.7818609E-02  0.8036862E-01
        2   -1    0    0  501    0  0.00000000000E+00  0.00000000000E+00  0.19041153403E+04  0.19041153403E+04  0.25500000920E-02 0.  1.
       -2   -1    0    0    0  501  0.00000000000E+00  0.00000000000E+00 -0.19396535152E+04  0.19396535152E+04  0.25500000920E-02 0. -1.
    10030    2    1    2    0    0  0.00000000000E+00  0.00000000000E+00 -0.35538174938E+02  0.38437688555E+04  0.38436045651E+04 0.  0.
        5    1    3    3  502    0  0.25042003345E+02  0.28076662148E+02 -0.19392794673E+04  0.19396500569E+04  0.46999998093E+01 0. -1.
       -5    1    3    3    0  502 -0.25042003345E+02 -0.28076662148E+02  0.19037412924E+04  0.19041187986E+04  0.46999998093E+01 0.  1.
</event>
<event>
 5   0  0.8030324E-07  0.3589256E+04  0.7818609E-02  0.8092957E-01
       -1   -1    0    0    0  501  0.00000000000E+00  0.00000000000E+00  0.18648492994E+04  0.18648492994E+04  0.50400001928E-02 0. -1.
        1   -1    0    0  501    0  0.00000000000E+00  0.00000000000E+00 -0.17270508998E+04  0.17270508998E+04  0.50400001928E-02 0.  1.
    10030    2    1    2    0    0  0.00000000000E+00  0.00000000000E+00  0.13779839960E+03  0.35919001992E+04  0.35892560012E+04 0.  0.
        1    1    3    3  502    0 -0.11575866058E+04  0.59250940597E+03 -0.11687881897E+04  0.17484678946E+04  0.50400001928E-02 0.  1.
       -1    1    3    3    0  502  0.11575866058E+04 -0.59250940597E+03  0.13065865893E+04  0.18434323046E+04  0.50400001928E-02 0. -1.
</event>
<event>
 5   0  0.4795023E-07  0.3730376E+04  0.7818609E-02  0.8061263E-01
       -1   -1    0    0    0  501  0.00000000000E+00  0.00000000000E+00  0.16401693950E+04  0.16401693950E+04  0.50400001928E-02 0. -1.
        1   -1    0    0  501    0  0.00000000000E+00  0.00000000000E+00 -0.21210774410E+04  0.21210774410E+04  0.50400001928E-02 0.  1.
    10030    2    1    2    0    0  0.00000000000E+00  0.00000000000E+00 -0.48090804599E+03  0.37612468360E+04  0.37303760149E+04 0.  0.
        3    1    3    3  502    0  0.15783890152E+04 -0.10112813010E+03 -0.12372645549E+04  0.20080742943E+04  0.10100000352E+00 0. -1.
       -3    1    3    3    0  502 -0.15783890152E+04  0.10112813010E+03  0.75635650895E+03  0.17531725417E+04  0.10100000352E+00 0.  1.
</event>
<event>
 5   0  0.1214844E-06  0.3779021E+04  0.7818609E-02  0.8050672E-01
        2   -1    0    0  501    0  0.00000000000E+00  0.00000000000E+00  0.22717597618E+04  0.22717597618E+04  0.25500000920E-02 0.  1.
       -2   -1    0    0    0  501  0.00000000000E+00  0.00000000000E+00 -0.15715787523E+04  0.15715787523E+04  0.25500000920E-02 0. -1.
    10030    2    1    2    0    0  0.00000000000E+00  0.00000000000E+00  0.70018100958E+03  0.38433385141E+04  0.37790207049E+04 0.  0.
        4    1    3    3  502    0 -0.20062275232E+03 -0.89051804644E+03 -0.13324473794E+04  0.16151438053E+04  0.12699999809E+01 0. -1.
       -4    1    3    3    0  502  0.20062275232E+03  0.89051804644E+03  0.20326283890E+04  0.22281947088E+04  0.12699999809E+01 0.  1.
</event>
<event>
 5   0  0.5284458E-07  0.3704551E+04  0.7818609E-02  0.8066954E-01
        1   -1    0    0  501    0  0.00000000000E+00  0.00000000000E+00  0.19290014616E+04  0.19290014616E+04  0.50400001928E-02 0. -1.
       -1   -1    0    0    0  501  0.00000000000E+00  0.00000000000E+00 -0.17786012910E+04  0.17786012910E+04  0.50400001928E-02 0.  1.
    10030    2    1    2    0    0  0.00000000000E+00  0.00000000000E+00  0.15040017056E+03  0.37076027526E+04  0.37045509795E+04 0.  0.
        5    1    3    3  502    0 -0.44843461907E+03  0.17971668239E+04  0.75646986826E+02  0.18538195050E+04  0.46999998093E+01 0.  1.
       -5    1    3    3    0  502  0.44843461907E+03 -0.17971668239E+04  0.74753183733E+02  0.18537832476E+04  0.46999998093E+01 0. -1.
</event>
<event>
 5   0  0.4795023E-07  0.3875304E+04  0.7818609E-02  0.8030185E-01
       -1   -1    0    0    0  501  0.00000000000E+00  0.00000000000E+00  0.23275776871E+04  0.23275776871E+04  0.50400001928E-02 0. -1.
        1   -1    0    0  501    0  0.00000000000E+00  0.00000000000E+00 -0.16130483015E+04  0.16130483015E+04  0.50400001928E-02 0.  1.
    10030    2    1    2    0    0  0.00000000000E+00  0.00000000000E+00  0.71452938561E+03  0.39406259886E+04  0.38753039802E+04 0.  0.
        3    1    3    3  502    0 -0.90834036126E+03  0.16098931062E+04  0.94814218874E+03  0.20774531632E+04  0.10100000352E+00 0. -1.
       -3    1    3    3    0  502  0.90834036126E+03 -0.16098931062E+04 -0.23361280313E+03  0.18631728254E+04  0.10100000352E+00 0.  1.
</event>
<event>
 5   0  0.4795023E-07  0.2535434E+04  0.7818609E-02  0.8390470E-01
        1   -1    0    0  501    0  0.00000000000E+00  0.00000000000E+00  0.17217311176E+04  0.17217311176E+04  0.50400001928E-02 0. -1.
       -1   -1    0    0    0  501  0.00000000000E+00  0.00000000000E+00 -0.93342481623E+03  0.93342481624E+03  0.50400001928E-02 0.  1.
    10030    2    1    2    0    0  0.00000000000E+00  0.00000000000E+00  0.78830630135E+03  0.26551559338E+04  0.25354341262E+04 0.  0.
        3    1    3    3  502    0  0.74933359474E+03  0.86251760985E+03  0.96933225268E+03  0.14983465853E+04  0.10100000352E+00 0.  1.
       -3    1    3    3    0  502 -0.74933359474E+03 -0.86251760985E+03 -0.18102595132E+03  0.11568093485E+04  0.10100000352E+00 0. -1.
</event>
<event>
 5   0  0.4255250E-07  0.2073172E+04  0.7818609E-02  0.8573154E-01
        1   -1    0    0  501    0  0.00000000000E+00  0.00000000000E+00  0.12117845593E+04  0.12117845593E+04  0.50400001928E-02 0.  1.
       -1   -1    0    0    0  501  0.00000000000E+00  0.00000000000E+00 -0.88671714960E+03  0.88671714961E+03  0.50400001928E-02 0. -1.
    10030    2    1    2    0    0  0.00000000000E+00  0.00000000000E+00  0.32506740973E+03  0.20985017089E+04  0.20731716286E+04 0.  0.
        2    1    3    3  502    0 -0.84191734786E+03 -0.12258072845E+01  0.77464014255E+03  0.11440689112E+04  0.25500000920E-02 0.  1.
       -2    1    3    3    0  502  0.84191734786E+03  0.12258072845E+01 -0.44957273282E+03  0.95443279770E+03  0.25500000920E-02 0. -1.
</event>
<event>
 5   0  0.4255250E-07  0.1982937E+04  0.7818609E-02  0.8614640E-01
        1   -1    0    0  501    0  0.00000000000E+00  0.00000000000E+00  0.95659391309E+03  0.95659391311E+03  0.50400001928E-02 0. -1.
       -1   -1    0    0    0  501  0.00000000000E+00  0.00000000000E+00 -0.10276142987E+04  0.10276142987E+04  0.50400001928E-02 0.  1.
    10030    2    1    2    0    0  0.00000000000E+00  0.00000000000E+00 -0.71020385582E+02  0.19842082118E+04  0.19829367949E+04 0.  0.
        2    1    3    3  502    0 -0.27816040194E+03  0.74901808007E+03 -0.62292005170E+03  0.10131291548E+04  0.25500000920E-02 0.  1.
       -2    1    3    3    0  502  0.27816040194E+03 -0.74901808007E+03  0.55189966611E+03  0.97107905700E+03  0.25500000920E-02 0. -1.
</event>
<event>
 5   0  0.4255250E-07  0.3795682E+04  0.7818609E-02  0.8047082E-01
        1   -1    0    0  501    0  0.00000000000E+00  0.00000000000E+00  0.22526416572E+04  0.22526416572E+04  0.50400001928E-02 0. -1.
       -1   -1    0    0    0  501  0.00000000000E+00  0.00000000000E+00 -0.15989231644E+04  0.15989231644E+04  0.50400001928E-02 0.  1.
    10030    2    1    2    0    0  0.00000000000E+00  0.00000000000E+00  0.65371849277E+03  0.38515648217E+04  0.37956822454E+04 0.  0.
        2    1    3    3  502    0 -0.11046093620E+04 -0.28343293743E+03  0.18661988389E+04  0.21870514806E+04  0.25500000920E-02 0. -1.
       -2    1    3    3    0  502  0.11046093620E+04  0.28343293743E+03 -0.12124803461E+04  0.16645133410E+04  0.25500000920E-02 0.  1.
</event>
<event>
 5   0  0.1184616E-06  0.3730345E+04  0.7818609E-02  0.8061270E-01
       -2   -1    0    0    0  501  0.00000000000E+00  0.00000000000E+00  0.13304651675E+04  0.13304651675E+04  0.25500000920E-02 0. -1.
        2   -1    0    0  501    0  0.00000000000E+00  0.00000000000E+00 -0.26147755134E+04  0.26147755134E+04  0.25500000920E-02 0.  1.
    10030    2    1    2    0    0  0.00000000000E+00  0.00000000000E+00 -0.12843103459E+04  0.39452406809E+04  0.37303446175E+04 0.  0.
        5    1    3    3  502    0 -0.24655280749E+03  0.18482452302E+04 -0.69000456612E+03  0.19881969492E+04  0.46999998093E+01 0.  1.
       -5    1    3    3    0  502  0.24655280749E+03 -0.18482452302E+04 -0.59430577980E+03  0.19570437316E+04  0.46999998093E+01 0. -1.
</event>
<event>
 5   0  0.4795023E-07  0.3801786E+04  0.7818609E-02  0.8045772E-01
       -1   -1    0    0    0  501  0.00000000000E+00  0.00000000000E+00  0.17929097294E+04  0.17929097294E+04  0.50400001928E-02 0.  1.
        1   -1    0    0  501    0  0.00000000000E+00  0.00000000000E+00 -0.20153800643E+04  0.20153800643E+04  0.50400001928E-02 0. -1.
    10030    2    1    2    0    0  0.00000000000E+00  0.00000000000E+00 -0.22247033491E+03  0.38082897936E+04  0.38017861726E+04 0.  0.
        3    1    3    3  502    0  0.19745291547E+03 -0.17012477642E+03  0.17749262978E+04  0.17939602744E+04  0.10100000352E+00 0.  1.
       -3    1    3    3    0  502 -0.19745291547E+03  0.17012477642E+03 -0.19973966327E+04  0.20143295192E+04  0.10100000352E+00 0. -1.
</event>
<event>
 5   0  0.1184616E-06  0.3768644E+04  0.7818609E-02  0.8052917E-01
       -2   -1    0    0    0  501  0.00000000000E+00  0.00000000000E+00  0.30798917150E+04  0.30798917150E+04  0.25500000920E-02 0. -1.
        2   -1    0    0  501    0  0.00000000000E+00  0.00000000000E+00 -0.11528554526E+04  0.11528554526E+04  0.25500000920E-02 0.  1.
    10030    2    1    2    0    0  0.00000000000E+00  0.00000000000E+00  0.19270362624E+04  0.42327471676E+04  0.37686442958E+04 0.  0.
        5    1    3    3  502    0 -0.86672246880E+03 -0.16433607244E+04  0.13165613451E+04  0.22771030223E+04  0.46999998093E+01 0.  1.
       -5    1    3    3    0  502  0.86672246880E+03  0.16433607244E+04  0.61047491727E+03  0.19556441453E+04  0.46999998093E+01 0. -1.
</event>
<event>
 5   0  0.8030324E-07  0.3584367E+04  0.7818609E-02  0.8094082E-01
        1   -1    0    0  501    0  0.00000000000E+00  0.00000000000E+00  0.20836318488E+04  0.20836318488E+04  0.50400001928E-02 0.  1.
       -1   -1    0    0    0  501  0.00000000000E+00  0.00000000000E+00 -0.15415014272E+04  0.15415014272E+04  0.50400001928E-02 0. -1.
    10030    2    1    2    0    0  0.00000000000E+00  0.00000000000E+00  0.54213042162E+03  0.36251332760E+04  0.35843668722E+04 0.  0.
        1    1    3    3  502    0  0.86422378186E+03 -0.94039002591E+03 -0.10004951498E+04  0.16224076833E+04  0.50400001928E-02 0. -1.
       -1    1    3    3    0  502 -0.86422378186E+03  0.94039002591E+03  0.15426255714E+04  0.20027255927E+04  0.50400001928E-02 0.  1.
</event>
<event>
 5   0  0.1214844E-06  0.3854648E+04  0.7818609E-02  0.8034528E-01
       -2   -1    0    0    0  501  0.00000000000E+00  0.00000000000E+00  0.15510312754E+04  0.15510312754E+04  0.25500000920E-02 0. -1.
        2   -1    0    0  501    0  0.00000000000E+00  0.00000000000E+00 -0.23949089465E+04  0.23949089465E+04  0.25500000920E-02 0.  1.
    10030    2    1    2    0    0  0.00000000000E+00  0.00000000000E+00 -0.84387767110E+03  0.39459402218E+04  0.38546484549E+04 0.  0.
        4    1    3    3  502    0 -0.15606588017E+04  0.56533162860E+03 -0.14245851766E+04  0.21873957767E+04  0.12699999809E+01 0.  1.
       -4    1    3    3    0  502  0.15606588017E+04 -0.56533162860E+03  0.58070750547E+03  0.17585444451E+04  0.12699999809E+01 0. -1.
</event>
<event>
 5   0  0.1372748E-06  0.3925047E+04  0.7818609E-02  0.8019840E-01
        2   -1    0    0  501    0  0.00000000000E+00  0.00000000000E+00  0.21460216509E+04  0.21460216509E+04  0.25500000920E-02 0.  1.
       -2   -1    0    0    0  501  0.00000000000E+00  0.00000000000E+00 -0.17947157182E+04  0.17947157182E+04  0.25500000920E-02 0. -1.
    10030    2    1    2    0    0  0.00000000000E+00  0.00000000000E+00  0.35130593270E+03  0.39407373691E+04  0.39250471531E+04 0.  0.
        1    1    3    3  502    0 -0.17155654477E+04  0.92311743716E+03  0.41364098739E+03  0.19915846642E+04  0.50400001928E-02 0. -1.
       -1    1    3    3    0  502  0.17155654477E+04 -0.92311743716E+03 -0.62335054689E+02  0.19491527049E+04  0.50400001928E-02 0.  1.
</event>
<event>
 5   0  0.5284458E-07  0.3831790E+04  0.7818609E-02  0.8039367E-01
       -1   -1    0    0    0  501  0.00000000000E+00  0.00000000000E+00  0.12064429932E+04  0.12064429932E+04  0.50400001928E-02 0. -1.
        1   -1    0    0  501    0  0.00000000000E+00  0.00000000000E+00 -0.30425428869E+04  0.30425428869E+04  0.50400001928E-02 0.  1.
    10030    2    1    2    0    0  0.00000000000E+00  0.00000000000E+00 -0.18360998937E+04  0.42489858802E+04  0.38317904679E+04 0.  0.
        5    1    3    3  502    0 -0.18032715640E+04 -0.64564176157E+03 -0.86857313819E+03  0.21031126941E+04  0.46999998093E+01 0. -1.
       -5    1    3    3    0  502  0.18032715640E+04  0.64564176157E+03 -0.96752675552E+03  0.21458731860E+04  0.46999998093E+01 0.  1.
</event>
<event>
 5   0  0.1337854E-06  0.3319860E+04  0.7818609E-02  0.8157860E-01
       -2   -1    0    0    0  501  0.00000000000E+00  0.00000000000E+00  0.12607446350E+04  0.12607446350E+04  0.25500000920E-02 0.  1.
        2   -1    0    0  501    0  0.00000000000E+00  0.00000000000E+00 -0.21855080662E+04  0.21855080662E+04  0.25500000920E-02 0. -1.
    10030    2    1    2    0    0  0.00000000000E+00  0.00000000000E+00 -0.92476343116E+03  0.34462527012E+04  0.33198599785E+04 0.  0.
        3    1    3    3  502    0 -0.70474722640E+03  0.73321007139E+03 -0.18242360089E+04  0.20885647436E+04  0.10100000352E+00 0. -1.
       -3    1    3    3    0  502  0.70474722640E+03 -0.73321007139E+03  0.89947257770E+03  0.13576879576E+04  0.10100000352E+00 0.  1.
</event>
<event>
 5   0  0.8030324E-07  0.3128095E+04  0.7818609E-02  0.8208069E-01
        1   -1    0    0  501    0  0.00000000000E+00  0.00000000000E+00  0.13790647915E+04  0.13790647916E+04  0.50400001928E-02 0.  1.
       -1   -1    0    0    0  501  0.00000000000E+00  0.00000000000E+00 -0.17738432494E+04  0.17738432494E+04  0.50400001928E-02 0. -1.
    10030    2    1    2    0    0  0.00000000000E+00  0.00000000000E+00 -0.39477845788E+03  0.31529080410E+04  0.31280951207E+04 0.  0.
        1    1    3    3  502    0 -0.13370967259E+04  0.34308795389E+03 -0.93855040115E+03  0.16692554790E+04  0.50400001928E-02 0. -1.
       -1    1    3    3    0  502  0.13370967259E+04 -0.34308795389E+03  0.54377194326E+03  0.14836525620E+04  0.50400001928E-02 0.  1.
</event>
<event>
 5   0  0.1341932E-06  0.3577744E+04  0.7818609E-02  0.8095609E-01
        2   -1    0    0  501    0  0.00000000000E+00  0.00000000000E+00  0.20168508963E+04  0.20168508963E+04  0.25500000920E-02 0.  1.
       -2   -1    0    0    0  501  0.00000000000E+00  0.00000000000E+00 -0.15866634327E+04  0.15866634327E+04  0.25500000920E-02 0. -1.
    10030    2    1    2    0    0  0.00000000000E+00  0.00000000000E+00  0.43018746363E+03  0.36035143289E+04  0.35777442984E+04 0.  0.
        2    1    3    3  502    0  0.15817998241E+04 -0.69617058888E+03  0.68028561186E+03  0.18572917612E+04  0.25500000920E-02 0. -1.
       -2    1    3    3    0  502 -0.15817998241E+04  0.69617058888E+03 -0.25009814823E+03  0.17462225678E+04  0.25500000920E-02 0.  1.
</event>
<event>
 5   0  0.8030324E-07  0.3662652E+04  0.7818609E-02  0.8076289E-01
       -1   -1    0    0    0  501  0.00000000000E+00  0.00000000000E+00  0.21932062210E+04  0.21932062210E+04  0.50400001928E-02 0. -1.
        1   -1    0    0  501    0  0.00000000000E+00  0.00000000000E+00 -0.15291561697E+04  0.15291561697E+04  0.50400001928E-02 0.  1.
    10030    2    1    2    0    0  0.00000000000E+00  0.00000000000E+00  0.66405005126E+03  0.37223623907E+04  0.36626519487E+04 0.  0.
        1    1    3    3  502    0  0.14184509121E+04 -0.98611052124E+03 -0.28561427613E+03  0.17509975628E+04  0.50400001928E-02 0.  1.
       -1    1    3    3    0  502 -0.14184509121E+04  0.98611052124E+03  0.94966432740E+03  0.19713648279E+04  0.50400001928E-02 0. -1.
</event>
<event>
 5   0  0.8030324E-07  0.3747268E+04  0.7818609E-02  0.8057567E-01
        1   -1    0    0  501    0  0.00000000000E+00  0.00000000000E+00  0.19407082900E+04  0.19407082900E+04  0.50400001928E-02 0.  1.
       -1   -1    0    0    0  501  0.00000000000E+00  0.00000000000E+00 -0.18088779784E+04  0.18088779784E+04  0.50400001928E-02 0. -1.
    10030    2    1    2    0    0  0.00000000000E+00  0.00000000000E+00  0.13183031164E+03  0.37495862684E+04  0.37472680653E+04 0.  0.
        1    1    3    3  502    0 -0.81340534708E+03  0.61972757091E+03  0.16368590017E+04  0.19300253657E+04  0.50400001928E-02 0.  1.
       -1    1    3    3    0  502  0.81340534708E+03 -0.61972757091E+03 -0.15050286901E+04  0.18195609027E+04  0.50400001928E-02 0. -1.
</event>
<event>
 5   0  0.4255250E-07  0.3656377E+04  0.7818609E-02  0.8077699E-01
       -1   -1    0    0    0  501  0.00000000000E+00  0.00000000000E+00  0.16480939491E+04  0.16480939491E+04  0.50400001928E-02 0.  1.
        1   -1    0    0  501    0  0.00000000000E+00  0.00000000000E+00 -0.20279623231E+04  0.20279623231E+04  0.50400001928E-02 0. -1.
    10030    2    1    2    0    0  0.00000000000E+00  0.00000000000E+00 -0.37986837399E+03  0.36760562721E+04  0.36563765854E+04 0.  0.
        2    1    3    3  502    0  0.79164736093E+03 -0.35792974717E+02  0.14664421411E+04  0.16668650918E+04  0.25500000920E-02 0.  1.
       -2    1    3    3    0  502 -0.79164736093E+03  0.35792974717E+02 -0.18463105151E+04  0.20091911803E+04  0.25500000920E-02 0. -1.
</event>
<event>
 5   0  0.1341932E-06  0.2997876E+04  0.7818609E-02  0.8244338E-01
        2   -1    0    0  501    0  0.00000000000E+00  0.00000000000E+00  0.18134126265E+04  0.18134126265E+04  0.25500000920E-02 0.  1.
       -2   -1    0    0    0  501  0.00000000000E+00  0.00000000000E+00 -0.12389982229E+04  0.12389982229E+04  0.25500000920E-02 0. -1.
    10030    2    1    2    0    0  0.00000000000E+00  0.00000000000E+00  0.57441440360E+03  0.30524108495E+04  0.29978759292E+04 0.  0.
        2    1    3    3  502    0 -0.43201714580E+03 -0.11464683378E+04  0.11665062624E+04  0.16916753010E+04  0.25500000920E-02 0.  1.
       -2    1    3    3    0  502  0.43201714580E+03  0.11464683378E+04 -0.59209185880E+03  0.13607355485E+04  0.25500000920E-02 0. -1.
</event>
<event>
 5   0  0.1389199E-06  0.2000273E+04  0.7818609E-02  0.8606493E-01
        2   -1    0    0  501    0  0.00000000000E+00  0.00000000000E+00  0.13800516495E+04  0.13800516495E+04  0.25500000920E-02 0.  1.
       -2   -1    0    0    0  501  0.00000000000E+00  0.00000000000E+00 -0.72480864651E+03  0.72480864652E+03  0.25500000920E-02 0. -1.
    10030    2    1    2    0    0  0.00000000000E+00  0.00000000000E+00  0.65524300297E+03  0.21048602960E+04  0.20002733495E+04 0.  0.
        1    1    3    3  502    0 -0.49767202337E+03 -0.78813921246E+03  0.70911340346E+03  0.11711885758E+04  0.50400001928E-02 0.  1.
       -1    1    3    3    0  502  0.49767202337E+03  0.78813921246E+03 -0.53870400489E+02  0.93367172022E+03  0.50400001928E-02 0. -1.
</event>
<event>
 5   0  0.1184616E-06  0.3893935E+04  0.7818609E-02  0.8026292E-01
       -2   -1    0    0    0  501  0.00000000000E+00  0.00000000000E+00  0.26302042509E+04  0.26302042509E+04  0.25500000920E-02 0. -1.
        2   -1    0    0  501    0  0.00000000000E+00  0.00000000000E+00 -0.14412124555E+04  0.14412124555E+04  0.25500000920E-02 0.  1.
    10030    2    1    2    0    0  0.00000000000E+00  0.00000000000E+00  0.11889917954E+04  0.40714167064E+04  0.38939353497E+04 0.  0.
        5    1    3    3  502    0  0.11960971108E+04 -0.47357584719E+02  0.21999856437E+04  0.25045658231E+04  0.46999998093E+01 0. -1.
       -5    1    3    3    0  502 -0.11960971108E+04  0.47357584719E+02 -0.10109938484E+04  0.15668508834E+04  0.46999998093E+01 0.  1.
</event>
<event>
 5   0  0.1372748E-06  0.3323762E+04  0.7818609E-02  0.8156875E-01
       -2   -1    0    0    0  501  0.00000000000E+00  0.00000000000E+00  0.12467809887E+04  0.12467809887E+04  0.25500000920E-02 0. -1.
        2   -1    0    0  501    0  0.00000000000E+00  0.00000000000E+00 -0.22151831636E+04  0.22151831636E+04  0.25500000920E-02 0.  1.
    10030    2    1    2    0    0  0.00000000000E+00  0.00000000000E+00 -0.96840217482E+03  0.34619641523E+04  0.33237618777E+04 0.  0.
        1    1    3    3  502    0  0.12558130353E+04  0.93292051199E+03  0.99865526743E+02  0.15676033251E+04  0.50400001928E-02 0.  1.
       -1    1    3    3    0  502 -0.12558130353E+04 -0.93292051199E+03 -0.10682677016E+04  0.18943608272E+04  0.50400001928E-02 0. -1.
</event>
<event>
 5   0  0.4795023E-07  0.3717845E+04  0.7818609E-02  0.8064019E-01
       -1   -1    0    0    0  501  0.00000000000E+00  0.00000000000E+00  0.14624602492E+04  0.14624602492E+04  0.50400001928E-02 0.  1.
        1   -1    0    0  501    0  0.00000000000E+00  0.00000000000E+00 -0.23628629383E+04  0.23628629383E+04  0.50400001928E-02 0. -1.
    10030    2    1    2    0    0  0.00000000000E+00  0.00000000000E+00 -0.90040268910E+03  0.38253231875E+04  0.37178451402E+04 0.  0.
        3    1    3    3  502    0 -0.12271989707E+04  0.13637635476E+04 -0.75840163797E+03  0.19852056271E+04  0.10100000352E+00 0. -1.
       -3    1    3    3    0  502  0.12271989707E+04 -0.13637635476E+04 -0.14200105113E+03  0.18401175604E+04  0.10100000352E+00 0.  1.
</event>
<event>
 5   0  0.1320429E-06  0.2040771E+04  0.7818609E-02  0.8587793E-01
       -2   -1    0    0    0  501  0.00000000000E+00  0.00000000000E+00  0.94910263668E+03  0.94910263668E+03  0.25500000920E-02 0.  1.
        2   -1    0    0  501    0  0.00000000000E+00  0.00000000000E+00 -0.10970219807E+04  0.10970219807E+04  0.25500000920E-02 0. -1.
    10030    2    1    2    0    0  0.00000000000E+00  0.00000000000E+00 -0.14791934399E+03  0.20461246174E+04  0.20407708880E+04 0.  0.
        5    1    3    3  502    0  0.17288074080E+03 -0.91978816583E+03 -0.48155579067E+03  0.10525284272E+04  0.46999998093E+01 0.  1.
       -5    1    3    3    0  502 -0.17288074080E+03  0.91978816583E+03  0.33363644668E+03  0.99359619016E+03  0.46999998093E+01 0. -1.
</event>
<event>
 5   0  0.1214844E-06  0.2218904E+04  0.7818609E-02  0.8510601E-01
       -2   -1    0    0    0  501  0.00000000000E+00  0.00000000000E+00  0.79956916390E+03  0.79956916391E+03  0.25500000920E-02 0. -1.
        2   -1    0    0  501    0  0.00000000000E+00  0.00000000000E+00 -0.15394330557E+04  0.15394330557E+04  0.25500000920E-02 0.  1.
    10030    2    1    2    0    0  0.00000000000E+00  0.00000000000E+00 -0.73986389182E+03  0.23390022196E+04  0.22189035141E+04 0.  0.
        4    1    3    3  502    0  0.35276560641E+03 -0.62367681374E+03 -0.12628110322E+04  0.14519330760E+04  0.12699999809E+01 0.  1.
       -4    1    3    3    0  502 -0.35276560641E+03  0.62367681374E+03  0.52294714042E+03  0.88706914366E+03  0.12699999809E+01 0. -1.
</event>
<event>
 5   0  0.1214844E-06  0.2046274E+04  0.7818609E-02  0.8585287E-01
        2   -1    0    0  501    0  0.00000000000E+00  0.00000000000E+00  0.13308282115E+04  0.13308282115E+04  0.25500000920E-02 0. -1.
       -2   -1    0    0    0  501  0.00000000000E+00  0.00000000000E+00 -0.78658477572E+03  0.78658477572E+03  0.25500000920E-02 0.  1.
    10030    2    1    2    0    0  0.00000000000E+00  0.00000000000E+00  0.54424343581E+03  0.21174129872E+04  0.20462738920E+04 0.  0.
        4    1    3    3  502    0  0.29106893234E+02  0.79486564510E+03  0.93803873604E+03  0.12298686467E+04  0.12699999809E+01 0. -1.
       -4    1    3    3    0  502 -0.29106893234E+02 -0.79486564510E+03 -0.39379530023E+03  0.88754434052E+03  0.12699999809E+01 0.  1.
</event>
<event>
 5   0  0.4255250E-07  0.2049969E+04  0.7818609E-02  0.8583608E-01
        1   -1    0    0  501    0  0.00000000000E+00  0.00000000000E+00  0.13955018450E+04  0.13955018450E+04  0.50400001928E-02 0. -1.
       -1   -1    0    0    0  501  0.00000000000E+00  0.00000000000E+00 -0.75284277834E+03  0.75284277835E+03  0.50400001928E-02 0.  1.
    10030    2    1    2    0    0  0.00000000000E+00  0.00000000000E+00  0.64265906669E+03  0.21483446234E+04  0.20499692546E+04 0.  0.
        2    1    3    3  502    0  0.10143270029E+03 -0.10175996960E+04  0.24875488029E+03  0.10524622200E+04  0.25500000920E-02 0.  1.
       -2    1    3    3    0  502 -0.10143270029E+03  0.10175996960E+04  0.39390418640E+03  0.10958824034E+04  0.25500000920E-02 0. -1.
</event>
<event>
 5   0  0.5284458E-07  0.2365446E+04  0.7818609E-02  0.8452555E-01
        1   -1    0    0  501    0  0.00000000000E+00  0.00000000000E+00  0.23432011855E+04  0.23432011855E+04  0.50400001928E-02 0.  1.
       -1   -1    0    0    0  501  0.00000000000E+00  0.00000000000E+00 -0.59697530183E+03  0.59697530186E+03  0.50400001928E-02 0. -1.
    10030    2    1    2    0    0  0.00000000000E+00  0.00000000000E+00  0.17462258837E+04  0.29401764874E+04  0.23654456113E+04 0.  0.
        5    1    3    3  502    0 -0.26764992445E+01 -0.35085671443E+03 -0.53078428130E+03  0.63628738867E+03  0.46999998093E+01 0. -1.
       -5    1    3    3    0  502  0.26764992445E+01  0.35085671443E+03  0.22770101650E+04  0.23038890987E+04  0.46999998093E+01 0.  1.
</event>
<event>
 5   0  0.1214844E-06  0.3838054E+04  0.7818609E-02  0.8038038E-01
        2   -1    0    0  501    0  0.00000000000E+00  0.00000000000E+00  0.20190566776E+04  0.20190566776E+04  0.25500000920E-02 0. -1.
       -2   -1    0    0    0  501  0.00000000000E+00  0.00000000000E+00 -0.18239530636E+04  0.18239530636E+04  0.25500000920E-02 0.  1.
    10030    2    1    2    0    0  0.00000000000E+00  0.00000000000E+00  0.19510361404E+03  0.38430097413E+04  0.38380539927E+04 0.  0.
        4    1    3    3  502    0  0.47323807574E+03 -0.18554394002E+04 -0.29313630064E+02  0.19150641101E+04  0.12699999809E+01 0.  1.
       -4    1    3    3    0  502 -0.47323807574E+03  0.18554394002E+04  0.22441724410E+03  0.19279456311E+04  0.12699999809E+01 0. -1.
</event>
<event>
 5   0  0.1184616E-06  0.3752034E+04  0.7818609E-02  0.8056527E-01
        2   -1    0    0  501    0  0.00000000000E+00  0.00000000000E+00  0.17349415268E+04  0.17349415268E+04  0.25500000920E-02 0. -1.
       -2   -1    0    0    0  501  0.00000000000E+00  0.00000000000E+00 -0.20285636767E+04  0.20285636767E+04  0.25500000920E-02 0.  1.
    10030    2    1    2    0    0  0.00000000000E+00  0.00000000000E+00 -0.29362214990E+03  0.37635052036E+04  0.37520337752E+04 0.  0.
        5    1    3    3  502    0 -0.52192268458E+03 -0.72653196928E+03  0.15072196967E+04  0.17527079891E+04  0.46999998093E+01 0. -1.
       -5    1    3    3    0  502  0.52192268458E+03  0.72653196928E+03 -0.18008418466E+04  0.20107972144E+04  0.46999998093E+01 0.  1.
</event>
<event>
 5   0  0.1372748E-06  0.3345316E+04  0.7818609E-02  0.8151460E-01
       -2   -1    0    0    0  501  0.00000000000E+00  0.00000000000E+00  0.10018622498E+04  0.10018622498E+04  0.25500000920E-02 0. -1.
        2   -1    0    0  501    0  0.00000000000E+00  0.00000000000E+00 -0.27925840845E+04  0.27925840845E+04  0.25500000920E-02 0.  1.
    10030    2    1    2    0    0  0.00000000000E+00  0.00000000000E+00 -0.17907218347E+04  0.37944463343E+04  0.33453158737E+04 0.  0.
        1    1    3    3  502    0 -0.12140397267E+04 -0.44133441126E+03 -0.21006204485E+04  0.24660240853E+04  0.50400001928E-02 0.  1.
       -1    1    3    3    0  502  0.12140397267E+04  0.44133441126E+03  0.30989861382E+03  0.13284222490E+04  0.50400001928E-02 0. -1.
</event>
<event>
 5   0  0.1372748E-06  0.2338883E+04  0.7818609E-02  0.8462746E-01
       -2   -1    0    0    0  501  0.00000000000E+00  0.00000000000E+00  0.62395362076E+03  0.62395362076E+03  0.25500000920E-02 0. -1.
        2   -1    0    0  501    0  0.00000000000E+00  0.00000000000E+00 -0.21918189612E+04  0.21918189612E+04  0.25500000920E-02 0.  1.
    10030    2    1    2    0    0  0.00000000000E+00  0.00000000000E+00 -0.15678653404E+04  0.28157725819E+04  0.23388829615E+04 0.  0.
        1    1    3    3  502    0 -0.39712347786E+03  0.17166988856E+03 -0.20919291857E+04  0.21361988028E+04  0.50400001928E-02 0.  1.
       -1    1    3    3    0  502  0.39712347786E+03 -0.17166988856E+03  0.52406384526E+03  0.67957377910E+03  0.50400001928E-02 0. -1.
</event>
<event>
 5   0  0.1214844E-06  0.3717404E+04  0.7818609E-02  0.8064116E-01
       -2   -1    0    0    0  501  0.00000000000E+00  0.00000000000E+00  0.18909846114E+04  0.18909846114E+04  0.25500000920E-02 0. -1.
        2   -1    0    0  501    0  0.00000000000E+00  0.00000000000E+00 -0.18269709772E+04  0.18269709772E+04  0.25500000920E-02 0.  1.
    10030    2    1    2    0    0  0.00000000000E+00  0.00000000000E+00  0.64013634148E+02  0.37179555886E+04  0.37174044727E+04 0.  0.
        4    1    3    3  502    0 -0.13889972700E+03  0.62120742018E+03 -0.17145569186E+04  0.18289064582E+04  0.12699999809E+01 0.  1.
       -4    1    3    3    0  502  0.13889972700E+03 -0.62120742018E+03  0.17785705527E+04  0.18890491304E+04  0.12699999809E+01 0. -1.
</event>
<event>
 5   0  0.8030324E-07  0.2135556E+04  0.7818609E-02  0.8545740E-01
        1   -1    0    0  501    0  0.00000000000E+00  0.00000000000E+00  0.14412530648E+04  0.14412530648E+04  0.50400001928E-02 0.  1.
       -1   -1    0    0    0  501  0.00000000000E+00  0.00000000000E+00 -0.79108254521E+03  0.79108254523E+03  0.50400001928E-02 0. -1.
    10030    2    1    2    0    0  0.00000000000E+00  0.00000000000E+00  0.65017051956E+03  0.22323356100E+04  0.21355562674E+04 0.  0.
        1    1    3    3  502    0 -0.19197965272E+03 -0.98943266810E+03 -0.43479360501E+02  0.10088229015E+04  0.50400001928E-02 0. -1.
       -1    1    3    3    0  502  0.19197965272E+03  0.98943266810E+03  0.69364988006E+03  0.12235127085E+04  0.50400001928E-02 0.  1.
</event>
<event>
 5   0  0.1214844E-06  0.3770033E+04  0.7818609E-02  0.8052617E-01
        2   -1    0    0  501    0  0.00000000000E+00  0.00000000000E+00  0.14302833376E+04  0.14302833376E+04  0.25500000920E-02 0.  1.
       -2   -1    0    0    0  501  0.00000000000E+00  0.00000000000E+00 -0.24843233644E+04  0.24843233644E+04  0.25500000920E-02 0. -1.
    10030    2    1    2    0    0  0.00000000000E+00  0.00000000000E+00 -0.10540400268E+04  0.39146067020E+04  0.37700325268E+04 0.  0.
        4    1    3    3  502    0  0.62259114724E+03  0.88953257604E+03 -0.21270189116E+04  0.23881162040E+04  0.12699999809E+01 0. -1.
       -4    1    3    3    0  502 -0.62259114724E+03 -0.88953257604E+03  0.10729788848E+04  0.15264904980E+04  0.12699999809E+01 0.  1.
</event>
<event>
 5   0  0.5284458E-07  0.2442231E+04  0.7818609E-02  0.8423860E-01
       -1   -1    0    0    0  501  0.00000000000E+00  0.00000000000E+00  0.84522599124E+03  0.84522599126E+03  0.50400001928E-02 0. -1.
        1   -1    0    0  501    0  0.00000000000E+00  0.00000000000E+00 -0.17641709309E+04  0.17641709309E+04  0.50400001928E-02 0.  1.
    10030    2    1    2    0    0  0.00000000000E+00  0.00000000000E+00 -0.91894493967E+03  0.26093969222E+04  0.24422310487E+04 0.  0.
        5    1    3    3  502    0  0.11187923260E+04 -0.86310465462E+02  0.55110629496E+02  0.11234789881E+04  0.46999998093E+01 0.  1.
       -5    1    3    3    0  502 -0.11187923260E+04  0.86310465462E+02 -0.97405556917E+03  0.14859179341E+04  0.46999998093E+01 0. -1.
</event>
<event>
 5   0  0.8030324E-07  0.3806253E+04  0.7818609E-02  0.8044814E-01
        1   -1    0    0  501    0  0.00000000000E+00  0.00000000000E+00  0.25037511506E+04  0.25037511506E+04  0.50400001928E-02 0.  1.
       -1   -1    0    0    0  501  0.00000000000E+00  0.00000000000E+00 -0.14465856720E+04  0.14465856720E+04  0.50400001928E-02 0. -1.
    10030    2    1    2    0    0  0.00000000000E+00  0.00000000000E+00  0.10571654786E+04  0.39503368226E+04  0.38062530345E+04 0.  0.
        1    1    3    3  502    0  0.16460674138E+04  0.82431427673E+03  0.10294038143E+04  0.21091951475E+04  0.50400001928E-02 0. -1.
       -1    1    3    3    0  502 -0.16460674138E+04 -0.82431427673E+03  0.27761664285E+02  0.18411416750E+04  0.50400001928E-02 0.  1.
</event>
<event>
 5   0  0.4255250E-07  0.2503947E+04  0.7818609E-02  0.8401581E-01
       -1   -1    0    0    0  501  0.00000000000E+00  0.00000000000E+00  0.12934185875E+04  0.12934185875E+04  0.50400001928E-02 0.  1.
        1   -1    0    0  501    0  0.00000000000E+00  0.00000000000E+00 -0.12118565610E+04  0.12118565610E+04  0.50400001928E-02 0. -1.
    10030    2    1    2    0    0  0.00000000000E+00  0.00000000000E+00  0.81562026502E+02  0.25052751484E+04  0.25039471251E+04 0.  0.
        2    1    3    3  502    0 -0.20418072358E+03  0.11724658285E+04  0.42966686489E+03  0.12652981868E+04  0.25500000920E-02 0.  1.
       -2    1    3    3    0  502  0.20418072358E+03 -0.11724658285E+04 -0.34810483839E+03  0.12399769616E+04  0.25500000920E-02 0. -1.
</event>
<event>
 5   0  0.1372748E-06  0.2485890E+04  0.7818609E-02  0.8408030E-01
        2   -1    0    0  501    0  0.00000000000E+00  0.00000000000E+00  0.73670079304E+03  0.73670079305E+03  0.25500000920E-02 0. -1.
       -2   -1    0    0    0  501  0.00000000000E+00  0.00000000000E+00 -0.20970682710E+04  0.20970682710E+04  0.25500000920E-02 0.  1.
    10030    2    1    2    0    0  0.00000000000E+00  0.00000000000E+00 -0.13603674779E+04  0.28337690640E+04  0.24858896663E+04 0.  0.
        1    1    3    3  502    0  0.39555211588E+03  0.68911799952E+03 -0.17697477547E+04  0.19399361352E+04  0.50400001928E-02 0.  1.
       -1    1    3    3    0  502 -0.39555211588E+03 -0.68911799952E+03  0.40938027671E+03  0.89383292881E+03  0.50400001928E-02 0. -1.
</event>
<event>
 5   0  0.4795023E-07  0.2006510E+04  0.7818609E-02  0.8603583E-01
       -1   -1    0    0    0  501  0.00000000000E+00  0.00000000000E+00  0.96161329125E+03  0.96161329126E+03  0.50400001928E-02 0. -1.
        1   -1    0    0  501    0  0.00000000000E+00  0.00000000000E+00 -0.10467003473E+04  0.10467003473E+04  0.50400001928E-02 0.  1.
    10030    2    1    2    0    0  0.00000000000E+00  0.00000000000E+00 -0.85087056004E+02  0.20083136385E+04  0.20065103697E+04 0.  0.
        3    1    3    3  502    0 -0.82416715906E+03 -0.18061527002E+03 -0.58584585330E+03  0.10271751340E+04  0.10100000352E+00 0.  1.
       -3    1    3    3    0  502  0.82416715906E+03  0.18061527002E+03  0.50075879729E+03  0.98113850455E+03  0.10100000352E+00 0. -1.
</event>
<event>
 5   0  0.1372748E-06  0.3810120E+04  0.7818609E-02  0.8043987E-01
        2   -1    0    0  501    0  0.00000000000E+00  0.00000000000E+00  0.23611722710E+04  0.23611722710E+04  0.25500000920E-02 0. -1.
       -2   -1    0    0    0  501  0.00000000000E+00  0.00000000000E+00 -0.15370555980E+04  0.15370555980E+04  0.25500000920E-02 0.  1.
    10030    2    1    2    0    0  0.00000000000E+00  0.00000000000E+00  0.82411667303E+03  0.38982278690E+04  0.38101197130E+04 0.  0.
        1    1    3    3  502    0 -0.66901436390E+03 -0.16255772649E+04 -0.33920470082E+03  0.17902908960E+04  0.50400001928E-02 0. -1.
       -1    1    3    3    0  502  0.66901436390E+03  0.16255772649E+04  0.11633213739E+04  0.21079369730E+04  0.50400001928E-02 0.  1.
</event>
<event>
 5   0  0.1341932E-06  0.3844196E+04  0.7818609E-02  0.8036736E-01
        2   -1    0    0  501    0  0.00000000000E+00  0.00000000000E+00  0.23234603810E+04  0.23234603810E+04  0.25500000920E-02 0.  1.
       -2   -1    0    0    0  501  0.00000000000E+00  0.00000000000E+00 -0.15900686100E+04  0.15900686100E+04  0.25500000920E-02 0. -1.
    10030    2    1    2    0    0  0.00000000000E+00  0.00000000000E+00  0.73339177102E+03  0.39135289910E+04  0.38441963625E+04 0.  0.
        2    1    3    3  502    0  0.11473108893E+04 -0.76066619618E+03  0.17323542355E+04  0.22126876273E+04  0.25500000920E-02 0.  1.
       -2    1    3    3    0  502 -0.11473108893E+04  0.76066619618E+03 -0.99896246452E+03  0.17008413636E+04  0.25500000920E-02 0. -1.
</event>
<event>
 5   0  0.1214844E-06  0.3759795E+04  0.7818609E-02  0.8054838E-01
        2   -1    0    0  501    0  0.00000000000E+00  0.00000000000E+00  0.24027818476E+04  0.24027818476E+04  0.25500000920E-02 0. -1.
       -2   -1    0    0    0  501  0.00000000000E+00  0.00000000000E+00 -0.14708011524E+04  0.14708011524E+04  0.25500000920E-02 0.  1.
    10030    2    1    2    0    0  0.00000000000E+00  0.00000000000E+00  0.93198069515E+03  0.38735830000E+04  0.37597948404E+04 0.  0.
        4    1    3    3  502    0  0.19701677364E+03  0.17158584769E+04 -0.29878709541E+03  0.17527867135E+04  0.12699999809E+01 0.  1.
       -4    1    3    3    0  502 -0.19701677364E+03 -0.17158584769E+04  0.12307677906E+04  0.21207962865E+04  0.12699999809E+01 0. -1.
</event>
<event>
 5   0  0.1079205E-06  0.3542925E+04  0.7818609E-02  0.8103692E-01
        1   -1    0    0  501    0  0.00000000000E+00  0.00000000000E+00  0.16791083777E+04  0.16791083778E+04  0.50400001928E-02 0. -1.
       -1   -1    0    0    0  501  0.00000000000E+00  0.00000000000E+00 -0.18688967807E+04  0.18688967807E+04  0.50400001928E-02 0.  1.
    10030    2    1    2    0    0  0.00000000000E+00  0.00000000000E+00 -0.18978840295E+03  0.35480051585E+04  0.35429254814E+04 0.  0.
        4    1    3    3  502    0  0.14879408621E+04  0.20225666501E+03 -0.10360303577E+04  0.18243454395E+04  0.12699999809E+01 0.  1.
       -4    1    3    3    0  502 -0.14879408621E+04 -0.20225666501E+03  0.84624195479E+03  0.17236597189E+04  0.12699999809E+01 0. -1.
</event>
<event>
 5   0  0.4795023E-07  0.1893994E+04  0.7818609E-02  0.8657852E-01
        1   -1    0    0  501    0  0.00000000000E+00  0.00000000000E+00  0.81322409514E+03  0.81322409515E+03  0.50400001928E-02 0. -1.
       -1   -1    0    0    0  501  0.00000000000E+00  0.00000000000E+00 -0.11027749014E+04  0.11027749014E+04  0.50400001928E-02 0.  1.
    10030    2    1    2    0    0  0.00000000000E+00  0.00000000000E+00 -0.28955080629E+03  0.19159989966E+04  0.18939937924E+04 0.  0.
        3    1    3    3  502    0  0.13288345178E+03 -0.93270256865E+03 -0.24186451720E+03  0.97267186050E+03  0.10100000352E+00 0.  1.
       -3    1    3    3    0  502 -0.13288345178E+03  0.93270256865E+03 -0.47686289084E+02  0.94332713609E+03  0.10100000352E+00 0. -1.
</event>
<event>
 5   0  0.1214844E-06  0.3572102E+04  0.7818609E-02  0.8096912E-01
        2   -1    0    0  501    0  0.00000000000E+00  0.00000000000E+00  0.27835279584E+04  0.27835279584E+04  0.25500000920E-02 0. -1.
       -2   -1    0    0    0  501  0.00000000000E+00  0.00000000000E+00 -0.11460198667E+04  0.11460198667E+04  0.25500000920E-02 0.  1.
    10030    2    1    2    0    0  0.00000000000E+00  0.00000000000E+00  0.16375080917E+04  0.39295478251E+04  0.35721020925E+04 0.  0.
        4    1    3    3  502    0 -0.89893259061E+02  0.19042903485E+03  0.27698234666E+04  0.27778170682E+04  0.12699999809E+01 0. -1.
       -4    1    3    3    0  502  0.89893259061E+02 -0.19042903485E+03 -0.11323153749E+04  0.11517307569E+04  0.12699999809E+01 0.  1.
</event>
<event>
 5   0  0.1184616E-06  0.3967020E+04  0.7818609E-02  0.8011233E-01
       -2   -1    0    0    0  501  0.00000000000E+00  0.00000000000E+00  0.27458307249E+04  0.27458307249E+04  0.25500000920E-02 0.  1.
        2   -1    0    0  501    0  0.00000000000E+00  0.00000000000E+00 -0.14328313308E+04  0.14328313308E+04  0.25500000920E-02 0. -1.
    10030    2    1    2    0    0  0.00000000000E+00  0.00000000000E+00  0.13129993940E+04  0.41786620557E+04  0.39670201874E+04 0.  0.
        5    1    3    3  502    0 -0.10637206303E+04 -0.13882913673E+04 -0.32906460810E+03  0.17796516812E+04  0.46999998093E+01 0. -1.
       -5    1    3    3    0  502  0.10637206303E+04  0.13882913673E+04  0.16420640021E+04  0.23990103745E+04  0.46999998093E+01 0.  1.
</event>
<event>
 5   0  0.4255250E-07  0.3723475E+04  0.7818609E-02  0.8062779E-01
       -1   -1    0    0    0  501  0.00000000000E+00  0.00000000000E+00  0.18566949450E+04  0.18566949450E+04  0.50400001928E-02 0.  1.
        1   -1    0    0  501    0  0.00000000000E+00  0.00000000000E+00 -0.18667937609E+04  0.18667937609E+04  0.50400001928E-02 0. -1.
    10030    2    1    2    0    0  0.00000000000E+00  0.00000000000E+00 -0.10098815936E+02  0.37234887059E+04  0.37234750109E+04 0.  0.
        2    1    3    3  502    0  0.16291989381E+03 -0.18233485127E+04 -0.34405485629E+03  0.18626638008E+04  0.25500000920E-02 0. -1.
       -2    1    3    3    0  502 -0.16291989381E+03  0.18233485127E+04  0.33395604036E+03  0.18608249051E+04  0.25500000920E-02 0.  1.
</event>
<event>
 5   0  0.5284458E-07  0.3672859E+04  0.7818609E-02  0.8074003E-01
       -1   -1    0    0    0  501  0.00000000000E+00  0.00000000000E+00  0.11021061473E+04  0.11021061473E+04  0.50400001928E-02 0.  1.
        1   -1    0    0  501    0  0.00000000000E+00  0.00000000000E+00 -0.30600262323E+04  0.30600262323E+04  0.50400001928E-02 0. -1.
    10030    2    1    2    0    0  0.00000000000E+00  0.00000000000E+00 -0.19579200850E+04  0.41621323797E+04  0.36728592250E+04 0.  0.
        5    1    3    3  502    0 -0.59539331001E+03 -0.12201068057E+04 -0.23803456121E+04  0.27402958114E+04  0.46999998093E+01 0. -1.
       -5    1    3    3    0  502  0.59539331001E+03  0.12201068057E+04  0.42242552709E+03  0.14218365682E+04  0.46999998093E+01 0.  1.
</event>
<event>
 5   0  0.1341932E-06  0.2824215E+04  0.7818609E-02  0.8295790E-01
        2   -1    0    0  501    0  0.00000000000E+00  0.00000000000E+00  0.19033135661E+04  0.19033135661E+04  0.25500000920E-02 0. -1.
       -2   -1    0    0    0  501  0.00000000000E+00  0.00000000000E+00 -0.10476716006E+04  0.10476716006E+04  0.25500000920E-02 0.  1.
    10030    2    1    2    0    0  0.00000000000E+00  0.00000000000E+00  0.85564196550E+03  0.29509851666E+04  0.28242149848E+04 0.  0.
        2    1    3    3  502    0 -0.11183920609E+03  0.56525849833E+03  0.17748833666E+04  0.18660750636E+04  0.25500000920E-02 0. -1.
       -2    1    3    3    0  502  0.11183920609E+03 -0.56525849833E+03 -0.91924140114E+03  0.10849101030E+04  0.25500000920E-02 0.  1.
</event>
<event>
 5   0  0.1214844E-06  0.3440459E+04  0.7818609E-02  0.8128047E-01
        2   -1    0    0  501    0  0.00000000000E+00  0.00000000000E+00  0.14798109199E+04  0.14798109199E+04  0.25500000920E-02 0. -1.
       -2   -1    0    0    0  501  0.00000000000E+00  0.00000000000E+00 -0.19997078596E+04  0.19997078596E+04  0.25500000920E-02 0.  1.
    10030    2    1    2    0    0  0.00000000000E+00  0.00000000000E+00 -0.51989693972E+03  0.34795187795E+04  0.34404589969E+04 0.  0.
        4    1    3    3  502    0  0.41349614099E+03 -0.45505012893E+03 -0.18847803464E+04  0.19825358119E+04  0.12699999809E+01 0.  1.
       -4    1    3    3    0  502 -0.41349614099E+03  0.45505012893E+03  0.13648834067E+04  0.14969829676E+04  0.12699999809E+01 0. -1.
</event>
<event>
 5   0  0.4795023E-07  0.3777574E+04  0.7818609E-02  0.8050985E-01
       -1   -1    0    0    0  501  0.00000000000E+00  0.00000000000E+00  0.19858399114E+04  0.19858399114E+04  0.50400001928E-02 0.  1.
        1   -1    0    0  501    0  0.00000000000E+00  0.00000000000E+00 -0.17964772058E+04  0.17964772058E+04  0.50400001928E-02 0. -1.
    10030    2    1    2    0    0  0.00000000000E+00  0.00000000000E+00  0.18936270559E+03  0.37823171171E+04  0.37775738961E+04 0.  0.
        3    1    3    3  502    0 -0.18078185998E+04  0.46683114495E+03 -0.19094288086E+03  0.18768587059E+04  0.10100000352E+00 0.  1.
       -3    1    3    3    0  502  0.18078185998E+04 -0.46683114495E+03  0.38030558645E+03  0.19054584113E+04  0.10100000352E+00 0. -1.
</event>
<event>
 5   0  0.4795023E-07  0.3887575E+04  0.7818609E-02  0.8027618E-01
       -1   -1    0    0    0  501  0.00000000000E+00  0.00000000000E+00  0.12912247239E+04  0.12912247240E+04  0.50400001928E-02 0. -1.
        1   -1    0    0  501    0  0.00000000000E+00  0.00000000000E+00 -0.29261441055E+04  0.29261441055E+04  0.50400001928E-02 0.  1.
    10030    2    1    2    0    0  0.00000000000E+00  0.00000000000E+00 -0.16349193815E+04  0.42173688294E+04  0.38875748815E+04 0.  0.
        3    1    3    3  502    0 -0.25375880960E+02  0.15431631155E+04  0.46444060841E+03  0.16117386343E+04  0.10100000352E+00 0. -1.
       -3    1    3    3    0  502  0.25375880960E+02 -0.15431631155E+04 -0.20993599899E+04  0.26056301951E+04  0.10100000352E+00 0.  1.
</event>
<event>
 5   0  0.1337854E-06  0.2685615E+04  0.7818609E-02  0.8339687E-01
        2   -1    0    0  501    0  0.00000000000E+00  0.00000000000E+00  0.69039714264E+03  0.69039714264E+03  0.25500000920E-02 0. -1.
       -2   -1    0    0    0  501  0.00000000000E+00  0.00000000000E+00 -0.26117320868E+04  0.26117320868E+04  0.25500000920E-02 0.  1.
    10030    2    1    2    0    0  0.00000000000E+00  0.00000000000E+00 -0.19213349441E+04  0.33021292294E+04  0.26856152889E+04 0.  0.
        3    1    3    3  502    0 -0.76191270811E+03  0.34684135818E+03  0.33026817247E+03  0.89993720807E+03  0.10100000352E+00 0. -1.
       -3    1    3    3    0  502  0.76191270811E+03 -0.34684135818E+03 -0.22516031166E+04  0.24021920214E+04  0.10100000352E+00 0.  1.
</event>
<event>
 5   0  0.8030324E-07  0.3456222E+04  0.7818609E-02  0.8124244E-01
       -1   -1    0    0    0  501  0.00000000000E+00  0.00000000000E+00  0.15512777650E+04  0.15512777650E+04  0.50400001928E-02 0.  1.
        1   -1    0    0  501    0  0.00000000000E+00  0.00000000000E+00 -0.19251012594E+04  0.19251012594E+04  0.50400001928E-02 0. -1.
    10030    2    1    2    0    0  0.00000000000E+00  0.00000000000E+00 -0.37382349436E+03  0.34763790244E+04  0.34562215086E+04 0.  0.
        1    1    3    3  502    0 -0.12252669338E+04 -0.22110361166E+02 -0.14124591459E+04  0.18699756057E+04  0.50400001928E-02 0. -1.
       -1    1    3    3    0  502  0.12252669338E+04  0.22110361166E+02  0.10386356515E+04  0.16064034187E+04  0.50400001928E-02 0.  1.
</event>
<event>
 5   0  0.4795023E-07  0.3878773E+04  0.7818609E-02  0.8029459E-01
       -1   -1    0    0    0  501  0.00000000000E+00  0.00000000000E+00  0.19788371709E+04  0.19788371709E+04  0.50400001928E-02 0.  1.
        1   -1    0    0  501    0  0.00000000000E+00  0.00000000000E+00 -0.19007219677E+04  0.19007219677E+04  0.50400001928E-02 0. -1.
    10030    2    1    2    0    0  0.00000000000E+00  0.00000000000E+00  0.78115203243E+02  0.38795591386E+04  0.38787726312E+04 0.  0.
        3    1    3    3  502    0 -0.41070359112E+03 -0.47551189094E+02  0.19342454239E+04  0.19779393129E+04  0.10100000352E+00 0.  1.
       -3    1    3    3    0  502  0.41070359112E+03  0.47551189094E+02 -0.18561302206E+04  0.19016198257E+04  0.10100000352E+00 0. -1.
</event>
<event>
 5   0  0.4795023E-07  0.1923941E+04  0.7818609E-02  0.8643030E-01
        1   -1    0    0  501    0  0.00000000000E+00  0.00000000000E+00  0.15855529515E+04  0.15855529515E+04  0.50400001928E-02 0.  1.
       -1   -1    0    0    0  501  0.00000000000E+00  0.00000000000E+00 -0.58363720941E+03  0.58363720944E+03  0.50400001928E-02 0. -1.
    10030    2    1    2    0    0  0.00000000000E+00  0.00000000000E+00  0.10019157420E+04  0.21691901609E+04  0.19239414752E+04 0.  0.
        3    1    3    3  502    0 -0.69285288657E+03 -0.57247683509E+03  0.11429440588E+03  0.90600114269E+03  0.10100000352E+00 0. -1.
       -3    1    3    3    0  502  0.69285288657E+03  0.57247683509E+03  0.88762133616E+03  0.12631890182E+04  0.10100000352E+00 0.  1.
</event>
<event>
 5   0  0.5284458E-07  0.2209808E+04  0.7818609E-02  0.8514357E-01
        1   -1    0    0  501    0  0.00000000000E+00  0.00000000000E+00  0.16502735663E+04  0.16502735663E+04  0.50400001928E-02 0. -1.
       -1   -1    0    0    0  501  0.00000000000E+00  0.00000000000E+00 -0.73976360336E+03  0.73976360338E+03  0.50400001928E-02 0.  1.
    10030    2    1    2    0    0  0.00000000000E+00  0.00000000000E+00  0.91050996291E+03  0.23900371697E+04  0.22098075210E+04 0.  0.
        5    1    3    3  502    0 -0.45972474940E+03  0.51840804234E+02  0.15404612728E+04  0.16084394105E+04  0.46999998093E+01 0. -1.
       -5    1    3    3    0  502  0.45972474940E+03 -0.51840804234E+02 -0.62995130993E+03  0.78159775913E+03  0.46999998093E+01 0.  1.
</event>
<event>
 5   0  0.1184616E-06  0.3769704E+04  0.7818609E-02  0.8052688E-01
        2   -1    0    0  501    0  0.00000000000E+00  0.00000000000E+00  0.15989600386E+04  0.15989600386E+04  0.25500000920E-02 0. -1.
       -2   -1    0    0    0  501  0.00000000000E+00  0.00000000000E+00 -0.22218615364E+04  0.22218615364E+04  0.25500000920E-02 0.  1.
    10030    2    1    2    0    0  0.00000000000E+00  0.00000000000E+00 -0.62290149774E+03  0.38208215750E+04  0.37697043958E+04 0.  0.
        5    1    3    3  502    0  0.10629368652E+04  0.25713127954E+03 -0.18674203228E+04  0.21640776387E+04  0.46999998093E+01 0.  1.
       -5    1    3    3    0  502 -0.10629368652E+04 -0.25713127954E+03  0.12445188251E+04  0.16567439363E+04  0.46999998093E+01 0. -1.
</event>
<event>
 5   0  0.1079205E-06  0.1992812E+04  0.7818609E-02  0.8609988E-01
       -1   -1    0    0    0  501  0.00000000000E+00  0.00000000000E+00  0.11735337775E+04  0.11735337775E+04  0.50400001928E-02 0. -1.
        1   -1    0    0  501    0  0.00000000000E+00  0.00000000000E+00 -0.84601345773E+03  0.84601345774E+03  0.50400001928E-02 0.  1.
    10030    2    1    2    0    0  0.00000000000E+00  0.00000000000E+00  0.32752031975E+03  0.20195472352E+04  0.19928124537E+04 0.  0.
        4    1    3    3  502    0 -0.66044333293E+03  0.74576938153E+03  0.18564593779E+03  0.10133229463E+04  0.12699999809E+01 0. -1.
       -4    1    3    3    0  502  0.66044333293E+03 -0.74576938153E+03  0.14187438196E+03  0.10062242889E+04  0.12699999809E+01 0.  1.
</event>
<event>
 5   0  0.4795023E-07  0.3786673E+04  0.7818609E-02  0.8049021E-01
        1   -1    0    0  501    0  0.00000000000E+00  0.00000000000E+00  0.17858136933E+04  0.17858136934E+04  0.50400001928E-02 0. -1.
       -1   -1    0    0    0  501  0.00000000000E+00  0.00000000000E+00 -0.20073332499E+04  0.20073332499E+04  0.50400001928E-02 0.  1.
    10030    2    1    2    0    0  0.00000000000E+00  0.00000000000E+00 -0.22151955651E+03  0.37931469432E+04  0.37866730541E+04 0.  0.
        3    1    3    3  502    0 -0.67106521988E+03  0.71931953935E+03 -0.17312319128E+04  0.19912089482E+04  0.10100000352E+00 0.  1.
       -3    1    3    3    0  502  0.67106521988E+03 -0.71931953935E+03  0.15097123563E+04  0.18019379951E+04  0.10100000352E+00 0. -1.
</event>
<event>
 5   0  0.4795023E-07  0.2109282E+04  0.7818609E-02  0.8557166E-01
        1   -1    0    0  501    0  0.00000000000E+00  0.00000000000E+00  0.66176427926E+03  0.66176427928E+03  0.50400001928E-02 0. -1.
       -1   -1    0    0    0  501  0.00000000000E+00  0.00000000000E+00 -0.16807603934E+04  0.16807603934E+04  0.50400001928E-02 0.  1.
    10030    2    1    2    0    0  0.00000000000E+00  0.00000000000E+00 -0.10189961142E+04  0.23425246727E+04  0.21092815747E+04 0.  0.
        3    1    3    3  502    0  0.53084609969E+03  0.74704886467E+03  0.70121826561E+02  0.91912821115E+03  0.10100000352E+00 0.  1.
       -3    1    3    3    0  502 -0.53084609969E+03 -0.74704886467E+03 -0.10891179407E+04  0.14233964616E+04  0.10100000352E+00 0. -1.
</event>
<event>
 5   0  0.1184616E-06  0.1913723E+04  0.7818609E-02  0.8648056E-01
        2   -1    0    0  501    0  0.00000000000E+00  0.00000000000E+00  0.22252954505E+04  0.22252954505E+04  0.25500000920E-02 0.  1.
       -2   -1    0    0    0  501  0.00000000000E+00  0.00000000000E+00 -0.41144359000E+03  0.41144359000E+03  0.25500000920E-02 0. -1.
    10030    2    1    2    0    0  0.00000000000E+00  0.00000000000E+00  0.18138518605E+04  0.26367390405E+04  0.19137226016E+04 0.  0.
        5    1    3    3  502    0  0.30793087416E+03 -0.52264381311E+03 -0.11263534629E+03  0.61699820897E+03  0.46999998093E+01 0. -1.
       -5    1    3    3    0  502 -0.30793087416E+03  0.52264381311E+03  0.19264872068E+04  0.20197408315E+04  0.46999998093E+01 0.  1.
</event>
<event>
 5   0  0.1214844E-06  0.3834396E+04  0.7818609E-02  0.8038814E-01
       -2   -1    0    0    0  501  0.00000000000E+00  0.00000000000E+00  0.15640463673E+04  0.15640463673E+04  0.25500000920E-02 0.  1.
        2   -1    0    0  501    0  0.00000000000E+00  0.00000000000E+00 -0.23500887807E+04  0.23500887807E+04  0.25500000920E-02 0. -1.
    10030    2    1    2    0    0  0.00000000000E+00  0.00000000000E+00 -0.78604241341E+03  0.39141351480E+04  0.38343958170E+04 0.  0.
        4    1    3    3  502    0 -0.38577540370E+03 -0.53119153634E+03 -0.22317742807E+04  0.23263286877E+04  0.12699999809E+01 0. -1.
       -4    1    3    3    0  502  0.38577540370E+03  0.53119153634E+03  0.14457318673E+04  0.15878064603E+04  0.12699999809E+01 0.  1.
</event>
<event>
 5   0  0.1214844E-06  0.3736794E+04  0.7818609E-02  0.8059856E-01
        2   -1    0    0  501    0  0.00000000000E+00  0.00000000000E+00  0.19068232307E+04  0.19068232307E+04  0.25500000920E-02 0.  1.
       -2   -1    0    0    0  501  0.00000000000E+00  0.00000000000E+00 -0.18307451138E+04  0.18307451138E+04  0.25500000920E-02 0. -1.
    10030    2    1    2    0    0  0.00000000000E+00  0.00000000000E+00  0.76078116908E+02  0.37375683445E+04  0.37367939801E+04 0.  0.
        4    1    3    3  502    0  0.12225424389E+04  0.13889980959E+04 -0.22081946857E+03  0.18635151129E+04  0.12699999809E+01 0. -1.
       -4    1    3    3    0  502 -0.12225424389E+04 -0.13889980959E+04  0.29689758548E+03  0.18740532315E+04  0.12699999809E+01 0.  1.
</event>
<event>
 5   0  0.4255250E-07  0.4071877E+04  0.7818609E-02  0.7990202E-01
        3   -1    0    0  501    0  0.00000000000E+00  0.00000000000E+00  0.19002096171E+04  0.19002096198E+04  0.10100000352E+00 0. -1.
       -3   -1    0    0    0  501  0.00000000000E+00  0.00000000000E+00 -0.21813624139E+04  0.21813624162E+04  0.10100000352E+00 0.  1.
    10030    2    1    2    0    0  0.00000000000E+00  0.00000000000E+00 -0.28115279681E+03  0.40815720360E+04  0.40718771334E+04 0.  0.
        2    1    3    3  502    0 -0.73865871919E+03  0.84997365037E+03 -0.18407793457E+04  0.21579018767E+04  0.25500000920E-02 0.  1.
       -2    1    3    3    0  502  0.73865871919E+03 -0.84997365037E+03  0.15596265489E+04  0.19236701593E+04  0.25500000920E-02 0. -1.
</event>
<event>
 5   0  0.1341932E-06  0.2420884E+04  0.7818609E-02  0.8431726E-01
       -2   -1    0    0    0  501  0.00000000000E+00  0.00000000000E+00  0.11251734201E+04  0.11251734201E+04  0.25500000920E-02 0.  1.
        2   -1    0    0  501    0  0.00000000000E+00  0.00000000000E+00 -0.13021728335E+04  0.13021728335E+04  0.25500000920E-02 0. -1.
    10030    2    1    2    0    0  0.00000000000E+00  0.00000000000E+00 -0.17699941332E+03  0.24273462536E+04  0.24208843513E+04 0.  0.
        2    1    3    3  502    0  0.83120539425E+03  0.49017164921E+03 -0.82120302313E+03  0.12671010450E+04  0.25500000920E-02 0. -1.
       -2    1    3    3    0  502 -0.83120539425E+03 -0.49017164921E+03  0.64420360982E+03  0.11602452086E+04  0.25500000920E-02 0.  1.
</event>
<event>
 5   0  0.1372748E-06  0.2585406E+04  0.7818609E-02  0.8373175E-01
        2   -1    0    0  501    0  0.00000000000E+00  0.00000000000E+00  0.26180123166E+04  0.26180123166E+04  0.25500000920E-02 0. -1.
       -2   -1    0    0    0  501  0.00000000000E+00  0.00000000000E+00 -0.63830134389E+03  0.63830134390E+03  0.25500000920E-02 0.  1.
    10030    2    1    2    0    0  0.00000000000E+00  0.00000000000E+00  0.19797109727E+04  0.32563136605E+04  0.25854057941E+04 0.  0.
        1    1    3    3  502    0  0.21279517271E+03 -0.88367930522E+03 -0.16786230566E+03  0.92430982560E+03  0.50400001928E-02 0.  1.
       -1    1    3    3    0  502 -0.21279517271E+03  0.88367930522E+03  0.21475732783E+04  0.23320038349E+04  0.50400001928E-02 0. -1.
</event>
<event>
 5   0  0.1079205E-06  0.2308589E+04  0.7818609E-02  0.8474542E-01
       -1   -1    0    0    0  501  0.00000000000E+00  0.00000000000E+00  0.82748677607E+03  0.82748677608E+03  0.50400001928E-02 0. -1.
        1   -1    0    0  501    0  0.00000000000E+00  0.00000000000E+00 -0.16101710725E+04  0.16101710725E+04  0.50400001928E-02 0.  1.
    10030    2    1    2    0    0  0.00000000000E+00  0.00000000000E+00 -0.78268429642E+03  0.24376578486E+04  0.23085885469E+04 0.  0.
        4    1    3    3  502    0  0.41592036836E+03  0.33667868485E+03  0.68860553379E+03  0.87207882884E+03  0.12699999809E+01 0. -1.
       -4    1    3    3    0  502 -0.41592036836E+03 -0.33667868485E+03 -0.14712898302E+04  0.15655790197E+04  0.12699999809E+01 0.  1.
</event>
<event>
 5   0  0.1372748E-06  0.2402499E+04  0.7818609E-02  0.8438569E-01
        2   -1    0    0  501    0  0.00000000000E+00  0.00000000000E+00  0.13316318749E+04  0.13316318749E+04  0.25500000920E-02 0. -1.
       -2   -1    0    0    0  501  0.00000000000E+00  0.00000000000E+00 -0.10836326636E+04  0.10836326636E+04  0.25500000920E-02 0.  1.
    10030    2    1    2    0    0  0.00000000000E+00  0.00000000000E+00  0.24799921131E+03  0.24152645384E+04  0.24024985290E+04 0.  0.
        1    1    3    3  502    0  0.54444176340E+03 -0.88787642302E+03 -0.47772777960E+03  0.11458469390E+04  0.50400001928E-02 0.  1.
       -1    1    3    3    0  502 -0.54444176340E+03  0.88787642302E+03  0.72572699091E+03  0.12694175994E+04  0.50400001928E-02 0. -1.
</event>
<event>
 5   0  0.4255250E-07  0.2354121E+04  0.7818609E-02  0.8456882E-01
        1   -1    0    0  501    0  0.00000000000E+00  0.00000000000E+00  0.18630185405E+04  0.18630185405E+04  0.50400001928E-02 0. -1.
       -1   -1    0    0    0  501  0.00000000000E+00  0.00000000000E+00 -0.74367052706E+03  0.74367052708E+03  0.50400001928E-02 0.  1.
    10030    2    1    2    0    0  0.00000000000E+00  0.00000000000E+00  0.11193480135E+04  0.26066890676E+04  0.23541214752E+04 0.  0.
        2    1    3    3  502    0  0.16760907906E+03  0.12279377395E+03 -0.72320381311E+03  0.75245921458E+03  0.25500000920E-02 0.  1.
       -2    1    3    3    0  502 -0.16760907906E+03 -0.12279377395E+03  0.18425518266E+04  0.18542298530E+04  0.25500000920E-02 0. -1.
</event>
<event>
 5   0  0.1214844E-06  0.3111565E+04  0.7818609E-02  0.8212571E-01
        2   -1    0    0  501    0  0.00000000000E+00  0.00000000000E+00  0.16567768751E+04  0.16567768751E+04  0.25500000920E-02 0.  1.
       -2   -1    0    0    0  501  0.00000000000E+00  0.00000000000E+00 -0.14609450293E+04  0.14609450293E+04  0.25500000920E-02 0. -1.
    10030    2    1    2    0    0  0.00000000000E+00  0.00000000000E+00  0.19583184583E+03  0.31177219044E+04  0.31115654840E+04 0.  0.
        4    1    3    3  502    0  0.26264044156E+02  0.45249854468E+03  0.15891527727E+04  0.16525292375E+04  0.12699999809E+01 0.  1.
       -4    1    3    3    0  502 -0.26264044156E+02 -0.45249854468E+03 -0.13933209269E+04  0.14651926669E+04  0.12699999809E+01 0. -1.
</event>
<event>
 5   0  0.1337854E-06  0.3765766E+04  0.7818609E-02  0.8053542E-01
       -2   -1    0    0    0  501  0.00000000000E+00  0.00000000000E+00  0.18316216914E+04  0.18316216914E+04  0.25500000920E-02 0.  1.
        2   -1    0    0  501    0  0.00000000000E+00  0.00000000000E+00 -0.19355784876E+04  0.19355784876E+04  0.25500000920E-02 0. -1.
    10030    2    1    2    0    0  0.00000000000E+00  0.00000000000E+00 -0.10395679617E+03  0.37672001790E+04  0.37657655495E+04 0.  0.
        3    1    3    3  502    0 -0.12050548922E+04 -0.11649424520E+04  0.80625246375E+03  0.18599170022E+04  0.10100000352E+00 0.  1.
       -3    1    3    3    0  502  0.12050548922E+04  0.11649424520E+04 -0.91020925992E+03  0.19072831768E+04  0.10100000352E+00 0. -1.
</event>
<event>
 5   0  0.4255250E-07  0.2131143E+04  0.7818609E-02  0.8547647E-01
        1   -1    0    0  501    0  0.00000000000E+00  0.00000000000E+00  0.24969410643E+04  0.24969410643E+04  0.50400001928E-02 0.  1.
       -1   -1    0    0    0  501  0.00000000000E+00  0.00000000000E+00 -0.45473337923E+03  0.45473337926E+03  0.50400001928E-02 0. -1.
    10030    2    1    2    0    0  0.00000000000E+00  0.00000000000E+00  0.20422076851E+04  0.29516744436E+04  0.21311428370E+04 0.  0.
        2    1    3    3  502    0  0.10365575066E+04 -0.18037210797E+03  0.78746255815E+03  0.13141852389E+04  0.25500000920E-02 0. -1.
       -2    1    3    3    0  502 -0.10365575066E+04  0.18037210797E+03  0.12547451270E+04  0.16374892047E+04  0.25500000920E-02 0.  1.
</event>
<event>
 5   0  0.8030324E-07  0.2343551E+04  0.7818609E-02  0.8460945E-01
        1   -1    0    0  501    0  0.00000000000E+00  0.00000000000E+00  0.11348507122E+04  0.11348507122E+04  0.50400001928E-02 0. -1.
       -1   -1    0    0    0  501  0.00000000000E+00  0.00000000000E+00 -0.12099015642E+04  0.12099015642E+04  0.50400001928E-02 0.  1.
    10030    2    1    2    0    0  0.00000000000E+00  0.00000000000E+00 -0.75050851982E+02  0.23447522765E+04  0.23435508545E+04 0.  0.
        1    1    3    3  502    0 -0.27936899789E+02  0.42103051626E+03 -0.11312511891E+04  0.12073841223E+04  0.50400001928E-02 0.  1.
       -1    1    3    3    0  502  0.27936899789E+02 -0.42103051626E+03  0.10562003371E+04  0.11373681542E+04  0.50400001928E-02 0. -1.
</event>
<event>
 5   0  0.5284458E-07  0.2905163E+04  0.7818609E-02  0.8271343E-01
       -1   -1    0    0    0  501  0.00000000000E+00  0.00000000000E+00  0.11607325413E+04  0.11607325414E+04  0.50400001928E-02 0. -1.
        1   -1    0    0  501    0  0.00000000000E+00  0.00000000000E+00 -0.18178119642E+04  0.18178119642E+04  0.50400001928E-02 0.  1.
    10030    2    1    2    0    0  0.00000000000E+00  0.00000000000E+00 -0.65707942284E+03  0.29785445055E+04  0.29051633351E+04 0.  0.
        5    1    3    3  502    0  0.68472640404E+03 -0.24452277955E+03  0.96073291869E+03  0.12048532978E+04  0.46999998093E+01 0. -1.
       -5    1    3    3    0  502 -0.68472640404E+03  0.24452277955E+03 -0.16178123415E+04  0.17736912078E+04  0.46999998093E+01 0.  1.
</event>
<event>
 5   0  0.5284458E-07  0.3597121E+04  0.7818609E-02  0.8091151E-01
       -1   -1    0    0    0  501  0.00000000000E+00  0.00000000000E+00  0.17518576652E+04  0.17518576652E+04  0.50400001928E-02 0.  1.
        1   -1    0    0  501    0  0.00000000000E+00  0.00000000000E+00 -0.18465085649E+04  0.18465085649E+04  0.50400001928E-02 0. -1.
    10030    2    1    2    0    0  0.00000000000E+00  0.00000000000E+00 -0.94650899635E+02  0.35983662301E+04  0.35971211730E+04 0.  0.
        5    1    3    3  502    0 -0.13157530617E+04  0.78142575270E+03 -0.99262118729E+03  0.18240480360E+04  0.46999998093E+01 0. -1.
       -5    1    3    3    0  502  0.13157530617E+04 -0.78142575270E+03  0.89797028766E+03  0.17743181941E+04  0.46999998093E+01 0.  1.
</event>
<event>
 5   0  0.1372748E-06  0.3472999E+04  0.7818609E-02  0.8120219E-01
       -2   -1    0    0    0  501  0.00000000000E+00  0.00000000000E+00  0.14535085824E+04  0.14535085824E+04  0.25500000920E-02 0.  1.
        2   -1    0    0  501    0  0.00000000000E+00  0.00000000000E+00 -0.20745878126E+04  0.20745878126E+04  0.25500000920E-02 0. -1.
    10030    2    1    2    0    0  0.00000000000E+00  0.00000000000E+00 -0.62107923017E+03  0.35280963949E+04  0.34729993898E+04 0.  0.
        1    1    3    3  502    0  0.13530849321E+04  0.10833058086E+04 -0.20379705356E+03  0.17452574445E+04  0.50400001928E-02 0.  1.
       -1    1    3    3    0  502 -0.13530849321E+04 -0.10833058086E+04 -0.41728217661E+03  0.17828389505E+04  0.50400001928E-02 0. -1.
</event>
<event>
 5   0  0.1184616E-06  0.3739097E+04  0.7818609E-02  0.8059352E-01
        2   -1    0    0  501    0  0.00000000000E+00  0.00000000000E+00  0.12743196774E+04  0.12743196774E+04  0.25500000920E-02 0.  1.
       -2   -1    0    0    0  501  0.00000000000E+00  0.00000000000E+00 -0.27428062788E+04  0.27428062788E+04  0.25500000920E-02 0. -1.
    10030    2    1    2    0    0  0.00000000000E+00  0.00000000000E+00 -0.14684866013E+04  0.40171259562E+04  0.37390972239E+04 0.  0.
        5    1    3    3  502    0 -0.97051029487E+03 -0.88965445757E+03  0.69178714610E+03  0.14872682447E+04  0.46999998093E+01 0.  1.
       -5    1    3    3    0  502  0.97051029487E+03  0.88965445757E+03 -0.21602737475E+04  0.25298577115E+04  0.46999998093E+01 0. -1.
</event>
<event>
 5   0  0.1341932E-06  0.2552637E+04  0.7818609E-02  0.8384470E-01
       -2   -1    0    0    0  501  0.00000000000E+00  0.00000000000E+00  0.11305389740E+04  0.11305389740E+04  0.25500000920E-02 0.  1.
        2   -1    0    0  501    0  0.00000000000E+00  0.00000000000E+00 -0.14408956376E+04  0.14408956376E+04  0.25500000920E-02 0. -1.
    10030    2    1    2    0    0  0.00000000000E+00  0.00000000000E+00 -0.31035666362E+03  0.25714346116E+04  0.25526368137E+04 0.  0.
        2    1    3    3  502    0 -0.31057869896E+03  0.68736403824E+03  0.88199592056E+03  0.11605366229E+04  0.25500000920E-02 0.  1.
       -2    1    3    3    0  502  0.31057869896E+03 -0.68736403824E+03 -0.11923525842E+04  0.14108979886E+04  0.25500000920E-02 0. -1.
</event>
<event>
 5   0  0.4795023E-07  0.3852401E+04  0.7818609E-02  0.8035002E-01
       -1   -1    0    0    0  501  0.00000000000E+00  0.00000000000E+00  0.15868378786E+04  0.15868378786E+04  0.50400001928E-02 0. -1.
        1   -1    0    0  501    0  0.00000000000E+00  0.00000000000E+00 -0.23381397699E+04  0.23381397700E+04  0.50400001928E-02 0.  1.
    10030    2    1    2    0    0  0.00000000000E+00  0.00000000000E+00 -0.75130189134E+03  0.39249776486E+04  0.38524012005E+04 0.  0.
        3    1    3    3  502    0 -0.58408357426E+03 -0.50065980155E+03 -0.21748284750E+04  0.23068794429E+04  0.10100000352E+00 0.  1.
       -3    1    3    3    0  502  0.58408357426E+03  0.50065980155E+03  0.14235265836E+04  0.16180982056E+04  0.10100000352E+00 0. -1.
</event>
<event>
 5   0  0.1341932E-06  0.2743876E+04  0.7818609E-02  0.8320907E-01
       -2   -1    0    0    0  501  0.00000000000E+00  0.00000000000E+00  0.14761216144E+04  0.14761216144E+04  0.25500000920E-02 0. -1.
        2   -1    0    0  501    0  0.00000000000E+00  0.00000000000E+00 -0.12751079809E+04  0.12751079809E+04  0.25500000920E-02 0.  1.
    10030    2    1    2    0    0  0.00000000000E+00  0.00000000000E+00  0.20101363342E+03  0.27512295953E+04  0.27438764194E+04 0.  0.
        2    1    3    3  502    0  0.10537448816E+02 -0.37370170043E+03 -0.12230497465E+04  0.12789115220E+04  0.25500000920E-02 0.  1.
       -2    1    3    3    0  502 -0.10537448816E+02  0.37370170043E+03  0.14240633799E+04  0.14723180733E+04  0.25500000920E-02 0. -1.
</event>
<event>
 5   0  0.4795023E-07  0.2698006E+04  0.7818609E-02  0.8335652E-01
        1   -1    0    0  501    0  0.00000000000E+00  0.00000000000E+00  0.14667528534E+04  0.14667528534E+04  0.50400001928E-02 0. -1.
       -1   -1    0    0    0  501  0.00000000000E+00  0.00000000000E+00 -0.12407055964E+04  0.12407055964E+04  0.50400001928E-02 0.  1.
    10030    2    1    2    0    0  0.00000000000E+00  0.00000000000E+00  0.22604725696E+03  0.27074584498E+04  0.26980055403E+04 0.  0.
        3    1    3    3  502    0 -0.12924460612E+04 -0.71612312344E+02 -0.26812724857E+03  0.13219067199E+04  0.10100000352E+00 0.  1.
       -3    1    3    3    0  502  0.12924460612E+04  0.71612312344E+02  0.49417450553E+03  0.13855517300E+04  0.10100000352E+00 0. -1.
</event>
<event>
 5   0  0.1214844E-06  0.3410643E+04  0.7818609E-02  0.8135299E-01
       -2   -1    0    0    0  501  0.00000000000E+00  0.00000000000E+00  0.11763013900E+04  0.11763013900E+04  0.25500000920E-02 0. -1.
        2   -1    0    0  501    0  0.00000000000E+00  0.00000000000E+00 -0.24722591138E+04  0.24722591138E+04  0.25500000920E-02 0.  1.
    10030    2    1    2    0    0  0.00000000000E+00  0.00000000000E+00 -0.12959577238E+04  0.36485605037E+04  0.34106432425E+04 0.  0.
        4    1    3    3  502    0 -0.49663046536E+03  0.15791145014E+04 -0.20967096552E+03  0.16685946046E+04  0.12699999809E+01 0.  1.
       -4    1    3    3    0  502  0.49663046536E+03 -0.15791145014E+04 -0.10862867583E+04  0.19799658992E+04  0.12699999809E+01 0. -1.
</event>
<event>
 5   0  0.5284458E-07  0.3300452E+04  0.7818609E-02  0.8162780E-01
        1   -1    0    0  501    0  0.00000000000E+00  0.00000000000E+00  0.15564257699E+04  0.15564257699E+04  0.50400001928E-02 0. -1.
       -1   -1    0    0    0  501  0.00000000000E+00  0.00000000000E+00 -0.17496792903E+04  0.17496792903E+04  0.50400001928E-02 0.  1.
    10030    2    1    2    0    0  0.00000000000E+00  0.00000000000E+00 -0.19325352037E+03  0.33061050602E+04  0.33004520517E+04 0.  0.
        5    1    3    3  502    0 -0.86819454668E+03  0.14005991645E+04 -0.18500517280E+03  0.16582185605E+04  0.46999998093E+01 0. -1.
       -5    1    3    3    0  502  0.86819454668E+03 -0.14005991645E+04 -0.82483475680E+01  0.16478864997E+04  0.46999998093E+01 0.  1.
</event>
<event>
 5   0  0.4795023E-07  0.2933068E+04  0.7818609E-02  0.8263106E-01
       -1   -1    0    0    0  501  0.00000000000E+00  0.00000000000E+00  0.16853729581E+04  0.16853729581E+04  0.50400001928E-02 0.  1.
        1   -1    0    0  501    0  0.00000000000E+00  0.00000000000E+00 -0.12761107813E+04  0.12761107813E+04  0.50400001928E-02 0. -1.
    10030    2    1    2    0    0  0.00000000000E+00  0.00000000000E+00  0.40926217679E+03  0.29614837394E+04  0.29330684290E+04 0.  0.
        3    1    3    3  502    0  0.71582699079E+03  0.49059930283E+03 -0.98903468551E+03  0.13157832557E+04  0.10100000352E+00 0. -1.
       -3    1    3    3    0  502 -0.71582699079E+03 -0.49059930283E+03  0.13982968623E+04  0.16457004837E+04  0.10100000352E+00 0.  1.
</event>
<event>
 5   0  0.4255250E-07  0.3719494E+04  0.7818609E-02  0.8063655E-01
        1   -1    0    0  501    0  0.00000000000E+00  0.00000000000E+00  0.11394963599E+04  0.11394963599E+04  0.50400001928E-02 0. -1.
       -1   -1    0    0    0  501  0.00000000000E+00  0.00000000000E+00 -0.30352516623E+04  0.30352516623E+04  0.50400001928E-02 0.  1.
    10030    2    1    2    0    0  0.00000000000E+00  0.00000000000E+00 -0.18957553024E+04  0.41747480222E+04  0.37194936325E+04 0.  0.
        2    1    3    3  502    0  0.66458034637E+03 -0.17210362253E+04 -0.12111640514E+04  0.22069325058E+04  0.25500000920E-02 0.  1.
       -2    1    3    3    0  502 -0.66458034637E+03  0.17210362253E+04 -0.68459125096E+03  0.19678155164E+04  0.25500000920E-02 0. -1.
</event>
<event>
 5   0  0.1079205E-06  0.2425809E+04  0.7818609E-02  0.8429904E-01
        1   -1    0    0  501    0  0.00000000000E+00  0.00000000000E+00  0.98221501371E+03  0.98221501372E+03  0.50400001928E-02 0.  1.
       -1   -1    0    0    0  501  0.00000000000E+00  0.00000000000E+00 -0.14977756375E+04  0.14977756375E+04  0.50400001928E-02 0. -1.
    10030    2    1    2    0    0  0.00000000000E+00  0.00000000000E+00 -0.51556062374E+03  0.24799906512E+04  0.24258093233E+04 0.  0.
        4    1    3    3  502    0 -0.84378052994E+03 -0.25787340140E+03 -0.11086384287E+04  0.14168786301E+04  0.12699999809E+01 0. -1.
       -4    1    3    3    0  502  0.84378052994E+03  0.25787340140E+03  0.59307780494E+03  0.10631120211E+04  0.12699999809E+01 0.  1.
</event>
<event>
 5   0  0.1372748E-06  0.3837892E+04  0.7818609E-02  0.8038072E-01
       -2   -1    0    0    0  501  0.00000000000E+00  0.00000000000E+00  0.18270104535E+04  0.18270104535E+04  0.25500000920E-02 0.  1.
        2   -1    0    0  501    0  0.00000000000E+00  0.00000000000E+00 -0.20155074568E+04  0.20155074568E+04  0.25500000920E-02 0. -1.
    10030    2    1    2    0    0  0.00000000000E+00  0.00000000000E+00 -0.18849700334E+03  0.38425179103E+04  0.38378917091E+04 0.  0.
        1    1    3    3  502    0 -0.20617532118E+03  0.26747540944E+03  0.17970234232E+04  0.18284814851E+04  0.50400001928E-02 0.  1.
       -1    1    3    3    0  502  0.20617532118E+03 -0.26747540944E+03 -0.19855204266E+04  0.20140364252E+04  0.50400001928E-02 0. -1.
</event>
<event>
 5   0  0.4255250E-07  0.2112998E+04  0.7818609E-02  0.8555539E-01
        1   -1    0    0  501    0  0.00000000000E+00  0.00000000000E+00  0.11358081932E+04  0.11358081932E+04  0.50400001928E-02 0. -1.
       -1   -1    0    0    0  501  0.00000000000E+00  0.00000000000E+00 -0.98272765178E+03  0.98272765179E+03  0.50400001928E-02 0.  1.
    10030    2    1    2    0    0  0.00000000000E+00  0.00000000000E+00  0.15308054138E+03  0.21185358450E+04  0.21129979825E+04 0.  0.
        2    1    3    3  502    0 -0.89697118241E+03 -0.51271262351E+03 -0.14485190508E+03  0.10432706316E+04  0.25500000920E-02 0.  1.
       -2    1    3    3    0  502  0.89697118241E+03  0.51271262351E+03  0.29793244646E+03  0.10752652133E+04  0.25500000920E-02 0. -1.
</event>
<event>
 5   0  0.1337854E-06  0.3814599E+04  0.7818609E-02  0.8043029E-01
       -2   -1    0    0    0  501  0.00000000000E+00  0.00000000000E+00  0.13374118912E+04  0.13374118912E+04  0.25500000920E-02 0.  1.
        2   -1    0    0  501    0  0.00000000000E+00  0.00000000000E+00 -0.27200225555E+04  0.27200225555E+04  0.25500000920E-02 0. -1.
    10030    2    1    2    0    0  0.00000000000E+00  0.00000000000E+00 -0.13826106643E+04  0.40574344467E+04  0.38145985425E+04 0.  0.
        3    1    3    3  502    0 -0.11216206212E+04 -0.14372311495E+04 -0.12874524432E+04  0.22318602104E+04  0.10100000352E+00 0. -1.
       -3    1    3    3    0  502  0.11216206212E+04  0.14372311495E+04 -0.95158221142E+02  0.18255742363E+04  0.10100000352E+00 0.  1.
</event>
<event>
 5   0  0.8030324E-07  0.2066252E+04  0.7818609E-02  0.8576257E-01
       -1   -1    0    0    0  501  0.00000000000E+00  0.00000000000E+00  0.43133981340E+03  0.43133981343E+03  0.50400001928E-02 0.  1.
        1   -1    0    0  501    0  0.00000000000E+00  0.00000000000E+00 -0.24744965506E+04  0.24744965506E+04  0.50400001928E-02 0. -1.
    10030    2    1    2    0    0  0.00000000000E+00  0.00000000000E+00 -0.20431567372E+04  0.29058363641E+04  0.20662515631E+04 0.  0.
        1    1    3    3  502    0  0.34641792123E+03  0.39531290355E+03  0.22924431772E+03  0.57343755117E+03  0.50400001928E-02 0.  1.
       -1    1    3    3    0  502 -0.34641792123E+03 -0.39531290355E+03 -0.22724010550E+04  0.23323988129E+04  0.50400001928E-02 0. -1.
</event>
<event>
 5   0  0.1372748E-06  0.3775635E+04  0.7818609E-02  0.8051404E-01
       -2   -1    0    0    0  501  0.00000000000E+00  0.00000000000E+00  0.17107210844E+04  0.17107210844E+04  0.25500000920E-02 0. -1.
        2   -1    0    0  501    0  0.00000000000E+00  0.00000000000E+00 -0.20832470096E+04  0.20832470096E+04  0.25500000920E-02 0.  1.
    10030    2    1    2    0    0  0.00000000000E+00  0.00000000000E+00 -0.37252592522E+03  0.37939680941E+04  0.37756348253E+04 0.  0.
        1    1    3    3  502    0  0.63095387913E+03  0.10052079019E+04 -0.16614885896E+04  0.20418349730E+04  0.50400001928E-02 0.  1.
       -1    1    3    3    0  502 -0.63095387913E+03 -0.10052079019E+04  0.12889626644E+04  0.17521331210E+04  0.50400001928E-02 0. -1.
</event>
<event>
 5   0  0.5284458E-07  0.3828426E+04  0.7818609E-02  0.8040082E-01
        1   -1    0    0  501    0  0.00000000000E+00  0.00000000000E+00  0.17836726413E+04  0.17836726413E+04  0.50400001928E-02 0. -1.
       -1   -1    0    0    0  501  0.00000000000E+00  0.00000000000E+00 -0.20543071947E+04  0.20543071947E+04  0.50400001928E-02 0.  1.
    10030    2    1    2    0    0  0.00000000000E+00  0.00000000000E+00 -0.27063455344E+03  0.38379798360E+04  0.38284260683E+04 0.  0.
        5    1    3    3  502    0 -0.12640100857E+04 -0.62657279831E+03  0.11616943472E+04  0.18275313443E+04  0.46999998093E+01 0. -1.
       -5    1    3    3    0  502  0.12640100857E+04  0.62657279831E+03 -0.14323289006E+04  0.20104484917E+04  0.46999998093E+01 0.  1.
</event>
<event>
 5   0  0.1214844E-06  0.3805830E+04  0.7818609E-02  0.8044905E-01
       -2   -1    0    0    0  501  0.00000000000E+00  0.00000000000E+00  0.14822491238E+04  0.14822491238E+04  0.25500000920E-02 0.  1.
        2   -1    0    0  501    0  0.00000000000E+00  0.00000000000E+00 -0.24429665312E+04  0.24429665312E+04  0.25500000920E-02 0. -1.
    10030    2    1    2    0    0  0.00000000000E+00  0.00000000000E+00 -0.96071740738E+03  0.39252156550E+04  0.38058297389E+04 0.  0.
        4    1    3    3  502    0 -0.36041864890E+03 -0.18606104303E+04 -0.30378476317E+03  0.19193904165E+04  0.12699999809E+01 0. -1.
       -4    1    3    3    0  502  0.36041864890E+03  0.18606104303E+04 -0.65693264422E+03  0.20058252385E+04  0.12699999809E+01 0.  1.
</event>
<event>
 5   0  0.1214844E-06  0.3125825E+04  0.7818609E-02  0.8208686E-01
       -2   -1    0    0    0  501  0.00000000000E+00  0.00000000000E+00  0.19849676099E+04  0.19849676099E+04  0.25500000920E-02 0.  1.
        2   -1    0    0  501    0  0.00000000000E+00  0.00000000000E+00 -0.12305969843E+04  0.12305969843E+04  0.25500000920E-02 0. -1.
    10030    2    1    2    0    0  0.00000000000E+00  0.00000000000E+00  0.75437062563E+03  0.32155645942E+04  0.31258247901E+04 0.  0.
        4    1    3    3  502    0 -0.19016859244E+03 -0.10976077662E+04 -0.75054769686E+03  0.13432164235E+04  0.12699999809E+01 0. -1.
       -4    1    3    3    0  502  0.19016859244E+03  0.10976077662E+04  0.15049183225E+04  0.18723481707E+04  0.12699999809E+01 0.  1.
</event>
<event>
 5   0  0.1184616E-06  0.3833690E+04  0.7818609E-02  0.8038964E-01
        2   -1    0    0  501    0  0.00000000000E+00  0.00000000000E+00  0.18133302264E+04  0.18133302264E+04  0.25500000920E-02 0.  1.
       -2   -1    0    0    0  501  0.00000000000E+00  0.00000000000E+00 -0.20262689544E+04  0.20262689544E+04  0.25500000920E-02 0. -1.
    10030    2    1    2    0    0  0.00000000000E+00  0.00000000000E+00 -0.21293872798E+03  0.38395991808E+04  0.38336899937E+04 0.  0.
        5    1    3    3  502    0 -0.17548242435E+04  0.39554197313E+03 -0.76961613108E+03  0.19565767701E+04  0.46999998093E+01 0.  1.
       -5    1    3    3    0  502  0.17548242435E+04 -0.39554197313E+03  0.55667740310E+03  0.18830224107E+04  0.46999998093E+01 0. -1.
</event>
<event>
 5   0  0.1341932E-06  0.3895016E+04  0.7818609E-02  0.8026067E-01
       -2   -1    0    0    0  501  0.00000000000E+00  0.00000000000E+00  0.15000355977E+04  0.15000355977E+04  0.25500000920E-02 0. -1.
        2   -1    0    0  501    0  0.00000000000E+00  0.00000000000E+00 -0.25284647580E+04  0.25284647580E+04  0.25500000920E-02 0.  1.
    10030    2    1    2    0    0  0.00000000000E+00  0.00000000000E+00 -0.10284291604E+04  0.40285003557E+04  0.38950158637E+04 0.  0.
        2    1    3    3  502    0  0.43283849653E+03 -0.12406457031E+04 -0.20009173845E+04  0.23937880658E+04  0.25500000920E-02 0.  1.
       -2    1    3    3    0  502 -0.43283849653E+03  0.12406457031E+04  0.97248822413E+03  0.16347122899E+04  0.25500000920E-02 0. -1.
</event>
<event>
 5   0  0.1337854E-06  0.3800849E+04  0.7818609E-02  0.8045973E-01
        2   -1    0    0  501    0  0.00000000000E+00  0.00000000000E+00  0.15585453703E+04  0.15585453703E+04  0.25500000920E-02 0.  1.
       -2   -1    0    0    0  501  0.00000000000E+00  0.00000000000E+00 -0.23172980668E+04  0.23172980668E+04  0.25500000920E-02 0. -1.
    10030    2    1    2    0    0  0.00000000000E+00  0.00000000000E+00 -0.75875269650E+03  0.38758434371E+04  0.38008494701E+04 0.  0.
        3    1    3    3  502    0 -0.13674307982E+03  0.15059497477E+04 -0.15531883635E+04  0.21677124844E+04  0.10100000352E+00 0. -1.
       -3    1    3    3    0  502  0.13674307982E+03 -0.15059497477E+04  0.79443566697E+03  0.17081309527E+04  0.10100000352E+00 0.  1.
</event>
<event>
 5   0  0.1337854E-06  0.4057377E+04  0.7818609E-02  0.7993071E-01
       -2   -1    0    0    0  501  0.00000000000E+00  0.00000000000E+00  0.19271250664E+04  0.19271250664E+04  0.25500000920E-02 0.  1.
        2   -1    0    0  501    0  0.00000000000E+00  0.00000000000E+00 -0.21356049414E+04  0.21356049414E+04  0.25500000920E-02 0. -1.
    10030    2    1    2    0    0  0.00000000000E+00  0.00000000000E+00 -0.20847987495E+03  0.40627300078E+04  0.40573773867E+04 0.  0.
        3    1    3    3  502    0  0.13936709376E+04  0.80344084261E+03  0.11334092393E+04  0.19678547669E+04  0.10100000352E+00 0.  1.
       -3    1    3    3    0  502 -0.13936709376E+04 -0.80344084261E+03 -0.13418891142E+04  0.20948752409E+04  0.10100000352E+00 0. -1.
</event>
<event>
 5   0  0.1341932E-06  0.2899350E+04  0.7818609E-02  0.8273071E-01
        2   -1    0    0  501    0  0.00000000000E+00  0.00000000000E+00  0.22877350597E+04  0.22877350597E+04  0.25500000920E-02 0.  1.
       -2   -1    0    0    0  501  0.00000000000E+00  0.00000000000E+00 -0.91861948275E+03  0.91861948275E+03  0.25500000920E-02 0. -1.
    10030    2    1    2    0    0  0.00000000000E+00  0.00000000000E+00  0.13691155770E+04  0.32063545425E+04  0.28993502701E+04 0.  0.
        2    1    3    3  502    0  0.41153024451E+03 -0.51479671920E+03 -0.74335860428E+03  0.99345599742E+03  0.25500000920E-02 0. -1.
       -2    1    3    3    0  502 -0.41153024451E+03  0.51479671920E+03  0.21124741813E+04  0.22128985451E+04  0.25500000920E-02 0.  1.
</event>
<event>
 5   0  0.1184616E-06  0.2146278E+04  0.7818609E-02  0.8541127E-01
        2   -1    0    0  501    0  0.00000000000E+00  0.00000000000E+00  0.20396361483E+04  0.20396361483E+04  0.25500000920E-02 0. -1.
       -2   -1    0    0    0  501  0.00000000000E+00  0.00000000000E+00 -0.56462403995E+03  0.56462403996E+03  0.25500000920E-02 0.  1.
    10030    2    1    2    0    0  0.00000000000E+00  0.00000000000E+00  0.14750121084E+04  0.26042601883E+04  0.21462782691E+04 0.  0.
        5    1    3    3  502    0 -0.86591158320E+02 -0.10206239748E+04  0.34915829571E+03  0.10821760171E+04  0.46999998093E+01 0.  1.
       -5    1    3    3    0  502  0.86591158320E+02  0.10206239748E+04  0.11258538127E+04  0.15220841712E+04  0.46999998093E+01 0. -1.
</event>
<event>
 5   0  0.1337854E-06  0.2467677E+04  0.7818609E-02  0.8414592E-01
       -2   -1    0    0    0  501  0.00000000000E+00  0.00000000000E+00  0.69223052406E+03  0.69223052406E+03  0.25500000920E-02 0. -1.
        2   -1    0    0  501    0  0.00000000000E+00  0.00000000000E+00 -0.21992050207E+04  0.21992050207E+04  0.25500000920E-02 0.  1.
    10030    2    1    2    0    0  0.00000000000E+00  0.00000000000E+00 -0.15069744966E+04  0.28914355447E+04  0.24676765136E+04 0.  0.
        3    1    3    3  502    0  0.19281677440E+03 -0.42315036808E+03  0.58562569769E+03  0.74779142178E+03  0.10100000352E+00 0. -1.
       -3    1    3    3    0  502 -0.19281677440E+03  0.42315036808E+03 -0.20926001943E+04  0.21436441229E+04  0.10100000352E+00 0.  1.
</event>
<event>
 5   0  0.8030324E-07  0.3760405E+04  0.7818609E-02  0.8054706E-01
        1   -1    0    0  501    0  0.00000000000E+00  0.00000000000E+00  0.15439574433E+04  0.15439574433E+04  0.50400001928E-02 0.  1.
       -1   -1    0    0    0  501  0.00000000000E+00  0.00000000000E+00 -0.22896755679E+04  0.22896755679E+04  0.50400001928E-02 0. -1.
    10030    2    1    2    0    0  0.00000000000E+00  0.00000000000E+00 -0.74571812459E+03  0.38336330112E+04  0.37604051036E+04 0.  0.
        1    1    3    3  502    0  0.17160797890E+04 -0.29680605813E+03 -0.10952751827E+04  0.20573408575E+04  0.50400001928E-02 0. -1.
       -1    1    3    3    0  502 -0.17160797890E+04  0.29680605813E+03  0.34955705812E+03  0.17762921536E+04  0.50400001928E-02 0.  1.
</event>
<event>
 5   0  0.1372748E-06  0.3110281E+04  0.7818609E-02  0.8212922E-01
        2   -1    0    0  501    0  0.00000000000E+00  0.00000000000E+00  0.24824914477E+04  0.24824914477E+04  0.25500000920E-02 0. -1.
       -2   -1    0    0    0  501  0.00000000000E+00  0.00000000000E+00 -0.97420762518E+03  0.97420762519E+03  0.25500000920E-02 0.  1.
    10030    2    1    2    0    0  0.00000000000E+00  0.00000000000E+00  0.15082838225E+04  0.34566990729E+04  0.31102810791E+04 0.  0.
        1    1    3    3  502    0 -0.14902425279E+04  0.20720604048E+03  0.31700844434E+03  0.15376122687E+04  0.50400001928E-02 0.  1.
       -1    1    3    3    0  502  0.14902425279E+04 -0.20720604048E+03  0.11912753781E+04  0.19190868041E+04  0.50400001928E-02 0. -1.
</event>
<event>
 5   0  0.1341932E-06  0.2887625E+04  0.7818609E-02  0.8276569E-01
       -2   -1    0    0    0  501  0.00000000000E+00  0.00000000000E+00  0.14246384519E+04  0.14246384519E+04  0.25500000920E-02 0. -1.
        2   -1    0    0  501    0  0.00000000000E+00  0.00000000000E+00 -0.14632446086E+04  0.14632446087E+04  0.25500000920E-02 0.  1.
    10030    2    1    2    0    0  0.00000000000E+00  0.00000000000E+00 -0.38606156746E+02  0.28878830606E+04  0.28876249992E+04 0.  0.
        2    1    3    3  502    0 -0.13266312361E+04 -0.54852341832E+03  0.13487345995E+03  0.14418804483E+04  0.25500000920E-02 0.  1.
       -2    1    3    3    0  502  0.13266312361E+04  0.54852341832E+03 -0.17347961669E+03  0.14460026122E+04  0.25500000920E-02 0. -1.
</event>
<event>
 5   0  0.4255250E-07  0.3188581E+04  0.7818609E-02  0.8191839E-01
       -1   -1    0    0    0  501  0.00000000000E+00  0.00000000000E+00  0.17678959516E+04  0.17678959516E+04  0.50400001928E-02 0. -1.
        1   -1    0    0  501    0  0.00000000000E+00  0.00000000000E+00 -0.14377331785E+04  0.14377331785E+04  0.50400001928E-02 0.  1.
    10030    2    1    2    0    0  0.00000000000E+00  0.00000000000E+00  0.33016277308E+03  0.32056291301E+04  0.31885812931E+04 0.  0.
        2    1    3    3  502    0 -0.59990134761E+03 -0.36114199478E+02 -0.13194913341E+04  0.14499114604E+04  0.25500000920E-02 0.  1.
       -2    1    3    3    0  502  0.59990134761E+03  0.36114199478E+02  0.16496541072E+04  0.17557176697E+04  0.25500000920E-02 0. -1.
</event>
<event>
 5   0  0.1184616E-06  0.3765296E+04  0.7818609E-02  0.8053644E-01
        2   -1    0    0  501    0  0.00000000000E+00  0.00000000000E+00  0.22282706894E+04  0.22282706894E+04  0.25500000920E-02 0.  1.
       -2   -1    0    0    0  501  0.00000000000E+00  0.00000000000E+00 -0.15906337879E+04  0.15906337879E+04  0.25500000920E-02 0. -1.
    10030    2    1    2    0    0  0.00000000000E+00  0.00000000000E+00  0.63763690152E+03  0.38189044773E+04  0.37652955513E+04 0.  0.
        5    1    3    3  502    0  0.10886929022E+04 -0.13179035756E+04  0.11188574899E+04  0.20430335882E+04  0.46999998093E+01 0.  1.
       -5    1    3    3    0  502 -0.10886929022E+04  0.13179035756E+04 -0.48122058833E+03  0.17758708891E+04  0.46999998093E+01 0. -1.
</event>
<event>
 5   0  0.5284458E-07  0.3676965E+04  0.7818609E-02  0.8073086E-01
       -1   -1    0    0    0  501  0.00000000000E+00  0.00000000000E+00  0.13149462658E+04  0.13149462659E+04  0.50400001928E-02 0. -1.
        1   -1    0    0  501    0  0.00000000000E+00  0.00000000000E+00 -0.25704601664E+04  0.25704601664E+04  0.50400001928E-02 0.  1.
    10030    2    1    2    0    0  0.00000000000E+00  0.00000000000E+00 -0.12555139005E+04  0.38854064322E+04  0.36769645075E+04 0.  0.
        5    1    3    3  502    0 -0.14344971241E+04  0.11259718867E+04 -0.38129644234E+03  0.18630630037E+04  0.46999998093E+01 0. -1.
       -5    1    3    3    0  502  0.14344971241E+04 -0.11259718867E+04 -0.87421745817E+03  0.20223434285E+04  0.46999998093E+01 0.  1.
</event>
<event>
 5   0  0.5284458E-07  0.2641986E+04  0.7818609E-02  0.8354078E-01
        1   -1    0    0  501    0  0.00000000000E+00  0.00000000000E+00  0.14705433492E+04  0.14705433492E+04  0.50400001928E-02 0. -1.
       -1   -1    0    0    0  501  0.00000000000E+00  0.00000000000E+00 -0.11866519206E+04  0.11866519206E+04  0.50400001928E-02 0.  1.
    10030    2    1    2    0    0  0.00000000000E+00  0.00000000000E+00  0.28389142852E+03  0.26571952698E+04  0.26419864418E+04 0.  0.
        5    1    3    3  502    0  0.56655945405E+03  0.50497342477E+03  0.12293789396E+04  0.14447776444E+04  0.46999998093E+01 0. -1.
       -5    1    3    3    0  502 -0.56655945405E+03 -0.50497342477E+03 -0.94548751108E+03  0.12124176254E+04  0.46999998093E+01 0.  1.
</event>
<event>
 5   0  0.1079205E-06  0.2103829E+04  0.7818609E-02  0.8559559E-01
        1   -1    0    0  501    0  0.00000000000E+00  0.00000000000E+00  0.10637879842E+04  0.10637879842E+04  0.50400001928E-02 0. -1.
       -1   -1    0    0    0  501  0.00000000000E+00  0.00000000000E+00 -0.10401733755E+04  0.10401733755E+04  0.50400001928E-02 0.  1.
    10030    2    1    2    0    0  0.00000000000E+00  0.00000000000E+00  0.23614608713E+02  0.21039613597E+04  0.21038288317E+04 0.  0.
        4    1    3    3  502    0  0.95580269178E+03  0.43602182465E+03  0.65182084162E+02  0.10525797519E+04  0.12699999809E+01 0.  1.
       -4    1    3    3    0  502 -0.95580269178E+03 -0.43602182465E+03 -0.41567475449E+02  0.10513816077E+04  0.12699999809E+01 0. -1.
</event>
<event>
 5   0  0.1214844E-06  0.2337786E+04  0.7818609E-02  0.8463170E-01
        2   -1    0    0  501    0  0.00000000000E+00  0.00000000000E+00  0.12727378424E+04  0.12727378424E+04  0.25500000920E-02 0. -1.
       -2   -1    0    0    0  501  0.00000000000E+00  0.00000000000E+00 -0.10735211441E+04  0.10735211441E+04  0.25500000920E-02 0.  1.
    10030    2    1    2    0    0  0.00000000000E+00  0.00000000000E+00  0.19921669827E+03  0.23462589865E+04  0.23377861192E+04 0.  0.
        4    1    3    3  502    0  0.65679842055E+03 -0.96664023377E+03  0.12275413371E+03  0.11750947609E+04  0.12699999809E+01 0. -1.
       -4    1    3    3    0  502 -0.65679842055E+03  0.96664023377E+03  0.76462564564E+02  0.11711642257E+04  0.12699999809E+01 0.  1.
</event>
<event>
 5   0  0.1341932E-06  0.3643076E+04  0.7818609E-02  0.8080695E-01
       -2   -1    0    0    0  501  0.00000000000E+00  0.00000000000E+00  0.24330494176E+04  0.24330494176E+04  0.25500000920E-02 0. -1.
        2   -1    0    0  501    0  0.00000000000E+00  0.00000000000E+00 -0.13637209726E+04  0.13637209726E+04  0.25500000920E-02 0.  1.
    10030    2    1    2    0    0  0.00000000000E+00  0.00000000000E+00  0.10693284450E+04  0.37967703902E+04  0.36430759082E+04 0.  0.
        2    1    3    3  502    0  0.17587406203E+03 -0.80885836458E+03  0.22257142216E+04  0.23746552036E+04  0.25500000920E-02 0. -1.
       -2    1    3    3    0  502 -0.17587406203E+03  0.80885836458E+03 -0.11563857766E+04  0.14221151866E+04  0.25500000920E-02 0.  1.
</event>
<event>
 5   0  0.1214844E-06  0.3754643E+04  0.7818609E-02  0.8055959E-01
       -2   -1    0    0    0  501  0.00000000000E+00  0.00000000000E+00  0.23928947307E+04  0.23928947307E+04  0.25500000920E-02 0. -1.
        2   -1    0    0  501    0  0.00000000000E+00  0.00000000000E+00 -0.14728335953E+04  0.14728335953E+04  0.25500000920E-02 0.  1.
    10030    2    1    2    0    0  0.00000000000E+00  0.00000000000E+00  0.92006113541E+03  0.38657283261E+04  0.37546428589E+04 0.  0.
        4    1    3    3  502    0 -0.67823527831E+03  0.17406722846E+04  0.26909564916E+03  0.18874207736E+04  0.12699999809E+01 0. -1.
       -4    1    3    3    0  502  0.67823527831E+03 -0.17406722846E+04  0.65096548625E+03  0.19783075525E+04  0.12699999809E+01 0.  1.
</event>
<event>
 5   0  0.1372748E-06  0.3775185E+04  0.7818609E-02  0.8051501E-01
       -2   -1    0    0    0  501  0.00000000000E+00  0.00000000000E+00  0.15910943761E+04  0.15910943761E+04  0.25500000920E-02 0.  1.
        2   -1    0    0  501    0  0.00000000000E+00  0.00000000000E+00 -0.22393422472E+04  0.22393422472E+04  0.25500000920E-02 0. -1.
    10030    2    1    2    0    0  0.00000000000E+00  0.00000000000E+00 -0.64824787116E+03  0.38304366233E+04  0.37751846872E+04 0.  0.
        1    1    3    3  502    0  0.15631243996E+02 -0.11363482676E+04  0.12050746253E+04  0.16564228246E+04  0.50400001928E-02 0.  1.
       -1    1    3    3    0  502 -0.15631243996E+02  0.11363482676E+04 -0.18533224965E+04  0.21740137987E+04  0.50400001928E-02 0. -1.
</event>
<event>
 5   0  0.1337854E-06  0.3780454E+04  0.7818609E-02  0.8050362E-01
       -2   -1    0    0    0  501  0.00000000000E+00  0.00000000000E+00  0.21615395308E+04  0.21615395308E+04  0.25500000920E-02 0.  1.
        2   -1    0    0  501    0  0.00000000000E+00  0.00000000000E+00 -0.16529690739E+04  0.16529690739E+04  0.25500000920E-02 0. -1.
    10030    2    1    2    0    0  0.00000000000E+00  0.00000000000E+00  0.50857045687E+03  0.38145086047E+04  0.37804539391E+04 0.  0.
        3    1    3    3  502    0 -0.15322483249E+03 -0.13225068541E+04  0.16081830046E+04  0.20877631128E+04  0.10100000352E+00 0.  1.
       -3    1    3    3    0  502  0.15322483249E+03  0.13225068541E+04 -0.10996125478E+04  0.17267454919E+04  0.10100000352E+00 0. -1.
</event>
<event>
 5   0  0.4795023E-07  0.3743168E+04  0.7818609E-02  0.8058462E-01
        1   -1    0    0  501    0  0.00000000000E+00  0.00000000000E+00  0.19183556774E+04  0.19183556774E+04  0.50400001928E-02 0.  1.
       -1   -1    0    0    0  501  0.00000000000E+00  0.00000000000E+00 -0.18259522484E+04  0.18259522484E+04  0.50400001928E-02 0. -1.
    10030    2    1    2    0    0  0.00000000000E+00  0.00000000000E+00  0.92403428962E+02  0.37443079258E+04  0.37431675690E+04 0.  0.
        3    1    3    3  502    0  0.19176269391E+03 -0.17985894466E+04 -0.43470344492E+03  0.18602860058E+04  0.10100000352E+00 0. -1.
       -3    1    3    3    0  502 -0.19176269391E+03  0.17985894466E+04  0.52710687388E+03  0.18840219200E+04  0.10100000352E+00 0.  1.
</event>
<event>
 5   0  0.1341932E-06  0.3794489E+04  0.7818609E-02  0.8047338E-01
       -2   -1    0    0    0  501  0.00000000000E+00  0.00000000000E+00  0.26842251913E+04  0.26842251913E+04  0.25500000920E-02 0. -1.
        2   -1    0    0  501    0  0.00000000000E+00  0.00000000000E+00 -0.13409968378E+04  0.13409968378E+04  0.25500000920E-02 0.  1.
    10030    2    1    2    0    0  0.00000000000E+00  0.00000000000E+00  0.13432283535E+04  0.40252220291E+04  0.37944894220E+04 0.  0.
        2    1    3    3  502    0  0.94470187203E+03 -0.15070925264E+04  0.13718659017E+04  0.22462870614E+04  0.25500000920E-02 0. -1.
       -2    1    3    3    0  502 -0.94470187203E+03  0.15070925264E+04 -0.28637548238E+02  0.17789349677E+04  0.25500000920E-02 0.  1.
</event>
<event>
 5   0  0.4255250E-07  0.3729139E+04  0.7818609E-02  0.8061535E-01
       -1   -1    0    0    0  501  0.00000000000E+00  0.00000000000E+00  0.12371849723E+04  0.12371849723E+04  0.50400001928E-02 0. -1.
        1   -1    0    0  501    0  0.00000000000E+00  0.00000000000E+00 -0.28101045425E+04  0.28101045425E+04  0.50400001928E-02 0.  1.
    10030    2    1    2    0    0  0.00000000000E+00  0.00000000000E+00 -0.15729195703E+04  0.40472895148E+04  0.37291388339E+04 0.  0.
        2    1    3    3  502    0 -0.12687182821E+04  0.92927105138E+03  0.30071382524E+03  0.16011307164E+04  0.25500000920E-02 0. -1.
       -2    1    3    3    0  502  0.12687182821E+04 -0.92927105138E+03 -0.18736333955E+04  0.24461587984E+04  0.25500000920E-02 0.  1.
</event>
<event>
 5   0  0.1214844E-06  0.3835634E+04  0.7818609E-02  0.8038551E-01
        2   -1    0    0  501    0  0.00000000000E+00  0.00000000000E+00  0.21476771108E+04  0.21476771108E+04  0.25500000920E-02 0.  1.
       -2   -1    0    0    0  501  0.00000000000E+00  0.00000000000E+00 -0.17125583817E+04  0.17125583817E+04  0.25500000920E-02 0. -1.
    10030    2    1    2    0    0  0.00000000000E+00  0.00000000000E+00  0.43511872907E+03  0.38602354924E+04  0.38356342042E+04 0.  0.
        4    1    3    3  502    0  0.60632493790E+03  0.13753583164E+04 -0.98120605396E+03  0.17949950869E+04  0.12699999809E+01 0. -1.
       -4    1    3    3    0  502 -0.60632493790E+03 -0.13753583164E+04  0.14163247830E+04  0.20652404055E+04  0.12699999809E+01 0.  1.
</event>
<event>
 5   0  0.1214844E-06  0.3744748E+04  0.7818609E-02  0.8058117E-01
        2   -1    0    0  501    0  0.00000000000E+00  0.00000000000E+00  0.23493770227E+04  0.23493770227E+04  0.25500000920E-02 0. -1.
       -2   -1    0    0    0  501  0.00000000000E+00  0.00000000000E+00 -0.14922186424E+04  0.14922186424E+04  0.25500000920E-02 0.  1.
    10030    2    1    2    0    0  0.00000000000E+00  0.00000000000E+00  0.85715838033E+03  0.38415956652E+04  0.37447478908E+04 0.  0.
        4    1    3    3  502    0 -0.16991007515E+04  0.75412138144E+02  0.12318707831E+04  0.21000327601E+04  0.12699999809E+01 0. -1.
       -4    1    3    3    0  502  0.16991007515E+04 -0.75412138144E+02 -0.37471240279E+03  0.17415629050E+04  0.12699999809E+01 0.  1.
</event>
<event>
 5   0  0.4795023E-07  0.3343576E+04  0.7818609E-02  0.8151895E-01
        1   -1    0    0  501    0  0.00000000000E+00  0.00000000000E+00  0.13688947621E+04  0.13688947622E+04  0.50400001928E-02 0. -1.
       -1   -1    0    0    0  501  0.00000000000E+00  0.00000000000E+00 -0.20417021731E+04  0.20417021731E+04  0.50400001928E-02 0.  1.
    10030    2    1    2    0    0  0.00000000000E+00  0.00000000000E+00 -0.67280741091E+03  0.34105969352E+04  0.33435761756E+04 0.  0.
        3    1    3    3  502    0  0.92541615544E+03 -0.82960768112E+03  0.80414643568E+03  0.14803024912E+04  0.10100000352E+00 0. -1.
       -3    1    3    3    0  502 -0.92541615544E+03  0.82960768112E+03 -0.14769538466E+04  0.19302944440E+04  0.10100000352E+00 0.  1.
</event>
<event>
 5   0  0.4255250E-07  0.3730239E+04  0.7818609E-02  0.8061293E-01
        3   -1    0    0  501    0  0.00000000000E+00  0.00000000000E+00  0.19071266501E+04  0.19071266528E+04  0.10100000352E+00 0. -1.
       -3   -1    0    0    0  501  0.00000000000E+00  0.00000000000E+00 -0.18240374816E+04  0.18240374844E+04  0.10100000352E+00 0.  1.
    10030    2    1    2    0    0  0.00000000000E+00  0.00000000000E+00  0.83089168507E+02  0.37311641372E+04  0.37302388675E+04 0.  0.
        2    1    3    3  502    0  0.17103828916E+04  0.73768718864E+03  0.13684926616E+03  0.18677044053E+04  0.25500000920E-02 0. -1.
       -2    1    3    3    0  502 -0.17103828916E+04 -0.73768718864E+03 -0.53760097657E+02  0.18634597318E+04  0.25500000920E-02 0.  1.
</event>
<event>
 5   0  0.1337854E-06  0.3809452E+04  0.7818609E-02  0.8044130E-01
        2   -1    0    0  501    0  0.00000000000E+00  0.00000000000E+00  0.21155611247E+04  0.21155611247E+04  0.25500000920E-02 0.  1.
       -2   -1    0    0    0  501  0.00000000000E+00  0.00000000000E+00 -0.17149022873E+04  0.17149022873E+04  0.25500000920E-02 0. -1.
    10030    2    1    2    0    0  0.00000000000E+00  0.00000000000E+00  0.40065883733E+03  0.38304634120E+04  0.38094517252E+04 0.  0.
        3    1    3    3  502    0  0.16204482949E+04  0.93188000424E+03  0.56803425415E+03  0.19536928988E+04  0.10100000352E+00 0.  1.
       -3    1    3    3    0  502 -0.16204482949E+04 -0.93188000424E+03 -0.16737541682E+03  0.18767705132E+04  0.10100000352E+00 0. -1.
</event>
<event>
 5   0  0.8030324E-07  0.3778447E+04  0.7818609E-02  0.8050796E-01
        1   -1    0    0  501    0  0.00000000000E+00  0.00000000000E+00  0.12527134344E+04  0.12527134344E+04  0.50400001928E-02 0.  1.
       -1   -1    0    0    0  501  0.00000000000E+00  0.00000000000E+00 -0.28491468349E+04  0.28491468349E+04  0.50400001928E-02 0. -1.
    10030    2    1    2    0    0  0.00000000000E+00  0.00000000000E+00 -0.15964334005E+04  0.41018602693E+04  0.37784465150E+04 0.  0.
        1    1    3    3  502    0 -0.63583745635E+02 -0.24896767829E+03 -0.28300876750E+04  0.28417290592E+04  0.50400001928E-02 0. -1.
       -1    1    3    3    0  502  0.63583745635E+02  0.24896767829E+03  0.12336542745E+04  0.12601312101E+04  0.50400001928E-02 0.  1.
</event>
<event>
 5   0  0.1214844E-06  0.3687185E+04  0.7818609E-02  0.8070808E-01
        2   -1    0    0  501    0  0.00000000000E+00  0.00000000000E+00  0.16728837250E+04  0.16728837250E+04  0.25500000920E-02 0.  1.
       -2   -1    0    0    0  501  0.00000000000E+00  0.00000000000E+00 -0.20317214769E+04  0.20317214769E+04  0.25500000920E-02 0. -1.
    10030    2    1    2    0    0  0.00000000000E+00  0.00000000000E+00 -0.35883775192E+03  0.37046052018E+04  0.36871852638E+04 0.  0.
        4    1    3    3  502    0  0.16421054635E+04 -0.42281482419E+03 -0.90640450671E+03  0.19227203311E+04  0.12699999809E+01 0. -1.
       -4    1    3    3    0  502 -0.16421054635E+04  0.42281482419E+03  0.54756675479E+03  0.17818848708E+04  0.12699999809E+01 0.  1.
</event>
<event>
 5   0  0.1372748E-06  0.2416671E+04  0.7818609E-02  0.8433288E-01
        2   -1    0    0  501    0  0.00000000000E+00  0.00000000000E+00  0.12270886224E+04  0.12270886224E+04  0.25500000920E-02 0.  1.
       -2   -1    0    0    0  501  0.00000000000E+00  0.00000000000E+00 -0.11898689092E+04  0.11898689092E+04  0.25500000920E-02 0. -1.
    10030    2    1    2    0    0  0.00000000000E+00  0.00000000000E+00  0.37219713182E+02  0.24169575315E+04  0.24166709338E+04 0.  0.
        1    1    3    3  502    0 -0.47771327315E+03 -0.11050138846E+04 -0.85368544235E+02  0.12068775600E+04  0.50400001928E-02 0. -1.
       -1    1    3    3    0  502  0.47771327315E+03  0.11050138846E+04  0.12258825742E+03  0.12100799715E+04  0.50400001928E-02 0.  1.
</event>
<event>
 5   0  0.4255250E-07  0.3721698E+04  0.7818609E-02  0.8063170E-01
        1   -1    0    0  501    0  0.00000000000E+00  0.00000000000E+00  0.12510276961E+04  0.12510276961E+04  0.50400001928E-02 0. -1.
       -1   -1    0    0    0  501  0.00000000000E+00  0.00000000000E+00 -0.27679319083E+04  0.27679319083E+04  0.50400001928E-02 0.  1.
    10030    2    1    2    0    0  0.00000000000E+00  0.00000000000E+00 -0.15169042123E+04  0.40189596044E+04  0.37216982566E+04 0.  0.
        2    1    3    3  502    0 -0.34418659973E+03  0.12416907454E+04  0.69135430857E+03  0.14622691622E+04  0.25500000920E-02 0. -1.
       -2    1    3    3    0  502  0.34418659973E+03 -0.12416907454E+04 -0.22082585208E+04  0.25566904423E+04  0.25500000920E-02 0.  1.
</event>
<event>
 5   0  0.1341932E-06  0.1949281E+04  0.7818609E-02  0.8630708E-01
       -2   -1    0    0    0  501  0.00000000000E+00  0.00000000000E+00  0.47742327049E+03  0.47742327049E+03  0.25500000920E-02 0.  1.
        2   -1    0    0  501    0  0.00000000000E+00  0.00000000000E+00 -0.19896890036E+04  0.19896890036E+04  0.25500000920E-02 0. -1.
    10030    2    1    2    0    0  0.00000000000E+00  0.00000000000E+00 -0.15122657331E+04  0.24671122740E+04  0.19492807200E+04 0.  0.
        2    1    3    3  502    0  0.84510853647E+03  0.20467163524E+03 -0.13133434124E+04  0.15751094678E+04  0.25500000920E-02 0. -1.
       -2    1    3    3    0  502 -0.84510853647E+03 -0.20467163524E+03 -0.19892232068E+03  0.89200280625E+03  0.25500000920E-02 0.  1.
</event>
<event>
 5   0  0.1618754E-06  0.2068981E+04  0.7818609E-02  0.8575032E-01
       -2   -1    0    0    0  501  0.00000000000E+00  0.00000000000E+00  0.91215227325E+03  0.91215227325E+03  0.25500000920E-02 0.  1.
        2   -1    0    0  501    0  0.00000000000E+00  0.00000000000E+00 -0.11732371929E+04  0.11732371929E+04  0.25500000920E-02 0. -1.
    10030    2    1    2    0    0  0.00000000000E+00  0.00000000000E+00 -0.26108491964E+03  0.20853894661E+04  0.20689813654E+04 0.  0.
        1    1    3    3  502    0 -0.69953986473E+02 -0.24038496553E+03  0.88115696500E+03  0.91603279902E+03  0.50400001928E-02 0.  1.
       -1    1    3    3    0  502  0.69953986473E+02  0.24038496553E+03 -0.11422418846E+04  0.11693566671E+04  0.50400001928E-02 0. -1.
</event>
<event>
 5   0  0.1337854E-06  0.3753562E+04  0.7818609E-02  0.8056194E-01
        2   -1    0    0  501    0  0.00000000000E+00  0.00000000000E+00  0.19181605770E+04  0.19181605770E+04  0.25500000920E-02 0. -1.
       -2   -1    0    0    0  501  0.00000000000E+00  0.00000000000E+00 -0.18362938077E+04  0.18362938077E+04  0.25500000920E-02 0.  1.
    10030    2    1    2    0    0  0.00000000000E+00  0.00000000000E+00  0.81866769287E+02  0.37544543847E+04  0.37535617165E+04 0.  0.
        3    1    3    3  502    0  0.65927793359E+03  0.13188714585E+04  0.12023456331E+04  0.19025520622E+04  0.10100000352E+00 0. -1.
       -3    1    3    3    0  502 -0.65927793359E+03 -0.13188714585E+04 -0.11204788638E+04  0.18519023225E+04  0.10100000352E+00 0.  1.
</event>
<event>
 5   0  0.1341932E-06  0.3632037E+04  0.7818609E-02  0.8083192E-01
       -2   -1    0    0    0  501  0.00000000000E+00  0.00000000000E+00  0.12649740104E+04  0.12649740104E+04  0.25500000920E-02 0.  1.
        2   -1    0    0  501    0  0.00000000000E+00  0.00000000000E+00 -0.26071070949E+04  0.26071070949E+04  0.25500000920E-02 0. -1.
    10030    2    1    2    0    0  0.00000000000E+00  0.00000000000E+00 -0.13421330845E+04  0.38720811053E+04  0.36320367385E+04 0.  0.
        2    1    3    3  502    0  0.11575283591E+04  0.10174165226E+04 -0.16952433381E+04  0.22910386854E+04  0.25500000920E-02 0. -1.
       -2    1    3    3    0  502 -0.11575283591E+04 -0.10174165226E+04  0.35311025357E+03  0.15810424200E+04  0.25500000920E-02 0.  1.
</event>
<event>
 5   0  0.1214844E-06  0.3531222E+04  0.7818609E-02  0.8106430E-01
       -2   -1    0    0    0  501  0.00000000000E+00  0.00000000000E+00  0.16201598487E+04  0.16201598487E+04  0.25500000920E-02 0. -1.
        2   -1    0    0  501    0  0.00000000000E+00  0.00000000000E+00 -0.19241200218E+04  0.19241200218E+04  0.25500000920E-02 0.  1.
    10030    2    1    2    0    0  0.00000000000E+00  0.00000000000E+00 -0.30396017315E+03  0.35442798705E+04  0.35312218867E+04 0.  0.
        4    1    3    3  502    0  0.16291487929E+04  0.65309725906E+03 -0.34430957981E+03  0.17886342608E+04  0.12699999809E+01 0.  1.
       -4    1    3    3    0  502 -0.16291487929E+04 -0.65309725906E+03  0.40349406658E+02  0.17556456097E+04  0.12699999809E+01 0. -1.
</event>
<event>
 5   0  0.5284458E-07  0.2005382E+04  0.7818609E-02  0.8604108E-01
        1   -1    0    0  501    0  0.00000000000E+00  0.00000000000E+00  0.26468992610E+04  0.26468992610E+04  0.50400001928E-02 0.  1.
       -1   -1    0    0    0  501  0.00000000000E+00  0.00000000000E+00 -0.37983664300E+03  0.37983664303E+03  0.50400001928E-02 0. -1.
    10030    2    1    2    0    0  0.00000000000E+00  0.00000000000E+00  0.22670626180E+04  0.30267359041E+04  0.20053820880E+04 0.  0.
        5    1    3    3  502    0 -0.75547909645E+03 -0.15311720038E+03  0.16572141044E+03  0.78846637094E+03  0.46999998093E+01 0. -1.
       -5    1    3    3    0  502  0.75547909645E+03  0.15311720038E+03  0.21013412076E+04  0.22382695331E+04  0.46999998093E+01 0.  1.
</event>
<event>
 5   0  0.4795023E-07  0.3784787E+04  0.7818609E-02  0.8049427E-01
        1   -1    0    0  501    0  0.00000000000E+00  0.00000000000E+00  0.13371878423E+04  0.13371878423E+04  0.50400001928E-02 0.  1.
       -1   -1    0    0    0  501  0.00000000000E+00  0.00000000000E+00 -0.26781227780E+04  0.26781227781E+04  0.50400001928E-02 0. -1.
    10030    2    1    2    0    0  0.00000000000E+00  0.00000000000E+00 -0.13409349358E+04  0.40153106204E+04  0.37847870318E+04 0.  0.
        3    1    3    3  502    0  0.15608593085E+03  0.18468102295E+04 -0.26498078138E+03  0.18722408142E+04  0.10100000352E+00 0.  1.
       -3    1    3    3    0  502 -0.15608593085E+03 -0.18468102295E+04 -0.10759541544E+04  0.21430698062E+04  0.10100000352E+00 0. -1.
</event>
<event>
 5   0  0.1337854E-06  0.3850074E+04  0.7818609E-02  0.8035494E-01
       -2   -1    0    0    0  501  0.00000000000E+00  0.00000000000E+00  0.24044162228E+04  0.24044162229E+04  0.25500000920E-02 0. -1.
        2   -1    0    0  501    0  0.00000000000E+00  0.00000000000E+00 -0.15412338084E+04  0.15412338084E+04  0.25500000920E-02 0.  1.
    10030    2    1    2    0    0  0.00000000000E+00  0.00000000000E+00  0.86318241448E+03  0.39456500312E+04  0.38500740627E+04 0.  0.
        3    1    3    3  502    0  0.17236009181E+04 -0.84356613718E+03  0.27494515888E+03  0.19385558551E+04  0.10100000352E+00 0.  1.
       -3    1    3    3    0  502 -0.17236009181E+04  0.84356613718E+03  0.58823725561E+03  0.20070941761E+04  0.10100000352E+00 0. -1.
</event>
<event>
 5   0  0.5284458E-07  0.2232029E+04  0.7818609E-02  0.8505214E-01
        1   -1    0    0  501    0  0.00000000000E+00  0.00000000000E+00  0.99822366650E+03  0.99822366651E+03  0.50400001928E-02 0.  1.
       -1   -1    0    0    0  501  0.00000000000E+00  0.00000000000E+00 -0.12477048416E+04  0.12477048416E+04  0.50400001928E-02 0. -1.
    10030    2    1    2    0    0  0.00000000000E+00  0.00000000000E+00 -0.24948117506E+03  0.22459285081E+04  0.22320291232E+04 0.  0.
        5    1    3    3  502    0  0.56872570654E+03  0.57286075028E+03  0.65067358720E+03  0.10368300611E+04  0.46999998093E+01 0.  1.
       -5    1    3    3    0  502 -0.56872570654E+03 -0.57286075028E+03 -0.90015476226E+03  0.12090984470E+04  0.46999998093E+01 0. -1.
</event>
<event>
 5   0  0.1079205E-06  0.3585356E+04  0.7818609E-02  0.8093854E-01
       -1   -1    0    0    0  501  0.00000000000E+00  0.00000000000E+00  0.14461616056E+04  0.14461616056E+04  0.50400001928E-02 0. -1.
        1   -1    0    0  501    0  0.00000000000E+00  0.00000000000E+00 -0.22222237200E+04  0.22222237200E+04  0.50400001928E-02 0.  1.
    10030    2    1    2    0    0  0.00000000000E+00  0.00000000000E+00 -0.77606211433E+03  0.36683853256E+04  0.35853561178E+04 0.  0.
        4    1    3    3  502    0  0.34998360806E+03  0.14687454798E+04 -0.13768437690E+04  0.20433800888E+04  0.12699999809E+01 0.  1.
       -4    1    3    3    0  502 -0.34998360806E+03 -0.14687454798E+04  0.60078165463E+03  0.16250052368E+04  0.12699999809E+01 0. -1.
</event>
<event>
 5   0  0.8030324E-07  0.3898094E+04  0.7818609E-02  0.8025426E-01
       -1   -1    0    0    0  501  0.00000000000E+00  0.00000000000E+00  0.15838070495E+04  0.15838070495E+04  0.50400001928E-02 0.  1.
        1   -1    0    0  501    0  0.00000000000E+00  0.00000000000E+00 -0.23985151154E+04  0.23985151154E+04  0.50400001928E-02 0. -1.
    10030    2    1    2    0    0  0.00000000000E+00  0.00000000000E+00 -0.81470806581E+03  0.39823221649E+04  0.38980944823E+04 0.  0.
        1    1    3    3  502    0  0.84647472541E+03  0.34766541895E+03  0.13506997550E+04  0.16314964090E+04  0.50400001928E-02 0.  1.
       -1    1    3    3    0  502 -0.84647472541E+03 -0.34766541895E+03 -0.21654078208E+04  0.23508257559E+04  0.50400001928E-02 0. -1.
</event>
<event>
 5   0  0.1337854E-06  0.2094990E+04  0.7818609E-02  0.8563453E-01
       -2   -1    0    0    0  501  0.00000000000E+00  0.00000000000E+00  0.50376881239E+03  0.50376881240E+03  0.25500000920E-02 0. -1.
        2   -1    0    0  501    0  0.00000000000E+00  0.00000000000E+00 -0.21780745978E+04  0.21780745978E+04  0.25500000920E-02 0.  1.
    10030    2    1    2    0    0  0.00000000000E+00  0.00000000000E+00 -0.16743057854E+04  0.26818434102E+04  0.20949902658E+04 0.  0.
        3    1    3    3  502    0  0.52313803468E+03  0.90734633417E+03 -0.85914976279E+03  0.13546546049E+04  0.10100000352E+00 0. -1.
       -3    1    3    3    0  502 -0.52313803468E+03 -0.90734633417E+03 -0.81515602259E+03  0.13271888053E+04  0.10100000352E+00 0.  1.
</event>
<event>
 5   0  0.4795023E-07  0.3760632E+04  0.7818609E-02  0.8054656E-01
       -1   -1    0    0    0  501  0.00000000000E+00  0.00000000000E+00  0.20448477336E+04  0.20448477337E+04  0.50400001928E-02 0. -1.
        1   -1    0    0  501    0  0.00000000000E+00  0.00000000000E+00 -0.17290230262E+04  0.17290230262E+04  0.50400001928E-02 0.  1.
    10030    2    1    2    0    0  0.00000000000E+00  0.00000000000E+00  0.31582470744E+03  0.37738707599E+04  0.37606322961E+04 0.  0.
        3    1    3    3  502    0  0.12517133694E+04  0.49720302855E+03 -0.11588009353E+04  0.17767433210E+04  0.10100000352E+00 0.  1.
       -3    1    3    3    0  502 -0.12517133694E+04 -0.49720302855E+03  0.14746256428E+04  0.19971274389E+04  0.10100000352E+00 0. -1.
</event>
<event>
 5   0  0.1337854E-06  0.3919589E+04  0.7818609E-02  0.8020967E-01
        2   -1    0    0  501    0  0.00000000000E+00  0.00000000000E+00  0.20873630817E+04  0.20873630817E+04  0.25500000920E-02 0. -1.
       -2   -1    0    0    0  501  0.00000000000E+00  0.00000000000E+00 -0.18400219084E+04  0.18400219084E+04  0.25500000920E-02 0.  1.
    10030    2    1    2    0    0  0.00000000000E+00  0.00000000000E+00  0.24734117336E+03  0.39273849901E+04  0.39195886525E+04 0.  0.
        3    1    3    3  502    0  0.13230879368E+04 -0.82036383019E+03 -0.10691742721E+04  0.18885688065E+04  0.10100000352E+00 0.  1.
       -3    1    3    3    0  502 -0.13230879368E+04  0.82036383019E+03  0.13165154454E+04  0.20388161837E+04  0.10100000352E+00 0. -1.
</event>
<event>
 5   0  0.1214844E-06  0.3834885E+04  0.7818609E-02  0.8038710E-01
       -2   -1    0    0    0  501  0.00000000000E+00  0.00000000000E+00  0.15101002775E+04  0.15101002775E+04  0.25500000920E-02 0.  1.
        2   -1    0    0  501    0  0.00000000000E+00  0.00000000000E+00 -0.24346636594E+04  0.24346636594E+04  0.25500000920E-02 0. -1.
    10030    2    1    2    0    0  0.00000000000E+00  0.00000000000E+00 -0.92456338189E+03  0.39447639370E+04  0.38348852749E+04 0.  0.
        4    1    3    3  502    0 -0.13639899383E+04  0.22646340514E+03  0.90425134376E+03  0.16520975550E+04  0.12699999809E+01 0.  1.
       -4    1    3    3    0  502  0.13639899383E+04 -0.22646340514E+03 -0.18288147256E+04  0.22926663820E+04  0.12699999809E+01 0. -1.
</event>
<event>
 5   0  0.8030324E-07  0.3051305E+04  0.7818609E-02  0.8229230E-01
        1   -1    0    0  501    0  0.00000000000E+00  0.00000000000E+00  0.25686816370E+04  0.25686816370E+04  0.50400001928E-02 0. -1.
       -1   -1    0    0    0  501  0.00000000000E+00  0.00000000000E+00 -0.90615184453E+03  0.90615184455E+03  0.50400001928E-02 0.  1.
    10030    2    1    2    0    0  0.00000000000E+00  0.00000000000E+00  0.16625297924E+04  0.34748334815E+04  0.30513050345E+04 0.  0.
        1    1    3    3  502    0 -0.49697129897E+03 -0.39892215113E+03 -0.74732072390E+03  0.98214439827E+03  0.50400001928E-02 0.  1.
       -1    1    3    3    0  502  0.49697129897E+03  0.39892215113E+03  0.24098505163E+04  0.24926890832E+04  0.50400001928E-02 0. -1.
</event>
<event>
 5   0  0.4795023E-07  0.3699746E+04  0.7818609E-02  0.8068018E-01
       -1   -1    0    0    0  501  0.00000000000E+00  0.00000000000E+00  0.12461733770E+04  0.12461733770E+04  0.50400001928E-02 0. -1.
        1   -1    0    0  501    0  0.00000000000E+00  0.00000000000E+00 -0.27460311161E+04  0.27460311161E+04  0.50400001928E-02 0.  1.
    10030    2    1    2    0    0  0.00000000000E+00  0.00000000000E+00 -0.14998577391E+04  0.39922044931E+04  0.36997464072E+04 0.  0.
        3    1    3    3  502    0 -0.68977972879E+03 -0.37690388735E+03 -0.25568684447E+04  0.26749633396E+04  0.10100000352E+00 0.  1.
       -3    1    3    3    0  502  0.68977972879E+03  0.37690388735E+03  0.10570107056E+04  0.13172411535E+04  0.10100000352E+00 0. -1.
</event>
<event>
 5   0  0.1341932E-06  0.3757552E+04  0.7818609E-02  0.8055326E-01
       -2   -1    0    0    0  501  0.00000000000E+00  0.00000000000E+00  0.20507410893E+04  0.20507410893E+04  0.25500000920E-02 0. -1.
        2   -1    0    0  501    0  0.00000000000E+00  0.00000000000E+00 -0.17212308844E+04  0.17212308844E+04  0.25500000920E-02 0.  1.
    10030    2    1    2    0    0  0.00000000000E+00  0.00000000000E+00  0.32951020491E+03  0.37719719736E+04  0.37575518086E+04 0.  0.
        2    1    3    3  502    0  0.16108356089E+04 -0.60655474390E+02  0.11335122406E+04  0.19706142304E+04  0.25500000920E-02 0. -1.
       -2    1    3    3    0  502 -0.16108356089E+04  0.60655474390E+02 -0.80400203574E+03  0.18013577432E+04  0.25500000920E-02 0.  1.
</event>
<event>
 5   0  0.1337854E-06  0.2916941E+04  0.7818609E-02  0.8267855E-01
       -2   -1    0    0    0  501  0.00000000000E+00  0.00000000000E+00  0.16332712737E+04  0.16332712737E+04  0.25500000920E-02 0. -1.
        2   -1    0    0  501    0  0.00000000000E+00  0.00000000000E+00 -0.13023779028E+04  0.13023779028E+04  0.25500000920E-02 0.  1.
    10030    2    1    2    0    0  0.00000000000E+00  0.00000000000E+00  0.33089337096E+03  0.29356491765E+04  0.29169411486E+04 0.  0.
        3    1    3    3  502    0 -0.47370465180E+03 -0.10217519873E+04  0.10980848779E+04  0.15729474339E+04  0.10100000352E+00 0.  1.
       -3    1    3    3    0  502  0.47370465180E+03  0.10217519873E+04 -0.76719150696E+03  0.13627017426E+04  0.10100000352E+00 0. -1.
</event>
<event>
 5   0  0.8030324E-07  0.4283754E+04  0.7818609E-02  0.7949629E-01
       -1   -1    0    0    0  501  0.00000000000E+00  0.00000000000E+00  0.31936524006E+04  0.31936524006E+04  0.50400001928E-02 0. -1.
        1   -1    0    0  501    0  0.00000000000E+00  0.00000000000E+00 -0.14364857212E+04  0.14364857212E+04  0.50400001928E-02 0.  1.
    10030    2    1    2    0    0  0.00000000000E+00  0.00000000000E+00  0.17571666794E+04  0.46301381218E+04  0.42837535280E+04 0.  0.
        1    1    3    3  502    0 -0.81005226611E+03  0.18461278947E+04  0.96722312591E+02  0.20183478598E+04  0.50400001928E-02 0.  1.
       -1    1    3    3    0  502  0.81005226611E+03 -0.18461278947E+04  0.16604443668E+04  0.26117902620E+04  0.50400001928E-02 0. -1.
</event>
<event>
 5   0  0.4255250E-07  0.3802149E+04  0.7818609E-02  0.8045694E-01
        1   -1    0    0  501    0  0.00000000000E+00  0.00000000000E+00  0.18425191896E+04  0.18425191896E+04  0.50400001928E-02 0. -1.
       -1   -1    0    0    0  501  0.00000000000E+00  0.00000000000E+00 -0.19614911606E+04  0.19614911606E+04  0.50400001928E-02 0.  1.
    10030    2    1    2    0    0  0.00000000000E+00  0.00000000000E+00 -0.11897197100E+03  0.38040103503E+04  0.38021494467E+04 0.  0.
        2    1    3    3  502    0 -0.14431558487E+04 -0.89294811460E+03  0.79768882740E+03  0.18751966842E+04  0.25500000920E-02 0. -1.
       -2    1    3    3    0  502  0.14431558487E+04  0.89294811460E+03 -0.91666079839E+03  0.19288136661E+04  0.25500000920E-02 0.  1.
</event>
<event>
 5   0  0.4795023E-07  0.3018809E+04  0.7818609E-02  0.8238380E-01
       -1   -1    0    0    0  501  0.00000000000E+00  0.00000000000E+00  0.10556231552E+04  0.10556231552E+04  0.50400001928E-02 0. -1.
        1   -1    0    0  501    0  0.00000000000E+00  0.00000000000E+00 -0.21582524747E+04  0.21582524747E+04  0.50400001928E-02 0.  1.
    10030    2    1    2    0    0  0.00000000000E+00  0.00000000000E+00 -0.11026293195E+04  0.32138756300E+04  0.30188085644E+04 0.  0.
        3    1    3    3  502    0  0.73702903702E+03  0.12168186889E+04 -0.14298093379E+02  0.14226960212E+04  0.10100000352E+00 0. -1.
       -3    1    3    3    0  502 -0.73702903702E+03 -0.12168186889E+04 -0.10883312261E+04  0.17911796088E+04  0.10100000352E+00 0.  1.
</event>
<event>
 5   0  0.1341932E-06  0.3213246E+04  0.7818609E-02  0.8185328E-01
       -2   -1    0    0    0  501  0.00000000000E+00  0.00000000000E+00  0.10553287976E+04  0.10553287976E+04  0.25500000920E-02 0.  1.
        2   -1    0    0  501    0  0.00000000000E+00  0.00000000000E+00 -0.24459083900E+04  0.24459083900E+04  0.25500000920E-02 0. -1.
    10030    2    1    2    0    0  0.00000000000E+00  0.00000000000E+00 -0.13905795924E+04  0.35012371876E+04  0.32132460598E+04 0.  0.
        2    1    3    3  502    0 -0.84502221626E+03 -0.10761334411E+04 -0.16128507298E+04  0.21150444926E+04  0.25500000920E-02 0. -1.
       -2    1    3    3    0  502  0.84502221626E+03  0.10761334411E+04  0.22227113732E+03  0.13861926950E+04  0.25500000920E-02 0.  1.
</event>
<event>
 5   0  0.5284458E-07  0.2165338E+04  0.7818609E-02  0.8532995E-01
       -1   -1    0    0    0  501  0.00000000000E+00  0.00000000000E+00  0.73350874334E+03  0.73350874336E+03  0.50400001928E-02 0.  1.
        1   -1    0    0  501    0  0.00000000000E+00  0.00000000000E+00 -0.15980338567E+04  0.15980338567E+04  0.50400001928E-02 0. -1.
    10030    2    1    2    0    0  0.00000000000E+00  0.00000000000E+00 -0.86452511338E+03  0.23315426001E+04  0.21653376698E+04 0.  0.
        5    1    3    3  502    0 -0.80455742690E+02  0.81023487392E+03  0.33608945353E+03  0.88086996102E+03  0.46999998093E+01 0. -1.
       -5    1    3    3    0  502  0.80455742690E+02 -0.81023487392E+03 -0.12006145669E+04  0.14506726391E+04  0.46999998093E+01 0.  1.
</event>
<event>
 5   0  0.1337854E-06  0.3394239E+04  0.7818609E-02  0.8139322E-01
       -2   -1    0    0    0  501  0.00000000000E+00  0.00000000000E+00  0.17155072187E+04  0.17155072187E+04  0.25500000920E-02 0. -1.
        2   -1    0    0  501    0  0.00000000000E+00  0.00000000000E+00 -0.16789289091E+04  0.16789289091E+04  0.25500000920E-02 0.  1.
    10030    2    1    2    0    0  0.00000000000E+00  0.00000000000E+00  0.36578309572E+02  0.33944361278E+04  0.33942390388E+04 0.  0.
        3    1    3    3  502    0  0.97074695968E+03 -0.12313611940E+04  0.66764542621E+03  0.17042155014E+04  0.10100000352E+00 0. -1.
       -3    1    3    3    0  502 -0.97074695968E+03  0.12313611940E+04 -0.63106711664E+03  0.16902206264E+04  0.10100000352E+00 0.  1.
</event>
<event>
 5   0  0.1337854E-06  0.2628671E+04  0.7818609E-02  0.8358527E-01
        2   -1    0    0  501    0  0.00000000000E+00  0.00000000000E+00  0.16774075227E+04  0.16774075227E+04  0.25500000920E-02 0. -1.
       -2   -1    0    0    0  501  0.00000000000E+00  0.00000000000E+00 -0.10298500809E+04  0.10298500809E+04  0.25500000920E-02 0.  1.
    10030    2    1    2    0    0  0.00000000000E+00  0.00000000000E+00  0.64755744180E+03  0.27072576036E+04  0.26286713549E+04 0.  0.
        3    1    3    3  502    0 -0.10727178747E+04 -0.31346888217E+03  0.10361896567E+04  0.15240326092E+04  0.10100000352E+00 0. -1.
       -3    1    3    3    0  502  0.10727178747E+04  0.31346888217E+03 -0.38863221492E+03  0.11832249945E+04  0.10100000352E+00 0.  1.
</event>
<event>
 5   0  0.4795023E-07  0.3644214E+04  0.7818609E-02  0.8080438E-01
       -1   -1    0    0    0  501  0.00000000000E+00  0.00000000000E+00  0.14434051488E+04  0.14434051488E+04  0.50400001928E-02 0.  1.
        1   -1    0    0  501    0  0.00000000000E+00  0.00000000000E+00 -0.23001680565E+04  0.23001680565E+04  0.50400001928E-02 0. -1.
    10030    2    1    2    0    0  0.00000000000E+00  0.00000000000E+00 -0.85676290768E+03  0.37435732054E+04  0.36442142725E+04 0.  0.
        3    1    3    3  502    0 -0.13103904332E+04 -0.29115876767E+03  0.83735636531E+03  0.15821068890E+04  0.10100000352E+00 0.  1.
       -3    1    3    3    0  502  0.13103904332E+04  0.29115876767E+03 -0.16941192730E+04  0.21614663164E+04  0.10100000352E+00 0. -1.
</event>
<event>
 5   0  0.1372748E-06  0.3647633E+04  0.7818609E-02  0.8079667E-01
        2   -1    0    0  501    0  0.00000000000E+00  0.00000000000E+00  0.21690606848E+04  0.21690606848E+04  0.25500000920E-02 0.  1.
       -2   -1    0    0    0  501  0.00000000000E+00  0.00000000000E+00 -0.15335243738E+04  0.15335243738E+04  0.25500000920E-02 0. -1.
    10030    2    1    2    0    0  0.00000000000E+00  0.00000000000E+00  0.63553631098E+03  0.37025850587E+04  0.36476334402E+04 0.  0.
        1    1    3    3  502    0 -0.13540268797E+04  0.58796311160E+03 -0.76945034832E+03  0.16646751185E+04  0.50400001928E-02 0. -1.
       -1    1    3    3    0  502  0.13540268797E+04 -0.58796311160E+03  0.14049866593E+04  0.20379099402E+04  0.50400001928E-02 0.  1.
</event>
<event>
 5   0  0.4255250E-07  0.3824436E+04  0.7818609E-02  0.8040931E-01
       -1   -1    0    0    0  501  0.00000000000E+00  0.00000000000E+00  0.21899161260E+04  0.21899161260E+04  0.50400001928E-02 0. -1.
        1   -1    0    0  501    0  0.00000000000E+00  0.00000000000E+00 -0.16697338493E+04  0.16697338493E+04  0.50400001928E-02 0.  1.
    10030    2    1    2    0    0  0.00000000000E+00  0.00000000000E+00  0.52018227669E+03  0.38596499754E+04  0.38244356880E+04 0.  0.
        2    1    3    3  502    0 -0.12074435647E+04  0.37703569471E+02  0.17560473058E+04  0.21314416861E+04  0.25500000920E-02 0. -1.
       -2    1    3    3    0  502  0.12074435647E+04 -0.37703569471E+02 -0.12358650291E+04  0.17282082893E+04  0.25500000920E-02 0.  1.
</event>
<event>
 5   0  0.4795023E-07  0.3723353E+04  0.7818609E-02  0.8062806E-01
        1   -1    0    0  501    0  0.00000000000E+00  0.00000000000E+00  0.17278374592E+04  0.17278374592E+04  0.50400001928E-02 0. -1.
       -1   -1    0    0    0  501  0.00000000000E+00  0.00000000000E+00 -0.20058832585E+04  0.20058832585E+04  0.50400001928E-02 0.  1.
    10030    2    1    2    0    0  0.00000000000E+00  0.00000000000E+00 -0.27804579927E+03  0.37337207176E+04  0.37233534523E+04 0.  0.
        3    1    3    3  502    0  0.70227903944E+02  0.17810367939E+04 -0.67793550412E+03  0.19069925479E+04  0.10100000352E+00 0.  1.
       -3    1    3    3    0  502 -0.70227903944E+02 -0.17810367939E+04  0.39988970485E+03  0.18267281697E+04  0.10100000352E+00 0. -1.
</event>
<event>
 5   0  0.1184616E-06  0.3771221E+04  0.7818609E-02  0.8052359E-01
       -2   -1    0    0    0  501  0.00000000000E+00  0.00000000000E+00  0.18794919780E+04  0.18794919780E+04  0.25500000920E-02 0.  1.
        2   -1    0    0  501    0  0.00000000000E+00  0.00000000000E+00 -0.18917485949E+04  0.18917485949E+04  0.25500000920E-02 0. -1.
    10030    2    1    2    0    0  0.00000000000E+00  0.00000000000E+00 -0.12256616871E+02  0.37712405729E+04  0.37712206557E+04 0.  0.
        5    1    3    3  502    0  0.75122657555E+03 -0.37131863861E+02 -0.17352366497E+04  0.18912399275E+04  0.46999998093E+01 0. -1.
       -5    1    3    3    0  502 -0.75122657555E+03  0.37131863861E+02  0.17229800328E+04  0.18800006453E+04  0.46999998093E+01 0.  1.
</event>
<event>
 5   0  0.1372748E-06  0.2405788E+04  0.7818609E-02  0.8437340E-01
       -2   -1    0    0    0  501  0.00000000000E+00  0.00000000000E+00  0.55067267026E+03  0.55067267026E+03  0.25500000920E-02 0.  1.
        2   -1    0    0  501    0  0.00000000000E+00  0.00000000000E+00 -0.26276112568E+04  0.26276112568E+04  0.25500000920E-02 0. -1.
    10030    2    1    2    0    0  0.00000000000E+00  0.00000000000E+00 -0.20769385865E+04  0.31782839270E+04  0.24057877771E+04 0.  0.
        1    1    3    3  502    0  0.26250086178E+03  0.45968751869E+03  0.38852217668E+03  0.65663444859E+03  0.50400001928E-02 0.  1.
       -1    1    3    3    0  502 -0.26250086178E+03 -0.45968751869E+03 -0.24654607632E+04  0.25216494784E+04  0.50400001928E-02 0. -1.
</event>
<event>
 5   0  0.4255250E-07  0.1872829E+04  0.7818609E-02  0.8668500E-01
       -1   -1    0    0    0  501  0.00000000000E+00  0.00000000000E+00  0.77076419077E+03  0.77076419079E+03  0.50400001928E-02 0.  1.
        1   -1    0    0  501    0  0.00000000000E+00  0.00000000000E+00 -0.11376661090E+04  0.11376661091E+04  0.50400001928E-02 0. -1.
    10030    2    1    2    0    0  0.00000000000E+00  0.00000000000E+00 -0.36690191827E+03  0.19084302998E+04  0.18728291945E+04 0.  0.
        2    1    3    3  502    0 -0.51777161275E+03 -0.75919744306E+03 -0.36688422442E+03  0.98948079044E+03  0.25500000920E-02 0. -1.
       -2    1    3    3    0  502  0.51777161275E+03  0.75919744306E+03 -0.17693844971E-01  0.91894950940E+03  0.25500000920E-02 0.  1.
</event>
<event>
 5   0  0.4255250E-07  0.3068675E+04  0.7818609E-02  0.8224388E-01
        1   -1    0    0  501    0  0.00000000000E+00  0.00000000000E+00  0.10886082486E+04  0.10886082486E+04  0.50400001928E-02 0. -1.
       -1   -1    0    0    0  501  0.00000000000E+00  0.00000000000E+00 -0.21625702867E+04  0.21625702867E+04  0.50400001928E-02 0.  1.
    10030    2    1    2    0    0  0.00000000000E+00  0.00000000000E+00 -0.10739620381E+04  0.32511785353E+04  0.30686751880E+04 0.  0.
        2    1    3    3  502    0  0.68673155669E+03  0.44839384039E+03 -0.19108420316E+04  0.20794168742E+04  0.25500000920E-02 0.  1.
       -2    1    3    3    0  502 -0.68673155669E+03 -0.44839384039E+03  0.83687999348E+03  0.11717616612E+04  0.25500000920E-02 0. -1.
</event>
<event>
 5   0  0.1341932E-06  0.2405496E+04  0.7818609E-02  0.8437449E-01
        2   -1    0    0  501    0  0.00000000000E+00  0.00000000000E+00  0.14029112748E+04  0.14029112748E+04  0.25500000920E-02 0. -1.
       -2   -1    0    0    0  501  0.00000000000E+00  0.00000000000E+00 -0.10311433031E+04  0.10311433031E+04  0.25500000920E-02 0.  1.
    10030    2    1    2    0    0  0.00000000000E+00  0.00000000000E+00  0.37176797172E+03  0.24340545780E+04  0.24054958457E+04 0.  0.
        2    1    3    3  502    0  0.11746860017E+04  0.81940176334E+02  0.43374348269E+03  0.12548843786E+04  0.25500000920E-02 0. -1.
       -2    1    3    3    0  502 -0.11746860017E+04 -0.81940176334E+02 -0.61975510970E+02  0.11791701993E+04  0.25500000920E-02 0.  1.
</event>
<event>
 5   0  0.5284458E-07  0.3818469E+04  0.7818609E-02  0.8042203E-01
       -1   -1    0    0    0  501  0.00000000000E+00  0.00000000000E+00  0.22384373716E+04  0.22384373716E+04  0.50400001928E-02 0. -1.
        1   -1    0    0  501    0  0.00000000000E+00  0.00000000000E+00 -0.16284472915E+04  0.16284472915E+04  0.50400001928E-02 0.  1.
    10030    2    1    2    0    0  0.00000000000E+00  0.00000000000E+00  0.60999008015E+03  0.38668846631E+04  0.38184694709E+04 0.  0.
        5    1    3    3  502    0 -0.71483714680E+03 -0.57442015750E+03  0.20008032696E+04  0.22009512665E+04  0.46999998093E+01 0. -1.
       -5    1    3    3    0  502  0.71483714680E+03  0.57442015750E+03 -0.13908131895E+04  0.16659333966E+04  0.46999998093E+01 0.  1.
</event>
<event>
 5   0  0.1184616E-06  0.2007216E+04  0.7818609E-02  0.8603254E-01
        2   -1    0    0  501    0  0.00000000000E+00  0.00000000000E+00  0.15434234785E+04  0.15434234785E+04  0.25500000920E-02 0.  1.
       -2   -1    0    0    0  501  0.00000000000E+00  0.00000000000E+00 -0.65259433250E+03  0.65259433250E+03  0.25500000920E-02 0. -1.
    10030    2    1    2    0    0  0.00000000000E+00  0.00000000000E+00  0.89082914597E+03  0.21960178110E+04  0.20072163956E+04 0.  0.
        5    1    3    3  502    0 -0.77681005778E+03 -0.38952518625E+03 -0.10384734514E+03  0.87519717646E+03  0.46999998093E+01 0. -1.
       -5    1    3    3    0  502  0.77681005778E+03  0.38952518625E+03  0.99467649111E+03  0.13208206345E+04  0.46999998093E+01 0.  1.
</event>
<event>
 5   0  0.5284458E-07  0.3749659E+04  0.7818609E-02  0.8057045E-01
       -1   -1    0    0    0  501  0.00000000000E+00  0.00000000000E+00  0.27183544142E+04  0.27183544142E+04  0.50400001928E-02 0. -1.
        1   -1    0    0  501    0  0.00000000000E+00  0.00000000000E+00 -0.12930565229E+04  0.12930565229E+04  0.50400001928E-02 0.  1.
    10030    2    1    2    0    0  0.00000000000E+00  0.00000000000E+00  0.14252978914E+04  0.40114109371E+04  0.37496591348E+04 0.  0.
        5    1    3    3  502    0 -0.89851858160E+03  0.15886529327E+04  0.25398988927E+03  0.18427389223E+04  0.46999998093E+01 0.  1.
       -5    1    3    3    0  502  0.89851858160E+03 -0.15886529327E+04  0.11713080021E+04  0.21686720148E+04  0.46999998093E+01 0. -1.
</event>
<event>
 5   0  0.1341932E-06  0.3793491E+04  0.7818609E-02  0.8047553E-01
        2   -1    0    0  501    0  0.00000000000E+00  0.00000000000E+00  0.20860328037E+04  0.20860328037E+04  0.25500000920E-02 0.  1.
       -2   -1    0    0    0  501  0.00000000000E+00  0.00000000000E+00 -0.17246345924E+04  0.17246345924E+04  0.25500000920E-02 0. -1.
    10030    2    1    2    0    0  0.00000000000E+00  0.00000000000E+00  0.36139821129E+03  0.38106673961E+04  0.37934914441E+04 0.  0.
        2    1    3    3  502    0 -0.17093976699E+04  0.84188210878E+02  0.10020295685E+04  0.19832274970E+04  0.25500000920E-02 0.  1.
       -2    1    3    3    0  502  0.17093976699E+04 -0.84188210878E+02 -0.64063135721E+03  0.18274398990E+04  0.25500000920E-02 0. -1.
</event>
<event>
 5   0  0.1341932E-06  0.2173215E+04  0.7818609E-02  0.8529660E-01
        2   -1    0    0  501    0  0.00000000000E+00  0.00000000000E+00  0.14641982926E+04  0.14641982926E+04  0.25500000920E-02 0.  1.
       -2   -1    0    0    0  501  0.00000000000E+00  0.00000000000E+00 -0.80639082423E+03  0.80639082423E+03  0.25500000920E-02 0. -1.
    10030    2    1    2    0    0  0.00000000000E+00  0.00000000000E+00  0.65780746839E+03  0.22705891168E+04  0.21732151923E+04 0.  0.
        2    1    3    3  502    0 -0.21461415105E+03  0.74878035268E+03 -0.46266024322E+03  0.90597226837E+03  0.25500000920E-02 0. -1.
       -2    1    3    3    0  502  0.21461415105E+03 -0.74878035268E+03  0.11204677116E+04  0.13646168485E+04  0.25500000920E-02 0.  1.
</event>
<event>
 5   0  0.4795023E-07  0.3713632E+04  0.7818609E-02  0.8064947E-01
       -1   -1    0    0    0  501  0.00000000000E+00  0.00000000000E+00  0.12272728012E+04  0.12272728012E+04  0.50400001928E-02 0.  1.
        1   -1    0    0  501    0  0.00000000000E+00  0.00000000000E+00 -0.28092905428E+04  0.28092905428E+04  0.50400001928E-02 0. -1.
    10030    2    1    2    0    0  0.00000000000E+00  0.00000000000E+00 -0.15820177417E+04  0.40365633440E+04  0.37136321163E+04 0.  0.
        3    1    3    3  502    0 -0.12536329569E+04  0.13674460915E+04 -0.70499852567E+03  0.19845723306E+04  0.10100000352E+00 0.  1.
       -3    1    3    3    0  502  0.12536329569E+04 -0.13674460915E+04 -0.87701921602E+03  0.20519910134E+04  0.10100000352E+00 0. -1.
</event>
<event>
 5   0  0.1337854E-06  0.3185509E+04  0.7818609E-02  0.8192655E-01
       -2   -1    0    0    0  501  0.00000000000E+00  0.00000000000E+00  0.11579169879E+04  0.11579169879E+04  0.25500000920E-02 0.  1.
        2   -1    0    0  501    0  0.00000000000E+00  0.00000000000E+00 -0.21908880011E+04  0.21908880011E+04  0.25500000920E-02 0. -1.
    10030    2    1    2    0    0  0.00000000000E+00  0.00000000000E+00 -0.10329710132E+04  0.33488049890E+04  0.31855087099E+04 0.  0.
        3    1    3    3  502    0 -0.12729287797E+04 -0.14395029927E+03 -0.15114690026E+04  0.19813146955E+04  0.10100000352E+00 0. -1.
       -3    1    3    3    0  502  0.12729287797E+04  0.14395029927E+03  0.47849798941E+03  0.13674902935E+04  0.10100000352E+00 0.  1.
</event>
<event>
 5   0  0.1341932E-06  0.3823556E+04  0.7818609E-02  0.8041119E-01
        2   -1    0    0  501    0  0.00000000000E+00  0.00000000000E+00  0.19525245623E+04  0.19525245623E+04  0.25500000920E-02 0.  1.
       -2   -1    0    0    0  501  0.00000000000E+00  0.00000000000E+00 -0.18718820383E+04  0.18718820383E+04  0.25500000920E-02 0. -1.
    10030    2    1    2    0    0  0.00000000000E+00  0.00000000000E+00  0.80642524023E+02  0.38244066006E+04  0.38235562805E+04 0.  0.
        2    1    3    3  502    0  0.45196077173E+03  0.52938298932E+03  0.18212735485E+04  0.19497569662E+04  0.25500000920E-02 0.  1.
       -2    1    3    3    0  502 -0.45196077173E+03 -0.52938298932E+03 -0.17406310245E+04  0.18746496345E+04  0.25500000920E-02 0. -1.
</event>
<event>
 5   0  0.5284458E-07  0.2192835E+04  0.7818609E-02  0.8521416E-01
       -1   -1    0    0    0  501  0.00000000000E+00  0.00000000000E+00  0.65193762414E+03  0.65193762416E+03  0.50400001928E-02 0. -1.
        1   -1    0    0  501    0  0.00000000000E+00  0.00000000000E+00 -0.18439364409E+04  0.18439364409E+04  0.50400001928E-02 0.  1.
    10030    2    1    2    0    0  0.00000000000E+00  0.00000000000E+00 -0.11919988168E+04  0.24958740651E+04  0.21928351898E+04 0.  0.
        5    1    3    3  502    0  0.96738510861E+03 -0.30169879613E+03 -0.10724850614E+04  0.14755007316E+04  0.46999998093E+01 0.  1.
       -5    1    3    3    0  502 -0.96738510861E+03  0.30169879613E+03 -0.11951375532E+03  0.10203733335E+04  0.46999998093E+01 0. -1.
</event>
<event>
 5   0  0.4255250E-07  0.3866585E+04  0.7818609E-02  0.8032015E-01
        3   -1    0    0  501    0  0.00000000000E+00  0.00000000000E+00  0.19661646423E+04  0.19661646449E+04  0.10100000352E+00 0. -1.
       -3   -1    0    0    0  501  0.00000000000E+00  0.00000000000E+00 -0.19009698870E+04  0.19009698897E+04  0.10100000352E+00 0.  1.
    10030    2    1    2    0    0  0.00000000000E+00  0.00000000000E+00  0.65194755277E+02  0.38671345346E+04  0.38665849471E+04 0.  0.
        2    1    3    3  502    0  0.32615892970E+03 -0.16717140994E+04 -0.88219765722E+03  0.19181450373E+04  0.25500000920E-02 0.  1.
       -2    1    3    3    0  502 -0.32615892970E+03  0.16717140994E+04  0.94739241250E+03  0.19489894974E+04  0.25500000920E-02 0. -1.
</event>
<event>
 5   0  0.8030324E-07  0.2618034E+04  0.7818609E-02  0.8362101E-01
        1   -1    0    0  501    0  0.00000000000E+00  0.00000000000E+00  0.20808642090E+04  0.20808642090E+04  0.50400001928E-02 0.  1.
       -1   -1    0    0    0  501  0.00000000000E+00  0.00000000000E+00 -0.82346818889E+03  0.82346818891E+03  0.50400001928E-02 0. -1.
    10030    2    1    2    0    0  0.00000000000E+00  0.00000000000E+00  0.12573960201E+04  0.29043323979E+04  0.26180339811E+04 0.  0.
        1    1    3    3  502    0 -0.90896171645E+03  0.56224752847E+03  0.14671187653E+04  0.18151504502E+04  0.50400001928E-02 0.  1.
       -1    1    3    3    0  502  0.90896171645E+03 -0.56224752847E+03 -0.20972274526E+03  0.10891819477E+04  0.50400001928E-02 0. -1.
</event>
<event>
 5   0  0.1337854E-06  0.3724698E+04  0.7818609E-02  0.8062510E-01
       -2   -1    0    0    0  501  0.00000000000E+00  0.00000000000E+00  0.17195065151E+04  0.17195065151E+04  0.25500000920E-02 0.  1.
        2   -1    0    0  501    0  0.00000000000E+00  0.00000000000E+00 -0.20170571470E+04  0.20170571470E+04  0.25500000920E-02 0. -1.
    10030    2    1    2    0    0  0.00000000000E+00  0.00000000000E+00 -0.29755063187E+03  0.37365636620E+04  0.37246975209E+04 0.  0.
        3    1    3    3  502    0 -0.89923127665E+03  0.15717300885E+04 -0.58535197395E+03  0.19030473729E+04  0.10100000352E+00 0. -1.
       -3    1    3    3    0  502  0.89923127665E+03 -0.15717300885E+04  0.28780134208E+03  0.18335162891E+04  0.10100000352E+00 0.  1.
</event>
<event>
 5   0  0.1341932E-06  0.3442752E+04  0.7818609E-02  0.8127492E-01
        2   -1    0    0  501    0  0.00000000000E+00  0.00000000000E+00  0.24426103403E+04  0.24426103403E+04  0.25500000920E-02 0. -1.
       -2   -1    0    0    0  501  0.00000000000E+00  0.00000000000E+00 -0.12131022613E+04  0.12131022613E+04  0.25500000920E-02 0.  1.
    10030    2    1    2    0    0  0.00000000000E+00  0.00000000000E+00  0.12295080791E+04  0.36557126016E+04  0.34427524612E+04 0.  0.
        2    1    3    3  502    0  0.11547269486E+02  0.84917922958E+03 -0.97516173159E+03  0.12931276450E+04  0.25500000920E-02 0.  1.
       -2    1    3    3    0  502 -0.11547269486E+02 -0.84917922958E+03  0.22046698107E+04  0.23625849567E+04  0.25500000920E-02 0. -1.
</event>
<event>
 5   0  0.1214844E-06  0.3786306E+04  0.7818609E-02  0.8049100E-01
        2   -1    0    0  501    0  0.00000000000E+00  0.00000000000E+00  0.26589153048E+04  0.26589153048E+04  0.25500000920E-02 0.  1.
       -2   -1    0    0    0  501  0.00000000000E+00  0.00000000000E+00 -0.13479287337E+04  0.13479287337E+04  0.25500000920E-02 0. -1.
    10030    2    1    2    0    0  0.00000000000E+00  0.00000000000E+00  0.13109865712E+04  0.40068440385E+04  0.37863060308E+04 0.  0.
        4    1    3    3  502    0  0.53721548601E+03  0.15362077224E+03  0.25696693661E+04  0.26297152097E+04  0.12699999809E+01 0.  1.
       -4    1    3    3    0  502 -0.53721548601E+03 -0.15362077224E+03 -0.12586827949E+04  0.13771288288E+04  0.12699999809E+01 0. -1.
</event>
<event>
 5   0  0.4255250E-07  0.2810127E+04  0.7818609E-02  0.8300131E-01
        1   -1    0    0  501    0  0.00000000000E+00  0.00000000000E+00  0.11974224797E+04  0.11974224798E+04  0.50400001928E-02 0. -1.
       -1   -1    0    0    0  501  0.00000000000E+00  0.00000000000E+00 -0.16487108339E+04  0.16487108339E+04  0.50400001928E-02 0.  1.
    10030    2    1    2    0    0  0.00000000000E+00  0.00000000000E+00 -0.45128835413E+03  0.28461333137E+04  0.28101269830E+04 0.  0.
        2    1    3    3  502    0 -0.10543194133E+04 -0.90338347661E+03 -0.72137538140E+01  0.13884319102E+04  0.25500000920E-02 0. -1.
       -2    1    3    3    0  502  0.10543194133E+04  0.90338347661E+03 -0.44407460032E+03  0.14577014035E+04  0.25500000920E-02 0.  1.
</event>
<event>
 5   0  0.1372748E-06  0.3524222E+04  0.7818609E-02  0.8108073E-01
        2   -1    0    0  501    0  0.00000000000E+00  0.00000000000E+00  0.20002253216E+04  0.20002253216E+04  0.25500000920E-02 0. -1.
       -2   -1    0    0    0  501  0.00000000000E+00  0.00000000000E+00 -0.15523431317E+04  0.15523431317E+04  0.25500000920E-02 0.  1.
    10030    2    1    2    0    0  0.00000000000E+00  0.00000000000E+00  0.44788218990E+03  0.35525684534E+04  0.35242224901E+04 0.  0.
        1    1    3    3  502    0 -0.75220183176E+03 -0.15909262097E+04  0.13275781031E+03  0.17647884963E+04  0.50400001928E-02 0. -1.
       -1    1    3    3    0  502  0.75220183176E+03  0.15909262097E+04  0.31512437959E+03  0.17877799571E+04  0.50400001928E-02 0.  1.
</event>
<event>
 5   0  0.1341932E-06  0.3710021E+04  0.7818609E-02  0.8065745E-01
       -2   -1    0    0    0  501  0.00000000000E+00  0.00000000000E+00  0.15059108544E+04  0.15059108544E+04  0.25500000920E-02 0.  1.
        2   -1    0    0  501    0  0.00000000000E+00  0.00000000000E+00 -0.22850380952E+04  0.22850380952E+04  0.25500000920E-02 0. -1.
    10030    2    1    2    0    0  0.00000000000E+00  0.00000000000E+00 -0.77912724079E+03  0.37909489495E+04  0.37100208464E+04 0.  0.
        2    1    3    3  502    0  0.14603199538E+03 -0.90335424918E+03  0.12592295352E+04  0.15566095417E+04  0.25500000920E-02 0.  1.
       -2    1    3    3    0  502 -0.14603199538E+03  0.90335424918E+03 -0.20383567759E+04  0.22343394078E+04  0.25500000920E-02 0. -1.
</event>
<event>
 5   0  0.4795023E-07  0.2034254E+04  0.7818609E-02  0.8590771E-01
       -1   -1    0    0    0  501  0.00000000000E+00  0.00000000000E+00  0.14469420777E+04  0.14469420777E+04  0.50400001928E-02 0.  1.
        1   -1    0    0  501    0  0.00000000000E+00  0.00000000000E+00 -0.71498882589E+03  0.71498882591E+03  0.50400001928E-02 0. -1.
    10030    2    1    2    0    0  0.00000000000E+00  0.00000000000E+00  0.73195325184E+03  0.21619309037E+04  0.20342540818E+04 0.  0.
        3    1    3    3  502    0 -0.16072010166E+03  0.41519686937E+03 -0.60593087991E+03  0.75191198477E+03  0.10100000352E+00 0. -1.
       -3    1    3    3    0  502  0.16072010166E+03 -0.41519686937E+03  0.13378841318E+04  0.14100189189E+04  0.10100000352E+00 0.  1.
</event>
<event>
 5   0  0.4255250E-07  0.3719752E+04  0.7818609E-02  0.8063599E-01
       -3   -1    0    0    0  501  0.00000000000E+00  0.00000000000E+00  0.16793670177E+04  0.16793670207E+04  0.10100000352E+00 0.  1.
        3   -1    0    0  501    0  0.00000000000E+00  0.00000000000E+00 -0.20597870320E+04  0.20597870345E+04  0.10100000352E+00 0. -1.
    10030    2    1    2    0    0  0.00000000000E+00  0.00000000000E+00 -0.38042001437E+03  0.37391540552E+04  0.37197518279E+04 0.  0.
        1    1    3    3  502    0 -0.14550491799E+04 -0.94213672629E+03  0.48735977932E+03  0.18006413528E+04  0.50400001928E-02 0.  1.
       -1    1    3    3    0  502  0.14550491799E+04  0.94213672629E+03 -0.86777979368E+03  0.19385127024E+04  0.50400001928E-02 0. -1.
</event>
<event>
 5   0  0.1079205E-06  0.3744776E+04  0.7818609E-02  0.8058111E-01
       -1   -1    0    0    0  501  0.00000000000E+00  0.00000000000E+00  0.13326383688E+04  0.13326383688E+04  0.50400001928E-02 0.  1.
        1   -1    0    0  501    0  0.00000000000E+00  0.00000000000E+00 -0.26307491465E+04  0.26307491465E+04  0.50400001928E-02 0. -1.
    10030    2    1    2    0    0  0.00000000000E+00  0.00000000000E+00 -0.12981107777E+04  0.39633875154E+04  0.37447762291E+04 0.  0.
        4    1    3    3  502    0 -0.30616564052E+03  0.45214869189E+03  0.12464927422E+04  0.13608532648E+04  0.12699999809E+01 0.  1.
       -4    1    3    3    0  502  0.30616564052E+03 -0.45214869189E+03 -0.25446035199E+04  0.26025342506E+04  0.12699999809E+01 0. -1.
</event>
<event>
 5   0  0.5284458E-07  0.3788615E+04  0.7818609E-02  0.8048602E-01
        1   -1    0    0  501    0  0.00000000000E+00  0.00000000000E+00  0.18105998455E+04  0.18105998455E+04  0.50400001928E-02 0.  1.
       -1   -1    0    0    0  501  0.00000000000E+00  0.00000000000E+00 -0.19818853165E+04  0.19818853165E+04  0.50400001928E-02 0. -1.
    10030    2    1    2    0    0  0.00000000000E+00  0.00000000000E+00 -0.17128547099E+03  0.37924851621E+04  0.37886151813E+04 0.  0.
        5    1    3    3  502    0 -0.10777053163E+04  0.15071577581E+04 -0.48026096914E+03  0.19140652928E+04  0.46999998093E+01 0.  1.
       -5    1    3    3    0  502  0.10777053163E+04 -0.15071577581E+04  0.30897549815E+03  0.18784198693E+04  0.46999998093E+01 0. -1.
</event>
<event>
 5   0  0.1337854E-06  0.3798187E+04  0.7818609E-02  0.8046544E-01
        2   -1    0    0  501    0  0.00000000000E+00  0.00000000000E+00  0.23429909439E+04  0.23429909439E+04  0.25500000920E-02 0. -1.
       -2   -1    0    0    0  501  0.00000000000E+00  0.00000000000E+00 -0.15392955045E+04  0.15392955045E+04  0.25500000920E-02 0.  1.
    10030    2    1    2    0    0  0.00000000000E+00  0.00000000000E+00  0.80369543947E+03  0.38822864484E+04  0.37981866342E+04 0.  0.
        3    1    3    3  502    0  0.14302982304E+04  0.90300019935E+03  0.12843258232E+04  0.21238303176E+04  0.10100000352E+00 0. -1.
       -3    1    3    3    0  502 -0.14302982304E+04 -0.90300019935E+03 -0.48063038370E+03  0.17584561307E+04  0.10100000352E+00 0.  1.
</event>
<event>
 5   0  0.4255250E-07  0.2647364E+04  0.7818609E-02  0.8352288E-01
       -1   -1    0    0    0  501  0.00000000000E+00  0.00000000000E+00  0.95451831133E+03  0.95451831135E+03  0.50400001928E-02 0.  1.
        1   -1    0    0  501    0  0.00000000000E+00  0.00000000000E+00 -0.18356216180E+04  0.18356216180E+04  0.50400001928E-02 0. -1.
    10030    2    1    2    0    0  0.00000000000E+00  0.00000000000E+00 -0.88110330665E+03  0.27901399293E+04  0.26473643097E+04 0.  0.
        2    1    3    3  502    0 -0.54576921559E+03 -0.90515979956E+03  0.39926433963E+03  0.11298629618E+04  0.25500000920E-02 0.  1.
       -2    1    3    3    0  502  0.54576921559E+03  0.90515979956E+03 -0.12803676463E+04  0.16602769676E+04  0.25500000920E-02 0. -1.
</event>
<event>
 5   0  0.1372748E-06  0.3861592E+04  0.7818609E-02  0.8033065E-01
       -2   -1    0    0    0  501  0.00000000000E+00  0.00000000000E+00  0.18740493556E+04  0.18740493556E+04  0.25500000920E-02 0.  1.
        2   -1    0    0  501    0  0.00000000000E+00  0.00000000000E+00 -0.19892607393E+04  0.19892607393E+04  0.25500000920E-02 0. -1.
    10030    2    1    2    0    0  0.00000000000E+00  0.00000000000E+00 -0.11521138372E+03  0.38633100949E+04  0.38615917995E+04 0.  0.
        1    1    3    3  502    0 -0.20463035346E+03  0.17994655572E+04  0.61203729985E+03  0.19116849975E+04  0.50400001928E-02 0.  1.
       -1    1    3    3    0  502  0.20463035346E+03 -0.17994655572E+04 -0.72724868357E+03  0.19516250974E+04  0.50400001928E-02 0. -1.
</event>
<event>
 5   0  0.4255250E-07  0.2038087E+04  0.7818609E-02  0.8589018E-01
        1   -1    0    0  501    0  0.00000000000E+00  0.00000000000E+00  0.15370904380E+04  0.15370904381E+04  0.50400001928E-02 0. -1.
       -1   -1    0    0    0  501  0.00000000000E+00  0.00000000000E+00 -0.67559439144E+03  0.67559439146E+03  0.50400001928E-02 0.  1.
    10030    2    1    2    0    0  0.00000000000E+00  0.00000000000E+00  0.86149604661E+03  0.22126848295E+04  0.20380870238E+04 0.  0.
        2    1    3    3  502    0  0.95315479460E+02  0.98487463931E+03  0.69531827122E+03  0.12093513113E+04  0.25500000920E-02 0.  1.
       -2    1    3    3    0  502 -0.95315479460E+02 -0.98487463931E+03  0.16617777539E+03  0.10033335182E+04  0.25500000920E-02 0. -1.
</event>
<event>
 5   0  0.5284458E-07  0.1903328E+04  0.7818609E-02  0.8653201E-01
       -1   -1    0    0    0  501  0.00000000000E+00  0.00000000000E+00  0.64885895401E+03  0.64885895403E+03  0.50400001928E-02 0.  1.
        1   -1    0    0  501    0  0.00000000000E+00  0.00000000000E+00 -0.13957805750E+04  0.13957805750E+04  0.50400001928E-02 0. -1.
    10030    2    1    2    0    0  0.00000000000E+00  0.00000000000E+00 -0.74692162094E+03  0.20446395290E+04  0.19033283731E+04 0.  0.
        5    1    3    3  502    0 -0.80959597386E+03 -0.18581083501E+03 -0.87234442022E+03  0.12045655585E+04  0.46999998093E+01 0. -1.
       -5    1    3    3    0  502  0.80959597386E+03  0.18581083501E+03  0.12542279928E+03  0.84007397047E+03  0.46999998093E+01 0.  1.
</event>
<event>
 5   0  0.1214844E-06  0.3964474E+04  0.7818609E-02  0.8011752E-01
       -2   -1    0    0    0  501  0.00000000000E+00  0.00000000000E+00  0.17078194190E+04  0.17078194190E+04  0.25500000920E-02 0.  1.
        2   -1    0    0  501    0  0.00000000000E+00  0.00000000000E+00 -0.23007494010E+04  0.23007494010E+04  0.25500000920E-02 0. -1.
    10030    2    1    2    0    0  0.00000000000E+00  0.00000000000E+00 -0.59292998209E+03  0.40085688200E+04  0.39644744949E+04 0.  0.
        4    1    3    3  502    0  0.14458431394E+04  0.13537967789E+04 -0.21791705080E+03  0.19926659419E+04  0.12699999809E+01 0.  1.
       -4    1    3    3    0  502 -0.14458431394E+04 -0.13537967789E+04 -0.37501293129E+03  0.20159028781E+04  0.12699999809E+01 0. -1.
</event>
<event>
 5   0  0.8030324E-07  0.2485337E+04  0.7818609E-02  0.8408228E-01
        1   -1    0    0  501    0  0.00000000000E+00  0.00000000000E+00  0.12606807565E+04  0.12606807565E+04  0.50400001928E-02 0.  1.
       -1   -1    0    0    0  501  0.00000000000E+00  0.00000000000E+00 -0.12249137359E+04  0.12249137359E+04  0.50400001928E-02 0. -1.
    10030    2    1    2    0    0  0.00000000000E+00  0.00000000000E+00  0.35767020594E+02  0.24855944923E+04  0.24853371402E+04 0.  0.
        1    1    3    3  502    0  0.11417618848E+04  0.48659207492E+03  0.79802167493E+02  0.12436882386E+04  0.50400001928E-02 0.  1.
       -1    1    3    3    0  502 -0.11417618848E+04 -0.48659207492E+03 -0.44035146899E+02  0.12419062537E+04  0.50400001928E-02 0. -1.
</event>
<event>
 5   0  0.1341932E-06  0.3779894E+04  0.7818609E-02  0.8050483E-01
       -2   -1    0    0    0  501  0.00000000000E+00  0.00000000000E+00  0.21433839386E+04  0.21433839386E+04  0.25500000920E-02 0. -1.
        2   -1    0    0  501    0  0.00000000000E+00  0.00000000000E+00 -0.16664768143E+04  0.16664768143E+04  0.25500000920E-02 0.  1.
    10030    2    1    2    0    0  0.00000000000E+00  0.00000000000E+00  0.47690712430E+03  0.38098607529E+04  0.37798939868E+04 0.  0.
        2    1    3    3  502    0  0.30236501800E+03  0.14430645607E+04 -0.95330762287E+03  0.17557492288E+04  0.25500000920E-02 0.  1.
       -2    1    3    3    0  502 -0.30236501800E+03 -0.14430645607E+04  0.14302147472E+04  0.20541115241E+04  0.25500000920E-02 0. -1.
</event>
<event>
 5   0  0.1337854E-06  0.2281852E+04  0.7818609E-02  0.8485111E-01
        2   -1    0    0  501    0  0.00000000000E+00  0.00000000000E+00  0.11595183120E+04  0.11595183120E+04  0.25500000920E-02 0. -1.
       -2   -1    0    0    0  501  0.00000000000E+00  0.00000000000E+00 -0.11226321907E+04  0.11226321908E+04  0.25500000920E-02 0.  1.
    10030    2    1    2    0    0  0.00000000000E+00  0.00000000000E+00  0.36886121224E+02  0.22821505027E+04  0.22818523903E+04 0.  0.
        3    1    3    3  502    0  0.15886284112E+03 -0.78616122032E+02 -0.11087776864E+04  0.11228561194E+04  0.10100000352E+00 0.  1.
       -3    1    3    3    0  502 -0.15886284112E+03  0.78616122032E+02  0.11456638076E+04  0.11592943833E+04  0.10100000352E+00 0. -1.
</event>
<event>
 5   0  0.4255250E-07  0.2095672E+04  0.7818609E-02  0.8563152E-01
        1   -1    0    0  501    0  0.00000000000E+00  0.00000000000E+00  0.17268156331E+04  0.17268156331E+04  0.50400001928E-02 0.  1.
       -1   -1    0    0    0  501  0.00000000000E+00  0.00000000000E+00 -0.63582935975E+03  0.63582935977E+03  0.50400001928E-02 0. -1.
    10030    2    1    2    0    0  0.00000000000E+00  0.00000000000E+00  0.10909862733E+04  0.23626449928E+04  0.20956718049E+04 0.  0.
        2    1    3    3  502    0 -0.37443316766E+02  0.97403587806E+03  0.97893446406E+03  0.13814704407E+04  0.25500000920E-02 0.  1.
       -2    1    3    3    0  502  0.37443316766E+02 -0.97403587806E+03  0.11205180926E+03  0.98117455210E+03  0.25500000920E-02 0. -1.
</event>
<event>
 5   0  0.1341932E-06  0.3755834E+04  0.7818609E-02  0.8055700E-01
       -2   -1    0    0    0  501  0.00000000000E+00  0.00000000000E+00  0.14342088658E+04  0.14342088658E+04  0.25500000920E-02 0.  1.
        2   -1    0    0  501    0  0.00000000000E+00  0.00000000000E+00 -0.24588967446E+04  0.24588967446E+04  0.25500000920E-02 0. -1.
    10030    2    1    2    0    0  0.00000000000E+00  0.00000000000E+00 -0.10246878789E+04  0.38931056104E+04  0.37558336018E+04 0.  0.
        2    1    3    3  502    0  0.47670116239E+03  0.85611362627E+03 -0.21728931834E+04  0.23836189557E+04  0.25500000920E-02 0. -1.
       -2    1    3    3    0  502 -0.47670116239E+03 -0.85611362627E+03  0.11482053046E+04  0.15094866547E+04  0.25500000920E-02 0.  1.
</event>
<event>
 5   0  0.1372748E-06  0.3834691E+04  0.7818609E-02  0.8038751E-01
        2   -1    0    0  501    0  0.00000000000E+00  0.00000000000E+00  0.29937275982E+04  0.29937275982E+04  0.25500000920E-02 0. -1.
       -2   -1    0    0    0  501  0.00000000000E+00  0.00000000000E+00 -0.12279721952E+04  0.12279721952E+04  0.25500000920E-02 0.  1.
    10030    2    1    2    0    0  0.00000000000E+00  0.00000000000E+00  0.17657554030E+04  0.42216997934E+04  0.38346912525E+04 0.  0.
        1    1    3    3  502    0 -0.99065287005E+02 -0.16163819848E+04 -0.24722369755E+03  0.16381770992E+04  0.50400001928E-02 0.  1.
       -1    1    3    3    0  502  0.99065287005E+02  0.16163819848E+04  0.20129791006E+04  0.25835226941E+04  0.50400001928E-02 0. -1.
</event>
<event>
 5   0  0.5284458E-07  0.3724676E+04  0.7818609E-02  0.8062515E-01
       -1   -1    0    0    0  501  0.00000000000E+00  0.00000000000E+00  0.17697542912E+04  0.17697542913E+04  0.50400001928E-02 0. -1.
        1   -1    0    0  501    0  0.00000000000E+00  0.00000000000E+00 -0.19597652220E+04  0.19597652220E+04  0.50400001928E-02 0.  1.
    10030    2    1    2    0    0  0.00000000000E+00  0.00000000000E+00 -0.19001093074E+03  0.37295195132E+04  0.37246760458E+04 0.  0.
        5    1    3    3  502    0  0.17595348346E+04  0.60998648830E+03 -0.11033783339E+03  0.18655409075E+04  0.46999998093E+01 0.  1.
       -5    1    3    3    0  502 -0.17595348346E+04 -0.60998648830E+03 -0.79673097346E+02  0.18639786057E+04  0.46999998093E+01 0. -1.
</event>
<event>
 5   0  0.1079205E-06  0.3859024E+04  0.7818609E-02  0.8033606E-01
        1   -1    0    0  501    0  0.00000000000E+00  0.00000000000E+00  0.18134401803E+04  0.18134401803E+04  0.50400001928E-02 0.  1.
       -1   -1    0    0    0  501  0.00000000000E+00  0.00000000000E+00 -0.20530127034E+04  0.20530127034E+04  0.50400001928E-02 0. -1.
    10030    2    1    2    0    0  0.00000000000E+00  0.00000000000E+00 -0.23957252315E+03  0.38664528837E+04  0.38590235693E+04 0.  0.
        4    1    3    3  502    0  0.67420368672E+03  0.55277870512E+03 -0.18444074998E+04  0.20400871418E+04  0.12699999809E+01 0. -1.
       -4    1    3    3    0  502 -0.67420368672E+03 -0.55277870512E+03  0.16048349766E+04  0.18263657419E+04  0.12699999809E+01 0.  1.
</event>
<event>
 5   0  0.1341932E-06  0.3796291E+04  0.7818609E-02  0.8046951E-01
       -2   -1    0    0    0  501  0.00000000000E+00  0.00000000000E+00  0.14206924627E+04  0.14206924627E+04  0.25500000920E-02 0.  1.
        2   -1    0    0  501    0  0.00000000000E+00  0.00000000000E+00 -0.25360559145E+04  0.25360559145E+04  0.25500000920E-02 0. -1.
    10030    2    1    2    0    0  0.00000000000E+00  0.00000000000E+00 -0.11153634518E+04  0.39567483772E+04  0.37962905699E+04 0.  0.
        2    1    3    3  502    0 -0.32081477836E+03  0.17845557513E+04  0.27655059747E+02  0.18133742453E+04  0.25500000920E-02 0. -1.
       -2    1    3    3    0  502  0.32081477836E+03 -0.17845557513E+04 -0.11430185116E+04  0.21433741319E+04  0.25500000920E-02 0.  1.
</event>
<event>
 5   0  0.1214844E-06  0.3804654E+04  0.7818609E-02  0.8045157E-01
        2   -1    0    0  501    0  0.00000000000E+00  0.00000000000E+00  0.19621242534E+04  0.19621242534E+04  0.25500000920E-02 0.  1.
       -2   -1    0    0    0  501  0.00000000000E+00  0.00000000000E+00 -0.18443522848E+04  0.18443522848E+04  0.25500000920E-02 0. -1.
    10030    2    1    2    0    0  0.00000000000E+00  0.00000000000E+00  0.11777196857E+03  0.38064765382E+04  0.38046541761E+04 0.  0.
        4    1    3    3  502    0 -0.13231534167E+04  0.12108488280E+04 -0.57541839178E+03  0.18836129610E+04  0.12699999809E+01 0.  1.
       -4    1    3    3    0  502  0.13231534167E+04 -0.12108488280E+04  0.69319036035E+03  0.19228635773E+04  0.12699999809E+01 0. -1.
</event>
<event>
 5   0  0.1337854E-06  0.4010771E+04  0.7818609E-02  0.8002377E-01
        2   -1    0    0  501    0  0.00000000000E+00  0.00000000000E+00  0.29188958410E+04  0.29188958410E+04  0.25500000920E-02 0.  1.
       -2   -1    0    0    0  501  0.00000000000E+00  0.00000000000E+00 -0.13777714255E+04  0.13777714255E+04  0.25500000920E-02 0. -1.
    10030    2    1    2    0    0  0.00000000000E+00  0.00000000000E+00  0.15411244156E+04  0.42966672665E+04  0.40107711396E+04 0.  0.
        3    1    3    3  502    0  0.34961645049E+03 -0.19067150161E+04  0.22035955305E+03  0.19509874828E+04  0.10100000352E+00 0. -1.
       -3    1    3    3    0  502 -0.34961645049E+03  0.19067150161E+04  0.13207648625E+04  0.23456797837E+04  0.10100000352E+00 0.  1.
</event>
<event>
 5   0  0.1184616E-06  0.1899202E+04  0.7818609E-02  0.8655254E-01
       -2   -1    0    0    0  501  0.00000000000E+00  0.00000000000E+00  0.46660352488E+03  0.46660352489E+03  0.25500000920E-02 0.  1.
        2   -1    0    0  501    0  0.00000000000E+00  0.00000000000E+00 -0.19325653273E+04  0.19325653273E+04  0.25500000920E-02 0. -1.
    10030    2    1    2    0    0  0.00000000000E+00  0.00000000000E+00 -0.14659618024E+04  0.23991688522E+04  0.18992017205E+04 0.  0.
        5    1    3    3  502    0 -0.23503110230E+03  0.90323064900E+03 -0.51180556696E+03  0.10644398775E+04  0.46999998093E+01 0. -1.
       -5    1    3    3    0  502  0.23503110230E+03 -0.90323064900E+03 -0.95415623546E+03  0.13347289747E+04  0.46999998093E+01 0.  1.
</event>
<event>
 5   0  0.8030324E-07  0.1976778E+04  0.7818609E-02  0.8617555E-01
        1   -1    0    0  501    0  0.00000000000E+00  0.00000000000E+00  0.80308708659E+03  0.80308708661E+03  0.50400001928E-02 0. -1.
       -1   -1    0    0    0  501  0.00000000000E+00  0.00000000000E+00 -0.12164469932E+04  0.12164469932E+04  0.50400001928E-02 0.  1.
    10030    2    1    2    0    0  0.00000000000E+00  0.00000000000E+00 -0.41335990658E+03  0.20195340798E+04  0.19767780571E+04 0.  0.
        1    1    3    3  502    0 -0.67455637393E+03 -0.21347627314E+03  0.49840290047E+03  0.86545009795E+03  0.50400001928E-02 0. -1.
       -1    1    3    3    0  502  0.67455637393E+03  0.21347627314E+03 -0.91176280705E+03  0.11540839818E+04  0.50400001928E-02 0.  1.
</event>
<event>
 5   0  0.4795023E-07  0.3991508E+04  0.7818609E-02  0.8006262E-01
        1   -1    0    0  501    0  0.00000000000E+00  0.00000000000E+00  0.29205313752E+04  0.29205313752E+04  0.50400001928E-02 0.  1.
       -1   -1    0    0    0  501  0.00000000000E+00  0.00000000000E+00 -0.13638048126E+04  0.13638048126E+04  0.50400001928E-02 0. -1.
    10030    2    1    2    0    0  0.00000000000E+00  0.00000000000E+00  0.15567265626E+04  0.42843361879E+04  0.39915083590E+04 0.  0.
        3    1    3    3  502    0 -0.11745255991E+04 -0.14945126639E+04  0.12550084263E+03  0.19049485445E+04  0.10100000352E+00 0. -1.
       -3    1    3    3    0  502  0.11745255991E+04  0.14945126639E+04  0.14312257200E+04  0.23793876433E+04  0.10100000352E+00 0.  1.
</event>
<event>
 5   0  0.1214844E-06  0.3763968E+04  0.7818609E-02  0.8053932E-01
        2   -1    0    0  501    0  0.00000000000E+00  0.00000000000E+00  0.17414293404E+04  0.17414293404E+04  0.25500000920E-02 0. -1.
       -2   -1    0    0    0  501  0.00000000000E+00  0.00000000000E+00 -0.20338833183E+04  0.20338833183E+04  0.25500000920E-02 0.  1.
    10030    2    1    2    0    0  0.00000000000E+00  0.00000000000E+00 -0.29245397786E+03  0.37753126587E+04  0.37639681642E+04 0.  0.
        4    1    3    3  502    0 -0.17968939797E+04 -0.30755398013E+03 -0.61501671402E+03  0.19239710487E+04  0.12699999809E+01 0. -1.
       -4    1    3    3    0  502  0.17968939797E+04  0.30755398013E+03  0.32256273615E+03  0.18513416099E+04  0.12699999809E+01 0.  1.
</event>
<event>
 5   0  0.1214844E-06  0.3811361E+04  0.7818609E-02  0.8043721E-01
       -2   -1    0    0    0  501  0.00000000000E+00  0.00000000000E+00  0.20946313051E+04  0.20946313051E+04  0.25500000920E-02 0.  1.
        2   -1    0    0  501    0  0.00000000000E+00  0.00000000000E+00 -0.17337746925E+04  0.17337746925E+04  0.25500000920E-02 0. -1.
    10030    2    1    2    0    0  0.00000000000E+00  0.00000000000E+00  0.36085661266E+03  0.38284059976E+04  0.38113613038E+04 0.  0.
        4    1    3    3  502    0  0.14143610520E+04  0.12071927759E+04  0.59928900703E+03  0.19536838307E+04  0.12699999809E+01 0. -1.
       -4    1    3    3    0  502 -0.14143610520E+04 -0.12071927759E+04 -0.23843239437E+03  0.18747221669E+04  0.12699999809E+01 0.  1.
</event>
<event>
 5   0  0.1341932E-06  0.3920576E+04  0.7818609E-02  0.8020763E-01
       -2   -1    0    0    0  501  0.00000000000E+00  0.00000000000E+00  0.20629087821E+04  0.20629087821E+04  0.25500000920E-02 0. -1.
        2   -1    0    0  501    0  0.00000000000E+00  0.00000000000E+00 -0.18627717510E+04  0.18627717510E+04  0.25500000920E-02 0.  1.
    10030    2    1    2    0    0  0.00000000000E+00  0.00000000000E+00  0.20013703109E+03  0.39256805331E+04  0.39205755721E+04 0.  0.
        2    1    3    3  502    0 -0.19245045254E+04  0.15887925757E+03 -0.23766567483E+03  0.19456220753E+04  0.25500000920E-02 0.  1.
       -2    1    3    3    0  502  0.19245045254E+04 -0.15887925757E+03  0.43780270593E+03  0.19800584578E+04  0.25500000920E-02 0. -1.
</event>
<event>
 5   0  0.4255250E-07  0.1924216E+04  0.7818609E-02  0.8642896E-01
        1   -1    0    0  501    0  0.00000000000E+00  0.00000000000E+00  0.90314109598E+03  0.90314109599E+03  0.50400001928E-02 0. -1.
       -1   -1    0    0    0  501  0.00000000000E+00  0.00000000000E+00 -0.10249245106E+04  0.10249245107E+04  0.50400001928E-02 0.  1.
    10030    2    1    2    0    0  0.00000000000E+00  0.00000000000E+00 -0.12178341467E+03  0.19280656066E+04  0.19242156281E+04 0.  0.
        2    1    3    3  502    0 -0.10451989391E+03  0.92466505711E+03  0.18397721921E+03  0.94856601946E+03  0.25500000920E-02 0. -1.
       -2    1    3    3    0  502  0.10451989391E+03 -0.92466505711E+03 -0.30576063388E+03  0.97949958719E+03  0.25500000920E-02 0.  1.
</event>
<event>
 5   0  0.5284458E-07  0.3858099E+04  0.7818609E-02  0.8033801E-01
       -1   -1    0    0    0  501  0.00000000000E+00  0.00000000000E+00  0.15396135988E+04  0.15396135988E+04  0.50400001928E-02 0.  1.
        1   -1    0    0  501    0  0.00000000000E+00  0.00000000000E+00 -0.24169904142E+04  0.24169904142E+04  0.50400001928E-02 0. -1.
    10030    2    1    2    0    0  0.00000000000E+00  0.00000000000E+00 -0.87737681540E+03  0.39566040131E+04  0.38580986561E+04 0.  0.
        5    1    3    3  502    0  0.15929823122E+03  0.10530395816E+04 -0.20881511667E+04  0.23440703214E+04  0.46999998093E+01 0. -1.
       -5    1    3    3    0  502 -0.15929823122E+03 -0.10530395816E+04  0.12107743513E+04  0.16125336916E+04  0.46999998093E+01 0.  1.
</event>
<event>
 5   0  0.1184616E-06  0.2575292E+04  0.7818609E-02  0.8376643E-01
        2   -1    0    0  501    0  0.00000000000E+00  0.00000000000E+00  0.18845054979E+04  0.18845054979E+04  0.25500000920E-02 0.  1.
       -2   -1    0    0    0  501  0.00000000000E+00  0.00000000000E+00 -0.87982359216E+03  0.87982359216E+03  0.25500000920E-02 0. -1.
    10030    2    1    2    0    0  0.00000000000E+00  0.00000000000E+00  0.10046819057E+04  0.27643290901E+04  0.25752921361E+04 0.  0.
        5    1    3    3  502    0  0.68902199273E+03 -0.49774372573E+03 -0.53587453200E+03  0.10048301981E+04  0.46999998093E+01 0. -1.
       -5    1    3    3    0  502 -0.68902199273E+03  0.49774372573E+03  0.15405564377E+04  0.17594988920E+04  0.46999998093E+01 0.  1.
</event>
<event>
 5   0  0.1372748E-06  0.2826380E+04  0.7818609E-02  0.8295125E-01
       -2   -1    0    0    0  501  0.00000000000E+00  0.00000000000E+00  0.14280020040E+04  0.14280020040E+04  0.25500000920E-02 0. -1.
        2   -1    0    0  501    0  0.00000000000E+00  0.00000000000E+00 -0.13985319194E+04  0.13985319194E+04  0.25500000920E-02 0.  1.
    10030    2    1    2    0    0  0.00000000000E+00  0.00000000000E+00  0.29470084589E+02  0.28265339234E+04  0.28263802884E+04 0.  0.
        1    1    3    3  502    0  0.44138422449E+03  0.11141965472E+04  0.76367654791E+03  0.14210755959E+04  0.50400001928E-02 0. -1.
       -1    1    3    3    0  502 -0.44138422449E+03 -0.11141965472E+04 -0.73420646333E+03  0.14054583275E+04  0.50400001928E-02 0.  1.
</event>
<event>
 5   0  0.8030324E-07  0.3297424E+04  0.7818609E-02  0.8163551E-01
        1   -1    0    0  501    0  0.00000000000E+00  0.00000000000E+00  0.22490214513E+04  0.22490214514E+04  0.50400001928E-02 0. -1.
       -1   -1    0    0    0  501  0.00000000000E+00  0.00000000000E+00 -0.12086370317E+04  0.12086370317E+04  0.50400001928E-02 0.  1.
    10030    2    1    2    0    0  0.00000000000E+00  0.00000000000E+00  0.10403844197E+04  0.34576584830E+04  0.32974236071E+04 0.  0.
        1    1    3    3  502    0 -0.92246224554E+03  0.21791868267E+03 -0.89437055248E+03  0.13031975414E+04  0.50400001928E-02 0.  1.
       -1    1    3    3    0  502  0.92246224554E+03 -0.21791868267E+03  0.19347549722E+04  0.21544609416E+04  0.50400001928E-02 0. -1.
</event>
<event>
 5   0  0.1079205E-06  0.3741674E+04  0.7818609E-02  0.8058789E-01
        1   -1    0    0  501    0  0.00000000000E+00  0.00000000000E+00  0.21856570645E+04  0.21856570645E+04  0.50400001928E-02 0. -1.
       -1   -1    0    0    0  501  0.00000000000E+00  0.00000000000E+00 -0.16013635454E+04  0.16013635454E+04  0.50400001928E-02 0.  1.
    10030    2    1    2    0    0  0.00000000000E+00  0.00000000000E+00  0.58429351907E+03  0.37870206099E+04  0.37416742487E+04 0.  0.
        4    1    3    3  502    0 -0.30573956898E+03  0.12187774780E+03 -0.15718293830E+04  0.16059203254E+04  0.12699999809E+01 0.  1.
       -4    1    3    3    0  502  0.30573956898E+03 -0.12187774780E+03  0.21561229021E+04  0.21811002845E+04  0.12699999809E+01 0. -1.
</event>
<event>
 5   0  0.4255250E-07  0.2483405E+04  0.7818609E-02  0.8408921E-01
       -3   -1    0    0    0  501  0.00000000000E+00  0.00000000000E+00  0.90807622511E+03  0.90807623073E+03  0.10100000352E+00 0. -1.
        3   -1    0    0  501    0  0.00000000000E+00  0.00000000000E+00 -0.16979029740E+04  0.16979029770E+04  0.10100000352E+00 0.  1.
    10030    2    1    2    0    0  0.00000000000E+00  0.00000000000E+00 -0.78982674892E+03  0.26059792078E+04  0.24834051901E+04 0.  0.
        5    1    3    3  502    0 -0.51243249466E+03  0.10918409219E+04 -0.85220364818E+02  0.12091270657E+04  0.46999998093E+01 0. -1.
       -5    1    3    3    0  502  0.51243249466E+03 -0.10918409219E+04 -0.70460638410E+03  0.13968521421E+04  0.46999998093E+01 0.  1.
</event>
<event>
 5   0  0.1214844E-06  0.3496983E+04  0.7818609E-02  0.8114505E-01
        2   -1    0    0  501    0  0.00000000000E+00  0.00000000000E+00  0.22470341679E+04  0.22470341679E+04  0.25500000920E-02 0. -1.
       -2   -1    0    0    0  501  0.00000000000E+00  0.00000000000E+00 -0.13605588809E+04  0.13605588809E+04  0.25500000920E-02 0.  1.
    10030    2    1    2    0    0  0.00000000000E+00  0.00000000000E+00  0.88647528706E+03  0.36075930488E+04  0.34969828668E+04 0.  0.
        4    1    3    3  502    0  0.32482828694E+03 -0.15462637444E+04 -0.32929818224E+03  0.16139652688E+04  0.12699999809E+01 0.  1.
       -4    1    3    3    0  502 -0.32482828694E+03  0.15462637444E+04  0.12157734693E+04  0.19936277799E+04  0.12699999809E+01 0. -1.
</event>
<event>
 5   0  0.1337854E-06  0.3119411E+04  0.7818609E-02  0.8210431E-01
        2   -1    0    0  501    0  0.00000000000E+00  0.00000000000E+00  0.13419274943E+04  0.13419274943E+04  0.25500000920E-02 0.  1.
       -2   -1    0    0    0  501  0.00000000000E+00  0.00000000000E+00 -0.18128263702E+04  0.18128263702E+04  0.25500000920E-02 0. -1.
    10030    2    1    2    0    0  0.00000000000E+00  0.00000000000E+00 -0.47089887590E+03  0.31547538645E+04  0.31194111935E+04 0.  0.
        3    1    3    3  502    0  0.94640972663E+03 -0.17863092102E+03  0.10052677961E+04  0.13921794887E+04  0.10100000352E+00 0.  1.
       -3    1    3    3    0  502 -0.94640972663E+03  0.17863092102E+03 -0.14761666720E+04  0.17625743758E+04  0.10100000352E+00 0. -1.
</event>
<event>
 5   0  0.1337854E-06  0.3791208E+04  0.7818609E-02  0.8048044E-01
       -2   -1    0    0    0  501  0.00000000000E+00  0.00000000000E+00  0.24910241624E+04  0.24910241624E+04  0.25500000920E-02 0.  1.
        2   -1    0    0  501    0  0.00000000000E+00  0.00000000000E+00 -0.14425051162E+04  0.14425051162E+04  0.25500000920E-02 0. -1.
    10030    2    1    2    0    0  0.00000000000E+00  0.00000000000E+00  0.10485190462E+04  0.39335292786E+04  0.37912083028E+04 0.  0.
        3    1    3    3  502    0  0.14885244041E+04  0.39907796666E+03 -0.62096392887E+03  0.16614946091E+04  0.10100000352E+00 0. -1.
       -3    1    3    3    0  502 -0.14885244041E+04 -0.39907796666E+03  0.16694829750E+04  0.22720346694E+04  0.10100000352E+00 0.  1.
</event>
<event>
 5   0  0.1337854E-06  0.3261615E+04  0.7818609E-02  0.8172732E-01
       -2   -1    0    0    0  501  0.00000000000E+00  0.00000000000E+00  0.13542703516E+04  0.13542703516E+04  0.25500000920E-02 0.  1.
        2   -1    0    0  501    0  0.00000000000E+00  0.00000000000E+00 -0.19638129665E+04  0.19638129665E+04  0.25500000920E-02 0. -1.
    10030    2    1    2    0    0  0.00000000000E+00  0.00000000000E+00 -0.60954261487E+03  0.33180833181E+04  0.32616153523E+04 0.  0.
        3    1    3    3  502    0  0.87702865335E+03 -0.20465084215E+03 -0.16878950434E+04  0.19131259535E+04  0.10100000352E+00 0. -1.
       -3    1    3    3    0  502 -0.87702865335E+03  0.20465084215E+03  0.10783524286E+04  0.14049573646E+04  0.10100000352E+00 0.  1.
</event>
<event>
 5   0  0.1341932E-06  0.3808204E+04  0.7818609E-02  0.8044397E-01
        2   -1    0    0  501    0  0.00000000000E+00  0.00000000000E+00  0.24496565636E+04  0.24496565636E+04  0.25500000920E-02 0. -1.
       -2   -1    0    0    0  501  0.00000000000E+00  0.00000000000E+00 -0.14800462710E+04  0.14800462710E+04  0.25500000920E-02 0.  1.
    10030    2    1    2    0    0  0.00000000000E+00  0.00000000000E+00  0.96961029268E+03  0.39297028346E+04  0.38082043339E+04 0.  0.
        2    1    3    3  502    0  0.15502939256E+04 -0.42778740597E+03  0.15367362839E+04  0.22244036789E+04  0.25500000920E-02 0. -1.
       -2    1    3    3    0  502 -0.15502939256E+04  0.42778740597E+03 -0.56712599120E+03  0.17052991557E+04  0.25500000920E-02 0.  1.
</event>
<event>
 5   0  0.1372748E-06  0.3333631E+04  0.7818609E-02  0.8154390E-01
       -2   -1    0    0    0  501  0.00000000000E+00  0.00000000000E+00  0.11689438533E+04  0.11689438533E+04  0.25500000920E-02 0. -1.
        2   -1    0    0  501    0  0.00000000000E+00  0.00000000000E+00 -0.23767379584E+04  0.23767379584E+04  0.25500000920E-02 0.  1.
    10030    2    1    2    0    0  0.00000000000E+00  0.00000000000E+00 -0.12077941051E+04  0.35456818117E+04  0.33336305899E+04 0.  0.
        1    1    3    3  502    0  0.24739633398E+03  0.23709034311E+03  0.11310771026E+04  0.11818427091E+04  0.50400001928E-02 0. -1.
       -1    1    3    3    0  502 -0.24739633398E+03 -0.23709034311E+03 -0.23388712077E+04  0.23638391027E+04  0.50400001928E-02 0.  1.
</event>
<event>
 5   0  0.4795023E-07  0.4682067E+04  0.7818609E-02  0.7879515E-01
       -1   -1    0    0    0  501  0.00000000000E+00  0.00000000000E+00  0.24713035601E+04  0.24713035601E+04  0.50400001928E-02 0. -1.
        1   -1    0    0  501    0  0.00000000000E+00  0.00000000000E+00 -0.22176303911E+04  0.22176303911E+04  0.50400001928E-02 0.  1.
    10030    2    1    2    0    0  0.00000000000E+00  0.00000000000E+00  0.25367316905E+03  0.46889339512E+04  0.46820670139E+04 0.  0.
        3    1    3    3  502    0 -0.61536492247E+03 -0.40532244883E+03  0.23521390998E+04  0.24648567160E+04  0.10100000352E+00 0. -1.
       -3    1    3    3    0  502  0.61536492247E+03  0.40532244883E+03 -0.20984659308E+04  0.22240772352E+04  0.10100000352E+00 0.  1.
</event>
<event>
 5   0  0.1214844E-06  0.3772402E+04  0.7818609E-02  0.8052103E-01
       -2   -1    0    0    0  501  0.00000000000E+00  0.00000000000E+00  0.21840689004E+04  0.21840689004E+04  0.25500000920E-02 0. -1.
        2   -1    0    0  501    0  0.00000000000E+00  0.00000000000E+00 -0.16289567518E+04  0.16289567518E+04  0.25500000920E-02 0.  1.
    10030    2    1    2    0    0  0.00000000000E+00  0.00000000000E+00  0.55511214860E+03  0.38130256522E+04  0.37724017717E+04 0.  0.
        4    1    3    3  502    0 -0.18275457821E+04 -0.39100513549E+03  0.19971496463E+02  0.18690128611E+04  0.12699999809E+01 0.  1.
       -4    1    3    3    0  502  0.18275457821E+04  0.39100513549E+03  0.53514065214E+03  0.19440127911E+04  0.12699999809E+01 0. -1.
</event>
<event>
 5   0  0.1214844E-06  0.3429028E+04  0.7818609E-02  0.8130819E-01
       -2   -1    0    0    0  501  0.00000000000E+00  0.00000000000E+00  0.16220967611E+04  0.16220967611E+04  0.25500000920E-02 0.  1.
        2   -1    0    0  501    0  0.00000000000E+00  0.00000000000E+00 -0.18121963252E+04  0.18121963252E+04  0.25500000920E-02 0. -1.
    10030    2    1    2    0    0  0.00000000000E+00  0.00000000000E+00 -0.19009956407E+03  0.34342930863E+04  0.34290277278E+04 0.  0.
        4    1    3    3  502    0  0.65340349277E+03  0.14150240288E+04 -0.81051850494E+03  0.17567501206E+04  0.12699999809E+01 0. -1.
       -4    1    3    3    0  502 -0.65340349277E+03 -0.14150240288E+04  0.62041894086E+03  0.16775429657E+04  0.12699999809E+01 0.  1.
</event>
<event>
 5   0  0.1184616E-06  0.3502129E+04  0.7818609E-02  0.8113286E-01
       -2   -1    0    0    0  501  0.00000000000E+00  0.00000000000E+00  0.14332266396E+04  0.14332266396E+04  0.25500000920E-02 0.  1.
        2   -1    0    0  501    0  0.00000000000E+00  0.00000000000E+00 -0.21393873958E+04  0.21393873958E+04  0.25500000920E-02 0. -1.
    10030    2    1    2    0    0  0.00000000000E+00  0.00000000000E+00 -0.70616075622E+03  0.35726140353E+04  0.35021290713E+04 0.  0.
        5    1    3    3  502    0  0.90702121649E+03 -0.63216957830E+03  0.10321441329E+04  0.15125043682E+04  0.46999998093E+01 0.  1.
       -5    1    3    3    0  502 -0.90702121649E+03  0.63216957830E+03 -0.17383048891E+04  0.20601096671E+04  0.46999998093E+01 0. -1.
</event>
<event>
 5   0  0.8030324E-07  0.3847411E+04  0.7818609E-02  0.8036056E-01
        1   -1    0    0  501    0  0.00000000000E+00  0.00000000000E+00  0.16538971779E+04  0.16538971779E+04  0.50400001928E-02 0. -1.
       -1   -1    0    0    0  501  0.00000000000E+00  0.00000000000E+00 -0.22375289875E+04  0.22375289875E+04  0.50400001928E-02 0.  1.
    10030    2    1    2    0    0  0.00000000000E+00  0.00000000000E+00 -0.58363180960E+03  0.38914261654E+04  0.38474110142E+04 0.  0.
        1    1    3    3  502    0  0.35111594504E+03  0.32819614680E+03  0.15921927973E+04  0.16631515330E+04  0.50400001928E-02 0. -1.
       -1    1    3    3    0  502 -0.35111594504E+03 -0.32819614680E+03 -0.21758246069E+04  0.22282746325E+04  0.50400001928E-02 0.  1.
</event>
<event>
 5   0  0.4255250E-07  0.1997258E+04  0.7818609E-02  0.8607904E-01
       -1   -1    0    0    0  501  0.00000000000E+00  0.00000000000E+00  0.16503034737E+04  0.16503034737E+04  0.50400001928E-02 0.  1.
        1   -1    0    0  501    0  0.00000000000E+00  0.00000000000E+00 -0.60428875636E+03  0.60428875638E+03  0.50400001928E-02 0. -1.
    10030    2    1    2    0    0  0.00000000000E+00  0.00000000000E+00  0.10460147174E+04  0.22545922301E+04  0.19972579541E+04 0.  0.
        2    1    3    3  502    0 -0.66542653159E+02  0.16026509260E+03  0.16331533451E+04  0.16423466970E+04  0.25500000920E-02 0.  1.
       -2    1    3    3    0  502  0.66542653159E+02 -0.16026509260E+03 -0.58713862774E+03  0.61224553308E+03  0.25500000920E-02 0. -1.
</event>
<event>
 5   0  0.1337854E-06  0.3715558E+04  0.7818609E-02  0.8064523E-01
        2   -1    0    0  501    0  0.00000000000E+00  0.00000000000E+00  0.89970169770E+03  0.89970169770E+03  0.25500000920E-02 0. -1.
       -2   -1    0    0    0  501  0.00000000000E+00  0.00000000000E+00 -0.38360969311E+04  0.38360969311E+04  0.25500000920E-02 0.  1.
    10030    2    1    2    0    0  0.00000000000E+00  0.00000000000E+00 -0.29363952334E+04  0.47357986288E+04  0.37155580585E+04 0.  0.
        3    1    3    3  502    0  0.68463908792E+03  0.59517967953E+03 -0.35345895869E+04  0.36491496393E+04  0.10100000352E+00 0.  1.
       -3    1    3    3    0  502 -0.68463908792E+03 -0.59517967953E+03  0.59819435353E+03  0.10866489895E+04  0.10100000352E+00 0. -1.
</event>
<event>
 5   0  0.1214844E-06  0.3706369E+04  0.7818609E-02  0.8066552E-01
        2   -1    0    0  501    0  0.00000000000E+00  0.00000000000E+00  0.23103464534E+04  0.23103464534E+04  0.25500000920E-02 0.  1.
       -2   -1    0    0    0  501  0.00000000000E+00  0.00000000000E+00 -0.14864841509E+04  0.14864841509E+04  0.25500000920E-02 0. -1.
    10030    2    1    2    0    0  0.00000000000E+00  0.00000000000E+00  0.82386230251E+03  0.37968306043E+04  0.37063693210E+04 0.  0.
        4    1    3    3  502    0 -0.84402041461E+03  0.15764791124E+04 -0.86393012489E+02  0.17902855129E+04  0.12699999809E+01 0. -1.
       -4    1    3    3    0  502  0.84402041461E+03 -0.15764791124E+04  0.91025531500E+03  0.20065450913E+04  0.12699999809E+01 0.  1.
</event>
<event>
 5   0  0.1214844E-06  0.1946045E+04  0.7818609E-02  0.8632270E-01
        2   -1    0    0  501    0  0.00000000000E+00  0.00000000000E+00  0.16166382782E+04  0.16166382782E+04  0.25500000920E-02 0.  1.
       -2   -1    0    0    0  501  0.00000000000E+00  0.00000000000E+00 -0.58564284276E+03  0.58564284277E+03  0.25500000920E-02 0. -1.
    10030    2    1    2    0    0  0.00000000000E+00  0.00000000000E+00  0.10309954355E+04  0.22022811210E+04  0.19460448474E+04 0.  0.
        4    1    3    3  502    0  0.24978529223E+03 -0.65009235053E+03 -0.25350389633E+03  0.74113331782E+03  0.12699999809E+01 0. -1.
       -4    1    3    3    0  502 -0.24978529223E+03  0.65009235053E+03  0.12844993318E+04  0.14611478032E+04  0.12699999809E+01 0.  1.
</event>
<event>
 5   0  0.5284458E-07  0.2488102E+04  0.7818609E-02  0.8407237E-01
       -1   -1    0    0    0  501  0.00000000000E+00  0.00000000000E+00  0.60263400817E+03  0.60263400820E+03  0.50400001928E-02 0.  1.
        1   -1    0    0  501    0  0.00000000000E+00  0.00000000000E+00 -0.25681638042E+04  0.25681638042E+04  0.50400001928E-02 0. -1.
    10030    2    1    2    0    0  0.00000000000E+00  0.00000000000E+00 -0.19655297960E+04  0.31707978124E+04  0.24881019650E+04 0.  0.
        5    1    3    3  502    0  0.78427845676E+03 -0.60889592182E+03 -0.27576909141E+02  0.99329226175E+03  0.46999998093E+01 0.  1.
       -5    1    3    3    0  502 -0.78427845676E+03  0.60889592182E+03 -0.19379528869E+04  0.21775055506E+04  0.46999998093E+01 0. -1.
</event>
<event>
 5   0  0.4795023E-07  0.2357262E+04  0.7818609E-02  0.8455679E-01
        1   -1    0    0  501    0  0.00000000000E+00  0.00000000000E+00  0.13201481053E+04  0.13201481053E+04  0.50400001928E-02 0.  1.
       -1   -1    0    0    0  501  0.00000000000E+00  0.00000000000E+00 -0.10522844374E+04  0.10522844374E+04  0.50400001928E-02 0. -1.
    10030    2    1    2    0    0  0.00000000000E+00  0.00000000000E+00  0.26786366792E+03  0.23724325427E+04  0.23572622308E+04 0.  0.
        3    1    3    3  502    0  0.43035388094E+03 -0.49571428860E+03 -0.85126226804E+03  0.10749811989E+04  0.10100000352E+00 0. -1.
       -3    1    3    3    0  502 -0.43035388094E+03  0.49571428860E+03  0.11191259360E+04  0.12974513438E+04  0.10100000352E+00 0.  1.
</event>
<event>
 5   0  0.4255250E-07  0.2779149E+04  0.7818609E-02  0.8309771E-01
       -1   -1    0    0    0  501  0.00000000000E+00  0.00000000000E+00  0.12397383835E+04  0.12397383835E+04  0.50400001928E-02 0. -1.
        1   -1    0    0  501    0  0.00000000000E+00  0.00000000000E+00 -0.15575204251E+04  0.15575204251E+04  0.50400001928E-02 0.  1.
    10030    2    1    2    0    0  0.00000000000E+00  0.00000000000E+00 -0.31778204157E+03  0.27972588086E+04  0.27791494052E+04 0.  0.
        2    1    3    3  502    0 -0.13797343418E+04  0.15171863963E+03 -0.22437226122E+03  0.14060683878E+04  0.25500000920E-02 0.  1.
       -2    1    3    3    0  502  0.13797343418E+04 -0.15171863963E+03 -0.93409780356E+02  0.13911904207E+04  0.25500000920E-02 0. -1.
</event>
<event>
 5   0  0.1372748E-06  0.2753382E+04  0.7818609E-02  0.8317889E-01
       -2   -1    0    0    0  501  0.00000000000E+00  0.00000000000E+00  0.10463166540E+04  0.10463166540E+04  0.25500000920E-02 0.  1.
        2   -1    0    0  501    0  0.00000000000E+00  0.00000000000E+00 -0.18113810337E+04  0.18113810337E+04  0.25500000920E-02 0. -1.
    10030    2    1    2    0    0  0.00000000000E+00  0.00000000000E+00 -0.76506437965E+03  0.28576976877E+04  0.27533820238E+04 0.  0.
        1    1    3    3  502    0 -0.70054886185E+03 -0.11848171141E+04 -0.41033980949E+03  0.14362935149E+04  0.50400001928E-02 0. -1.
       -1    1    3    3    0  502  0.70054886185E+03  0.11848171141E+04 -0.35472457015E+03  0.14214041728E+04  0.50400001928E-02 0.  1.
</event>
<event>
 5   0  0.1214844E-06  0.3375057E+04  0.7818609E-02  0.8144055E-01
       -2   -1    0    0    0  501  0.00000000000E+00  0.00000000000E+00  0.14243653778E+04  0.14243653778E+04  0.25500000920E-02 0. -1.
        2   -1    0    0  501    0  0.00000000000E+00  0.00000000000E+00 -0.19993128577E+04  0.19993128577E+04  0.25500000920E-02 0.  1.
    10030    2    1    2    0    0  0.00000000000E+00  0.00000000000E+00 -0.57494747998E+03  0.34236782355E+04  0.33750567485E+04 0.  0.
        4    1    3    3  502    0  0.50076119725E+03 -0.15321954085E+04 -0.79403311267E+03  0.17969069935E+04  0.12699999809E+01 0. -1.
       -4    1    3    3    0  502 -0.50076119725E+03  0.15321954085E+04  0.21908563269E+03  0.16267712420E+04  0.12699999809E+01 0.  1.
</event>
<event>
 5   0  0.1372748E-06  0.3838264E+04  0.7818609E-02  0.8037993E-01
        2   -1    0    0  501    0  0.00000000000E+00  0.00000000000E+00  0.18272008716E+04  0.18272008716E+04  0.25500000920E-02 0. -1.
       -2   -1    0    0    0  501  0.00000000000E+00  0.00000000000E+00 -0.20156885326E+04  0.20156885326E+04  0.25500000920E-02 0.  1.
    10030    2    1    2    0    0  0.00000000000E+00  0.00000000000E+00 -0.18848766099E+03  0.38428894043E+04  0.38382641096E+04 0.  0.
        1    1    3    3  502    0  0.16559179550E+04  0.62474952923E+02 -0.10634498531E+04  0.19689827281E+04  0.50400001928E-02 0.  1.
       -1    1    3    3    0  502 -0.16559179550E+04 -0.62474952923E+02  0.87496219208E+03  0.18739066762E+04  0.50400001928E-02 0. -1.
</event>
<event>
 5   0  0.5284458E-07  0.4142887E+04  0.7818609E-02  0.7976326E-01
        1   -1    0    0  501    0  0.00000000000E+00  0.00000000000E+00  0.16708647640E+04  0.16708647640E+04  0.50400001928E-02 0. -1.
       -1   -1    0    0    0  501  0.00000000000E+00  0.00000000000E+00 -0.25680582361E+04  0.25680582361E+04  0.50400001928E-02 0.  1.
    10030    2    1    2    0    0  0.00000000000E+00  0.00000000000E+00 -0.89719347214E+03  0.42389230001E+04  0.41428869251E+04 0.  0.
        5    1    3    3  502    0  0.45220514359E+03  0.80185469146E+02  0.16181114598E+04  0.16820303171E+04  0.46999998093E+01 0. -1.
       -5    1    3    3    0  502 -0.45220514359E+03 -0.80185469146E+02 -0.25153049320E+04  0.25568926829E+04  0.46999998093E+01 0.  1.
</event>
<event>
 5   0  0.1184616E-06  0.3826629E+04  0.7818609E-02  0.8040464E-01
        2   -1    0    0  501    0  0.00000000000E+00  0.00000000000E+00  0.18080084631E+04  0.18080084631E+04  0.25500000920E-02 0.  1.
       -2   -1    0    0    0  501  0.00000000000E+00  0.00000000000E+00 -0.20247537327E+04  0.20247537327E+04  0.25500000920E-02 0. -1.
    10030    2    1    2    0    0  0.00000000000E+00  0.00000000000E+00 -0.21674526960E+03  0.38327621958E+04  0.38266287431E+04 0.  0.
        5    1    3    3  502    0 -0.17706682316E+04 -0.29006358021E+02  0.61711038860E+03  0.18753545470E+04  0.46999998093E+01 0.  1.
       -5    1    3    3    0  502  0.17706682316E+04  0.29006358021E+02 -0.83385565820E+03  0.19574076489E+04  0.46999998093E+01 0. -1.
</event>
<event>
 5   0  0.1184616E-06  0.3908840E+04  0.7818609E-02  0.8023193E-01
       -2   -1    0    0    0  501  0.00000000000E+00  0.00000000000E+00  0.20656137599E+04  0.20656137599E+04  0.25500000920E-02 0.  1.
        2   -1    0    0  501    0  0.00000000000E+00  0.00000000000E+00 -0.18492123510E+04  0.18492123510E+04  0.25500000920E-02 0. -1.
    10030    2    1    2    0    0  0.00000000000E+00  0.00000000000E+00  0.21640140883E+03  0.39148261109E+04  0.39088404814E+04 0.  0.
        5    1    3    3  502    0 -0.98773707111E+02  0.62974295966E+03  0.19585698244E+04  0.20596966494E+04  0.46999998093E+01 0.  1.
       -5    1    3    3    0  502  0.98773707111E+02 -0.62974295966E+03 -0.17421684156E+04  0.18551294615E+04  0.46999998093E+01 0. -1.
</event>
<event>
 5   0  0.1214844E-06  0.2657081E+04  0.7818609E-02  0.8349067E-01
        2   -1    0    0  501    0  0.00000000000E+00  0.00000000000E+00  0.94577365938E+03  0.94577365939E+03  0.25500000920E-02 0. -1.
       -2   -1    0    0    0  501  0.00000000000E+00  0.00000000000E+00 -0.18662175885E+04  0.18662175885E+04  0.25500000920E-02 0.  1.
    10030    2    1    2    0    0  0.00000000000E+00  0.00000000000E+00 -0.92044392910E+03  0.28119912479E+04  0.26570806822E+04 0.  0.
        4    1    3    3  502    0  0.35196658106E+03  0.14979905769E+03 -0.18066777079E+04  0.18467285088E+04  0.12699999809E+01 0.  1.
       -4    1    3    3    0  502 -0.35196658106E+03 -0.14979905769E+03  0.88623377883E+03  0.96526273910E+03  0.12699999809E+01 0. -1.
</event>
<event>
 5   0  0.4795023E-07  0.3733904E+04  0.7818609E-02  0.8060490E-01
        1   -1    0    0  501    0  0.00000000000E+00  0.00000000000E+00  0.30220055692E+04  0.30220055692E+04  0.50400001928E-02 0.  1.
       -1   -1    0    0    0  501  0.00000000000E+00  0.00000000000E+00 -0.11533761206E+04  0.11533761206E+04  0.50400001928E-02 0. -1.
    10030    2    1    2    0    0  0.00000000000E+00  0.00000000000E+00  0.18686294486E+04  0.41753816898E+04  0.37339036195E+04 0.  0.
        3    1    3    3  502    0  0.18633366702E+03  0.15013971775E+04  0.21575408001E+04  0.26351273279E+04  0.10100000352E+00 0.  1.
       -3    1    3    3    0  502 -0.18633366702E+03 -0.15013971775E+04 -0.28891135150E+03  0.15402543619E+04  0.10100000352E+00 0. -1.
</event>
<event>
 5   0  0.1184616E-06  0.3734766E+04  0.7818609E-02  0.8060301E-01
       -2   -1    0    0    0  501  0.00000000000E+00  0.00000000000E+00  0.14980686839E+04  0.14980686839E+04  0.25500000920E-02 0. -1.
        2   -1    0    0  501    0  0.00000000000E+00  0.00000000000E+00 -0.23277428204E+04  0.23277428204E+04  0.25500000920E-02 0.  1.
    10030    2    1    2    0    0  0.00000000000E+00  0.00000000000E+00 -0.82967413650E+03  0.38258115043E+04  0.37347656545E+04 0.  0.
        5    1    3    3  502    0 -0.10006424124E+04 -0.49558386933E+03  0.11183825832E+04  0.15804082705E+04  0.46999998093E+01 0. -1.
       -5    1    3    3    0  502  0.10006424124E+04  0.49558386933E+03 -0.19480567197E+04  0.22454032338E+04  0.46999998093E+01 0.  1.
</event>
<event>
 5   0  0.1337854E-06  0.3369786E+04  0.7818609E-02  0.8145362E-01
       -2   -1    0    0    0  501  0.00000000000E+00  0.00000000000E+00  0.12830061272E+04  0.12830061272E+04  0.25500000920E-02 0. -1.
        2   -1    0    0  501    0  0.00000000000E+00  0.00000000000E+00 -0.22126662260E+04  0.22126662260E+04  0.25500000920E-02 0.  1.
    10030    2    1    2    0    0  0.00000000000E+00  0.00000000000E+00 -0.92966009874E+03  0.34956723532E+04  0.33697859430E+04 0.  0.
        3    1    3    3  502    0 -0.16659504482E+04  0.11342529917E+03 -0.69819654867E+03  0.18098990649E+04  0.10100000352E+00 0.  1.
       -3    1    3    3    0  502  0.16659504482E+04 -0.11342529917E+03 -0.23146355008E+03  0.16857732883E+04  0.10100000352E+00 0. -1.
</event>
<event>
 5   0  0.1184616E-06  0.3748147E+04  0.7818609E-02  0.8057375E-01
       -2   -1    0    0    0  501  0.00000000000E+00  0.00000000000E+00  0.10531481319E+04  0.10531481319E+04  0.25500000920E-02 0.  1.
        2   -1    0    0  501    0  0.00000000000E+00  0.00000000000E+00 -0.33349065156E+04  0.33349065156E+04  0.25500000920E-02 0. -1.
    10030    2    1    2    0    0  0.00000000000E+00  0.00000000000E+00 -0.22817583837E+04  0.43880546476E+04  0.37481465111E+04 0.  0.
        5    1    3    3  502    0  0.53862369144E+03  0.12455165183E+04  0.37235070465E+03  0.14071581346E+04  0.46999998093E+01 0.  1.
       -5    1    3    3    0  502 -0.53862369144E+03 -0.12455165183E+04 -0.26541090884E+04  0.29808965130E+04  0.46999998093E+01 0. -1.
</event>
<event>
 5   0  0.8030324E-07  0.3777199E+04  0.7818609E-02  0.8051066E-01
        1   -1    0    0  501    0  0.00000000000E+00  0.00000000000E+00  0.28542192717E+04  0.28542192717E+04  0.50400001928E-02 0. -1.
       -1   -1    0    0    0  501  0.00000000000E+00  0.00000000000E+00 -0.12496617921E+04  0.12496617922E+04  0.50400001928E-02 0.  1.
    10030    2    1    2    0    0  0.00000000000E+00  0.00000000000E+00  0.16045574796E+04  0.41038810639E+04  0.37771993701E+04 0.  0.
        1    1    3    3  502    0  0.16399574498E+04 -0.69197060254E+03  0.11639161181E+03  0.17837686955E+04  0.50400001928E-02 0.  1.
       -1    1    3    3    0  502 -0.16399574498E+04  0.69197060254E+03  0.14881658678E+04  0.23201123684E+04  0.50400001928E-02 0. -1.
</event>
<event>
 5   0  0.1337854E-06  0.3773526E+04  0.7818609E-02  0.8051860E-01
        2   -1    0    0  501    0  0.00000000000E+00  0.00000000000E+00  0.22909067567E+04  0.22909067567E+04  0.25500000920E-02 0. -1.
       -2   -1    0    0    0  501  0.00000000000E+00  0.00000000000E+00 -0.15539151583E+04  0.15539151583E+04  0.25500000920E-02 0.  1.
    10030    2    1    2    0    0  0.00000000000E+00  0.00000000000E+00  0.73699159845E+03  0.38448219150E+04  0.37735260622E+04 0.  0.
        3    1    3    3  502    0  0.10704531067E+03 -0.37677535384E+03  0.22490259020E+04  0.22828788588E+04  0.10100000352E+00 0. -1.
       -3    1    3    3    0  502 -0.10704531067E+03  0.37677535384E+03 -0.15120343035E+04  0.15619430563E+04  0.10100000352E+00 0.  1.
</event>
<event>
 5   0  0.1341932E-06  0.2793253E+04  0.7818609E-02  0.8305366E-01
       -2   -1    0    0    0  501  0.00000000000E+00  0.00000000000E+00  0.94408286672E+03  0.94408286672E+03  0.25500000920E-02 0. -1.
        2   -1    0    0  501    0  0.00000000000E+00  0.00000000000E+00 -0.20660962824E+04  0.20660962824E+04  0.25500000920E-02 0.  1.
    10030    2    1    2    0    0  0.00000000000E+00  0.00000000000E+00 -0.11220134157E+04  0.30101791491E+04  0.27932533728E+04 0.  0.
        2    1    3    3  502    0  0.12816805545E+04 -0.55430269247E+03 -0.58761385238E+03  0.15150071149E+04  0.25500000920E-02 0.  1.
       -2    1    3    3    0  502 -0.12816805545E+04  0.55430269247E+03 -0.53439956329E+03  0.14951720342E+04  0.25500000920E-02 0. -1.
</event>
<event>
 5   0  0.1214844E-06  0.2093426E+04  0.7818609E-02  0.8564145E-01
        2   -1    0    0  501    0  0.00000000000E+00  0.00000000000E+00  0.17728691320E+04  0.17728691320E+04  0.25500000920E-02 0. -1.
       -2   -1    0    0    0  501  0.00000000000E+00  0.00000000000E+00 -0.61798579397E+03  0.61798579397E+03  0.25500000920E-02 0.  1.
    10030    2    1    2    0    0  0.00000000000E+00  0.00000000000E+00  0.11548833380E+04  0.23908549259E+04  0.20934258412E+04 0.  0.
        4    1    3    3  502    0 -0.19677239700E+03 -0.89389029489E+03 -0.24899135247E+01  0.91529615321E+03  0.12699999809E+01 0.  1.
       -4    1    3    3    0  502  0.19677239700E+03  0.89389029489E+03  0.11573732515E+04  0.14755587727E+04  0.12699999809E+01 0. -1.
</event>
<event>
 5   0  0.1184616E-06  0.3749337E+04  0.7818609E-02  0.8057115E-01
        2   -1    0    0  501    0  0.00000000000E+00  0.00000000000E+00  0.26275146374E+04  0.26275146374E+04  0.25500000920E-02 0.  1.
       -2   -1    0    0    0  501  0.00000000000E+00  0.00000000000E+00 -0.13375308732E+04  0.13375308732E+04  0.25500000920E-02 0. -1.
    10030    2    1    2    0    0  0.00000000000E+00  0.00000000000E+00  0.12899837641E+04  0.39650455106E+04  0.37493369800E+04 0.  0.
        5    1    3    3  502    0 -0.13764341922E+04  0.12651127834E+04  0.79182681502E+03  0.20302938790E+04  0.46999998093E+01 0.  1.
       -5    1    3    3    0  502  0.13764341922E+04 -0.12651127834E+04  0.49815694912E+03  0.19347516316E+04  0.46999998093E+01 0. -1.
</event>
<event>
 5   0  0.1372748E-06  0.3746587E+04  0.7818609E-02  0.8057715E-01
       -2   -1    0    0    0  501  0.00000000000E+00  0.00000000000E+00  0.34233238102E+04  0.34233238102E+04  0.25500000920E-02 0. -1.
        2   -1    0    0  501    0  0.00000000000E+00  0.00000000000E+00 -0.10250940802E+04  0.10250940802E+04  0.25500000920E-02 0.  1.
    10030    2    1    2    0    0  0.00000000000E+00  0.00000000000E+00  0.23982297300E+04  0.44484178903E+04  0.37465872323E+04 0.  0.
        1    1    3    3  502    0  0.69586595542E+03 -0.15284570335E+02 -0.86586402345E+03  0.11109381410E+04  0.50400001928E-02 0.  1.
       -1    1    3    3    0  502 -0.69586595542E+03  0.15284570335E+02  0.32640937534E+04  0.33374797493E+04  0.50400001928E-02 0. -1.
</event>
<event>
 5   0  0.1372748E-06  0.3903630E+04  0.7818609E-02  0.8024275E-01
       -2   -1    0    0    0  501  0.00000000000E+00  0.00000000000E+00  0.17197283446E+04  0.17197283446E+04  0.25500000920E-02 0.  1.
        2   -1    0    0  501    0  0.00000000000E+00  0.00000000000E+00 -0.22152231082E+04  0.22152231082E+04  0.25500000920E-02 0. -1.
    10030    2    1    2    0    0  0.00000000000E+00  0.00000000000E+00 -0.49549476351E+03  0.39349514528E+04  0.39036300895E+04 0.  0.
        1    1    3    3  502    0  0.34281462862E+03 -0.17186681771E+04 -0.11138501928E+04  0.20765366418E+04  0.50400001928E-02 0. -1.
       -1    1    3    3    0  502 -0.34281462862E+03  0.17186681771E+04  0.61835542932E+03  0.18584148110E+04  0.50400001928E-02 0.  1.
</event>
<event>
 5   0  0.4795023E-07  0.1910321E+04  0.7818609E-02  0.8649736E-01
        1   -1    0    0  501    0  0.00000000000E+00  0.00000000000E+00  0.15049744225E+04  0.15049744225E+04  0.50400001928E-02 0.  1.
       -1   -1    0    0    0  501  0.00000000000E+00  0.00000000000E+00 -0.60621046513E+03  0.60621046515E+03  0.50400001928E-02 0. -1.
    10030    2    1    2    0    0  0.00000000000E+00  0.00000000000E+00  0.89876395736E+03  0.21111848876E+04  0.19103206482E+04 0.  0.
        3    1    3    3  502    0  0.42915809007E+02  0.45473908672E+03  0.13764558456E+04  0.14502620828E+04  0.10100000352E+00 0.  1.
       -3    1    3    3    0  502 -0.42915809007E+02 -0.45473908672E+03 -0.47769188826E+03  0.66092280485E+03  0.10100000352E+00 0. -1.
</event>
<event>
 5   0  0.4255250E-07  0.2557040E+04  0.7818609E-02  0.8382942E-01
       -1   -1    0    0    0  501  0.00000000000E+00  0.00000000000E+00  0.95626889437E+03  0.95626889439E+03  0.50400001928E-02 0.  1.
        1   -1    0    0  501    0  0.00000000000E+00  0.00000000000E+00 -0.17093660215E+04  0.17093660215E+04  0.50400001928E-02 0. -1.
    10030    2    1    2    0    0  0.00000000000E+00  0.00000000000E+00 -0.75309712711E+03  0.26656349159E+04  0.25570401291E+04 0.  0.
        2    1    3    3  502    0  0.22646820518E+03 -0.61760856956E+03 -0.15194128133E+04  0.16557003021E+04  0.25500000920E-02 0. -1.
       -2    1    3    3    0  502 -0.22646820518E+03  0.61760856956E+03  0.76631568620E+03  0.10099346138E+04  0.25500000920E-02 0.  1.
</event>
<event>
 5   0  0.1372748E-06  0.3860934E+04  0.7818609E-02  0.8033204E-01
       -2   -1    0    0    0  501  0.00000000000E+00  0.00000000000E+00  0.14035376338E+04  0.14035376339E+04  0.25500000920E-02 0.  1.
        2   -1    0    0  501    0  0.00000000000E+00  0.00000000000E+00 -0.26552208705E+04  0.26552208705E+04  0.25500000920E-02 0. -1.
    10030    2    1    2    0    0  0.00000000000E+00  0.00000000000E+00 -0.12516832366E+04  0.40587585043E+04  0.38609337823E+04 0.  0.
        1    1    3    3  502    0  0.27798662046E+03 -0.80935770373E+03  0.11932446570E+04  0.14683900249E+04  0.50400001928E-02 0.  1.
       -1    1    3    3    0  502 -0.27798662046E+03  0.80935770373E+03 -0.24449278937E+04  0.25903684794E+04  0.50400001928E-02 0. -1.
</event>
<event>
 5   0  0.4255250E-07  0.1907159E+04  0.7818609E-02  0.8651301E-01
       -3   -1    0    0    0  501  0.00000000000E+00  0.00000000000E+00  0.11380166018E+04  0.11380166062E+04  0.10100000352E+00 0.  1.
        3   -1    0    0  501    0  0.00000000000E+00  0.00000000000E+00 -0.79903383239E+03  0.79903383877E+03  0.10100000352E+00 0. -1.
    10030    2    1    2    0    0  0.00000000000E+00  0.00000000000E+00  0.33898276936E+03  0.19370504450E+04  0.19071589101E+04 0.  0.
        5    1    3    3  502    0 -0.11427822182E+03 -0.28043379339E+03  0.10878696269E+04  0.11292409130E+04  0.46999998093E+01 0.  1.
       -5    1    3    3    0  502  0.11427822182E+03  0.28043379339E+03 -0.74888685758E+03  0.80780953196E+03  0.46999998093E+01 0. -1.
</event>
<event>
 5   0  0.1184616E-06  0.3696289E+04  0.7818609E-02  0.8068785E-01
       -2   -1    0    0    0  501  0.00000000000E+00  0.00000000000E+00  0.15365835523E+04  0.15365835523E+04  0.25500000920E-02 0. -1.
        2   -1    0    0  501    0  0.00000000000E+00  0.00000000000E+00 -0.22228781724E+04  0.22228781724E+04  0.25500000920E-02 0.  1.
    10030    2    1    2    0    0  0.00000000000E+00  0.00000000000E+00 -0.68629462008E+03  0.37594617248E+04  0.36962889706E+04 0.  0.
        5    1    3    3  502    0 -0.11998925424E+04 -0.88908267496E+03 -0.14505186545E+04  0.20818829394E+04  0.46999998093E+01 0.  1.
       -5    1    3    3    0  502  0.11998925424E+04  0.88908267496E+03  0.76422403444E+03  0.16775787854E+04  0.46999998093E+01 0. -1.
</event>
<event>
 5   0  0.5284458E-07  0.4018504E+04  0.7818609E-02  0.8000824E-01
        1   -1    0    0  501    0  0.00000000000E+00  0.00000000000E+00  0.14379468521E+04  0.14379468521E+04  0.50400001928E-02 0.  1.
       -1   -1    0    0    0  501  0.00000000000E+00  0.00000000000E+00 -0.28075397421E+04  0.28075397421E+04  0.50400001928E-02 0. -1.
    10030    2    1    2    0    0  0.00000000000E+00  0.00000000000E+00 -0.13695928900E+04  0.42454865943E+04  0.40185036690E+04 0.  0.
        5    1    3    3  502    0 -0.15992591717E+04  0.99921949333E+03  0.47920529129E+02  0.18863689886E+04  0.46999998093E+01 0.  1.
       -5    1    3    3    0  502  0.15992591717E+04 -0.99921949333E+03 -0.14175134192E+04  0.23591176057E+04  0.46999998093E+01 0. -1.
</event>
<event>
 5   0  0.1341932E-06  0.2674290E+04  0.7818609E-02  0.8343395E-01
        2   -1    0    0  501    0  0.00000000000E+00  0.00000000000E+00  0.15996573848E+04  0.15996573848E+04  0.25500000920E-02 0.  1.
       -2   -1    0    0    0  501  0.00000000000E+00  0.00000000000E+00 -0.11177124642E+04  0.11177124642E+04  0.25500000920E-02 0. -1.
    10030    2    1    2    0    0  0.00000000000E+00  0.00000000000E+00  0.48194492060E+03  0.27173698490E+04  0.26742901843E+04 0.  0.
        2    1    3    3  502    0  0.60859817988E+03 -0.65756392863E+03 -0.76757629663E+03  0.11798116104E+04  0.25500000920E-02 0. -1.
       -2    1    3    3    0  502 -0.60859817988E+03  0.65756392863E+03  0.12495212172E+04  0.15375582386E+04  0.25500000920E-02 0.  1.
</event>
<event>
 5   0  0.1079205E-06  0.3775666E+04  0.7818609E-02  0.8051397E-01
        1   -1    0    0  501    0  0.00000000000E+00  0.00000000000E+00  0.23892002570E+04  0.23892002570E+04  0.50400001928E-02 0. -1.
       -1   -1    0    0    0  501  0.00000000000E+00  0.00000000000E+00 -0.14916759719E+04  0.14916759719E+04  0.50400001928E-02 0.  1.
    10030    2    1    2    0    0  0.00000000000E+00  0.00000000000E+00  0.89752428508E+03  0.38808762290E+04  0.37756655655E+04 0.  0.
        4    1    3    3  502    0 -0.16459364822E+04  0.89709544161E+03  0.67865469769E+03  0.19936050126E+04  0.12699999809E+01 0.  1.
       -4    1    3    3    0  502  0.16459364822E+04 -0.89709544161E+03  0.21886958739E+03  0.18872712163E+04  0.12699999809E+01 0. -1.
</event>
<event>
 5   0  0.4795023E-07  0.1927387E+04  0.7818609E-02  0.8641343E-01
       -1   -1    0    0    0  501  0.00000000000E+00  0.00000000000E+00  0.73546023565E+03  0.73546023567E+03  0.50400001928E-02 0. -1.
        1   -1    0    0  501    0  0.00000000000E+00  0.00000000000E+00 -0.12627532084E+04  0.12627532084E+04  0.50400001928E-02 0.  1.
    10030    2    1    2    0    0  0.00000000000E+00  0.00000000000E+00 -0.52729297272E+03  0.19982134441E+04  0.19273865956E+04 0.  0.
        3    1    3    3  502    0 -0.91938918063E+02 -0.73065128182E+03  0.38080762040E+03  0.82904675033E+03  0.10100000352E+00 0. -1.
       -3    1    3    3    0  502  0.91938918063E+02  0.73065128182E+03 -0.90810059311E+03  0.11691666937E+04  0.10100000352E+00 0.  1.
</event>
<event>
 5   0  0.4255250E-07  0.3738721E+04  0.7818609E-02  0.8059435E-01
        1   -1    0    0  501    0  0.00000000000E+00  0.00000000000E+00  0.19400522399E+04  0.19400522399E+04  0.50400001928E-02 0.  1.
       -1   -1    0    0    0  501  0.00000000000E+00  0.00000000000E+00 -0.18012448433E+04  0.18012448433E+04  0.50400001928E-02 0. -1.
    10030    2    1    2    0    0  0.00000000000E+00  0.00000000000E+00  0.13880739662E+03  0.37412970832E+04  0.37387212214E+04 0.  0.
        2    1    3    3  502    0 -0.45784157770E+03 -0.22426686650E+03 -0.17303332711E+04  0.18038757626E+04  0.25500000920E-02 0. -1.
       -2    1    3    3    0  502  0.45784157770E+03  0.22426686650E+03  0.18691406678E+04  0.19374213206E+04  0.25500000920E-02 0.  1.
</event>
<event>
 5   0  0.1337854E-06  0.2961680E+04  0.7818609E-02  0.8254759E-01
        2   -1    0    0  501    0  0.00000000000E+00  0.00000000000E+00  0.78546218824E+03  0.78546218824E+03  0.25500000920E-02 0.  1.
       -2   -1    0    0    0  501  0.00000000000E+00  0.00000000000E+00 -0.27918432873E+04  0.27918432873E+04  0.25500000920E-02 0. -1.
    10030    2    1    2    0    0  0.00000000000E+00  0.00000000000E+00 -0.20063810990E+04  0.35773054755E+04  0.29616801567E+04 0.  0.
        3    1    3    3  502    0 -0.28173446345E+03 -0.89410459486E+03 -0.23878099926E+04  0.25652356432E+04  0.10100000352E+00 0. -1.
       -3    1    3    3    0  502  0.28173446345E+03  0.89410459486E+03  0.38142889352E+03  0.10120698323E+04  0.10100000352E+00 0.  1.
</event>
<event>
 5   0  0.1372748E-06  0.2625813E+04  0.7818609E-02  0.8359486E-01
        2   -1    0    0  501    0  0.00000000000E+00  0.00000000000E+00  0.16369600124E+04  0.16369600124E+04  0.25500000920E-02 0. -1.
       -2   -1    0    0    0  501  0.00000000000E+00  0.00000000000E+00 -0.10530029345E+04  0.10530029345E+04  0.25500000920E-02 0.  1.
    10030    2    1    2    0    0  0.00000000000E+00  0.00000000000E+00  0.58395707792E+03  0.26899629468E+04  0.26258131667E+04 0.  0.
        1    1    3    3  502    0  0.12643940530E+04  0.11667061701E+03  0.63392866776E+03  0.14192145398E+04  0.50400001928E-02 0. -1.
       -1    1    3    3    0  502 -0.12643940530E+04 -0.11667061701E+03 -0.49971589844E+02  0.12707484070E+04  0.50400001928E-02 0.  1.
</event>
<event>
 5   0  0.4255250E-07  0.3299690E+04  0.7818609E-02  0.8162974E-01
       -1   -1    0    0    0  501  0.00000000000E+00  0.00000000000E+00  0.14981368091E+04  0.14981368091E+04  0.50400001928E-02 0.  1.
        1   -1    0    0  501    0  0.00000000000E+00  0.00000000000E+00 -0.18169160322E+04  0.18169160322E+04  0.50400001928E-02 0. -1.
    10030    2    1    2    0    0  0.00000000000E+00  0.00000000000E+00 -0.31877922307E+03  0.33150528413E+04  0.32996901593E+04 0.  0.
        2    1    3    3  502    0 -0.86837236494E+03  0.13611505945E+04  0.18158304946E+03  0.16247381047E+04  0.25500000920E-02 0. -1.
       -2    1    3    3    0  502  0.86837236494E+03 -0.13611505945E+04 -0.50036227253E+03  0.16903147366E+04  0.25500000920E-02 0.  1.
</event>
<event>
 5   0  0.1079205E-06  0.3685444E+04  0.7818609E-02  0.8071195E-01
        1   -1    0    0  501    0  0.00000000000E+00  0.00000000000E+00  0.27419453508E+04  0.27419453508E+04  0.50400001928E-02 0.  1.
       -1   -1    0    0    0  501  0.00000000000E+00  0.00000000000E+00 -0.12383997974E+04  0.12383997974E+04  0.50400001928E-02 0. -1.
    10030    2    1    2    0    0  0.00000000000E+00  0.00000000000E+00  0.15035455534E+04  0.39803451483E+04  0.36854441073E+04 0.  0.
        4    1    3    3  502    0 -0.87305969741E+03  0.13851241497E+04 -0.16135067502E+03  0.16452470327E+04  0.12699999809E+01 0. -1.
       -4    1    3    3    0  502  0.87305969741E+03 -0.13851241497E+04  0.16648962284E+04  0.23350981156E+04  0.12699999809E+01 0.  1.
</event>
<event>
 5   0  0.5284458E-07  0.3663950E+04  0.7818609E-02  0.8075998E-01
       -1   -1    0    0    0  501  0.00000000000E+00  0.00000000000E+00  0.18124224398E+04  0.18124224398E+04  0.50400001928E-02 0. -1.
        1   -1    0    0  501    0  0.00000000000E+00  0.00000000000E+00 -0.18517385994E+04  0.18517385994E+04  0.50400001928E-02 0.  1.
    10030    2    1    2    0    0  0.00000000000E+00  0.00000000000E+00 -0.39316159592E+02  0.36641610393E+04  0.36639501035E+04 0.  0.
        5    1    3    3  502    0 -0.79388173101E+03  0.97011863070E+03  0.13163575046E+04  0.18177451776E+04  0.46999998093E+01 0. -1.
       -5    1    3    3    0  502  0.79388173101E+03 -0.97011863070E+03 -0.13556736642E+04  0.18464158617E+04  0.46999998093E+01 0.  1.
</event>
<event>
 5   0  0.8030324E-07  0.2090942E+04  0.7818609E-02  0.8565244E-01
       -1   -1    0    0    0  501  0.00000000000E+00  0.00000000000E+00  0.91788015077E+03  0.91788015079E+03  0.50400001928E-02 0. -1.
        1   -1    0    0  501    0  0.00000000000E+00  0.00000000000E+00 -0.11907982026E+04  0.11907982026E+04  0.50400001928E-02 0.  1.
    10030    2    1    2    0    0  0.00000000000E+00  0.00000000000E+00 -0.27291805180E+03  0.21086783534E+04  0.20909424035E+04 0.  0.
        1    1    3    3  502    0 -0.81522839397E+03  0.36914853063E+03  0.40862733426E+03  0.98379076552E+03  0.50400001928E-02 0. -1.
       -1    1    3    3    0  502  0.81522839397E+03 -0.36914853063E+03 -0.68154538606E+03  0.11248875878E+04  0.50400001928E-02 0.  1.
</event>
<event>
 5   0  0.1341932E-06  0.3668216E+04  0.7818609E-02  0.8075042E-01
       -2   -1    0    0    0  501  0.00000000000E+00  0.00000000000E+00  0.15252389978E+04  0.15252389978E+04  0.25500000920E-02 0.  1.
        2   -1    0    0  501    0  0.00000000000E+00  0.00000000000E+00 -0.22055247016E+04  0.22055247016E+04  0.25500000920E-02 0. -1.
    10030    2    1    2    0    0  0.00000000000E+00  0.00000000000E+00 -0.68028570384E+03  0.37307636994E+04  0.36682160707E+04 0.  0.
        2    1    3    3  502    0  0.13865753867E+04 -0.82707264396E+03 -0.12252181132E+04  0.20267708026E+04  0.25500000920E-02 0. -1.
       -2    1    3    3    0  502 -0.13865753867E+04  0.82707264396E+03  0.54493240940E+03  0.17039928967E+04  0.25500000920E-02 0.  1.
</event>
<event>
 5   0  0.1372748E-06  0.3875346E+04  0.7818609E-02  0.8030176E-01
       -2   -1    0    0    0  501  0.00000000000E+00  0.00000000000E+00  0.16072038601E+04  0.16072038601E+04  0.25500000920E-02 0. -1.
        2   -1    0    0  501    0  0.00000000000E+00  0.00000000000E+00 -0.23360929100E+04  0.23360929100E+04  0.25500000920E-02 0.  1.
    10030    2    1    2    0    0  0.00000000000E+00  0.00000000000E+00 -0.72888904990E+03  0.39432967702E+04  0.38753464582E+04 0.  0.
        1    1    3    3  502    0  0.12156923480E+04 -0.26952694852E+03 -0.18750712887E+04  0.22508764957E+04  0.50400001928E-02 0.  1.
       -1    1    3    3    0  502 -0.12156923480E+04  0.26952694852E+03  0.11461822388E+04  0.16924202745E+04  0.50400001928E-02 0. -1.
</event>
<event>
 5   0  0.4795023E-07  0.2134209E+04  0.7818609E-02  0.8546322E-01
       -1   -1    0    0    0  501  0.00000000000E+00  0.00000000000E+00  0.56070315876E+03  0.56070315878E+03  0.50400001928E-02 0. -1.
        1   -1    0    0  501    0  0.00000000000E+00  0.00000000000E+00 -0.20308648224E+04  0.20308648224E+04  0.50400001928E-02 0.  1.
    10030    2    1    2    0    0  0.00000000000E+00  0.00000000000E+00 -0.14701616636E+04  0.25915679812E+04  0.21342092877E+04 0.  0.
        3    1    3    3  502    0  0.22499131141E+03 -0.10429504284E+04 -0.71250583018E+03  0.12829774958E+04  0.10100000352E+00 0.  1.
       -3    1    3    3    0  502 -0.22499131141E+03  0.10429504284E+04 -0.75765583346E+03  0.13085904854E+04  0.10100000352E+00 0. -1.
</event>
<event>
 5   0  0.1341932E-06  0.3761975E+04  0.7818609E-02  0.8054364E-01
       -2   -1    0    0    0  501  0.00000000000E+00  0.00000000000E+00  0.23060328359E+04  0.23060328359E+04  0.25500000920E-02 0.  1.
        2   -1    0    0  501    0  0.00000000000E+00  0.00000000000E+00 -0.15342863625E+04  0.15342863626E+04  0.25500000920E-02 0. -1.
    10030    2    1    2    0    0  0.00000000000E+00  0.00000000000E+00  0.77174647331E+03  0.38403191984E+04  0.37619754022E+04 0.  0.
        2    1    3    3  502    0  0.34836892530E+03  0.24961433912E+03 -0.14837831915E+04  0.15444354262E+04  0.25500000920E-02 0. -1.
       -2    1    3    3    0  502 -0.34836892530E+03 -0.24961433912E+03  0.22555296648E+04  0.22958837722E+04  0.25500000920E-02 0.  1.
</event>
<event>
 5   0  0.5284458E-07  0.3834557E+04  0.7818609E-02  0.8038779E-01
        1   -1    0    0  501    0  0.00000000000E+00  0.00000000000E+00  0.22299693615E+04  0.22299693615E+04  0.50400001928E-02 0. -1.
       -1   -1    0    0    0  501  0.00000000000E+00  0.00000000000E+00 -0.16484340227E+04  0.16484340227E+04  0.50400001928E-02 0.  1.
    10030    2    1    2    0    0  0.00000000000E+00  0.00000000000E+00  0.58153533871E+03  0.38784033842E+04  0.38345572705E+04 0.  0.
        5    1    3    3  502    0  0.12891950597E+04  0.63255477398E+03 -0.99410679391E+03  0.17465451187E+04  0.46999998093E+01 0.  1.
       -5    1    3    3    0  502 -0.12891950597E+04 -0.63255477398E+03  0.15756421326E+04  0.21318582655E+04  0.46999998093E+01 0. -1.
</event>
<event>
 5   0  0.1372748E-06  0.3756968E+04  0.7818609E-02  0.8055453E-01
       -2   -1    0    0    0  501  0.00000000000E+00  0.00000000000E+00  0.15972244418E+04  0.15972244418E+04  0.25500000920E-02 0.  1.
        2   -1    0    0  501    0  0.00000000000E+00  0.00000000000E+00 -0.22092716556E+04  0.22092716556E+04  0.25500000920E-02 0. -1.
    10030    2    1    2    0    0  0.00000000000E+00  0.00000000000E+00 -0.61204721388E+03  0.38064960974E+04  0.37569682920E+04 0.  0.
        1    1    3    3  502    0 -0.14839358784E+04 -0.46720286499E+02  0.85999728882E+03  0.17157633325E+04  0.50400001928E-02 0.  1.
       -1    1    3    3    0  502  0.14839358784E+04  0.46720286499E+02 -0.14720445027E+04  0.20907327649E+04  0.50400001928E-02 0. -1.
</event>
<event>
 5   0  0.5284458E-07  0.2277990E+04  0.7818609E-02  0.8486650E-01
       -1   -1    0    0    0  501  0.00000000000E+00  0.00000000000E+00  0.22529650093E+04  0.22529650093E+04  0.50400001928E-02 0.  1.
        1   -1    0    0  501    0  0.00000000000E+00  0.00000000000E+00 -0.57582337675E+03  0.57582337677E+03  0.50400001928E-02 0. -1.
    10030    2    1    2    0    0  0.00000000000E+00  0.00000000000E+00  0.16771416326E+04  0.28287883861E+04  0.22779902716E+04 0.  0.
        5    1    3    3  502    0  0.20196602365E+03 -0.84675629353E+03 -0.73534226232E+02  0.87362226836E+03  0.46999998093E+01 0. -1.
       -5    1    3    3    0  502 -0.20196602365E+03  0.84675629353E+03  0.17506758588E+04  0.19551661177E+04  0.46999998093E+01 0.  1.
</event>
<event>
 5   0  0.1184616E-06  0.3686261E+04  0.7818609E-02  0.8071013E-01
        2   -1    0    0  501    0  0.00000000000E+00  0.00000000000E+00  0.13089083359E+04  0.13089083359E+04  0.25500000920E-02 0.  1.
       -2   -1    0    0    0  501  0.00000000000E+00  0.00000000000E+00 -0.25953916145E+04  0.25953916145E+04  0.25500000920E-02 0. -1.
    10030    2    1    2    0    0  0.00000000000E+00  0.00000000000E+00 -0.12864832786E+04  0.39042999504E+04  0.36862608259E+04 0.  0.
        5    1    3    3  502    0  0.88315817470E+03  0.13169277397E+04 -0.16384138996E+04  0.22800634266E+04  0.46999998093E+01 0. -1.
       -5    1    3    3    0  502 -0.88315817470E+03 -0.13169277397E+04  0.35193062094E+03  0.16242365238E+04  0.46999998093E+01 0.  1.
</event>
<event>
 5   0  0.1372748E-06  0.2295517E+04  0.7818609E-02  0.8479691E-01
        2   -1    0    0  501    0  0.00000000000E+00  0.00000000000E+00  0.15291208847E+04  0.15291208847E+04  0.25500000920E-02 0. -1.
       -2   -1    0    0    0  501  0.00000000000E+00  0.00000000000E+00 -0.86150774493E+03  0.86150774493E+03  0.25500000920E-02 0.  1.
    10030    2    1    2    0    0  0.00000000000E+00  0.00000000000E+00  0.66761313978E+03  0.23906286296E+04  0.22955169223E+04 0.  0.
        1    1    3    3  502    0  0.40549249855E+03  0.10506474109E+04  0.10312175437E+03  0.11308926761E+04  0.50400001928E-02 0.  1.
       -1    1    3    3    0  502 -0.40549249855E+03 -0.10506474109E+04  0.56449138541E+03  0.12597359536E+04  0.50400001928E-02 0. -1.
</event>
<event>
 5   0  0.4255250E-07  0.2102138E+04  0.7818609E-02  0.8560302E-01
       -1   -1    0    0    0  501  0.00000000000E+00  0.00000000000E+00  0.14199656769E+04  0.14199656770E+04  0.50400001928E-02 0.  1.
        1   -1    0    0  501    0  0.00000000000E+00  0.00000000000E+00 -0.77800864185E+03  0.77800864186E+03  0.50400001928E-02 0. -1.
    10030    2    1    2    0    0  0.00000000000E+00  0.00000000000E+00  0.64195703509E+03  0.21979743188E+04  0.21021375481E+04 0.  0.
        2    1    3    3  502    0  0.51693312495E+03 -0.35066781537E+03 -0.56287473602E+03  0.84084228061E+03  0.25500000920E-02 0. -1.
       -2    1    3    3    0  502 -0.51693312495E+03  0.35066781537E+03  0.12048317711E+04  0.13571320382E+04  0.25500000920E-02 0.  1.
</event>
<event>
 5   0  0.1341932E-06  0.2309632E+04  0.7818609E-02  0.8474133E-01
       -2   -1    0    0    0  501  0.00000000000E+00  0.00000000000E+00  0.78663235081E+03  0.78663235082E+03  0.25500000920E-02 0. -1.
        2   -1    0    0  501    0  0.00000000000E+00  0.00000000000E+00 -0.16953284051E+04  0.16953284051E+04  0.25500000920E-02 0.  1.
    10030    2    1    2    0    0  0.00000000000E+00  0.00000000000E+00 -0.90869605425E+03  0.24819607559E+04  0.23096321514E+04 0.  0.
        2    1    3    3  502    0  0.69901706925E+03  0.49722600882E+03  0.37647559356E+03  0.93679903901E+03  0.25500000920E-02 0. -1.
       -2    1    3    3    0  502 -0.69901706925E+03 -0.49722600882E+03 -0.12851716478E+04  0.15451617169E+04  0.25500000920E-02 0.  1.
</event>
<event>
 5   0  0.1880294E-06  0.1927245E+04  0.7818609E-02  0.8641412E-01
       -2   -1    0    0    0  501  0.00000000000E+00  0.00000000000E+00  0.56884685600E+03  0.56884685600E+03  0.25500000920E-02 0. -1.
        2   -1    0    0  501    0  0.00000000000E+00  0.00000000000E+00 -0.16323704485E+04  0.16323704486E+04  0.25500000920E-02 0.  1.
    10030    2    1    2    0    0  0.00000000000E+00  0.00000000000E+00 -0.10635235926E+04  0.22012173046E+04  0.19272454929E+04 0.  0.
        1    1    3    3  502    0 -0.26205127013E+02  0.75640958202E+03 -0.12129765894E+04  0.14297392668E+04  0.50400001928E-02 0.  1.
       -1    1    3    3    0  502  0.26205127013E+02 -0.75640958202E+03  0.14945299688E+03  0.77147803777E+03  0.50400001928E-02 0. -1.
</event>
<event>
 5   0  0.4255250E-07  0.3717198E+04  0.7818609E-02  0.8064161E-01
       -1   -1    0    0    0  501  0.00000000000E+00  0.00000000000E+00  0.36223253724E+04  0.36223253724E+04  0.50400001928E-02 0.  1.
        1   -1    0    0  501    0  0.00000000000E+00  0.00000000000E+00 -0.95363866756E+03  0.95363866758E+03  0.50400001928E-02 0. -1.
    10030    2    1    2    0    0  0.00000000000E+00  0.00000000000E+00  0.26686867048E+04  0.45759640400E+04  0.37171976228E+04 0.  0.
        2    1    3    3  502    0 -0.66634966569E+03  0.15768844583E+04  0.44339819443E+03  0.17683858263E+04  0.25500000920E-02 0. -1.
       -2    1    3    3    0  502  0.66634966569E+03 -0.15768844583E+04  0.22252885104E+04  0.28075782137E+04  0.25500000920E-02 0.  1.
</event>
<event>
 5   0  0.1079205E-06  0.3873479E+04  0.7818609E-02  0.8030568E-01
        1   -1    0    0  501    0  0.00000000000E+00  0.00000000000E+00  0.20233508301E+04  0.20233508301E+04  0.50400001928E-02 0.  1.
       -1   -1    0    0    0  501  0.00000000000E+00  0.00000000000E+00 -0.18538357949E+04  0.18538357949E+04  0.50400001928E-02 0. -1.
    10030    2    1    2    0    0  0.00000000000E+00  0.00000000000E+00  0.16951503518E+03  0.38771866251E+04  0.38734791568E+04 0.  0.
        4    1    3    3  502    0 -0.14907976686E+04 -0.97034074138E+03  0.85159766200E+03  0.19721204410E+04  0.12699999809E+01 0.  1.
       -4    1    3    3    0  502  0.14907976686E+04  0.97034074138E+03 -0.68208262682E+03  0.19050661841E+04  0.12699999809E+01 0. -1.
</event>
<event>
 5   0  0.1184616E-06  0.2758267E+04  0.7818609E-02  0.8316343E-01
       -2   -1    0    0    0  501  0.00000000000E+00  0.00000000000E+00  0.11251571578E+04  0.11251571578E+04  0.25500000920E-02 0. -1.
        2   -1    0    0  501    0  0.00000000000E+00  0.00000000000E+00 -0.16904392654E+04  0.16904392654E+04  0.25500000920E-02 0.  1.
    10030    2    1    2    0    0  0.00000000000E+00  0.00000000000E+00 -0.56528210768E+03  0.28155964232E+04  0.27582674557E+04 0.  0.
        5    1    3    3  502    0 -0.72252393795E+02 -0.67405072208E+02 -0.16868129966E+04  0.16897112261E+04  0.46999998093E+01 0.  1.
       -5    1    3    3    0  502  0.72252393795E+02  0.67405072208E+02  0.11215308889E+04  0.11258851971E+04  0.46999998093E+01 0. -1.
</event>
<event>
 5   0  0.4255250E-07  0.3760090E+04  0.7818609E-02  0.8054774E-01
       -3   -1    0    0    0  501  0.00000000000E+00  0.00000000000E+00  0.15968792473E+04  0.15968792505E+04  0.10100000352E+00 0. -1.
        3   -1    0    0  501    0  0.00000000000E+00  0.00000000000E+00 -0.22134231560E+04  0.22134231583E+04  0.10100000352E+00 0.  1.
    10030    2    1    2    0    0  0.00000000000E+00  0.00000000000E+00 -0.61654390875E+03  0.38103024088E+04  0.37600901658E+04 0.  0.
        1    1    3    3  502    0 -0.76161019151E+02  0.11037223855E+03 -0.22085706402E+04  0.22126379742E+04  0.50400001928E-02 0.  1.
       -1    1    3    3    0  502  0.76161019151E+02 -0.11037223855E+03  0.15920267315E+04  0.15976644346E+04  0.50400001928E-02 0. -1.
</event>
<event>
 5   0  0.5284458E-07  0.2354867E+04  0.7818609E-02  0.8456597E-01
       -1   -1    0    0    0  501  0.00000000000E+00  0.00000000000E+00  0.11222510579E+04  0.11222510579E+04  0.50400001928E-02 0. -1.
        1   -1    0    0  501    0  0.00000000000E+00  0.00000000000E+00 -0.12353292268E+04  0.12353292268E+04  0.50400001928E-02 0.  1.
    10030    2    1    2    0    0  0.00000000000E+00  0.00000000000E+00 -0.11307816887E+03  0.23575802847E+04  0.23548669021E+04 0.  0.
        5    1    3    3  502    0 -0.83031471113E+03  0.67946659538E+03 -0.54210315362E+03  0.12020795701E+04  0.46999998093E+01 0.  1.
       -5    1    3    3    0  502  0.83031471113E+03 -0.67946659538E+03  0.42902498475E+03  0.11555007145E+04  0.46999998093E+01 0. -1.
</event>
<event>
 5   0  0.1337854E-06  0.3221133E+04  0.7818609E-02  0.8183258E-01
        2   -1    0    0  501    0  0.00000000000E+00  0.00000000000E+00  0.13653137047E+04  0.13653137047E+04  0.25500000920E-02 0. -1.
       -2   -1    0    0    0  501  0.00000000000E+00  0.00000000000E+00 -0.18998748142E+04  0.18998748142E+04  0.25500000920E-02 0.  1.
    10030    2    1    2    0    0  0.00000000000E+00  0.00000000000E+00 -0.53456110956E+03  0.32651885189E+04  0.32211334161E+04 0.  0.
        3    1    3    3  502    0  0.12582161254E+04  0.88235845646E+03  0.22124529663E+03  0.15526151343E+04  0.10100000352E+00 0. -1.
       -3    1    3    3    0  502 -0.12582161254E+04 -0.88235845646E+03 -0.75580640619E+03  0.17125733846E+04  0.10100000352E+00 0.  1.
</event>
<event>
 5   0  0.1184616E-06  0.3697723E+04  0.7818609E-02  0.8068467E-01
        2   -1    0    0  501    0  0.00000000000E+00  0.00000000000E+00  0.30508049539E+04  0.30508049539E+04  0.25500000920E-02 0. -1.
       -2   -1    0    0    0  501  0.00000000000E+00  0.00000000000E+00 -0.11204549756E+04  0.11204549756E+04  0.25500000920E-02 0.  1.
    10030    2    1    2    0    0  0.00000000000E+00  0.00000000000E+00  0.19303499783E+04  0.41712599295E+04  0.36977234024E+04 0.  0.
        5    1    3    3  502    0  0.28672197022E+03 -0.13498652801E+04 -0.42280927998E+03  0.14433071536E+04  0.46999998093E+01 0.  1.
       -5    1    3    3    0  502 -0.28672197022E+03  0.13498652801E+04  0.23531592582E+04  0.27279527758E+04  0.46999998093E+01 0. -1.
</event>
<event>
 5   0  0.4255250E-07  0.3764110E+04  0.7818609E-02  0.8053901E-01
        1   -1    0    0  501    0  0.00000000000E+00  0.00000000000E+00  0.26035540405E+04  0.26035540405E+04  0.50400001928E-02 0. -1.
       -1   -1    0    0    0  501  0.00000000000E+00  0.00000000000E+00 -0.13604986061E+04  0.13604986061E+04  0.50400001928E-02 0.  1.
    10030    2    1    2    0    0  0.00000000000E+00  0.00000000000E+00  0.12430554344E+04  0.39640526466E+04  0.37641103294E+04 0.  0.
        2    1    3    3  502    0 -0.49868409486E+03 -0.16562790916E+04 -0.15961717066E+03  0.17370733712E+04  0.25500000920E-02 0.  1.
       -2    1    3    3    0  502  0.49868409486E+03  0.16562790916E+04  0.14026726051E+04  0.22269792754E+04  0.25500000920E-02 0. -1.
</event>
<event>
 5   0  0.1214844E-06  0.3758485E+04  0.7818609E-02  0.8055123E-01
       -2   -1    0    0    0  501  0.00000000000E+00  0.00000000000E+00  0.13539587294E+04  0.13539587294E+04  0.25500000920E-02 0. -1.
        2   -1    0    0  501    0  0.00000000000E+00  0.00000000000E+00 -0.26083166901E+04  0.26083166901E+04  0.25500000920E-02 0.  1.
    10030    2    1    2    0    0  0.00000000000E+00  0.00000000000E+00 -0.12543579607E+04  0.39622754195E+04  0.37584854139E+04 0.  0.
        4    1    3    3  502    0  0.50308590632E+03  0.17468296525E+03  0.12727436765E+04  0.13796693975E+04  0.12699999809E+01 0. -1.
       -4    1    3    3    0  502 -0.50308590632E+03 -0.17468296525E+03 -0.25271016371E+04  0.25826060220E+04  0.12699999809E+01 0.  1.
</event>
<event>
 5   0  0.1184616E-06  0.3778996E+04  0.7818609E-02  0.8050677E-01
        2   -1    0    0  501    0  0.00000000000E+00  0.00000000000E+00  0.15106969050E+04  0.15106969050E+04  0.25500000920E-02 0. -1.
       -2   -1    0    0    0  501  0.00000000000E+00  0.00000000000E+00 -0.23632821645E+04  0.23632821645E+04  0.25500000920E-02 0.  1.
    10030    2    1    2    0    0  0.00000000000E+00  0.00000000000E+00 -0.85258525951E+03  0.38739790694E+04  0.37789961902E+04 0.  0.
        5    1    3    3  502    0  0.12580359461E+04 -0.12794057070E+04 -0.10333311132E+04  0.20705865557E+04  0.46999998093E+01 0.  1.
       -5    1    3    3    0  502 -0.12580359461E+04  0.12794057070E+04  0.18074585373E+03  0.18033925137E+04  0.46999998093E+01 0. -1.
</event>
<event>
 5   0  0.4795023E-07  0.3827430E+04  0.7818609E-02  0.8040294E-01
        1   -1    0    0  501    0  0.00000000000E+00  0.00000000000E+00  0.16532188297E+04  0.16532188297E+04  0.50400001928E-02 0. -1.
       -1   -1    0    0    0  501  0.00000000000E+00  0.00000000000E+00 -0.22152572357E+04  0.22152572357E+04  0.50400001928E-02 0.  1.
    10030    2    1    2    0    0  0.00000000000E+00  0.00000000000E+00 -0.56203840605E+03  0.38684760654E+04  0.38274299339E+04 0.  0.
        3    1    3    3  502    0  0.17182145253E+03 -0.10352602171E+04 -0.18984996316E+04  0.21692365454E+04  0.10100000352E+00 0.  1.
       -3    1    3    3    0  502 -0.17182145253E+03  0.10352602171E+04  0.13364612255E+04  0.16992395200E+04  0.10100000352E+00 0. -1.
</event>
<event>
 5   0  0.1341932E-06  0.3122107E+04  0.7818609E-02  0.8209697E-01
        2   -1    0    0  501    0  0.00000000000E+00  0.00000000000E+00  0.23503134370E+04  0.23503134370E+04  0.25500000920E-02 0.  1.
       -2   -1    0    0    0  501  0.00000000000E+00  0.00000000000E+00 -0.10368355685E+04  0.10368355685E+04  0.25500000920E-02 0. -1.
    10030    2    1    2    0    0  0.00000000000E+00  0.00000000000E+00  0.13134778685E+04  0.33871490055E+04  0.31221073451E+04 0.  0.
        2    1    3    3  502    0  0.10797789052E+04 -0.75455203485E+03 -0.25199473495E+03  0.13411832849E+04  0.25500000920E-02 0. -1.
       -2    1    3    3    0  502 -0.10797789052E+04  0.75455203485E+03  0.15654726035E+04  0.20459657205E+04  0.25500000920E-02 0.  1.
</event>
<event>
 5   0  0.4255250E-07  0.3767246E+04  0.7818609E-02  0.8053221E-01
        1   -1    0    0  501    0  0.00000000000E+00  0.00000000000E+00  0.35205906576E+04  0.35205906576E+04  0.50400001928E-02 0. -1.
       -1   -1    0    0    0  501  0.00000000000E+00  0.00000000000E+00 -0.10077954692E+04  0.10077954692E+04  0.50400001928E-02 0.  1.
    10030    2    1    2    0    0  0.00000000000E+00  0.00000000000E+00  0.25127951885E+04  0.45283861268E+04  0.37672458447E+04 0.  0.
        2    1    3    3  502    0  0.76396032481E+03  0.69625267134E+03  0.31492341654E+04  0.33145254545E+04  0.25500000920E-02 0. -1.
       -2    1    3    3    0  502 -0.76396032481E+03 -0.69625267134E+03 -0.63643897695E+03  0.12138606722E+04  0.25500000920E-02 0.  1.
</event>
<event>
 5   0  0.1372748E-06  0.3676705E+04  0.7818609E-02  0.8073144E-01
       -2   -1    0    0    0  501  0.00000000000E+00  0.00000000000E+00  0.26301693265E+04  0.26301693265E+04  0.25500000920E-02 0.  1.
        2   -1    0    0  501    0  0.00000000000E+00  0.00000000000E+00 -0.12849132603E+04  0.12849132603E+04  0.25500000920E-02 0. -1.
    10030    2    1    2    0    0  0.00000000000E+00  0.00000000000E+00  0.13452560662E+04  0.39150825868E+04  0.36767047445E+04 0.  0.
        1    1    3    3  502    0  0.59958414676E+03 -0.21727458735E+03 -0.11633488695E+04  0.13266838311E+04  0.50400001928E-02 0. -1.
       -1    1    3    3    0  502 -0.59958414676E+03  0.21727458735E+03  0.25086049357E+04  0.25883987557E+04  0.50400001928E-02 0.  1.
</event>
<event>
 5   0  0.5284458E-07  0.3719765E+04  0.7818609E-02  0.8063596E-01
        1   -1    0    0  501    0  0.00000000000E+00  0.00000000000E+00  0.23820259035E+04  0.23820259035E+04  0.50400001928E-02 0.  1.
       -1   -1    0    0    0  501  0.00000000000E+00  0.00000000000E+00 -0.14521936320E+04  0.14521936321E+04  0.50400001928E-02 0. -1.
    10030    2    1    2    0    0  0.00000000000E+00  0.00000000000E+00  0.92983227142E+03  0.38342195355E+04  0.37197649648E+04 0.  0.
        5    1    3    3  502    0  0.11362484959E+04  0.25334039584E+03  0.19600287118E+04  0.22796878387E+04  0.46999998093E+01 0.  1.
       -5    1    3    3    0  502 -0.11362484959E+04 -0.25334039584E+03 -0.10301964404E+04  0.15545316968E+04  0.46999998093E+01 0. -1.
</event>
<event>
 5   0  0.5284458E-07  0.3824121E+04  0.7818609E-02  0.8040998E-01
       -1   -1    0    0    0  501  0.00000000000E+00  0.00000000000E+00  0.15849027454E+04  0.15849027454E+04  0.50400001928E-02 0.  1.
        1   -1    0    0  501    0  0.00000000000E+00  0.00000000000E+00 -0.23067505001E+04  0.23067505001E+04  0.50400001928E-02 0. -1.
    10030    2    1    2    0    0  0.00000000000E+00  0.00000000000E+00 -0.72184775470E+03  0.38916532455E+04  0.38241209189E+04 0.  0.
        5    1    3    3  502    0 -0.11044861887E+04 -0.11564667954E+04 -0.14275980743E+04  0.21436799066E+04  0.46999998093E+01 0. -1.
       -5    1    3    3    0  502  0.11044861887E+04  0.11564667954E+04  0.70575031964E+03  0.17479733390E+04  0.46999998093E+01 0.  1.
</event>
<event>
 5   0  0.1214844E-06  0.3808002E+04  0.7818609E-02  0.8044440E-01
        2   -1    0    0  501    0  0.00000000000E+00  0.00000000000E+00  0.22967335318E+04  0.22967335318E+04  0.25500000920E-02 0. -1.
       -2   -1    0    0    0  501  0.00000000000E+00  0.00000000000E+00 -0.15784240519E+04  0.15784240519E+04  0.25500000920E-02 0.  1.
    10030    2    1    2    0    0  0.00000000000E+00  0.00000000000E+00  0.71830947988E+03  0.38751575837E+04  0.38080018106E+04 0.  0.
        4    1    3    3  502    0 -0.14898296471E+04  0.41048683748E+03  0.14910316255E+04  0.21473864911E+04  0.12699999809E+01 0. -1.
       -4    1    3    3    0  502  0.14898296471E+04 -0.41048683748E+03 -0.77272214558E+03  0.17277710926E+04  0.12699999809E+01 0.  1.
</event>
<event>
 5   0  0.1372748E-06  0.2928972E+04  0.7818609E-02  0.8264309E-01
       -2   -1    0    0    0  501  0.00000000000E+00  0.00000000000E+00  0.10434333636E+04  0.10434333636E+04  0.25500000920E-02 0. -1.
        2   -1    0    0  501    0  0.00000000000E+00  0.00000000000E+00 -0.20554443277E+04  0.20554443277E+04  0.25500000920E-02 0.  1.
    10030    2    1    2    0    0  0.00000000000E+00  0.00000000000E+00 -0.10120109641E+04  0.30988776913E+04  0.29289719620E+04 0.  0.
        1    1    3    3  502    0  0.13276014426E+04 -0.59415720324E+03 -0.68670771082E+03  0.16084513834E+04  0.50400001928E-02 0.  1.
       -1    1    3    3    0  502 -0.13276014426E+04  0.59415720324E+03 -0.32530325327E+03  0.14904263079E+04  0.50400001928E-02 0. -1.
</event>
<event>
 5   0  0.1184616E-06  0.2122594E+04  0.7818609E-02  0.8551355E-01
        2   -1    0    0  501    0  0.00000000000E+00  0.00000000000E+00  0.16270876967E+04  0.16270876967E+04  0.25500000920E-02 0. -1.
       -2   -1    0    0    0  501  0.00000000000E+00  0.00000000000E+00 -0.69224991749E+03  0.69224991749E+03  0.25500000920E-02 0.  1.
    10030    2    1    2    0    0  0.00000000000E+00  0.00000000000E+00  0.93483777918E+03  0.23193376142E+04  0.21225940015E+04 0.  0.
        5    1    3    3  502    0  0.22552028895E+03 -0.56295049550E+03  0.14190990738E+04  0.15432553037E+04  0.46999998093E+01 0. -1.
       -5    1    3    3    0  502 -0.22552028895E+03  0.56295049550E+03 -0.48426129464E+03  0.77608231045E+03  0.46999998093E+01 0.  1.
</event>
<event>
 5   0  0.8030324E-07  0.2371802E+04  0.7818609E-02  0.8450137E-01
       -1   -1    0    0    0  501  0.00000000000E+00  0.00000000000E+00  0.74639082755E+03  0.74639082757E+03  0.50400001928E-02 0. -1.
        1   -1    0    0  501    0  0.00000000000E+00  0.00000000000E+00 -0.18842152604E+04  0.18842152604E+04  0.50400001928E-02 0.  1.
    10030    2    1    2    0    0  0.00000000000E+00  0.00000000000E+00 -0.11378244328E+04  0.26306060880E+04  0.23718018362E+04 0.  0.
        1    1    3    3  502    0  0.34069359387E+03  0.78165606961E+03 -0.14830445589E+04  0.17106956187E+04  0.50400001928E-02 0.  1.
       -1    1    3    3    0  502 -0.34069359387E+03 -0.78165606961E+03  0.34522012605E+03  0.91991046930E+03  0.50400001928E-02 0. -1.
</event>
<event>
 5   0  0.1341932E-06  0.3770741E+04  0.7818609E-02  0.8052463E-01
       -2   -1    0    0    0  501  0.00000000000E+00  0.00000000000E+00  0.17924539532E+04  0.17924539532E+04  0.25500000920E-02 0. -1.
        2   -1    0    0  501    0  0.00000000000E+00  0.00000000000E+00 -0.19831037899E+04  0.19831037899E+04  0.25500000920E-02 0.  1.
    10030    2    1    2    0    0  0.00000000000E+00  0.00000000000E+00 -0.19064983665E+03  0.37755577431E+04  0.37707411620E+04 0.  0.
        2    1    3    3  502    0 -0.37237492678E+03  0.65943345624E+03 -0.18241185425E+04  0.19750757014E+04  0.25500000920E-02 0.  1.
       -2    1    3    3    0  502  0.37237492678E+03 -0.65943345624E+03  0.16334687058E+04  0.18004820416E+04  0.25500000920E-02 0. -1.
</event>
<event>
 5   0  0.8030324E-07  0.2944319E+04  0.7818609E-02  0.8259812E-01
        1   -1    0    0  501    0  0.00000000000E+00  0.00000000000E+00  0.18090627046E+04  0.18090627046E+04  0.50400001928E-02 0. -1.
       -1   -1    0    0    0  501  0.00000000000E+00  0.00000000000E+00 -0.11979984137E+04  0.11979984137E+04  0.50400001928E-02 0.  1.
    10030    2    1    2    0    0  0.00000000000E+00  0.00000000000E+00  0.61106429091E+03  0.30070611184E+04  0.29443194463E+04 0.  0.
        1    1    3    3  502    0  0.11011168089E+04  0.88551834150E+03  0.72743713480E+03  0.15892657880E+04  0.50400001928E-02 0.  1.
       -1    1    3    3    0  502 -0.11011168089E+04 -0.88551834150E+03 -0.11637284389E+03  0.14177953303E+04  0.50400001928E-02 0. -1.
</event>
<event>
 5   0  0.1184616E-06  0.2504688E+04  0.7818609E-02  0.8401317E-01
       -2   -1    0    0    0  501  0.00000000000E+00  0.00000000000E+00  0.15267595716E+04  0.15267595716E+04  0.25500000920E-02 0. -1.
        2   -1    0    0  501    0  0.00000000000E+00  0.00000000000E+00 -0.10272512326E+04  0.10272512326E+04  0.25500000920E-02 0.  1.
    10030    2    1    2    0    0  0.00000000000E+00  0.00000000000E+00  0.49950833897E+03  0.25540108042E+04  0.25046881257E+04 0.  0.
        5    1    3    3  502    0 -0.10095302366E+04  0.63162939210E+03  0.64499054608E+03  0.13543049443E+04  0.46999998093E+01 0. -1.
       -5    1    3    3    0  502  0.10095302366E+04 -0.63162939210E+03 -0.14548220711E+03  0.11997058599E+04  0.46999998093E+01 0.  1.
</event>
<event>
 5   0  0.4915829E-07  0.1887889E+04  0.7818609E-02  0.8660908E-01
       -1   -1    0    0    0  501  0.00000000000E+00  0.00000000000E+00  0.11560706366E+04  0.11560706366E+04  0.50400001928E-02 0.  1.
        1   -1    0    0  501    0  0.00000000000E+00  0.00000000000E+00 -0.77074149179E+03  0.77074149181E+03  0.50400001928E-02 0. -1.
    10030    2    1    2    0    0  0.00000000000E+00  0.00000000000E+00  0.38532914476E+03  0.19268121284E+04  0.18878894110E+04 0.  0.
        3    1    3    3  502    0  0.40638453759E+03  0.79426053588E+03  0.50729517872E+03  0.10263267510E+04  0.10100000352E+00 0.  1.
       -3    1    3    3    0  502 -0.40638453759E+03 -0.79426053588E+03 -0.12196603396E+03  0.90048537738E+03  0.10100000352E+00 0. -1.
</event>
<event>
 5   0  0.1341932E-06  0.3588543E+04  0.7818609E-02  0.8093121E-01
       -2   -1    0    0    0  501  0.00000000000E+00  0.00000000000E+00  0.19952714210E+04  0.19952714210E+04  0.25500000920E-02 0. -1.
        2   -1    0    0  501    0  0.00000000000E+00  0.00000000000E+00 -0.16135194901E+04  0.16135194901E+04  0.25500000920E-02 0.  1.
    10030    2    1    2    0    0  0.00000000000E+00  0.00000000000E+00  0.38175193084E+03  0.36087909111E+04  0.35885425040E+04 0.  0.
        2    1    3    3  502    0 -0.79970752906E+03  0.24832968674E+03 -0.14049648188E+04  0.16355812140E+04  0.25500000920E-02 0.  1.
       -2    1    3    3    0  502  0.79970752906E+03 -0.24832968674E+03  0.17867167496E+04  0.19732096971E+04  0.25500000920E-02 0. -1.
</event>
<event>
 5   0  0.1372748E-06  0.3812112E+04  0.7818609E-02  0.8043561E-01
       -2   -1    0    0    0  501  0.00000000000E+00  0.00000000000E+00  0.18025927466E+04  0.18025927466E+04  0.25500000920E-02 0.  1.
        2   -1    0    0  501    0  0.00000000000E+00  0.00000000000E+00 -0.20154579084E+04  0.20154579084E+04  0.25500000920E-02 0. -1.
    10030    2    1    2    0    0  0.00000000000E+00  0.00000000000E+00 -0.21286516189E+03  0.38180506550E+04  0.38121121740E+04 0.  0.
        1    1    3    3  502    0 -0.30457855729E+02 -0.18902748861E+04  0.13680987079E+03  0.18954639978E+04  0.50400001928E-02 0. -1.
       -1    1    3    3    0  502  0.30457855729E+02  0.18902748861E+04 -0.34967503268E+03  0.19225866572E+04  0.50400001928E-02 0.  1.
</event>
<event>
 5   0  0.4795023E-07  0.1974660E+04  0.7818609E-02  0.8618561E-01
        1   -1    0    0  501    0  0.00000000000E+00  0.00000000000E+00  0.21802421080E+04  0.21802421080E+04  0.50400001928E-02 0.  1.
       -1   -1    0    0    0  501  0.00000000000E+00  0.00000000000E+00 -0.44711552396E+03  0.44711552399E+03  0.50400001928E-02 0. -1.
    10030    2    1    2    0    0  0.00000000000E+00  0.00000000000E+00  0.17331265840E+04  0.26273576320E+04  0.19746595580E+04 0.  0.
        3    1    3    3  502    0  0.40434709884E+03 -0.79719711206E+03  0.30868851003E+03  0.94567881347E+03  0.10100000352E+00 0. -1.
       -3    1    3    3    0  502 -0.40434709884E+03  0.79719711206E+03  0.14244380740E+04  0.16816788185E+04  0.10100000352E+00 0.  1.
</event>
<event>
 5   0  0.4255250E-07  0.1955062E+04  0.7818609E-02  0.8627924E-01
        1   -1    0    0  501    0  0.00000000000E+00  0.00000000000E+00  0.12580884395E+04  0.12580884395E+04  0.50400001928E-02 0. -1.
       -1   -1    0    0    0  501  0.00000000000E+00  0.00000000000E+00 -0.75953884088E+03  0.75953884089E+03  0.50400001928E-02 0.  1.
    10030    2    1    2    0    0  0.00000000000E+00  0.00000000000E+00  0.49854959861E+03  0.20176272804E+04  0.19550621832E+04 0.  0.
        2    1    3    3  502    0 -0.29711590356E+03  0.37115982227E+03 -0.63218358577E+03  0.79100793924E+03  0.25500000920E-02 0.  1.
       -2    1    3    3    0  502  0.29711590356E+03 -0.37115982227E+03  0.11307331844E+04  0.12266193411E+04  0.25500000920E-02 0. -1.
</event>
<event>
 5   0  0.1214844E-06  0.3862534E+04  0.7818609E-02  0.8032867E-01
        2   -1    0    0  501    0  0.00000000000E+00  0.00000000000E+00  0.20334815595E+04  0.20334815595E+04  0.25500000920E-02 0. -1.
       -2   -1    0    0    0  501  0.00000000000E+00  0.00000000000E+00 -0.18341900324E+04  0.18341900324E+04  0.25500000920E-02 0.  1.
    10030    2    1    2    0    0  0.00000000000E+00  0.00000000000E+00  0.19929152712E+03  0.38676715919E+04  0.38625336801E+04 0.  0.
        4    1    3    3  502    0 -0.18610790406E+04 -0.43826113590E+03 -0.17293311845E+03  0.19197904820E+04  0.12699999809E+01 0. -1.
       -4    1    3    3    0  502  0.18610790406E+04  0.43826113590E+03  0.37222464557E+03  0.19478811099E+04  0.12699999809E+01 0.  1.
</event>
<event>
 5   0  0.1341932E-06  0.3858265E+04  0.7818609E-02  0.8033766E-01
        2   -1    0    0  501    0  0.00000000000E+00  0.00000000000E+00  0.18917142310E+04  0.18917142310E+04  0.25500000920E-02 0.  1.
       -2   -1    0    0    0  501  0.00000000000E+00  0.00000000000E+00 -0.19672908579E+04  0.19672908579E+04  0.25500000920E-02 0. -1.
    10030    2    1    2    0    0  0.00000000000E+00  0.00000000000E+00 -0.75576626952E+02  0.38590050889E+04  0.38582649533E+04 0.  0.
        2    1    3    3  502    0  0.31345235708E+03  0.12386036839E+04 -0.14834584888E+04  0.19578152502E+04  0.25500000920E-02 0. -1.
       -2    1    3    3    0  502 -0.31345235708E+03 -0.12386036839E+04  0.14078818618E+04  0.19011898387E+04  0.25500000920E-02 0.  1.
</event>
<event>
 5   0  0.1230370E-06  0.2176597E+04  0.7818609E-02  0.8528232E-01
        2   -1    0    0  501    0  0.00000000000E+00  0.00000000000E+00  0.12391671956E+04  0.12391671956E+04  0.25500000920E-02 0.  1.
       -2   -1    0    0    0  501  0.00000000000E+00  0.00000000000E+00 -0.95579838062E+03  0.95579838062E+03  0.25500000920E-02 0. -1.
    10030    2    1    2    0    0  0.00000000000E+00  0.00000000000E+00  0.28336881496E+03  0.21949655762E+04  0.21765973434E+04 0.  0.
        4    1    3    3  502    0 -0.41408163974E+03  0.14782586774E+02 -0.87314308257E+03  0.96646913287E+03  0.12699999809E+01 0. -1.
       -4    1    3    3    0  502  0.41408163974E+03 -0.14782586774E+02  0.11565118975E+04  0.12284964433E+04  0.12699999809E+01 0.  1.
</event>
<event>
 5   0  0.4255250E-07  0.2302303E+04  0.7818609E-02  0.8477014E-01
        1   -1    0    0  501    0  0.00000000000E+00  0.00000000000E+00  0.12656217167E+04  0.12656217167E+04  0.50400001928E-02 0. -1.
       -1   -1    0    0    0  501  0.00000000000E+00  0.00000000000E+00 -0.10470349163E+04  0.10470349163E+04  0.50400001928E-02 0.  1.
    10030    2    1    2    0    0  0.00000000000E+00  0.00000000000E+00  0.21858680044E+03  0.23126566330E+04  0.23023033060E+04 0.  0.
        2    1    3    3  502    0 -0.61484886907E+03  0.83061918214E+03  0.61870585016E+03  0.12044767688E+04  0.25500000920E-02 0. -1.
       -2    1    3    3    0  502  0.61484886907E+03 -0.83061918214E+03 -0.40011904973E+03  0.11081798642E+04  0.25500000920E-02 0.  1.
</event>
<event>
 5   0  0.1372748E-06  0.3732167E+04  0.7818609E-02  0.8060870E-01
        2   -1    0    0  501    0  0.00000000000E+00  0.00000000000E+00  0.16868475083E+04  0.16868475083E+04  0.25500000920E-02 0. -1.
       -2   -1    0    0    0  501  0.00000000000E+00  0.00000000000E+00 -0.20643647115E+04  0.20643647115E+04  0.25500000920E-02 0.  1.
    10030    2    1    2    0    0  0.00000000000E+00  0.00000000000E+00 -0.37751720316E+03  0.37512122198E+04  0.37321674506E+04 0.  0.
        1    1    3    3  502    0  0.12526229326E+04 -0.13638418628E+04  0.42938063918E+02  0.18522884536E+04  0.50400001928E-02 0. -1.
       -1    1    3    3    0  502 -0.12526229326E+04  0.13638418628E+04 -0.42045526708E+03  0.18989237662E+04  0.50400001928E-02 0.  1.
</event>
<event>
 5   0  0.8030324E-07  0.3762826E+04  0.7818609E-02  0.8054180E-01
       -1   -1    0    0    0  501  0.00000000000E+00  0.00000000000E+00  0.15944623822E+04  0.15944623822E+04  0.50400001928E-02 0. -1.
        1   -1    0    0  501    0  0.00000000000E+00  0.00000000000E+00 -0.22200053525E+04  0.22200053526E+04  0.50400001928E-02 0.  1.
    10030    2    1    2    0    0  0.00000000000E+00  0.00000000000E+00 -0.62554297037E+03  0.38144677347E+04  0.37628260778E+04 0.  0.
        1    1    3    3  502    0 -0.50648523107E+03  0.81324693229E+03 -0.19541963251E+04  0.21764147443E+04  0.50400001928E-02 0.  1.
       -1    1    3    3    0  502  0.50648523107E+03 -0.81324693229E+03  0.13286533548E+04  0.16380529904E+04  0.50400001928E-02 0. -1.
</event>
<event>
 5   0  0.4255250E-07  0.3846099E+04  0.7818609E-02  0.8036334E-01
        1   -1    0    0  501    0  0.00000000000E+00  0.00000000000E+00  0.27794658939E+04  0.27794658939E+04  0.50400001928E-02 0. -1.
       -1   -1    0    0    0  501  0.00000000000E+00  0.00000000000E+00 -0.13305147141E+04  0.13305147142E+04  0.50400001928E-02 0.  1.
    10030    2    1    2    0    0  0.00000000000E+00  0.00000000000E+00  0.14489511798E+04  0.41099806081E+04  0.38460994628E+04 0.  0.
        2    1    3    3  502    0 -0.51688902576E+03 -0.38079691696E+03  0.26615622803E+04  0.27378996199E+04  0.25500000920E-02 0. -1.
       -2    1    3    3    0  502  0.51688902576E+03  0.38079691696E+03 -0.12126111005E+04  0.13720809881E+04  0.25500000920E-02 0.  1.
</event>
<event>
 5   0  0.4795023E-07  0.3810303E+04  0.7818609E-02  0.8043947E-01
       -1   -1    0    0    0  501  0.00000000000E+00  0.00000000000E+00  0.24907042869E+04  0.24907042869E+04  0.50400001928E-02 0.  1.
        1   -1    0    0  501    0  0.00000000000E+00  0.00000000000E+00 -0.14572594179E+04  0.14572594179E+04  0.50400001928E-02 0. -1.
    10030    2    1    2    0    0  0.00000000000E+00  0.00000000000E+00  0.10334448690E+04  0.39479637048E+04  0.38103030217E+04 0.  0.
        3    1    3    3  502    0  0.14219819603E+04  0.75351580773E+03  0.15732603748E+04  0.22505481521E+04  0.10100000352E+00 0.  1.
       -3    1    3    3    0  502 -0.14219819603E+04 -0.75351580773E+03 -0.53981550578E+03  0.16974155527E+04  0.10100000352E+00 0. -1.
</event>
<event>
 5   0  0.1372748E-06  0.3446877E+04  0.7818609E-02  0.8126496E-01
        2   -1    0    0  501    0  0.00000000000E+00  0.00000000000E+00  0.23599189408E+04  0.23599189408E+04  0.25500000920E-02 0.  1.
       -2   -1    0    0    0  501  0.00000000000E+00  0.00000000000E+00 -0.12586192824E+04  0.12586192824E+04  0.25500000920E-02 0. -1.
    10030    2    1    2    0    0  0.00000000000E+00  0.00000000000E+00  0.11012996584E+04  0.36185382231E+04  0.34468765477E+04 0.  0.
        1    1    3    3  502    0 -0.93478985554E+03 -0.14260583171E+04  0.81365633985E+03  0.18893149650E+04  0.50400001928E-02 0. -1.
       -1    1    3    3    0  502  0.93478985554E+03  0.14260583171E+04  0.28764331854E+03  0.17292232581E+04  0.50400001928E-02 0.  1.
</event>
<event>
 5   0  0.5284458E-07  0.2095762E+04  0.7818609E-02  0.8563113E-01
        1   -1    0    0  501    0  0.00000000000E+00  0.00000000000E+00  0.14449357580E+04  0.14449357580E+04  0.50400001928E-02 0. -1.
       -1   -1    0    0    0  501  0.00000000000E+00  0.00000000000E+00 -0.75993321450E+03  0.75993321452E+03  0.50400001928E-02 0.  1.
    10030    2    1    2    0    0  0.00000000000E+00  0.00000000000E+00  0.68500254350E+03  0.22048689725E+04  0.20957620813E+04 0.  0.
        5    1    3    3  502    0 -0.54065530186E+03  0.69662769099E+03 -0.25303785498E+03  0.91741405120E+03  0.46999998093E+01 0.  1.
       -5    1    3    3    0  502  0.54065530186E+03 -0.69662769099E+03  0.93804039848E+03  0.12874549213E+04  0.46999998093E+01 0. -1.
</event>
<event>
 5   0  0.5284458E-07  0.3858877E+04  0.7818609E-02  0.8033637E-01
       -1   -1    0    0    0  501  0.00000000000E+00  0.00000000000E+00  0.28489289855E+04  0.28489289855E+04  0.50400001928E-02 0. -1.
        1   -1    0    0  501    0  0.00000000000E+00  0.00000000000E+00 -0.13067129319E+04  0.13067129319E+04  0.50400001928E-02 0.  1.
    10030    2    1    2    0    0  0.00000000000E+00  0.00000000000E+00  0.15422160536E+04  0.41556419174E+04  0.38588767005E+04 0.  0.
        5    1    3    3  502    0  0.39887905231E+03  0.99532246153E+02 -0.12589924899E+04  0.13244226463E+04  0.46999998093E+01 0.  1.
       -5    1    3    3    0  502 -0.39887905231E+03 -0.99532246153E+02  0.28012085436E+04  0.28312192711E+04  0.46999998093E+01 0. -1.
</event>
<event>
 5   0  0.1341932E-06  0.3849332E+04  0.7818609E-02  0.8035651E-01
        2   -1    0    0  501    0  0.00000000000E+00  0.00000000000E+00  0.26707494904E+04  0.26707494904E+04  0.25500000920E-02 0.  1.
       -2   -1    0    0    0  501  0.00000000000E+00  0.00000000000E+00 -0.13870032812E+04  0.13870032812E+04  0.25500000920E-02 0. -1.
    10030    2    1    2    0    0  0.00000000000E+00  0.00000000000E+00  0.12837462092E+04  0.40577527716E+04  0.38493315298E+04 0.  0.
        2    1    3    3  502    0  0.54192356115E+03  0.71777359511E+03 -0.11518645204E+04  0.14613938392E+04  0.25500000920E-02 0. -1.
       -2    1    3    3    0  502 -0.54192356115E+03 -0.71777359511E+03  0.24356107295E+04  0.25963589324E+04  0.25500000920E-02 0.  1.
</event>
<event>
 5   0  0.1341932E-06  0.3751821E+04  0.7818609E-02  0.8056574E-01
        2   -1    0    0  501    0  0.00000000000E+00  0.00000000000E+00  0.21929717401E+04  0.21929717401E+04  0.25500000920E-02 0. -1.
       -2   -1    0    0    0  501  0.00000000000E+00  0.00000000000E+00 -0.16046904966E+04  0.16046904966E+04  0.25500000920E-02 0.  1.
    10030    2    1    2    0    0  0.00000000000E+00  0.00000000000E+00  0.58828124344E+03  0.37976622367E+04  0.37518213767E+04 0.  0.
        2    1    3    3  502    0  0.75566910758E+02 -0.15927494116E+04 -0.70610308749E+03  0.17438872144E+04  0.25500000920E-02 0.  1.
       -2    1    3    3    0  502 -0.75566910758E+02  0.15927494116E+04  0.12943843309E+04  0.20537750223E+04  0.25500000920E-02 0. -1.
</event>
<event>
 5   0  0.1214844E-06  0.3776920E+04  0.7818609E-02  0.8051126E-01
       -2   -1    0    0    0  501  0.00000000000E+00  0.00000000000E+00  0.17638177035E+04  0.17638177035E+04  0.25500000920E-02 0.  1.
        2   -1    0    0  501    0  0.00000000000E+00  0.00000000000E+00 -0.20219101192E+04  0.20219101192E+04  0.25500000920E-02 0. -1.
    10030    2    1    2    0    0  0.00000000000E+00  0.00000000000E+00 -0.25809241573E+03  0.37857278227E+04  0.37769198367E+04 0.  0.
        4    1    3    3  502    0  0.11077448861E+04  0.11423235243E+03  0.13996766161E+04  0.17886430627E+04  0.12699999809E+01 0.  1.
       -4    1    3    3    0  502 -0.11077448861E+04 -0.11423235243E+03 -0.16577690318E+04  0.19970847601E+04  0.12699999809E+01 0. -1.
</event>
<event>
 5   0  0.5284458E-07  0.2845688E+04  0.7818609E-02  0.8289223E-01
       -1   -1    0    0    0  501  0.00000000000E+00  0.00000000000E+00  0.10055656540E+04  0.10055656540E+04  0.50400001928E-02 0.  1.
        1   -1    0    0  501    0  0.00000000000E+00  0.00000000000E+00 -0.20132794751E+04  0.20132794751E+04  0.50400001928E-02 0. -1.
    10030    2    1    2    0    0  0.00000000000E+00  0.00000000000E+00 -0.10077138211E+04  0.30188451291E+04  0.28456877496E+04 0.  0.
        5    1    3    3  502    0  0.65413544927E+03 -0.13178342568E+03 -0.18369869270E+04  0.19544316609E+04  0.46999998093E+01 0. -1.
       -5    1    3    3    0  502 -0.65413544927E+03  0.13178342568E+03  0.82927310586E+03  0.10644134682E+04  0.46999998093E+01 0.  1.
</event>
<event>
 5   0  0.1079205E-06  0.3827909E+04  0.7818609E-02  0.8040192E-01
       -1   -1    0    0    0  501  0.00000000000E+00  0.00000000000E+00  0.25209446485E+04  0.25209446485E+04  0.50400001928E-02 0. -1.
        1   -1    0    0  501    0  0.00000000000E+00  0.00000000000E+00 -0.14531148591E+04  0.14531148591E+04  0.50400001928E-02 0.  1.
    10030    2    1    2    0    0  0.00000000000E+00  0.00000000000E+00  0.10678297894E+04  0.39740595075E+04  0.38279091565E+04 0.  0.
        4    1    3    3  502    0  0.16952949967E+04 -0.61482841948E+03  0.11996316313E+04  0.21659078409E+04  0.12699999809E+01 0. -1.
       -4    1    3    3    0  502 -0.16952949967E+04  0.61482841948E+03 -0.13180184193E+03  0.18081516667E+04  0.12699999809E+01 0.  1.
</event>
<event>
 5   0  0.1184616E-06  0.3699104E+04  0.7818609E-02  0.8068160E-01
        2   -1    0    0  501    0  0.00000000000E+00  0.00000000000E+00  0.11367979032E+04  0.11367979032E+04  0.25500000920E-02 0. -1.
       -2   -1    0    0    0  501  0.00000000000E+00  0.00000000000E+00 -0.30091919505E+04  0.30091919505E+04  0.25500000920E-02 0.  1.
    10030    2    1    2    0    0  0.00000000000E+00  0.00000000000E+00 -0.18723940473E+04  0.41459898538E+04  0.36991042698E+04 0.  0.
        5    1    3    3  502    0 -0.10889355125E+04  0.34581453770E+03  0.69397459550E+03  0.13367838546E+04  0.46999998093E+01 0. -1.
       -5    1    3    3    0  502  0.10889355125E+04 -0.34581453770E+03 -0.25663686428E+04  0.28092059991E+04  0.46999998093E+01 0.  1.
</event>
<event>
 5   0  0.4255250E-07  0.4061221E+04  0.7818609E-02  0.7992309E-01
       -3   -1    0    0    0  501  0.00000000000E+00  0.00000000000E+00  0.25972216581E+04  0.25972216601E+04  0.10100000352E+00 0. -1.
        3   -1    0    0  501    0  0.00000000000E+00  0.00000000000E+00 -0.15876115626E+04  0.15876115658E+04  0.10100000352E+00 0.  1.
    10030    2    1    2    0    0  0.00000000000E+00  0.00000000000E+00  0.10096100956E+04  0.41848332258E+04  0.40612210704E+04 0.  0.
        5    1    3    3  502    0  0.12530401009E+04  0.15962519603E+04  0.57930530376E+03  0.21103901393E+04  0.46999998093E+01 0. -1.
       -5    1    3    3    0  502 -0.12530401009E+04 -0.15962519603E+04  0.43030479180E+03  0.20744430865E+04  0.46999998093E+01 0.  1.
</event>
<event>
 5   0  0.4345080E-07  0.2248201E+04  0.7818609E-02  0.8498629E-01
        1   -1    0    0  501    0  0.00000000000E+00  0.00000000000E+00  0.16057622418E+04  0.16057622418E+04  0.50400001928E-02 0. -1.
       -1   -1    0    0    0  501  0.00000000000E+00  0.00000000000E+00 -0.78691724122E+03  0.78691724124E+03  0.50400001928E-02 0.  1.
    10030    2    1    2    0    0  0.00000000000E+00  0.00000000000E+00  0.81884500058E+03  0.23926794830E+04  0.22482010528E+04 0.  0.
        2    1    3    3  502    0  0.98670401573E+03 -0.53778243906E+03  0.37918490763E+03  0.11859915517E+04  0.25500000920E-02 0.  1.
       -2    1    3    3    0  502 -0.98670401573E+03  0.53778243906E+03  0.43966009295E+03  0.12066879314E+04  0.25500000920E-02 0. -1.
</event>
<event>
 5   0  0.1337854E-06  0.4016408E+04  0.7818609E-02  0.8001245E-01
       -2   -1    0    0    0  501  0.00000000000E+00  0.00000000000E+00  0.19105306381E+04  0.19105306381E+04  0.25500000920E-02 0.  1.
        2   -1    0    0  501    0  0.00000000000E+00  0.00000000000E+00 -0.21108709926E+04  0.21108709926E+04  0.25500000920E-02 0. -1.
    10030    2    1    2    0    0  0.00000000000E+00  0.00000000000E+00 -0.20034035450E+03  0.40214016307E+04  0.40164081986E+04 0.  0.
        3    1    3    3  502    0  0.10526569435E+04  0.83943763182E+03  0.13916962261E+04  0.19363782106E+04  0.10100000352E+00 0.  1.
       -3    1    3    3    0  502 -0.10526569435E+04 -0.83943763182E+03 -0.15920365806E+04  0.20850234202E+04  0.10100000352E+00 0. -1.
</event>
<event>
 5   0  0.5284458E-07  0.3127838E+04  0.7818609E-02  0.8208139E-01
        1   -1    0    0  501    0  0.00000000000E+00  0.00000000000E+00  0.17868659494E+04  0.17868659494E+04  0.50400001928E-02 0.  1.
       -1   -1    0    0    0  501  0.00000000000E+00  0.00000000000E+00 -0.13687891786E+04  0.13687891786E+04  0.50400001928E-02 0. -1.
    10030    2    1    2    0    0  0.00000000000E+00  0.00000000000E+00  0.41807677084E+03  0.31556551280E+04  0.31278380873E+04 0.  0.
        5    1    3    3  502    0  0.67010953996E+03 -0.70669698229E+03  0.14435847577E+04  0.17413863624E+04  0.46999998093E+01 0.  1.
       -5    1    3    3    0  502 -0.67010953996E+03  0.70669698229E+03 -0.10255079869E+04  0.14142687656E+04  0.46999998093E+01 0. -1.
</event>
<event>
 5   0  0.5284458E-07  0.3326885E+04  0.7818609E-02  0.8156088E-01
       -1   -1    0    0    0  501  0.00000000000E+00  0.00000000000E+00  0.16982539420E+04  0.16982539420E+04  0.50400001928E-02 0.  1.
        1   -1    0    0  501    0  0.00000000000E+00  0.00000000000E+00 -0.16293451135E+04  0.16293451135E+04  0.50400001928E-02 0. -1.
    10030    2    1    2    0    0  0.00000000000E+00  0.00000000000E+00  0.68908828492E+02  0.33275990555E+04  0.33268854876E+04 0.  0.
        5    1    3    3  502    0 -0.89396645486E+03 -0.85073831778E+02 -0.13660623565E+04  0.16347972446E+04  0.46999998093E+01 0. -1.
       -5    1    3    3    0  502  0.89396645486E+03  0.85073831778E+02  0.14349711850E+04  0.16928018109E+04  0.46999998093E+01 0.  1.
</event>
<event>
 5   0  0.5284458E-07  0.3711799E+04  0.7818609E-02  0.8065352E-01
       -1   -1    0    0    0  501  0.00000000000E+00  0.00000000000E+00  0.15515186313E+04  0.15515186313E+04  0.50400001928E-02 0. -1.
        1   -1    0    0  501    0  0.00000000000E+00  0.00000000000E+00 -0.22199950195E+04  0.22199950195E+04  0.50400001928E-02 0.  1.
    10030    2    1    2    0    0  0.00000000000E+00  0.00000000000E+00 -0.66847638818E+03  0.37715136509E+04  0.37117993665E+04 0.  0.
        5    1    3    3  502    0  0.88464415328E+03 -0.13777057194E+04 -0.12221809540E+04  0.20431389335E+04  0.46999998093E+01 0.  1.
       -5    1    3    3    0  502 -0.88464415328E+03  0.13777057194E+04  0.55370456586E+03  0.17283747173E+04  0.46999998093E+01 0. -1.
</event>
<event>
 5   0  0.4255250E-07  0.2509334E+04  0.7818609E-02  0.8399668E-01
       -4   -1    0    0    0  501  0.00000000000E+00  0.00000000000E+00  0.85943094542E+03  0.85943188377E+03  0.12699999809E+01 0. -1.
        4   -1    0    0  501    0  0.00000000000E+00  0.00000000000E+00 -0.18316624192E+04  0.18316628595E+04  0.12699999809E+01 0.  1.
    10030    2    1    2    0    0  0.00000000000E+00  0.00000000000E+00 -0.97223147380E+03  0.26910947433E+04  0.25093339512E+04 0.  0.
        2    1    3    3  502    0  0.91681150507E+03  0.77495493625E+02  0.42869005803E+03  0.10150487935E+04  0.25500000920E-02 0. -1.
       -2    1    3    3    0  502 -0.91681150507E+03 -0.77495493625E+02 -0.14009215318E+04  0.16760459498E+04  0.25500000920E-02 0.  1.
</event>
<event>
 5   0  0.1079205E-06  0.2019598E+04  0.7818609E-02  0.8597513E-01
       -1   -1    0    0    0  501  0.00000000000E+00  0.00000000000E+00  0.88110635276E+03  0.88110635278E+03  0.50400001928E-02 0. -1.
        1   -1    0    0  501    0  0.00000000000E+00  0.00000000000E+00 -0.11572879015E+04  0.11572879015E+04  0.50400001928E-02 0.  1.
    10030    2    1    2    0    0  0.00000000000E+00  0.00000000000E+00 -0.27618154871E+03  0.20383942543E+04  0.20195977045E+04 0.  0.
        4    1    3    3  502    0 -0.33710010877E+02 -0.67276180071E+03  0.62120558179E+03  0.91632024591E+03  0.12699999809E+01 0. -1.
       -4    1    3    3    0  502  0.33710010877E+02  0.67276180071E+03 -0.89738713050E+03  0.11220740083E+04  0.12699999809E+01 0.  1.
</event>
<event>
 5   0  0.1079205E-06  0.2175985E+04  0.7818609E-02  0.8528491E-01
        1   -1    0    0  501    0  0.00000000000E+00  0.00000000000E+00  0.13315507908E+04  0.13315507908E+04  0.50400001928E-02 0. -1.
       -1   -1    0    0    0  501  0.00000000000E+00  0.00000000000E+00 -0.88898414091E+03  0.88898414093E+03  0.50400001928E-02 0.  1.
    10030    2    1    2    0    0  0.00000000000E+00  0.00000000000E+00  0.44256664992E+03  0.22205349318E+04  0.21759848675E+04 0.  0.
        4    1    3    3  502    0 -0.44254584880E+03 -0.94406512161E+03  0.53848507296E+03  0.11734877796E+04  0.12699999809E+01 0. -1.
       -4    1    3    3    0  502  0.44254584880E+03  0.94406512161E+03 -0.95918423040E+02  0.10470471522E+04  0.12699999809E+01 0.  1.
</event>
<event>
 5   0  0.1337854E-06  0.2735857E+04  0.7818609E-02  0.8323464E-01
       -2   -1    0    0    0  501  0.00000000000E+00  0.00000000000E+00  0.83176568591E+03  0.83176568592E+03  0.25500000920E-02 0.  1.
        2   -1    0    0  501    0  0.00000000000E+00  0.00000000000E+00 -0.22497058988E+04  0.22497058988E+04  0.25500000920E-02 0. -1.
    10030    2    1    2    0    0  0.00000000000E+00  0.00000000000E+00 -0.14179402129E+04  0.30814715847E+04  0.27358568457E+04 0.  0.
        3    1    3    3  502    0 -0.54935846462E+02  0.11502966266E+04  0.12255268770E+03  0.11581102917E+04  0.10100000352E+00 0.  1.
       -3    1    3    3    0  502  0.54935846462E+02 -0.11502966266E+04 -0.15404929006E+04  0.19233612930E+04  0.10100000352E+00 0. -1.
</event>
<event>
 5   0  0.1214844E-06  0.3676987E+04  0.7818609E-02  0.8073081E-01
        2   -1    0    0  501    0  0.00000000000E+00  0.00000000000E+00  0.20731010876E+04  0.20731010876E+04  0.25500000920E-02 0. -1.
       -2   -1    0    0    0  501  0.00000000000E+00  0.00000000000E+00 -0.16304358307E+04  0.16304358307E+04  0.25500000920E-02 0.  1.
    10030    2    1    2    0    0  0.00000000000E+00  0.00000000000E+00  0.44266525692E+03  0.37035369183E+04  0.36769869697E+04 0.  0.
        4    1    3    3  502    0  0.17330480695E+04  0.61296565973E+03  0.19155278205E+03  0.18482090229E+04  0.12699999809E+01 0.  1.
       -4    1    3    3    0  502 -0.17330480695E+04 -0.61296565973E+03  0.25111247487E+03  0.18553278953E+04  0.12699999809E+01 0. -1.
</event>
<event>
 5   0  0.1214844E-06  0.1898846E+04  0.7818609E-02  0.8655431E-01
        2   -1    0    0  501    0  0.00000000000E+00  0.00000000000E+00  0.13129567689E+04  0.13129567689E+04  0.25500000920E-02 0. -1.
       -2   -1    0    0    0  501  0.00000000000E+00  0.00000000000E+00 -0.68654526322E+03  0.68654526322E+03  0.25500000920E-02 0.  1.
    10030    2    1    2    0    0  0.00000000000E+00  0.00000000000E+00  0.62641150569E+03  0.19995020321E+04  0.18988462292E+04 0.  0.
        4    1    3    3  502    0 -0.77624542645E+03 -0.22306216898E+03  0.83874999142E+03  0.11643954888E+04  0.12699999809E+01 0. -1.
       -4    1    3    3    0  502  0.77624542645E+03  0.22306216898E+03 -0.21233848573E+03  0.83510654334E+03  0.12699999809E+01 0.  1.
</event>
<event>
 5   0  0.5284458E-07  0.3797322E+04  0.7818609E-02  0.8046730E-01
        1   -1    0    0  501    0  0.00000000000E+00  0.00000000000E+00  0.21811715890E+04  0.21811715890E+04  0.50400001928E-02 0.  1.
       -1   -1    0    0    0  501  0.00000000000E+00  0.00000000000E+00 -0.16527419227E+04  0.16527419227E+04  0.50400001928E-02 0. -1.
    10030    2    1    2    0    0  0.00000000000E+00  0.00000000000E+00  0.52842966633E+03  0.38339135117E+04  0.37973220700E+04 0.  0.
        5    1    3    3  502    0  0.17771258120E+04 -0.17762150837E+03 -0.38632787284E+03  0.18272922227E+04  0.46999998093E+01 0. -1.
       -5    1    3    3    0  502 -0.17771258120E+04  0.17762150837E+03  0.91475753917E+03  0.20066212890E+04  0.46999998093E+01 0.  1.
</event>
<event>
 5   0  0.1214844E-06  0.2061905E+04  0.7818609E-02  0.8578213E-01
        2   -1    0    0  501    0  0.00000000000E+00  0.00000000000E+00  0.61628801303E+03  0.61628801304E+03  0.25500000920E-02 0.  1.
       -2   -1    0    0    0  501  0.00000000000E+00  0.00000000000E+00 -0.17246205150E+04  0.17246205150E+04  0.25500000920E-02 0. -1.
    10030    2    1    2    0    0  0.00000000000E+00  0.00000000000E+00 -0.11083325019E+04  0.23409085280E+04  0.20619048964E+04 0.  0.
        4    1    3    3  502    0 -0.22758508589E+03 -0.47240978642E+03  0.45357743384E+03  0.69332537745E+03  0.12699999809E+01 0.  1.
       -4    1    3    3    0  502  0.22758508589E+03  0.47240978642E+03 -0.15619099358E+04  0.16475831505E+04  0.12699999809E+01 0. -1.
</event>
<event>
 5   0  0.1184616E-06  0.3321093E+04  0.7818609E-02  0.8157549E-01
       -2   -1    0    0    0  501  0.00000000000E+00  0.00000000000E+00  0.11397285351E+04  0.11397285351E+04  0.25500000920E-02 0. -1.
        2   -1    0    0  501    0  0.00000000000E+00  0.00000000000E+00 -0.24193613726E+04  0.24193613726E+04  0.25500000920E-02 0.  1.
    10030    2    1    2    0    0  0.00000000000E+00  0.00000000000E+00 -0.12796328374E+04  0.35590899077E+04  0.33210933098E+04 0.  0.
        5    1    3    3  502    0 -0.73631469718E+03  0.12861772027E+04  0.16284489966E+03  0.14909566330E+04  0.46999998093E+01 0. -1.
       -5    1    3    3    0  502  0.73631469718E+03 -0.12861772027E+04 -0.14424777371E+04  0.20681332747E+04  0.46999998093E+01 0.  1.
</event>
<event>
 5   0  0.6120514E-07  0.2169581E+04  0.7818609E-02  0.8531197E-01
       -1   -1    0    0    0  501  0.00000000000E+00  0.00000000000E+00  0.97628367184E+03  0.97628367186E+03  0.50400001928E-02 0.  1.
        1   -1    0    0  501    0  0.00000000000E+00  0.00000000000E+00 -0.12053568925E+04  0.12053568925E+04  0.50400001928E-02 0. -1.
    10030    2    1    2    0    0  0.00000000000E+00  0.00000000000E+00 -0.22907322065E+03  0.21816405644E+04  0.21695808378E+04 0.  0.
        5    1    3    3  502    0  0.29184160295E+03 -0.70425527214E+02  0.93366684901E+03  0.98075845703E+03  0.46999998093E+01 0.  1.
       -5    1    3    3    0  502 -0.29184160295E+03  0.70425527214E+02 -0.11627400697E+04  0.12008821073E+04  0.46999998093E+01 0. -1.
</event>
<event>
 5   0  0.1341932E-06  0.3887895E+04  0.7818609E-02  0.8027552E-01
       -2   -1    0    0    0  501  0.00000000000E+00  0.00000000000E+00  0.31446002850E+04  0.31446002850E+04  0.25500000920E-02 0. -1.
        2   -1    0    0  501    0  0.00000000000E+00  0.00000000000E+00 -0.12017207971E+04  0.12017207971E+04  0.25500000920E-02 0.  1.
    10030    2    1    2    0    0  0.00000000000E+00  0.00000000000E+00  0.19428794880E+04  0.43463210821E+04  0.38878948345E+04 0.  0.
        2    1    3    3  502    0  0.33205398447E+03  0.11329796627E+04  0.26978901644E+04  0.29449132591E+04  0.25500000920E-02 0. -1.
       -2    1    3    3    0  502 -0.33205398447E+03 -0.11329796627E+04 -0.75501067642E+03  0.14014078230E+04  0.25500000920E-02 0.  1.
</event>
<event>
 5   0  0.1184616E-06  0.3608372E+04  0.7818609E-02  0.8088577E-01
        2   -1    0    0  501    0  0.00000000000E+00  0.00000000000E+00  0.20212326482E+04  0.20212326482E+04  0.25500000920E-02 0. -1.
       -2   -1    0    0    0  501  0.00000000000E+00  0.00000000000E+00 -0.16104461642E+04  0.16104461642E+04  0.25500000920E-02 0.  1.
    10030    2    1    2    0    0  0.00000000000E+00  0.00000000000E+00  0.41078648392E+03  0.36316788124E+04  0.36083715802E+04 0.  0.
        5    1    3    3  502    0  0.73574274929E+03 -0.12214194549E+04 -0.90713413057E+03  0.16899992008E+04  0.46999998093E+01 0.  1.
       -5    1    3    3    0  502 -0.73574274929E+03  0.12214194549E+04  0.13179206145E+04  0.19416796116E+04  0.46999998093E+01 0. -1.
</event>
<event>
 5   0  0.1372748E-06  0.3634009E+04  0.7818609E-02  0.8082746E-01
       -2   -1    0    0    0  501  0.00000000000E+00  0.00000000000E+00  0.20370067034E+04  0.20370067034E+04  0.25500000920E-02 0.  1.
        2   -1    0    0  501    0  0.00000000000E+00  0.00000000000E+00 -0.16207634006E+04  0.16207634006E+04  0.25500000920E-02 0. -1.
    10030    2    1    2    0    0  0.00000000000E+00  0.00000000000E+00  0.41624330287E+03  0.36577701040E+04  0.36340093074E+04 0.  0.
        1    1    3    3  502    0 -0.10066079838E+04 -0.65159430417E+03  0.15822111192E+04  0.19852523256E+04  0.50400001928E-02 0.  1.
       -1    1    3    3    0  502  0.10066079838E+04  0.65159430417E+03 -0.11659678164E+04  0.16725177784E+04  0.50400001928E-02 0. -1.
</event>
<event>
 5   0  0.1214844E-06  0.2408730E+04  0.7818609E-02  0.8436243E-01
        2   -1    0    0  501    0  0.00000000000E+00  0.00000000000E+00  0.22244324606E+04  0.22244324606E+04  0.25500000920E-02 0.  1.
       -2   -1    0    0    0  501  0.00000000000E+00  0.00000000000E+00 -0.65207400824E+03  0.65207400825E+03  0.25500000920E-02 0. -1.
    10030    2    1    2    0    0  0.00000000000E+00  0.00000000000E+00  0.15723584524E+04  0.28765064689E+04  0.24087296159E+04 0.  0.
        4    1    3    3  502    0 -0.64225426902E+03 -0.47363942128E+03  0.18633906627E+04  0.20270794810E+04  0.12699999809E+01 0.  1.
       -4    1    3    3    0  502  0.64225426902E+03  0.47363942128E+03 -0.29103221029E+03  0.84942698791E+03  0.12699999809E+01 0. -1.
</event>
<event>
 5   0  0.1184616E-06  0.3495452E+04  0.7818609E-02  0.8114869E-01
        2   -1    0    0  501    0  0.00000000000E+00  0.00000000000E+00  0.14912289661E+04  0.14912289661E+04  0.25500000920E-02 0. -1.
       -2   -1    0    0    0  501  0.00000000000E+00  0.00000000000E+00 -0.20483416312E+04  0.20483416312E+04  0.25500000920E-02 0.  1.
    10030    2    1    2    0    0  0.00000000000E+00  0.00000000000E+00 -0.55711266505E+03  0.35395705973E+04  0.34954521155E+04 0.  0.
        5    1    3    3  502    0 -0.13328063579E+04  0.40140368009E+03 -0.13487909037E+04  0.19382354589E+04  0.46999998093E+01 0.  1.
       -5    1    3    3    0  502  0.13328063579E+04 -0.40140368009E+03  0.79167823862E+03  0.16013351384E+04  0.46999998093E+01 0. -1.
</event>
<event>
 5   0  0.1337854E-06  0.2886770E+04  0.7818609E-02  0.8276825E-01
        2   -1    0    0  501    0  0.00000000000E+00  0.00000000000E+00  0.15365655697E+04  0.15365655697E+04  0.25500000920E-02 0.  1.
       -2   -1    0    0    0  501  0.00000000000E+00  0.00000000000E+00 -0.13558553285E+04  0.13558553285E+04  0.25500000920E-02 0. -1.
    10030    2    1    2    0    0  0.00000000000E+00  0.00000000000E+00  0.18071024111E+03  0.28924208982E+04  0.28867702474E+04 0.  0.
        3    1    3    3  502    0  0.78403685082E+03 -0.73437789261E+03  0.10562628353E+04  0.15065576192E+04  0.10100000352E+00 0.  1.
       -3    1    3    3    0  502 -0.78403685082E+03  0.73437789261E+03 -0.87555259420E+03  0.13858632790E+04  0.10100000352E+00 0. -1.
</event>
<event>
 5   0  0.1079205E-06  0.2349241E+04  0.7818609E-02  0.8458755E-01
        1   -1    0    0  501    0  0.00000000000E+00  0.00000000000E+00  0.12441496529E+04  0.12441496529E+04  0.50400001928E-02 0.  1.
       -1   -1    0    0    0  501  0.00000000000E+00  0.00000000000E+00 -0.11089767600E+04  0.11089767600E+04  0.50400001928E-02 0. -1.
    10030    2    1    2    0    0  0.00000000000E+00  0.00000000000E+00  0.13517289290E+03  0.23531264130E+04  0.23492407719E+04 0.  0.
        4    1    3    3  502    0 -0.62527716735E+03  0.39505437802E+03  0.98161530885E+03  0.12290686413E+04  0.12699999809E+01 0.  1.
       -4    1    3    3    0  502  0.62527716735E+03 -0.39505437802E+03 -0.84644241595E+03  0.11240577717E+04  0.12699999809E+01 0. -1.
</event>
<event>
 5   0  0.1184616E-06  0.3239646E+04  0.7818609E-02  0.8178425E-01
       -2   -1    0    0    0  501  0.00000000000E+00  0.00000000000E+00  0.15688985034E+04  0.15688985034E+04  0.25500000920E-02 0.  1.
        2   -1    0    0  501    0  0.00000000000E+00  0.00000000000E+00 -0.16724004701E+04  0.16724004701E+04  0.25500000920E-02 0. -1.
    10030    2    1    2    0    0  0.00000000000E+00  0.00000000000E+00 -0.10350196663E+03  0.32412989735E+04  0.32396460268E+04 0.  0.
        5    1    3    3  502    0 -0.82778978670E+02 -0.57322314992E+03  0.14617559125E+04  0.15723198074E+04  0.46999998093E+01 0.  1.
       -5    1    3    3    0  502  0.82778978670E+02  0.57322314992E+03 -0.15652578791E+04  0.16689791662E+04  0.46999998093E+01 0. -1.
</event>
<event>
 5   0  0.4795023E-07  0.3864537E+04  0.7818609E-02  0.8032446E-01
       -1   -1    0    0    0  501  0.00000000000E+00  0.00000000000E+00  0.14611170682E+04  0.14611170682E+04  0.50400001928E-02 0. -1.
        1   -1    0    0  501    0  0.00000000000E+00  0.00000000000E+00 -0.25553472720E+04  0.25553472720E+04  0.50400001928E-02 0.  1.
    10030    2    1    2    0    0  0.00000000000E+00  0.00000000000E+00 -0.10942302038E+04  0.40164643402E+04  0.38645369784E+04 0.  0.
        3    1    3    3  502    0 -0.12004343194E+04  0.13757828325E+04 -0.12043034647E+04  0.21872740575E+04  0.10100000352E+00 0.  1.
       -3    1    3    3    0  502  0.12004343194E+04 -0.13757828325E+04  0.11007326094E+03  0.18291902827E+04  0.10100000352E+00 0. -1.
</event>
<event>
 5   0  0.1337854E-06  0.3812157E+04  0.7818609E-02  0.8043551E-01
       -2   -1    0    0    0  501  0.00000000000E+00  0.00000000000E+00  0.15733690984E+04  0.15733690984E+04  0.25500000920E-02 0. -1.
        2   -1    0    0  501    0  0.00000000000E+00  0.00000000000E+00 -0.23091431585E+04  0.23091431585E+04  0.25500000920E-02 0.  1.
    10030    2    1    2    0    0  0.00000000000E+00  0.00000000000E+00 -0.73577406011E+03  0.38825122569E+04  0.38121566019E+04 0.  0.
        3    1    3    3  502    0  0.16510172079E+04 -0.12342585563E+03 -0.13297981122E+04  0.21235476901E+04  0.10100000352E+00 0.  1.
       -3    1    3    3    0  502 -0.16510172079E+04  0.12342585563E+03  0.59402405211E+03  0.17589645668E+04  0.10100000352E+00 0. -1.
</event>
<event>
 5   0  0.1184616E-06  0.3808419E+04  0.7818609E-02  0.8044351E-01
        2   -1    0    0  501    0  0.00000000000E+00  0.00000000000E+00  0.28141218394E+04  0.28141218394E+04  0.25500000920E-02 0.  1.
       -2   -1    0    0    0  501  0.00000000000E+00  0.00000000000E+00 -0.12885060019E+04  0.12885060019E+04  0.25500000920E-02 0. -1.
    10030    2    1    2    0    0  0.00000000000E+00  0.00000000000E+00  0.15256158375E+04  0.41026278412E+04  0.38084185064E+04 0.  0.
        5    1    3    3  502    0  0.23963978014E+03 -0.83542151483E+03 -0.10623750301E+04  0.13725957622E+04  0.46999998093E+01 0. -1.
       -5    1    3    3    0  502 -0.23963978014E+03  0.83542151483E+03  0.25879908677E+04  0.27300320791E+04  0.46999998093E+01 0.  1.
</event>
<event>
 5   0  0.8030324E-07  0.1946187E+04  0.7818609E-02  0.8632202E-01
       -1   -1    0    0    0  501  0.00000000000E+00  0.00000000000E+00  0.35855567336E+03  0.35855567340E+03  0.50400001928E-02 0.  1.
        1   -1    0    0  501    0  0.00000000000E+00  0.00000000000E+00 -0.26409031398E+04  0.26409031398E+04  0.50400001928E-02 0. -1.
    10030    2    1    2    0    0  0.00000000000E+00  0.00000000000E+00 -0.22823474665E+04  0.29994588132E+04  0.19461868396E+04 0.  0.
        1    1    3    3  502    0 -0.34183683784E+03  0.67408159321E+03 -0.19654096269E+03  0.78093966992E+03  0.50400001928E-02 0.  1.
       -1    1    3    3    0  502  0.34183683784E+03 -0.67408159321E+03 -0.20858065038E+04  0.22185191433E+04  0.50400001928E-02 0. -1.
</event>
<event>
 5   0  0.1214844E-06  0.3046005E+04  0.7818609E-02  0.8230715E-01
       -2   -1    0    0    0  501  0.00000000000E+00  0.00000000000E+00  0.16617642554E+04  0.16617642554E+04  0.25500000920E-02 0. -1.
        2   -1    0    0  501    0  0.00000000000E+00  0.00000000000E+00 -0.13958278103E+04  0.13958278103E+04  0.25500000920E-02 0.  1.
    10030    2    1    2    0    0  0.00000000000E+00  0.00000000000E+00  0.26593644513E+03  0.30575920658E+04  0.30460050965E+04 0.  0.
        4    1    3    3  502    0  0.30875489444E+03 -0.14816156941E+04  0.30397028804E+03  0.15436690704E+04  0.12699999809E+01 0. -1.
       -4    1    3    3    0  502 -0.30875489444E+03  0.14816156941E+04 -0.38033842910E+02  0.15139229954E+04  0.12699999809E+01 0.  1.
</event>
<event>
 5   0  0.1341932E-06  0.3824871E+04  0.7818609E-02  0.8040839E-01
        2   -1    0    0  501    0  0.00000000000E+00  0.00000000000E+00  0.16124078526E+04  0.16124078526E+04  0.25500000920E-02 0. -1.
       -2   -1    0    0    0  501  0.00000000000E+00  0.00000000000E+00 -0.22682903110E+04  0.22682903110E+04  0.25500000920E-02 0.  1.
    10030    2    1    2    0    0  0.00000000000E+00  0.00000000000E+00 -0.65588245845E+03  0.38806981636E+04  0.38248707740E+04 0.  0.
        2    1    3    3  502    0  0.11990154996E+04 -0.49107182529E+03  0.10992239144E+04  0.16991418187E+04  0.25500000920E-02 0. -1.
       -2    1    3    3    0  502 -0.11990154996E+04  0.49107182529E+03 -0.17551063729E+04  0.21815563449E+04  0.25500000920E-02 0.  1.
</event>
<event>
 5   0  0.4795023E-07  0.4055109E+04  0.7818609E-02  0.7993521E-01
       -1   -1    0    0    0  501  0.00000000000E+00  0.00000000000E+00  0.21474590921E+04  0.21474590921E+04  0.50400001928E-02 0. -1.
        1   -1    0    0  501    0  0.00000000000E+00  0.00000000000E+00 -0.19143451960E+04  0.19143451960E+04  0.50400001928E-02 0.  1.
    10030    2    1    2    0    0  0.00000000000E+00  0.00000000000E+00  0.23311389608E+03  0.40618042881E+04  0.40551093679E+04 0.  0.
        3    1    3    3  502    0  0.10576928095E+03  0.14497325548E+04  0.15324204167E+04  0.21121609704E+04  0.10100000352E+00 0. -1.
       -3    1    3    3    0  502 -0.10576928095E+03 -0.14497325548E+04 -0.12993065207E+04  0.19496433176E+04  0.10100000352E+00 0.  1.
</event>
<event>
 5   0  0.1184616E-06  0.2436252E+04  0.7818609E-02  0.8426055E-01
        2   -1    0    0  501    0  0.00000000000E+00  0.00000000000E+00  0.88044564784E+03  0.88044564784E+03  0.25500000920E-02 0. -1.
       -2   -1    0    0    0  501  0.00000000000E+00  0.00000000000E+00 -0.16853183530E+04  0.16853183530E+04  0.25500000920E-02 0.  1.
    10030    2    1    2    0    0  0.00000000000E+00  0.00000000000E+00 -0.80487270514E+03  0.25657640008E+04  0.24362522112E+04 0.  0.
        5    1    3    3  502    0  0.11922573655E+04  0.87746308515E+02 -0.15627587602E+03  0.12056621748E+04  0.46999998093E+01 0. -1.
       -5    1    3    3    0  502 -0.11922573655E+04 -0.87746308515E+02 -0.64859682912E+03  0.13601018260E+04  0.46999998093E+01 0.  1.
</event>
<event>
 5   0  0.5284458E-07  0.1966934E+04  0.7818609E-02  0.8622238E-01
       -1   -1    0    0    0  501  0.00000000000E+00  0.00000000000E+00  0.50146740067E+03  0.50146740069E+03  0.50400001928E-02 0.  1.
        1   -1    0    0  501    0  0.00000000000E+00  0.00000000000E+00 -0.19287550305E+04  0.19287550305E+04  0.50400001928E-02 0. -1.
    10030    2    1    2    0    0  0.00000000000E+00  0.00000000000E+00 -0.14272876299E+04  0.24302224312E+04  0.19669344389E+04 0.  0.
        5    1    3    3  502    0  0.91981127700E+02 -0.86513733955E+03 -0.14709531833E+03  0.88237308822E+03  0.46999998093E+01 0.  1.
       -5    1    3    3    0  502 -0.91981127700E+02  0.86513733955E+03 -0.12801923115E+04  0.15478493430E+04  0.46999998093E+01 0. -1.
</event>
<event>
 5   0  0.1214844E-06  0.1990703E+04  0.7818609E-02  0.8610980E-01
        2   -1    0    0  501    0  0.00000000000E+00  0.00000000000E+00  0.14425651762E+04  0.14425651762E+04  0.25500000920E-02 0. -1.
       -2   -1    0    0    0  501  0.00000000000E+00  0.00000000000E+00 -0.68677953552E+03  0.68677953552E+03  0.25500000920E-02 0.  1.
    10030    2    1    2    0    0  0.00000000000E+00  0.00000000000E+00  0.75578564064E+03  0.21293447117E+04  0.19907026314E+04 0.  0.
        4    1    3    3  502    0  0.78751968228E+03  0.48238176193E+03  0.77502243928E+03  0.12056288021E+04  0.12699999809E+01 0. -1.
       -4    1    3    3    0  502 -0.78751968228E+03 -0.48238176193E+03 -0.19236798648E+02  0.92371590955E+03  0.12699999809E+01 0.  1.
</event>
<event>
 5   0  0.1184616E-06  0.1947005E+04  0.7818609E-02  0.8631806E-01
        2   -1    0    0  501    0  0.00000000000E+00  0.00000000000E+00  0.14165178254E+04  0.14165178254E+04  0.25500000920E-02 0.  1.
       -2   -1    0    0    0  501  0.00000000000E+00  0.00000000000E+00 -0.66903998843E+03  0.66903998844E+03  0.25500000920E-02 0. -1.
    10030    2    1    2    0    0  0.00000000000E+00  0.00000000000E+00  0.74747783697E+03  0.20855578138E+04  0.19470049507E+04 0.  0.
        5    1    3    3  502    0 -0.79756169211E+02 -0.22591041616E+03 -0.63695706342E+03  0.68053872285E+03  0.46999998093E+01 0. -1.
       -5    1    3    3    0  502  0.79756169211E+02  0.22591041616E+03  0.13844349004E+04  0.14050190910E+04  0.46999998093E+01 0.  1.
</event>
<event>
 5   0  0.4795023E-07  0.3762402E+04  0.7818609E-02  0.8054272E-01
       -1   -1    0    0    0  501  0.00000000000E+00  0.00000000000E+00  0.18805186125E+04  0.18805186125E+04  0.50400001928E-02 0. -1.
        1   -1    0    0  501    0  0.00000000000E+00  0.00000000000E+00 -0.18818835612E+04  0.18818835612E+04  0.50400001928E-02 0.  1.
    10030    2    1    2    0    0  0.00000000000E+00  0.00000000000E+00 -0.13649486574E+01  0.37624021737E+04  0.37624019261E+04 0.  0.
        3    1    3    3  502    0  0.19004335531E+02 -0.74886577450E+03 -0.17263001412E+04  0.18818271176E+04  0.10100000352E+00 0.  1.
       -3    1    3    3    0  502 -0.19004335531E+02  0.74886577450E+03  0.17249351925E+04  0.18805750561E+04  0.10100000352E+00 0. -1.
</event>
<event>
 5   0  0.4795023E-07  0.2123915E+04  0.7818609E-02  0.8550781E-01
       -1   -1    0    0    0  501  0.00000000000E+00  0.00000000000E+00  0.89498670228E+03  0.89498670229E+03  0.50400001928E-02 0. -1.
        1   -1    0    0  501    0  0.00000000000E+00  0.00000000000E+00 -0.12600788085E+04  0.12600788085E+04  0.50400001928E-02 0.  1.
    10030    2    1    2    0    0  0.00000000000E+00  0.00000000000E+00 -0.36509210619E+03  0.21550655108E+04  0.21239150430E+04 0.  0.
        3    1    3    3  502    0 -0.23443527772E+03  0.35910948726E+03 -0.11683060744E+04  0.12445314849E+04  0.10100000352E+00 0.  1.
       -3    1    3    3    0  502  0.23443527772E+03 -0.35910948726E+03  0.80321396821E+03  0.91053402584E+03  0.10100000352E+00 0. -1.
</event>
<event>
 5   0  0.9036061E-07  0.2032829E+04  0.7818609E-02  0.8591424E-01
        1   -1    0    0  501    0  0.00000000000E+00  0.00000000000E+00  0.11106275195E+04  0.11106275196E+04  0.50400001928E-02 0.  1.
       -1   -1    0    0    0  501  0.00000000000E+00  0.00000000000E+00 -0.93019336595E+03  0.93019336596E+03  0.50400001928E-02 0. -1.
    10030    2    1    2    0    0  0.00000000000E+00  0.00000000000E+00  0.18043415359E+03  0.20408208855E+04  0.20328289163E+04 0.  0.
        5    1    3    3  502    0  0.15755950998E+03  0.32380251397E+02 -0.91732343713E+03  0.93133122903E+03  0.46999998093E+01 0. -1.
       -5    1    3    3    0  502 -0.15755950998E+03 -0.32380251397E+02  0.10977575907E+04  0.11094896565E+04  0.46999998093E+01 0.  1.
</event>
<event>
 5   0  0.1214844E-06  0.2594872E+04  0.7818609E-02  0.8369945E-01
       -2   -1    0    0    0  501  0.00000000000E+00  0.00000000000E+00  0.16377709169E+04  0.16377709169E+04  0.25500000920E-02 0. -1.
        2   -1    0    0  501    0  0.00000000000E+00  0.00000000000E+00 -0.10278243228E+04  0.10278243228E+04  0.25500000920E-02 0.  1.
    10030    2    1    2    0    0  0.00000000000E+00  0.00000000000E+00  0.60994659411E+03  0.26655952397E+04  0.25948724698E+04 0.  0.
        4    1    3    3  502    0  0.12489589579E+04 -0.44697649101E+02  0.66295769039E+03  0.14147122925E+04  0.12699999809E+01 0. -1.
       -4    1    3    3    0  502 -0.12489589579E+04  0.44697649101E+02 -0.53011096274E+02  0.12508829472E+04  0.12699999809E+01 0.  1.
</event>
<event>
 5   0  0.1372748E-06  0.2391048E+04  0.7818609E-02  0.8442863E-01
       -2   -1    0    0    0  501  0.00000000000E+00  0.00000000000E+00  0.88360635469E+03  0.88360635469E+03  0.25500000920E-02 0. -1.
        2   -1    0    0  501    0  0.00000000000E+00  0.00000000000E+00 -0.16175496227E+04  0.16175496227E+04  0.25500000920E-02 0.  1.
    10030    2    1    2    0    0  0.00000000000E+00  0.00000000000E+00 -0.73394326800E+03  0.25011559774E+04  0.23910475743E+04 0.  0.
        1    1    3    3  502    0 -0.38147435652E+03  0.85846886138E+03 -0.11404730533E+04  0.14775555001E+04  0.50400001928E-02 0. -1.
       -1    1    3    3    0  502  0.38147435652E+03 -0.85846886138E+03  0.40652978530E+03  0.10236004772E+04  0.50400001928E-02 0.  1.
</event>
<event>
 5   0  0.1184616E-06  0.3237198E+04  0.7818609E-02  0.8179062E-01
       -2   -1    0    0    0  501  0.00000000000E+00  0.00000000000E+00  0.24037545244E+04  0.24037545244E+04  0.25500000920E-02 0. -1.
        2   -1    0    0  501    0  0.00000000000E+00  0.00000000000E+00 -0.10899043748E+04  0.10899043748E+04  0.25500000920E-02 0.  1.
    10030    2    1    2    0    0  0.00000000000E+00  0.00000000000E+00  0.13138501496E+04  0.34936588992E+04  0.32371979069E+04 0.  0.
        5    1    3    3  502    0  0.12289321399E+04 -0.72697334025E+03  0.14795990028E+04  0.20562100430E+04  0.46999998093E+01 0. -1.
       -5    1    3    3    0  502 -0.12289321399E+04  0.72697334025E+03 -0.16574885319E+03  0.14374488562E+04  0.46999998093E+01 0.  1.
</event>
<event>
 5   0  0.4255250E-07  0.3935569E+04  0.7818609E-02  0.8017672E-01
        1   -1    0    0  501    0  0.00000000000E+00  0.00000000000E+00  0.17566926260E+04  0.17566926260E+04  0.50400001928E-02 0. -1.
       -1   -1    0    0    0  501  0.00000000000E+00  0.00000000000E+00 -0.22042415972E+04  0.22042415972E+04  0.50400001928E-02 0.  1.
    10030    2    1    2    0    0  0.00000000000E+00  0.00000000000E+00 -0.44754897116E+03  0.39609342232E+04  0.39355685534E+04 0.  0.
        2    1    3    3  502    0 -0.32549737659E+03 -0.18792484347E+04  0.26375629043E+03  0.19253806383E+04  0.25500000920E-02 0. -1.
       -2    1    3    3    0  502  0.32549737659E+03  0.18792484347E+04 -0.71130526159E+03  0.20355535849E+04  0.25500000920E-02 0.  1.
</event>
<event>
 5   0  0.1214844E-06  0.2070210E+04  0.7818609E-02  0.8574481E-01
       -2   -1    0    0    0  501  0.00000000000E+00  0.00000000000E+00  0.65644380988E+03  0.65644380988E+03  0.25500000920E-02 0.  1.
        2   -1    0    0  501    0  0.00000000000E+00  0.00000000000E+00 -0.16321922859E+04  0.16321922859E+04  0.25500000920E-02 0. -1.
    10030    2    1    2    0    0  0.00000000000E+00  0.00000000000E+00 -0.97574847607E+03  0.22886360958E+04  0.20702101561E+04 0.  0.
        4    1    3    3  502    0  0.49001803010E+03  0.51602660429E+03  0.34312728905E+03  0.79002473097E+03  0.12699999809E+01 0.  1.
       -4    1    3    3    0  502 -0.49001803010E+03 -0.51602660429E+03 -0.13188757651E+04  0.14986113649E+04  0.12699999809E+01 0. -1.
</event>
<event>
 5   0  0.5284458E-07  0.3606675E+04  0.7818609E-02  0.8088964E-01
       -1   -1    0    0    0  501  0.00000000000E+00  0.00000000000E+00  0.14563442886E+04  0.14563442886E+04  0.50400001928E-02 0.  1.
        1   -1    0    0  501    0  0.00000000000E+00  0.00000000000E+00 -0.22330061606E+04  0.22330061606E+04  0.50400001928E-02 0. -1.
    10030    2    1    2    0    0  0.00000000000E+00  0.00000000000E+00 -0.77666187203E+03  0.36893504492E+04  0.36066747946E+04 0.  0.
        5    1    3    3  502    0 -0.16421077083E+04 -0.18705318370E+03 -0.11263236358E+04  0.20000334102E+04  0.46999998093E+01 0. -1.
       -5    1    3    3    0  502  0.16421077083E+04  0.18705318370E+03  0.34966176376E+03  0.16893170390E+04  0.46999998093E+01 0.  1.
</event>
<event>
 5   0  0.1214844E-06  0.3719972E+04  0.7818609E-02  0.8063550E-01
       -2   -1    0    0    0  501  0.00000000000E+00  0.00000000000E+00  0.19781283455E+04  0.19781283455E+04  0.25500000920E-02 0.  1.
        2   -1    0    0  501    0  0.00000000000E+00  0.00000000000E+00 -0.17488999829E+04  0.17488999829E+04  0.25500000920E-02 0. -1.
    10030    2    1    2    0    0  0.00000000000E+00  0.00000000000E+00  0.22922836267E+03  0.37270283284E+04  0.37199723814E+04 0.  0.
        4    1    3    3  502    0  0.13399558078E+04 -0.11347327729E+04 -0.50010234540E+03  0.18257064390E+04  0.12699999809E+01 0. -1.
       -4    1    3    3    0  502 -0.13399558078E+04  0.11347327729E+04  0.72933070807E+03  0.19013218894E+04  0.12699999809E+01 0.  1.
</event>
<event>
 5   0  0.5284458E-07  0.3820294E+04  0.7818609E-02  0.8041814E-01
        1   -1    0    0  501    0  0.00000000000E+00  0.00000000000E+00  0.20173457975E+04  0.20173457975E+04  0.50400001928E-02 0.  1.
       -1   -1    0    0    0  501  0.00000000000E+00  0.00000000000E+00 -0.18086444711E+04  0.18086444711E+04  0.50400001928E-02 0. -1.
    10030    2    1    2    0    0  0.00000000000E+00  0.00000000000E+00  0.20870132644E+03  0.38259902686E+04  0.38202938751E+04 0.  0.
        5    1    3    3  502    0 -0.40451123663E+03 -0.16366620412E+04  0.10036580174E+04  0.19620508361E+04  0.46999998093E+01 0.  1.
       -5    1    3    3    0  502  0.40451123663E+03  0.16366620412E+04 -0.79495669098E+03  0.18639394325E+04  0.46999998093E+01 0. -1.
</event>
<event>
 5   0  0.5284458E-07  0.3664268E+04  0.7818609E-02  0.8075927E-01
       -1   -1    0    0    0  501  0.00000000000E+00  0.00000000000E+00  0.12018231324E+04  0.12018231324E+04  0.50400001928E-02 0.  1.
        1   -1    0    0  501    0  0.00000000000E+00  0.00000000000E+00 -0.27930184094E+04  0.27930184094E+04  0.50400001928E-02 0. -1.
    10030    2    1    2    0    0  0.00000000000E+00  0.00000000000E+00 -0.15911952770E+04  0.39948415419E+04  0.36642675305E+04 0.  0.
        5    1    3    3  502    0  0.12123426873E+04  0.58832521795E+03  0.55767158791E+03  0.14583967373E+04  0.46999998093E+01 0.  1.
       -5    1    3    3    0  502 -0.12123426873E+04 -0.58832521795E+03 -0.21488668649E+04  0.25364448046E+04  0.46999998093E+01 0. -1.
</event>
<event>
 5   0  0.1214844E-06  0.2521649E+04  0.7818609E-02  0.8395313E-01
        2   -1    0    0  501    0  0.00000000000E+00  0.00000000000E+00  0.20301910912E+04  0.20301910912E+04  0.25500000920E-02 0.  1.
       -2   -1    0    0    0  501  0.00000000000E+00  0.00000000000E+00 -0.78301935891E+03  0.78301935891E+03  0.25500000920E-02 0. -1.
    10030    2    1    2    0    0  0.00000000000E+00  0.00000000000E+00  0.12471717323E+04  0.28132104501E+04  0.25216494020E+04 0.  0.
        4    1    3    3  502    0 -0.60896841293E+03 -0.53486479788E+03  0.17010459222E+04  0.18842721996E+04  0.12699999809E+01 0.  1.
       -4    1    3    3    0  502  0.60896841293E+03  0.53486479788E+03 -0.45387418994E+03  0.92893825045E+03  0.12699999809E+01 0. -1.
</event>
<event>
 5   0  0.1372748E-06  0.4076074E+04  0.7818609E-02  0.7989374E-01
       -2   -1    0    0    0  501  0.00000000000E+00  0.00000000000E+00  0.16126183282E+04  0.16126183282E+04  0.25500000920E-02 0. -1.
        2   -1    0    0  501    0  0.00000000000E+00  0.00000000000E+00 -0.25756832462E+04  0.25756832462E+04  0.25500000920E-02 0.  1.
    10030    2    1    2    0    0  0.00000000000E+00  0.00000000000E+00 -0.96306491796E+03  0.41883015744E+04  0.40760736061E+04 0.  0.
        1    1    3    3  502    0  0.18486182041E+04 -0.33321637391E+03  0.33091548789E+03  0.19073351768E+04  0.50400001928E-02 0. -1.
       -1    1    3    3    0  502 -0.18486182041E+04  0.33321637391E+03 -0.12939804059E+04  0.22809663976E+04  0.50400001928E-02 0.  1.
</event>
<event>
 5   0  0.1214844E-06  0.3853248E+04  0.7818609E-02  0.8034824E-01
       -2   -1    0    0    0  501  0.00000000000E+00  0.00000000000E+00  0.25728157708E+04  0.25728157708E+04  0.25500000920E-02 0.  1.
        2   -1    0    0  501    0  0.00000000000E+00  0.00000000000E+00 -0.14427307584E+04  0.14427307584E+04  0.25500000920E-02 0. -1.
    10030    2    1    2    0    0  0.00000000000E+00  0.00000000000E+00  0.11300850123E+04  0.40155465292E+04  0.38532482133E+04 0.  0.
        4    1    3    3  502    0 -0.54772650141E+03  0.27804999661E+03 -0.13379501914E+04  0.14722188860E+04  0.12699999809E+01 0. -1.
       -4    1    3    3    0  502  0.54772650141E+03 -0.27804999661E+03  0.24680352037E+04  0.25433276432E+04  0.12699999809E+01 0.  1.
</event>
<event>
 5   0  0.1214844E-06  0.2573829E+04  0.7818609E-02  0.8377146E-01
       -2   -1    0    0    0  501  0.00000000000E+00  0.00000000000E+00  0.63336750929E+03  0.63336750929E+03  0.25500000920E-02 0. -1.
        2   -1    0    0  501    0  0.00000000000E+00  0.00000000000E+00 -0.26148305719E+04  0.26148305719E+04  0.25500000920E-02 0.  1.
    10030    2    1    2    0    0  0.00000000000E+00  0.00000000000E+00 -0.19814630626E+04  0.32481980811E+04  0.25738288416E+04 0.  0.
        4    1    3    3  502    0 -0.26653906565E+03 -0.14744953213E+03 -0.25686796207E+04  0.25866776074E+04  0.12699999809E+01 0.  1.
       -4    1    3    3    0  502  0.26653906565E+03  0.14744953213E+03  0.58721655816E+03  0.66152047370E+03  0.12699999809E+01 0. -1.
</event>
<event>
 5   0  0.4795023E-07  0.3675460E+04  0.7818609E-02  0.8073422E-01
       -1   -1    0    0    0  501  0.00000000000E+00  0.00000000000E+00  0.15439798467E+04  0.15439798467E+04  0.50400001928E-02 0. -1.
        1   -1    0    0  501    0  0.00000000000E+00  0.00000000000E+00 -0.21873672164E+04  0.21873672164E+04  0.50400001928E-02 0.  1.
    10030    2    1    2    0    0  0.00000000000E+00  0.00000000000E+00 -0.64338736973E+03  0.37313470631E+04  0.36754596444E+04 0.  0.
        3    1    3    3  502    0 -0.14296493378E+03  0.15818926908E+04 -0.12601014196E+04  0.20274809630E+04  0.10100000352E+00 0.  1.
       -3    1    3    3    0  502  0.14296493378E+03 -0.15818926908E+04  0.61671404992E+03  0.17038661001E+04  0.10100000352E+00 0. -1.
</event>
<event>
 5   0  0.5284458E-07  0.4012218E+04  0.7818609E-02  0.8002086E-01
       -1   -1    0    0    0  501  0.00000000000E+00  0.00000000000E+00  0.21082897700E+04  0.21082897700E+04  0.50400001928E-02 0.  1.
        1   -1    0    0  501    0  0.00000000000E+00  0.00000000000E+00 -0.19088809132E+04  0.19088809132E+04  0.50400001928E-02 0. -1.
    10030    2    1    2    0    0  0.00000000000E+00  0.00000000000E+00  0.19940885675E+03  0.40171706832E+04  0.40122183896E+04 0.  0.
        5    1    3    3  502    0 -0.56733352176E+03  0.18619559928E+04  0.58579782317E+03  0.20327145947E+04  0.46999998093E+01 0.  1.
       -5    1    3    3    0  502  0.56733352176E+03 -0.18619559928E+04 -0.38638896642E+03  0.19844560885E+04  0.46999998093E+01 0. -1.
</event>
<event>
 5   0  0.1341932E-06  0.2430177E+04  0.7818609E-02  0.8428291E-01
        2   -1    0    0  501    0  0.00000000000E+00  0.00000000000E+00  0.13306356998E+04  0.13306356998E+04  0.25500000920E-02 0.  1.
       -2   -1    0    0    0  501  0.00000000000E+00  0.00000000000E+00 -0.11095748929E+04  0.11095748929E+04  0.25500000920E-02 0. -1.
    10030    2    1    2    0    0  0.00000000000E+00  0.00000000000E+00  0.22106080699E+03  0.24402105927E+04  0.24301769187E+04 0.  0.
        2    1    3    3  502    0  0.35078473848E+03  0.57734804061E+03 -0.90361942153E+03  0.11282325787E+04  0.25500000920E-02 0. -1.
       -2    1    3    3    0  502 -0.35078473848E+03 -0.57734804061E+03  0.11246802285E+04  0.13119780140E+04  0.25500000920E-02 0.  1.
</event>
<event>
 5   0  0.4255250E-07  0.3643077E+04  0.7818609E-02  0.8080695E-01
       -1   -1    0    0    0  501  0.00000000000E+00  0.00000000000E+00  0.25420608265E+04  0.25420608265E+04  0.50400001928E-02 0. -1.
        1   -1    0    0  501    0  0.00000000000E+00  0.00000000000E+00 -0.13052414774E+04  0.13052414774E+04  0.50400001928E-02 0.  1.
    10030    2    1    2    0    0  0.00000000000E+00  0.00000000000E+00  0.12368193491E+04  0.38473023040E+04  0.36430773964E+04 0.  0.
        2    1    3    3  502    0 -0.14156078822E+04 -0.11313676304E+04  0.81332279612E+03  0.19863112450E+04  0.25500000920E-02 0.  1.
       -2    1    3    3    0  502  0.14156078822E+04  0.11313676304E+04  0.42349655297E+03  0.18609910590E+04  0.25500000920E-02 0. -1.
</event>
<event>
 5   0  0.1079205E-06  0.3797499E+04  0.7818609E-02  0.8046692E-01
       -1   -1    0    0    0  501  0.00000000000E+00  0.00000000000E+00  0.25876502451E+04  0.25876502451E+04  0.50400001928E-02 0.  1.
        1   -1    0    0  501    0  0.00000000000E+00  0.00000000000E+00 -0.13932525817E+04  0.13932525817E+04  0.50400001928E-02 0. -1.
    10030    2    1    2    0    0  0.00000000000E+00  0.00000000000E+00  0.11943976633E+04  0.39809028268E+04  0.37974993796E+04 0.  0.
        4    1    3    3  502    0 -0.12590689921E+04 -0.65220670317E+03 -0.72657115796E+03  0.15932782466E+04  0.12699999809E+01 0. -1.
       -4    1    3    3    0  502  0.12590689921E+04  0.65220670317E+03  0.19209688213E+04  0.23876245802E+04  0.12699999809E+01 0.  1.
</event>
<event>
 5   0  0.8030324E-07  0.3819034E+04  0.7818609E-02  0.8042082E-01
        1   -1    0    0  501    0  0.00000000000E+00  0.00000000000E+00  0.14839293976E+04  0.14839293976E+04  0.50400001928E-02 0.  1.
       -1   -1    0    0    0  501  0.00000000000E+00  0.00000000000E+00 -0.24571626509E+04  0.24571626509E+04  0.50400001928E-02 0. -1.
    10030    2    1    2    0    0  0.00000000000E+00  0.00000000000E+00 -0.97323325332E+03  0.39410920485E+04  0.38190343766E+04 0.  0.
        1    1    3    3  502    0 -0.75805258202E+03  0.12687170758E+04 -0.17343796630E+04  0.22786749551E+04  0.50400001928E-02 0. -1.
       -1    1    3    3    0  502  0.75805258202E+03 -0.12687170758E+04  0.76114640964E+03  0.16624170934E+04  0.50400001928E-02 0.  1.
</event>
<event>
 5   0  0.1341932E-06  0.3591912E+04  0.7818609E-02  0.8092347E-01
        2   -1    0    0  501    0  0.00000000000E+00  0.00000000000E+00  0.21717301059E+04  0.21717301059E+04  0.25500000920E-02 0. -1.
       -2   -1    0    0    0  501  0.00000000000E+00  0.00000000000E+00 -0.14852023422E+04  0.14852023422E+04  0.25500000920E-02 0.  1.
    10030    2    1    2    0    0  0.00000000000E+00  0.00000000000E+00  0.68652776374E+03  0.36569324481E+04  0.35919123820E+04 0.  0.
        2    1    3    3  502    0  0.50515967638E+03  0.87322765679E+03 -0.11694811572E+04  0.15444737021E+04  0.25500000920E-02 0.  1.
       -2    1    3    3    0  502 -0.50515967638E+03 -0.87322765679E+03  0.18560089210E+04  0.21124587461E+04  0.25500000920E-02 0. -1.
</event>
<event>
 5   0  0.4795023E-07  0.2440454E+04  0.7818609E-02  0.8424511E-01
       -1   -1    0    0    0  501  0.00000000000E+00  0.00000000000E+00  0.18086610182E+04  0.18086610182E+04  0.50400001928E-02 0.  1.
        1   -1    0    0  501    0  0.00000000000E+00  0.00000000000E+00 -0.82323570983E+03  0.82323570985E+03  0.50400001928E-02 0. -1.
    10030    2    1    2    0    0  0.00000000000E+00  0.00000000000E+00  0.98542530835E+03  0.26318967280E+04  0.24404543324E+04 0.  0.
        3    1    3    3  502    0 -0.61734227568E+03 -0.46745374511E+03 -0.52430757336E+03  0.93515930773E+03  0.10100000352E+00 0. -1.
       -3    1    3    3    0  502  0.61734227568E+03  0.46745374511E+03  0.15097328817E+04  0.16967374203E+04  0.10100000352E+00 0.  1.
</event>
<event>
 5   0  0.1341932E-06  0.3763208E+04  0.7818609E-02  0.8054097E-01
        2   -1    0    0  501    0  0.00000000000E+00  0.00000000000E+00  0.26122183517E+04  0.26122183517E+04  0.25500000920E-02 0. -1.
       -2   -1    0    0    0  501  0.00000000000E+00  0.00000000000E+00 -0.13553362399E+04  0.13553362399E+04  0.25500000920E-02 0.  1.
    10030    2    1    2    0    0  0.00000000000E+00  0.00000000000E+00  0.12568821118E+04  0.39675545916E+04  0.37632083114E+04 0.  0.
        2    1    3    3  502    0  0.75558146202E+03  0.14085111263E+04 -0.41825600618E+03  0.16521940035E+04  0.25500000920E-02 0.  1.
       -2    1    3    3    0  502 -0.75558146202E+03 -0.14085111263E+04  0.16751381180E+04  0.23153605881E+04  0.25500000920E-02 0. -1.
</event>
<event>
 5   0  0.1341932E-06  0.2396795E+04  0.7818609E-02  0.8440704E-01
       -2   -1    0    0    0  501  0.00000000000E+00  0.00000000000E+00  0.18816569520E+04  0.18816569521E+04  0.25500000920E-02 0. -1.
        2   -1    0    0  501    0  0.00000000000E+00  0.00000000000E+00 -0.76324052686E+03  0.76324052686E+03  0.25500000920E-02 0.  1.
    10030    2    1    2    0    0  0.00000000000E+00  0.00000000000E+00  0.11184164252E+04  0.26448974789E+04  0.23967952298E+04 0.  0.
        2    1    3    3  502    0 -0.94122738332E+03  0.35841532527E+03  0.12758863417E+04  0.16255019192E+04  0.25500000920E-02 0. -1.
       -2    1    3    3    0  502  0.94122738332E+03 -0.35841532527E+03 -0.15746991649E+03  0.10193955597E+04  0.25500000920E-02 0.  1.
</event>
<event>
 5   0  0.1341932E-06  0.2873583E+04  0.7818609E-02  0.8280781E-01
       -2   -1    0    0    0  501  0.00000000000E+00  0.00000000000E+00  0.15043862788E+04  0.15043862788E+04  0.25500000920E-02 0.  1.
        2   -1    0    0  501    0  0.00000000000E+00  0.00000000000E+00 -0.13722340603E+04  0.13722340603E+04  0.25500000920E-02 0. -1.
    10030    2    1    2    0    0  0.00000000000E+00  0.00000000000E+00  0.13215221851E+03  0.28766203390E+04  0.28735831928E+04 0.  0.
        2    1    3    3  502    0  0.94677075249E+03  0.10243079373E+04  0.41109743574E+03  0.14541604829E+04  0.25500000920E-02 0.  1.
       -2    1    3    3    0  502 -0.94677075249E+03 -0.10243079373E+04 -0.27894521723E+03  0.14224598562E+04  0.25500000920E-02 0. -1.
</event>
<event>
 5   0  0.1372748E-06  0.3668992E+04  0.7818609E-02  0.8074868E-01
        2   -1    0    0  501    0  0.00000000000E+00  0.00000000000E+00  0.19314057456E+04  0.19314057456E+04  0.25500000920E-02 0. -1.
       -2   -1    0    0    0  501  0.00000000000E+00  0.00000000000E+00 -0.17424491608E+04  0.17424491608E+04  0.25500000920E-02 0.  1.
    10030    2    1    2    0    0  0.00000000000E+00  0.00000000000E+00  0.18895658476E+03  0.36738549065E+04  0.36689924070E+04 0.  0.
        1    1    3    3  502    0 -0.14030865509E+03 -0.16224800594E+04  0.94013782270E+03  0.18804220769E+04  0.50400001928E-02 0. -1.
       -1    1    3    3    0  502  0.14030865509E+03  0.16224800594E+04 -0.75118123794E+03  0.17934328295E+04  0.50400001928E-02 0.  1.
</event>
<event>
 5   0  0.4255250E-07  0.2973381E+04  0.7818609E-02  0.8251373E-01
        1   -1    0    0  501    0  0.00000000000E+00  0.00000000000E+00  0.23726992837E+04  0.23726992837E+04  0.50400001928E-02 0. -1.
       -1   -1    0    0    0  501  0.00000000000E+00  0.00000000000E+00 -0.93153366285E+03  0.93153366287E+03  0.50400001928E-02 0.  1.
    10030    2    1    2    0    0  0.00000000000E+00  0.00000000000E+00  0.14411656208E+04  0.33042329465E+04  0.29733814115E+04 0.  0.
        2    1    3    3  502    0 -0.84345188616E+03 -0.12167266905E+04  0.87138165271E+03  0.17178885029E+04  0.25500000920E-02 0. -1.
       -2    1    3    3    0  502  0.84345188616E+03  0.12167266905E+04  0.56978396811E+03  0.15863444437E+04  0.25500000920E-02 0.  1.
</event>
<event>
 5   0  0.1214844E-06  0.2940624E+04  0.7818609E-02  0.8260892E-01
       -2   -1    0    0    0  501  0.00000000000E+00  0.00000000000E+00  0.11255369484E+04  0.11255369484E+04  0.25500000920E-02 0.  1.
        2   -1    0    0  501    0  0.00000000000E+00  0.00000000000E+00 -0.19206991510E+04  0.19206991510E+04  0.25500000920E-02 0. -1.
    10030    2    1    2    0    0  0.00000000000E+00  0.00000000000E+00 -0.79516220263E+03  0.30462360995E+04  0.29406243291E+04 0.  0.
        4    1    3    3  502    0 -0.77046208665E+03  0.81575824745E+03  0.58667033191E+03  0.12661978662E+04  0.12699999809E+01 0.  1.
       -4    1    3    3    0  502  0.77046208665E+03 -0.81575824745E+03 -0.13818325345E+04  0.17800382332E+04  0.12699999809E+01 0. -1.
</event>
<event>
 5   0  0.1184616E-06  0.3789528E+04  0.7818609E-02  0.8048406E-01
       -2   -1    0    0    0  501  0.00000000000E+00  0.00000000000E+00  0.13355756166E+04  0.13355756166E+04  0.25500000920E-02 0. -1.
        2   -1    0    0  501    0  0.00000000000E+00  0.00000000000E+00 -0.26880769765E+04  0.26880769765E+04  0.25500000920E-02 0.  1.
    10030    2    1    2    0    0  0.00000000000E+00  0.00000000000E+00 -0.13525013600E+04  0.40236525931E+04  0.37895277095E+04 0.  0.
        5    1    3    3  502    0  0.77978310158E+03  0.17063345051E+04 -0.39439034099E+03  0.19170824082E+04  0.46999998093E+01 0.  1.
       -5    1    3    3    0  502 -0.77978310158E+03 -0.17063345051E+04 -0.95811101900E+03  0.21065701848E+04  0.46999998093E+01 0. -1.
</event>
<event>
 5   0  0.4255250E-07  0.3841951E+04  0.7818609E-02  0.8037212E-01
       -3   -1    0    0    0  501  0.00000000000E+00  0.00000000000E+00  0.17974631507E+04  0.17974631535E+04  0.10100000352E+00 0.  1.
        3   -1    0    0  501    0  0.00000000000E+00  0.00000000000E+00 -0.20529751827E+04  0.20529751852E+04  0.10100000352E+00 0. -1.
    10030    2    1    2    0    0  0.00000000000E+00  0.00000000000E+00 -0.25551203206E+03  0.38504383388E+04  0.38419511972E+04 0.  0.
        4    1    3    3  502    0  0.96822060298E+03  0.37693214265E+03  0.14915535511E+04  0.18177630717E+04  0.12699999809E+01 0.  1.
       -4    1    3    3    0  502 -0.96822060298E+03 -0.37693214265E+03 -0.17470655832E+04  0.20326752670E+04  0.12699999809E+01 0. -1.
</event>
<event>
 5   0  0.1184616E-06  0.3746228E+04  0.7818609E-02  0.8057794E-01
       -2   -1    0    0    0  501  0.00000000000E+00  0.00000000000E+00  0.16009757395E+04  0.16009757395E+04  0.25500000920E-02 0.  1.
        2   -1    0    0  501    0  0.00000000000E+00  0.00000000000E+00 -0.21915109732E+04  0.21915109732E+04  0.25500000920E-02 0. -1.
    10030    2    1    2    0    0  0.00000000000E+00  0.00000000000E+00 -0.59053523372E+03  0.37924867127E+04  0.37462279167E+04 0.  0.
        5    1    3    3  502    0 -0.18726611889E+04  0.17501460810E+02 -0.33270508345E+03  0.19020728146E+04  0.46999998093E+01 0. -1.
       -5    1    3    3    0  502  0.18726611889E+04 -0.17501460810E+02 -0.25783015027E+03  0.18904138981E+04  0.46999998093E+01 0.  1.
</event>
<event>
 5   0  0.1184616E-06  0.1990627E+04  0.7818609E-02  0.8611015E-01
        2   -1    0    0  501    0  0.00000000000E+00  0.00000000000E+00  0.12132978208E+04  0.12132978208E+04  0.25500000920E-02 0.  1.
       -2   -1    0    0    0  501  0.00000000000E+00  0.00000000000E+00 -0.81649291117E+03  0.81649291117E+03  0.25500000920E-02 0. -1.
    10030    2    1    2    0    0  0.00000000000E+00  0.00000000000E+00  0.39680490964E+03  0.20297907320E+04  0.19906271071E+04 0.  0.
        5    1    3    3  502    0 -0.40531406970E+03  0.11083745511E+03  0.11184075608E+04  0.11947476716E+04  0.46999998093E+01 0.  1.
       -5    1    3    3    0  502  0.40531406970E+03 -0.11083745511E+03 -0.72160265120E+03  0.83504306043E+03  0.46999998093E+01 0. -1.
</event>
<event>
 5   0  0.1341932E-06  0.3723850E+04  0.7818609E-02  0.8062697E-01
        2   -1    0    0  501    0  0.00000000000E+00  0.00000000000E+00  0.30045361645E+04  0.30045361645E+04  0.25500000920E-02 0.  1.
       -2   -1    0    0    0  501  0.00000000000E+00  0.00000000000E+00 -0.11538436296E+04  0.11538436296E+04  0.25500000920E-02 0. -1.
    10030    2    1    2    0    0  0.00000000000E+00  0.00000000000E+00  0.18506925349E+04  0.41583797941E+04  0.37238501115E+04 0.  0.
        2    1    3    3  502    0 -0.17605959429E+04  0.56562627000E+03  0.11677827710E+04  0.21870865899E+04  0.25500000920E-02 0.  1.
       -2    1    3    3    0  502  0.17605959429E+04 -0.56562627000E+03  0.68290976384E+03  0.19712932042E+04  0.25500000920E-02 0. -1.
</event>
<event>
 5   0  0.4795023E-07  0.2253468E+04  0.7818609E-02  0.8496497E-01
        1   -1    0    0  501    0  0.00000000000E+00  0.00000000000E+00  0.11067333845E+04  0.11067333846E+04  0.50400001928E-02 0. -1.
       -1   -1    0    0    0  501  0.00000000000E+00  0.00000000000E+00 -0.11470964368E+04  0.11470964368E+04  0.50400001928E-02 0.  1.
    10030    2    1    2    0    0  0.00000000000E+00  0.00000000000E+00 -0.40363052277E+02  0.22538298214E+04  0.22534683685E+04 0.  0.
        3    1    3    3  502    0  0.50678095359E+03 -0.10058157922E+04  0.12034956917E+02  0.11263379569E+04  0.10100000352E+00 0. -1.
       -3    1    3    3    0  502 -0.50678095359E+03  0.10058157922E+04 -0.52398009194E+02  0.11274918645E+04  0.10100000352E+00 0.  1.
</event>
<event>
 5   0  0.5284458E-07  0.1976771E+04  0.7818609E-02  0.8617558E-01
        1   -1    0    0  501    0  0.00000000000E+00  0.00000000000E+00  0.20226043974E+04  0.20226043974E+04  0.50400001928E-02 0.  1.
       -1   -1    0    0    0  501  0.00000000000E+00  0.00000000000E+00 -0.48299427477E+03  0.48299427479E+03  0.50400001928E-02 0. -1.
    10030    2    1    2    0    0  0.00000000000E+00  0.00000000000E+00  0.15396101226E+04  0.25055986722E+04  0.19767714528E+04 0.  0.
        5    1    3    3  502    0 -0.98603359621E+03 -0.26303653112E+02  0.84926677090E+03  0.13016260113E+04  0.46999998093E+01 0.  1.
       -5    1    3    3    0  502  0.98603359621E+03  0.26303653112E+02  0.69034335174E+03  0.12039726610E+04  0.46999998093E+01 0. -1.
</event>
<event>
 5   0  0.1214844E-06  0.3775527E+04  0.7818609E-02  0.8051427E-01
        2   -1    0    0  501    0  0.00000000000E+00  0.00000000000E+00  0.27610319896E+04  0.27610319896E+04  0.25500000920E-02 0. -1.
       -2   -1    0    0    0  501  0.00000000000E+00  0.00000000000E+00 -0.12906951928E+04  0.12906951928E+04  0.25500000920E-02 0.  1.
    10030    2    1    2    0    0  0.00000000000E+00  0.00000000000E+00  0.14703367967E+04  0.40517271824E+04  0.37755268328E+04 0.  0.
        4    1    3    3  502    0  0.15189436821E+03  0.21384370894E+03  0.27413802161E+04  0.27539005307E+04  0.12699999809E+01 0. -1.
       -4    1    3    3    0  502 -0.15189436821E+03 -0.21384370894E+03 -0.12710434194E+04  0.12978266517E+04  0.12699999809E+01 0.  1.
</event>
<event>
 5   0  0.1214844E-06  0.1934619E+04  0.7818609E-02  0.8637814E-01
        2   -1    0    0  501    0  0.00000000000E+00  0.00000000000E+00  0.94417197991E+03  0.94417197992E+03  0.25500000920E-02 0. -1.
       -2   -1    0    0    0  501  0.00000000000E+00  0.00000000000E+00 -0.99101415045E+03  0.99101415046E+03  0.25500000920E-02 0.  1.
    10030    2    1    2    0    0  0.00000000000E+00  0.00000000000E+00 -0.46842170538E+02  0.19351861304E+04  0.19346191280E+04 0.  0.
        4    1    3    3  502    0 -0.81568781969E+03 -0.51676324147E+03  0.34000553627E+02  0.96620314503E+03  0.12699999809E+01 0.  1.
       -4    1    3    3    0  502  0.81568781969E+03  0.51676324147E+03 -0.80842724165E+02  0.96898298534E+03  0.12699999809E+01 0. -1.
</event>
<event>
 5   0  0.1372748E-06  0.3684497E+04  0.7818609E-02  0.8071406E-01
       -2   -1    0    0    0  501  0.00000000000E+00  0.00000000000E+00  0.23074189617E+04  0.23074189617E+04  0.25500000920E-02 0. -1.
        2   -1    0    0  501    0  0.00000000000E+00  0.00000000000E+00 -0.14708552492E+04  0.14708552492E+04  0.25500000920E-02 0.  1.
    10030    2    1    2    0    0  0.00000000000E+00  0.00000000000E+00  0.83656371245E+03  0.37782742109E+04  0.36844968676E+04 0.  0.
        1    1    3    3  502    0  0.19557655337E+03 -0.15623914060E+04  0.13989496337E+04  0.21062709160E+04  0.50400001928E-02 0.  1.
       -1    1    3    3    0  502 -0.19557655337E+03  0.15623914060E+04 -0.56238592125E+03  0.16720032949E+04  0.50400001928E-02 0. -1.
</event>
<event>
 5   0  0.1184616E-06  0.3915215E+04  0.7818609E-02  0.8021872E-01
       -2   -1    0    0    0  501  0.00000000000E+00  0.00000000000E+00  0.17846658230E+04  0.17846658230E+04  0.25500000920E-02 0.  1.
        2   -1    0    0  501    0  0.00000000000E+00  0.00000000000E+00 -0.21473083581E+04  0.21473083581E+04  0.25500000920E-02 0. -1.
    10030    2    1    2    0    0  0.00000000000E+00  0.00000000000E+00 -0.36264253515E+03  0.39319741811E+04  0.39152153648E+04 0.  0.
        5    1    3    3  502    0 -0.71511242280E+02  0.19270275311E+04 -0.51989455041E+03  0.19972134079E+04  0.46999998093E+01 0. -1.
       -5    1    3    3    0  502  0.71511242280E+02 -0.19270275311E+04  0.15725201527E+03  0.19347607732E+04  0.46999998093E+01 0.  1.
</event>
<event>
 5   0  0.5284458E-07  0.2269016E+04  0.7818609E-02  0.8490239E-01
       -1   -1    0    0    0  501  0.00000000000E+00  0.00000000000E+00  0.63826723091E+03  0.63826723093E+03  0.50400001928E-02 0.  1.
        1   -1    0    0  501    0  0.00000000000E+00  0.00000000000E+00 -0.20165659492E+04  0.20165659492E+04  0.50400001928E-02 0. -1.
    10030    2    1    2    0    0  0.00000000000E+00  0.00000000000E+00 -0.13782987183E+04  0.26548331801E+04  0.22690156142E+04 0.  0.
        5    1    3    3  502    0  0.71449731059E+03 -0.55955398414E+03  0.10740366769E+03  0.91387346271E+03  0.46999998093E+01 0.  1.
       -5    1    3    3    0  502 -0.71449731059E+03  0.55955398414E+03 -0.14857023860E+04  0.17409597174E+04  0.46999998093E+01 0. -1.
</event>
<event>
 5   0  0.4795023E-07  0.3365759E+04  0.7818609E-02  0.8146362E-01
        1   -1    0    0  501    0  0.00000000000E+00  0.00000000000E+00  0.30035211011E+04  0.30035211011E+04  0.50400001928E-02 0. -1.
       -1   -1    0    0    0  501  0.00000000000E+00  0.00000000000E+00 -0.94292096241E+03  0.94292096243E+03  0.50400001928E-02 0.  1.
    10030    2    1    2    0    0  0.00000000000E+00  0.00000000000E+00  0.20606001387E+04  0.39464420636E+04  0.33657587598E+04 0.  0.
        3    1    3    3  502    0 -0.40115789626E+03 -0.74987046854E+02 -0.88402073861E+03  0.97367519811E+03  0.10100000352E+00 0.  1.
       -3    1    3    3    0  502  0.40115789626E+03  0.74987046854E+02  0.29446208773E+04  0.29727668654E+04  0.10100000352E+00 0. -1.
</event>
<event>
 5   0  0.1341932E-06  0.3786096E+04  0.7818609E-02  0.8049145E-01
       -2   -1    0    0    0  501  0.00000000000E+00  0.00000000000E+00  0.19925590575E+04  0.19925590575E+04  0.25500000920E-02 0.  1.
        2   -1    0    0  501    0  0.00000000000E+00  0.00000000000E+00 -0.17985070525E+04  0.17985070525E+04  0.25500000920E-02 0. -1.
    10030    2    1    2    0    0  0.00000000000E+00  0.00000000000E+00  0.19405200493E+03  0.37910661100E+04  0.37860964158E+04 0.  0.
        2    1    3    3  502    0  0.11402992548E+03 -0.11612275415E+04  0.15896803025E+04  0.19719370404E+04  0.25500000920E-02 0.  1.
       -2    1    3    3    0  502 -0.11402992548E+03  0.11612275415E+04 -0.13956282975E+04  0.18191290696E+04  0.25500000920E-02 0. -1.
</event>
<event>
 5   0  0.5284458E-07  0.3054165E+04  0.7818609E-02  0.8228431E-01
        1   -1    0    0  501    0  0.00000000000E+00  0.00000000000E+00  0.14689622009E+04  0.14689622009E+04  0.50400001928E-02 0. -1.
       -1   -1    0    0    0  501  0.00000000000E+00  0.00000000000E+00 -0.15875028171E+04  0.15875028172E+04  0.50400001928E-02 0.  1.
    10030    2    1    2    0    0  0.00000000000E+00  0.00000000000E+00 -0.11854061624E+03  0.30564650181E+04  0.30541654390E+04 0.  0.
        5    1    3    3  502    0  0.20973352947E+03  0.14976476934E+04  0.15307516306E+03  0.15199969942E+04  0.46999998093E+01 0. -1.
       -5    1    3    3    0  502 -0.20973352947E+03 -0.14976476934E+04 -0.27161577930E+03  0.15364680239E+04  0.46999998093E+01 0.  1.
</event>
<event>
 5   0  0.4255250E-07  0.3234146E+04  0.7818609E-02  0.8179857E-01
        1   -1    0    0  501    0  0.00000000000E+00  0.00000000000E+00  0.18582685394E+04  0.18582685394E+04  0.50400001928E-02 0.  1.
       -1   -1    0    0    0  501  0.00000000000E+00  0.00000000000E+00 -0.14071833762E+04  0.14071833762E+04  0.50400001928E-02 0. -1.
    10030    2    1    2    0    0  0.00000000000E+00  0.00000000000E+00  0.45108516323E+03  0.32654519157E+04  0.32341456969E+04 0.  0.
        2    1    3    3  502    0 -0.13867510185E+04  0.47345782971E+02  0.10640053506E+04  0.17485500841E+04  0.25500000920E-02 0.  1.
       -2    1    3    3    0  502  0.13867510185E+04 -0.47345782971E+02 -0.61292018733E+03  0.15169018316E+04  0.25500000920E-02 0. -1.
</event>
<event>
 5   0  0.1341932E-06  0.2114754E+04  0.7818609E-02  0.8554772E-01
       -2   -1    0    0    0  501  0.00000000000E+00  0.00000000000E+00  0.13784810436E+04  0.13784810436E+04  0.25500000920E-02 0.  1.
        2   -1    0    0  501    0  0.00000000000E+00  0.00000000000E+00 -0.81107102683E+03  0.81107102684E+03  0.25500000920E-02 0. -1.
    10030    2    1    2    0    0  0.00000000000E+00  0.00000000000E+00  0.56741001677E+03  0.21895520704E+04  0.21147539200E+04 0.  0.
        2    1    3    3  502    0  0.18253614847E+03 -0.10303132962E+04  0.12606644229E+03  0.10539248937E+04  0.25500000920E-02 0. -1.
       -2    1    3    3    0  502 -0.18253614847E+03  0.10303132962E+04  0.44134357447E+03  0.11356271767E+04  0.25500000920E-02 0.  1.
</event>
<event>
 5   0  0.1337854E-06  0.3798978E+04  0.7818609E-02  0.8046374E-01
        2   -1    0    0  501    0  0.00000000000E+00  0.00000000000E+00  0.15847783086E+04  0.15847783086E+04  0.25500000920E-02 0. -1.
       -2   -1    0    0    0  501  0.00000000000E+00  0.00000000000E+00 -0.22766966091E+04  0.22766966091E+04  0.25500000920E-02 0.  1.
    10030    2    1    2    0    0  0.00000000000E+00  0.00000000000E+00 -0.69191830045E+03  0.38614749177E+04  0.37989784950E+04 0.  0.
        3    1    3    3  502    0 -0.26096227376E+03  0.15093769068E+04  0.79579137936E+03  0.17261529147E+04  0.10100000352E+00 0. -1.
       -3    1    3    3    0  502  0.26096227376E+03 -0.15093769068E+04 -0.14877096798E+04  0.21353220031E+04  0.10100000352E+00 0.  1.
</event>
<event>
 5   0  0.4795023E-07  0.3800402E+04  0.7818609E-02  0.8046069E-01
       -1   -1    0    0    0  501  0.00000000000E+00  0.00000000000E+00  0.25102446715E+04  0.25102446715E+04  0.50400001928E-02 0. -1.
        1   -1    0    0  501    0  0.00000000000E+00  0.00000000000E+00 -0.14384110424E+04  0.14384110424E+04  0.50400001928E-02 0.  1.
    10030    2    1    2    0    0  0.00000000000E+00  0.00000000000E+00  0.10718336291E+04  0.39486557139E+04  0.38004019023E+04 0.  0.
        3    1    3    3  502    0  0.45424587058E+03 -0.15202809864E+04 -0.55041776929E+03  0.16794503027E+04  0.10100000352E+00 0.  1.
       -3    1    3    3    0  502 -0.45424587058E+03  0.15202809864E+04  0.16222513984E+04  0.22692054112E+04  0.10100000352E+00 0. -1.
</event>
<event>
 5   0  0.4255250E-07  0.3737759E+04  0.7818609E-02  0.8059645E-01
       -3   -1    0    0    0  501  0.00000000000E+00  0.00000000000E+00  0.23259211167E+04  0.23259211189E+04  0.10100000352E+00 0.  1.
        3   -1    0    0  501    0  0.00000000000E+00  0.00000000000E+00 -0.15016461340E+04  0.15016461374E+04  0.10100000352E+00 0. -1.
    10030    2    1    2    0    0  0.00000000000E+00  0.00000000000E+00  0.82427498273E+03  0.38275672563E+04  0.37377589347E+04 0.  0.
        3    1    3    3  502    0  0.33584951121E+03  0.71130911623E+03  0.21481446699E+04  0.22876365721E+04  0.10100000352E+00 0.  1.
       -3    1    3    3    0  502 -0.33584951121E+03 -0.71130911623E+03 -0.13238696872E+04  0.15399306841E+04  0.10100000352E+00 0. -1.
</event>
<event>
 5   0  0.1184616E-06  0.3875448E+04  0.7818609E-02  0.8030155E-01
        2   -1    0    0  501    0  0.00000000000E+00  0.00000000000E+00  0.23024031732E+04  0.23024031732E+04  0.25500000920E-02 0. -1.
       -2   -1    0    0    0  501  0.00000000000E+00  0.00000000000E+00 -0.16308067485E+04  0.16308067485E+04  0.25500000920E-02 0.  1.
    10030    2    1    2    0    0  0.00000000000E+00  0.00000000000E+00  0.67159642472E+03  0.39332099218E+04  0.38754481716E+04 0.  0.
        5    1    3    3  502    0 -0.10013747692E+04  0.13013183928E+04  0.13800020926E+04  0.21449029939E+04  0.46999998093E+01 0. -1.
       -5    1    3    3    0  502  0.10013747692E+04 -0.13013183928E+04 -0.70840566784E+03  0.17883069278E+04  0.46999998093E+01 0.  1.
</event>
<event>
 5   0  0.1341932E-06  0.2474560E+04  0.7818609E-02  0.8412105E-01
        2   -1    0    0  501    0  0.00000000000E+00  0.00000000000E+00  0.12711182067E+04  0.12711182067E+04  0.25500000920E-02 0. -1.
       -2   -1    0    0    0  501  0.00000000000E+00  0.00000000000E+00 -0.12043424202E+04  0.12043424202E+04  0.25500000920E-02 0.  1.
    10030    2    1    2    0    0  0.00000000000E+00  0.00000000000E+00  0.66775786489E+02  0.24754606269E+04  0.24745598214E+04 0.  0.
        2    1    3    3  502    0  0.59636959140E+02 -0.49656014569E+02  0.12686812417E+04  0.12710524693E+04  0.25500000920E-02 0. -1.
       -2    1    3    3    0  502 -0.59636959140E+02  0.49656014569E+02 -0.12019054553E+04  0.12044081576E+04  0.25500000920E-02 0.  1.
</event>
<event>
 5   0  0.1341932E-06  0.2368906E+04  0.7818609E-02  0.8451237E-01
        2   -1    0    0  501    0  0.00000000000E+00  0.00000000000E+00  0.13690313743E+04  0.13690313743E+04  0.25500000920E-02 0.  1.
       -2   -1    0    0    0  501  0.00000000000E+00  0.00000000000E+00 -0.10247602243E+04  0.10247602243E+04  0.25500000920E-02 0. -1.
    10030    2    1    2    0    0  0.00000000000E+00  0.00000000000E+00  0.34427115002E+03  0.23937915986E+04  0.23689059907E+04 0.  0.
        2    1    3    3  502    0  0.70556416171E+03  0.91199236119E+03 -0.10159391011E+03  0.11575284773E+04  0.25500000920E-02 0.  1.
       -2    1    3    3    0  502 -0.70556416171E+03 -0.91199236119E+03  0.44586506013E+03  0.12362631213E+04  0.25500000920E-02 0. -1.
</event>
<event>
 5   0  0.1184616E-06  0.1904644E+04  0.7818609E-02  0.8652548E-01
       -2   -1    0    0    0  501  0.00000000000E+00  0.00000000000E+00  0.76538786434E+03  0.76538786435E+03  0.25500000920E-02 0. -1.
        2   -1    0    0  501    0  0.00000000000E+00  0.00000000000E+00 -0.11849124260E+04  0.11849124260E+04  0.25500000920E-02 0.  1.
    10030    2    1    2    0    0  0.00000000000E+00  0.00000000000E+00 -0.41952456163E+03  0.19503002903E+04  0.19046444195E+04 0.  0.
        5    1    3    3  502    0 -0.18278386881E+03  0.79381155303E+03 -0.71489111569E+03  0.10838072346E+04  0.46999998093E+01 0.  1.
       -5    1    3    3    0  502  0.18278386881E+03 -0.79381155303E+03  0.29536655406E+03  0.86649305576E+03  0.46999998093E+01 0. -1.
</event>
<event>
 5   0  0.1372748E-06  0.2195017E+04  0.7818609E-02  0.8520505E-01
       -2   -1    0    0    0  501  0.00000000000E+00  0.00000000000E+00  0.86427229876E+03  0.86427229877E+03  0.25500000920E-02 0. -1.
        2   -1    0    0  501    0  0.00000000000E+00  0.00000000000E+00 -0.13936865830E+04  0.13936865830E+04  0.25500000920E-02 0.  1.
    10030    2    1    2    0    0  0.00000000000E+00  0.00000000000E+00 -0.52941428421E+03  0.22579588817E+04  0.21950168171E+04 0.  0.
        1    1    3    3  502    0  0.53271733187E+03 -0.19061857008E+03  0.70268580153E+03  0.90215881675E+03  0.50400001928E-02 0. -1.
       -1    1    3    3    0  502 -0.53271733187E+03  0.19061857008E+03 -0.12321000857E+04  0.13558000650E+04  0.50400001928E-02 0.  1.
</event>
<event>
 5   0  0.1341932E-06  0.3736090E+04  0.7818609E-02  0.8060011E-01
       -2   -1    0    0    0  501  0.00000000000E+00  0.00000000000E+00  0.12909573504E+04  0.12909573504E+04  0.25500000920E-02 0.  1.
        2   -1    0    0  501    0  0.00000000000E+00  0.00000000000E+00 -0.27031036526E+04  0.27031036526E+04  0.25500000920E-02 0. -1.
    10030    2    1    2    0    0  0.00000000000E+00  0.00000000000E+00 -0.14121463023E+04  0.39940610030E+04  0.37360896826E+04 0.  0.
        2    1    3    3  502    0  0.13058276371E+03  0.22337550399E+03  0.12717078729E+04  0.12977632250E+04  0.25500000920E-02 0.  1.
       -2    1    3    3    0  502 -0.13058276371E+03 -0.22337550399E+03 -0.26838541752E+04  0.26962977780E+04  0.25500000920E-02 0. -1.
</event>
<event>
 5   0  0.1372748E-06  0.2028585E+04  0.7818609E-02  0.8593372E-01
        2   -1    0    0  501    0  0.00000000000E+00  0.00000000000E+00  0.68021975667E+03  0.68021975668E+03  0.25500000920E-02 0. -1.
       -2   -1    0    0    0  501  0.00000000000E+00  0.00000000000E+00 -0.15124370514E+04  0.15124370514E+04  0.25500000920E-02 0.  1.
    10030    2    1    2    0    0  0.00000000000E+00  0.00000000000E+00 -0.83221729468E+03  0.21926568080E+04  0.20285852835E+04 0.  0.
        1    1    3    3  502    0  0.95515960659E+03  0.15960863989E+03 -0.90075508958E+02  0.97258335855E+03  0.50400001928E-02 0. -1.
       -1    1    3    3    0  502 -0.95515960659E+03 -0.15960863989E+03 -0.74214178572E+03  0.12200734495E+04  0.50400001928E-02 0.  1.
</event>
<event>
 5   0  0.1079205E-06  0.1923056E+04  0.7818609E-02  0.8643464E-01
       -1   -1    0    0    0  501  0.00000000000E+00  0.00000000000E+00  0.79393155659E+03  0.79393155660E+03  0.50400001928E-02 0. -1.
        1   -1    0    0  501    0  0.00000000000E+00  0.00000000000E+00 -0.11645033115E+04  0.11645033115E+04  0.50400001928E-02 0.  1.
    10030    2    1    2    0    0  0.00000000000E+00  0.00000000000E+00 -0.37057175488E+03  0.19584348681E+04  0.19230558252E+04 0.  0.
        4    1    3    3  502    0 -0.13786914903E+03  0.59088105576E+03  0.57434976475E+03  0.83548045428E+03  0.12699999809E+01 0. -1.
       -4    1    3    3    0  502  0.13786914903E+03 -0.59088105576E+03 -0.94492151963E+03  0.11229544138E+04  0.12699999809E+01 0.  1.
</event>
<event>
 5   0  0.8030324E-07  0.1973474E+04  0.7818609E-02  0.8619124E-01
        1   -1    0    0  501    0  0.00000000000E+00  0.00000000000E+00  0.10577166635E+04  0.10577166635E+04  0.50400001928E-02 0. -1.
       -1   -1    0    0    0  501  0.00000000000E+00  0.00000000000E+00 -0.92052087072E+03  0.92052087073E+03  0.50400001928E-02 0.  1.
    10030    2    1    2    0    0  0.00000000000E+00  0.00000000000E+00  0.13719579275E+03  0.19782375342E+04  0.19734743617E+04 0.  0.
        1    1    3    3  502    0 -0.33801814513E+02 -0.43572126099E+03 -0.81821508840E+03  0.92761603633E+03  0.50400001928E-02 0.  1.
       -1    1    3    3    0  502  0.33801814513E+02  0.43572126099E+03  0.95541088115E+03  0.10506214979E+04  0.50400001928E-02 0. -1.
</event>
<event>
 5   0  0.8030324E-07  0.3708328E+04  0.7818609E-02  0.8066119E-01
       -1   -1    0    0    0  501  0.00000000000E+00  0.00000000000E+00  0.13457933294E+04  0.13457933294E+04  0.50400001928E-02 0.  1.
        1   -1    0    0  501    0  0.00000000000E+00  0.00000000000E+00 -0.25545710110E+04  0.25545710111E+04  0.50400001928E-02 0. -1.
    10030    2    1    2    0    0  0.00000000000E+00  0.00000000000E+00 -0.12087776816E+04  0.39003643405E+04  0.37083282628E+04 0.  0.
        1    1    3    3  502    0  0.11512656238E+04  0.14344587571E+04 -0.85069562698E+03  0.20265161021E+04  0.50400001928E-02 0. -1.
       -1    1    3    3    0  502 -0.11512656238E+04 -0.14344587571E+04 -0.35808205465E+03  0.18738482383E+04  0.50400001928E-02 0.  1.
</event>
<event>
 5   0  0.1214844E-06  0.3798772E+04  0.7818609E-02  0.8046418E-01
        2   -1    0    0  501    0  0.00000000000E+00  0.00000000000E+00  0.21887974157E+04  0.21887974157E+04  0.25500000920E-02 0. -1.
       -2   -1    0    0    0  501  0.00000000000E+00  0.00000000000E+00 -0.16482418263E+04  0.16482418263E+04  0.25500000920E-02 0.  1.
    10030    2    1    2    0    0  0.00000000000E+00  0.00000000000E+00  0.54055558937E+03  0.38370392420E+04  0.37987721437E+04 0.  0.
        4    1    3    3  502    0 -0.17934483642E+04  0.14667758712E+03  0.88442783331E+03  0.20050400382E+04  0.12699999809E+01 0. -1.
       -4    1    3    3    0  502  0.17934483642E+04 -0.14667758712E+03 -0.34387224394E+03  0.18319992038E+04  0.12699999809E+01 0.  1.
</event>
<event>
 5   0  0.4255250E-07  0.3750472E+04  0.7818609E-02  0.8056868E-01
       -1   -1    0    0    0  501  0.00000000000E+00  0.00000000000E+00  0.15651044890E+04  0.15651044890E+04  0.50400001928E-02 0.  1.
        1   -1    0    0  501    0  0.00000000000E+00  0.00000000000E+00 -0.22468212696E+04  0.22468212696E+04  0.50400001928E-02 0. -1.
    10030    2    1    2    0    0  0.00000000000E+00  0.00000000000E+00 -0.68171678065E+03  0.38119257587E+04  0.37504719997E+04 0.  0.
        2    1    3    3  502    0 -0.98283788487E+03 -0.47005539956E+03 -0.18921664028E+04  0.21833955396E+04  0.25500000920E-02 0. -1.
       -2    1    3    3    0  502  0.98283788487E+03  0.47005539956E+03  0.12104496221E+04  0.16285302190E+04  0.25500000920E-02 0.  1.
</event>
<event>
 5   0  0.8030324E-07  0.2956820E+04  0.7818609E-02  0.8256170E-01
       -1   -1    0    0    0  501  0.00000000000E+00  0.00000000000E+00  0.10817924338E+04  0.10817924338E+04  0.50400001928E-02 0. -1.
        1   -1    0    0  501    0  0.00000000000E+00  0.00000000000E+00 -0.20204388641E+04  0.20204388641E+04  0.50400001928E-02 0.  1.
    10030    2    1    2    0    0  0.00000000000E+00  0.00000000000E+00 -0.93864643029E+03  0.31022312979E+04  0.29568195590E+04 0.  0.
        1    1    3    3  502    0 -0.13594305877E+04  0.40854494260E+03 -0.90284468523E+03  0.16822868420E+04  0.50400001928E-02 0.  1.
       -1    1    3    3    0  502  0.13594305877E+04 -0.40854494260E+03 -0.35801745062E+02  0.14199444559E+04  0.50400001928E-02 0. -1.
</event>
<event>
 5   0  0.8030324E-07  0.3489541E+04  0.7818609E-02  0.8116273E-01
       -1   -1    0    0    0  501  0.00000000000E+00  0.00000000000E+00  0.17263278392E+04  0.17263278392E+04  0.50400001928E-02 0.  1.
        1   -1    0    0  501    0  0.00000000000E+00  0.00000000000E+00 -0.17634098667E+04  0.17634098667E+04  0.50400001928E-02 0. -1.
    10030    2    1    2    0    0  0.00000000000E+00  0.00000000000E+00 -0.37082027552E+02  0.34897377059E+04  0.34895406831E+04 0.  0.
        1    1    3    3  502    0 -0.14498124151E+04  0.95957129000E+03 -0.16514548798E+03  0.17464266752E+04  0.50400001928E-02 0.  1.
       -1    1    3    3    0  502  0.14498124151E+04 -0.95957129000E+03  0.12806346043E+03  0.17433110307E+04  0.50400001928E-02 0. -1.
</event>
<event>
 5   0  0.1337854E-06  0.2084917E+04  0.7818609E-02  0.8567917E-01
        2   -1    0    0  501    0  0.00000000000E+00  0.00000000000E+00  0.28131457643E+04  0.28131457643E+04  0.25500000920E-02 0. -1.
       -2   -1    0    0    0  501  0.00000000000E+00  0.00000000000E+00 -0.38630053228E+03  0.38630053229E+03  0.25500000920E-02 0.  1.
    10030    2    1    2    0    0  0.00000000000E+00  0.00000000000E+00  0.24268452320E+04  0.31994462966E+04  0.20849169827E+04 0.  0.
        3    1    3    3  502    0  0.89885203803E+03 -0.52600767977E+03  0.11430893329E+04  0.15463739194E+04  0.10100000352E+00 0.  1.
       -3    1    3    3    0  502 -0.89885203803E+03  0.52600767977E+03  0.12837558992E+04  0.16530723772E+04  0.10100000352E+00 0. -1.
</event>
<event>
 5   0  0.4255250E-07  0.1903711E+04  0.7818609E-02  0.8653011E-01
        1   -1    0    0  501    0  0.00000000000E+00  0.00000000000E+00  0.11540771476E+04  0.11540771476E+04  0.50400001928E-02 0.  1.
       -1   -1    0    0    0  501  0.00000000000E+00  0.00000000000E+00 -0.78506800456E+03  0.78506800457E+03  0.50400001928E-02 0. -1.
    10030    2    1    2    0    0  0.00000000000E+00  0.00000000000E+00  0.36900914301E+03  0.19391451522E+04  0.19037111581E+04 0.  0.
        2    1    3    3  502    0 -0.65884865415E+02  0.23532784126E+03 -0.75256913494E+03  0.79125236886E+03  0.25500000920E-02 0. -1.
       -2    1    3    3    0  502  0.65884865415E+02 -0.23532784126E+03  0.11215782779E+04  0.11478927833E+04  0.25500000920E-02 0.  1.
</event>
<event>
 5   0  0.1337854E-06  0.1919598E+04  0.7818609E-02  0.8645162E-01
        2   -1    0    0  501    0  0.00000000000E+00  0.00000000000E+00  0.57304403713E+03  0.57304403714E+03  0.25500000920E-02 0.  1.
       -2   -1    0    0    0  501  0.00000000000E+00  0.00000000000E+00 -0.16075806908E+04  0.16075806908E+04  0.25500000920E-02 0. -1.
    10030    2    1    2    0    0  0.00000000000E+00  0.00000000000E+00 -0.10345366537E+04  0.21806247280E+04  0.19195984258E+04 0.  0.
        3    1    3    3  502    0 -0.22719003929E+03  0.52517941269E+03 -0.13926258073E+04  0.15056013346E+04  0.10100000352E+00 0. -1.
       -3    1    3    3    0  502  0.22719003929E+03 -0.52517941269E+03  0.35808915359E+03  0.67502339336E+03  0.10100000352E+00 0.  1.
</event>
<event>
 5   0  0.1337854E-06  0.3823490E+04  0.7818609E-02  0.8041133E-01
       -2   -1    0    0    0  501  0.00000000000E+00  0.00000000000E+00  0.24831147228E+04  0.24831147228E+04  0.25500000920E-02 0.  1.
        2   -1    0    0  501    0  0.00000000000E+00  0.00000000000E+00 -0.14718486370E+04  0.14718486370E+04  0.25500000920E-02 0. -1.
    10030    2    1    2    0    0  0.00000000000E+00  0.00000000000E+00  0.10112660858E+04  0.39549633599E+04  0.38234900394E+04 0.  0.
        3    1    3    3  502    0  0.12539696125E+04 -0.10411504843E+04  0.15391571852E+04  0.22417490874E+04  0.10100000352E+00 0.  1.
       -3    1    3    3    0  502 -0.12539696125E+04  0.10411504843E+04 -0.52789109938E+03  0.17132142724E+04  0.10100000352E+00 0. -1.
</event>
<event>
 5   0  0.5284458E-07  0.2311767E+04  0.7818609E-02  0.8473296E-01
        1   -1    0    0  501    0  0.00000000000E+00  0.00000000000E+00  0.11560520089E+04  0.11560520089E+04  0.50400001928E-02 0. -1.
       -1   -1    0    0    0  501  0.00000000000E+00  0.00000000000E+00 -0.11557148225E+04  0.11557148225E+04  0.50400001928E-02 0.  1.
    10030    2    1    2    0    0  0.00000000000E+00  0.00000000000E+00  0.33718637070E+00  0.23117668315E+04  0.23117668069E+04 0.  0.
        5    1    3    3  502    0 -0.33813048464E+03  0.46984037882E+03  0.10006495612E+04  0.11560293424E+04  0.46999998093E+01 0. -1.
       -5    1    3    3    0  502  0.33813048464E+03 -0.46984037882E+03 -0.10003123749E+04  0.11557374890E+04  0.46999998093E+01 0.  1.
</event>
<event>
 5   0  0.1184616E-06  0.3770044E+04  0.7818609E-02  0.8052614E-01
        2   -1    0    0  501    0  0.00000000000E+00  0.00000000000E+00  0.11141502532E+04  0.11141502532E+04  0.25500000920E-02 0.  1.
       -2   -1    0    0    0  501  0.00000000000E+00  0.00000000000E+00 -0.31892544794E+04  0.31892544794E+04  0.25500000920E-02 0. -1.
    10030    2    1    2    0    0  0.00000000000E+00  0.00000000000E+00 -0.20751042262E+04  0.43034047327E+04  0.37700443954E+04 0.  0.
        5    1    3    3  502    0 -0.12919222948E+04 -0.55543771797E+03  0.39530932292E+03  0.14607757614E+04  0.46999998093E+01 0.  1.
       -5    1    3    3    0  502  0.12919222948E+04  0.55543771797E+03 -0.24704135491E+04  0.28426289712E+04  0.46999998093E+01 0. -1.
</event>
<event>
 5   0  0.5284458E-07  0.2600015E+04  0.7818609E-02  0.8368196E-01
       -1   -1    0    0    0  501  0.00000000000E+00  0.00000000000E+00  0.13394127129E+04  0.13394127129E+04  0.50400001928E-02 0.  1.
        1   -1    0    0  501    0  0.00000000000E+00  0.00000000000E+00 -0.12617614960E+04  0.12617614960E+04  0.50400001928E-02 0. -1.
    10030    2    1    2    0    0  0.00000000000E+00  0.00000000000E+00  0.77651216881E+02  0.26011742089E+04  0.26000149141E+04 0.  0.
        5    1    3    3  502    0 -0.67344135445E+03  0.26290230004E+03  0.11197500531E+04  0.13328552617E+04  0.46999998093E+01 0.  1.
       -5    1    3    3    0  502  0.67344135445E+03 -0.26290230004E+03 -0.10420988363E+04  0.12683189472E+04  0.46999998093E+01 0. -1.
</event>
<event>
 5   0  0.4255250E-07  0.3724628E+04  0.7818609E-02  0.8062526E-01
        1   -1    0    0  501    0  0.00000000000E+00  0.00000000000E+00  0.23886655974E+04  0.23886655975E+04  0.50400001928E-02 0. -1.
       -1   -1    0    0    0  501  0.00000000000E+00  0.00000000000E+00 -0.14519458862E+04  0.14519458862E+04  0.50400001928E-02 0.  1.
    10030    2    1    2    0    0  0.00000000000E+00  0.00000000000E+00  0.93671971126E+03  0.38406114836E+04  0.37246278674E+04 0.  0.
        2    1    3    3  502    0 -0.70188608734E+02  0.14004733593E+04  0.17320681404E+04  0.22285224059E+04  0.25500000920E-02 0. -1.
       -2    1    3    3    0  502  0.70188608734E+02 -0.14004733593E+04 -0.79534842910E+03  0.16120890777E+04  0.25500000920E-02 0.  1.
</event>
<event>
 5   0  0.1341932E-06  0.2048155E+04  0.7818609E-02  0.8584432E-01
        2   -1    0    0  501    0  0.00000000000E+00  0.00000000000E+00  0.17447971009E+04  0.17447971009E+04  0.25500000920E-02 0.  1.
       -2   -1    0    0    0  501  0.00000000000E+00  0.00000000000E+00 -0.60106414113E+03  0.60106414114E+03  0.25500000920E-02 0. -1.
    10030    2    1    2    0    0  0.00000000000E+00  0.00000000000E+00  0.11437329597E+04  0.23458612420E+04  0.20481552391E+04 0.  0.
        2    1    3    3  502    0  0.45857894504E+03  0.90561737319E+03  0.72679639144E+03  0.12484672483E+04  0.25500000920E-02 0.  1.
       -2    1    3    3    0  502 -0.45857894504E+03 -0.90561737319E+03  0.41693656829E+03  0.10973939937E+04  0.25500000920E-02 0. -1.
</event>
<event>
 5   0  0.1341932E-06  0.3748937E+04  0.7818609E-02  0.8057203E-01
       -2   -1    0    0    0  501  0.00000000000E+00  0.00000000000E+00  0.17226182740E+04  0.17226182740E+04  0.25500000920E-02 0. -1.
        2   -1    0    0  501    0  0.00000000000E+00  0.00000000000E+00 -0.20397043608E+04  0.20397043608E+04  0.25500000920E-02 0.  1.
    10030    2    1    2    0    0  0.00000000000E+00  0.00000000000E+00 -0.31708608680E+03  0.37623226348E+04  0.37489369189E+04 0.  0.
        2    1    3    3  502    0 -0.33936915381E+03  0.14734252259E+04  0.95332918394E+03  0.17874534545E+04  0.25500000920E-02 0. -1.
       -2    1    3    3    0  502  0.33936915381E+03 -0.14734252259E+04 -0.12704152707E+04  0.19748691803E+04  0.25500000920E-02 0.  1.
</event>
<event>
 5   0  0.1214844E-06  0.3809177E+04  0.7818609E-02  0.8044188E-01
        2   -1    0    0  501    0  0.00000000000E+00  0.00000000000E+00  0.13243758369E+04  0.13243758369E+04  0.25500000920E-02 0.  1.
       -2   -1    0    0    0  501  0.00000000000E+00  0.00000000000E+00 -0.27389935458E+04  0.27389935458E+04  0.25500000920E-02 0. -1.
    10030    2    1    2    0    0  0.00000000000E+00  0.00000000000E+00 -0.14146177089E+04  0.40633693827E+04  0.38091767455E+04 0.  0.
        4    1    3    3  502    0 -0.11764139906E+04 -0.90403016417E+03 -0.19812539182E+04  0.24751947633E+04  0.12699999809E+01 0. -1.
       -4    1    3    3    0  502  0.11764139906E+04  0.90403016417E+03  0.56663620938E+03  0.15881746194E+04  0.12699999809E+01 0.  1.
</event>
<event>
 5   0  0.1372748E-06  0.3980313E+04  0.7818609E-02  0.8008530E-01
        2   -1    0    0  501    0  0.00000000000E+00  0.00000000000E+00  0.18721373893E+04  0.18721373893E+04  0.25500000920E-02 0.  1.
       -2   -1    0    0    0  501  0.00000000000E+00  0.00000000000E+00 -0.21156158345E+04  0.21156158346E+04  0.25500000920E-02 0. -1.
    10030    2    1    2    0    0  0.00000000000E+00  0.00000000000E+00 -0.24347844527E+03  0.39877532238E+04  0.39803133069E+04 0.  0.
        1    1    3    3  502    0 -0.76584431755E+03 -0.14204103680E+04 -0.12886654069E+04  0.20651250962E+04  0.50400001928E-02 0. -1.
       -1    1    3    3    0  502  0.76584431755E+03  0.14204103680E+04  0.10451869616E+04  0.19226281276E+04  0.50400001928E-02 0.  1.
</event>
<event>
 5   0  0.1184616E-06  0.2635762E+04  0.7818609E-02  0.8356154E-01
        2   -1    0    0  501    0  0.00000000000E+00  0.00000000000E+00  0.12195014209E+04  0.12195014209E+04  0.25500000920E-02 0. -1.
       -2   -1    0    0    0  501  0.00000000000E+00  0.00000000000E+00 -0.14241971821E+04  0.14241971821E+04  0.25500000920E-02 0.  1.
    10030    2    1    2    0    0  0.00000000000E+00  0.00000000000E+00 -0.20469576122E+03  0.26436986030E+04  0.26357621192E+04 0.  0.
        5    1    3    3  502    0 -0.37054215818E+03  0.12578863804E+04  0.29229283472E+02  0.13116615714E+04  0.46999998093E+01 0.  1.
       -5    1    3    3    0  502  0.37054215818E+03 -0.12578863804E+04 -0.23392504469E+03  0.13320370316E+04  0.46999998093E+01 0. -1.
</event>
<event>
 5   0  0.1214844E-06  0.3798846E+04  0.7818609E-02  0.8046403E-01
       -2   -1    0    0    0  501  0.00000000000E+00  0.00000000000E+00  0.21233024331E+04  0.21233024332E+04  0.25500000920E-02 0.  1.
        2   -1    0    0  501    0  0.00000000000E+00  0.00000000000E+00 -0.16991492492E+04  0.16991492492E+04  0.25500000920E-02 0. -1.
    10030    2    1    2    0    0  0.00000000000E+00  0.00000000000E+00  0.42415318392E+03  0.38224516824E+04  0.37988460012E+04 0.  0.
        4    1    3    3  502    0  0.11046157463E+04 -0.13194941371E+04  0.10211660551E+04  0.20010053598E+04  0.12699999809E+01 0.  1.
       -4    1    3    3    0  502 -0.11046157463E+04  0.13194941371E+04 -0.59701287117E+03  0.18214463226E+04  0.12699999809E+01 0. -1.
</event>
<event>
 5   0  0.1337854E-06  0.3881252E+04  0.7818609E-02  0.8028940E-01
        2   -1    0    0  501    0  0.00000000000E+00  0.00000000000E+00  0.33076366503E+04  0.33076366503E+04  0.25500000920E-02 0. -1.
       -2   -1    0    0    0  501  0.00000000000E+00  0.00000000000E+00 -0.11385861116E+04  0.11385861116E+04  0.25500000920E-02 0.  1.
    10030    2    1    2    0    0  0.00000000000E+00  0.00000000000E+00  0.21690505387E+04  0.44462227618E+04  0.38812519383E+04 0.  0.
        3    1    3    3  502    0  0.10821792327E+04  0.16108735362E+04  0.10823215102E+04  0.22220362965E+04  0.10100000352E+00 0. -1.
       -3    1    3    3    0  502 -0.10821792327E+04 -0.16108735362E+04  0.10867290285E+04  0.22241864654E+04  0.10100000352E+00 0.  1.
</event>
<event>
 5   0  0.5284458E-07  0.3673515E+04  0.7818609E-02  0.8073857E-01
       -1   -1    0    0    0  501  0.00000000000E+00  0.00000000000E+00  0.12783077913E+04  0.12783077913E+04  0.50400001928E-02 0. -1.
        1   -1    0    0  501    0  0.00000000000E+00  0.00000000000E+00 -0.26391757010E+04  0.26391757010E+04  0.50400001928E-02 0.  1.
    10030    2    1    2    0    0  0.00000000000E+00  0.00000000000E+00 -0.13608679098E+04  0.39174834923E+04  0.36735154069E+04 0.  0.
        5    1    3    3  502    0  0.62955183291E+03  0.14069261690E+03  0.11535251930E+04  0.13216551682E+04  0.46999998093E+01 0. -1.
       -5    1    3    3    0  502 -0.62955183291E+03 -0.14069261690E+03 -0.25143931028E+04  0.25958283241E+04  0.46999998093E+01 0.  1.
</event>
<event>
 5   0  0.1184616E-06  0.3767658E+04  0.7818609E-02  0.8053131E-01
       -2   -1    0    0    0  501  0.00000000000E+00  0.00000000000E+00  0.11077824699E+04  0.11077824699E+04  0.25500000920E-02 0. -1.
        2   -1    0    0  501    0  0.00000000000E+00  0.00000000000E+00 -0.32035273280E+04  0.32035273280E+04  0.25500000920E-02 0.  1.
    10030    2    1    2    0    0  0.00000000000E+00  0.00000000000E+00 -0.20957448581E+04  0.43113097979E+04  0.37676578484E+04 0.  0.
        5    1    3    3  502    0  0.14058498790E+04 -0.70692267779E+03 -0.22329967553E+04  0.27317485525E+04  0.46999998093E+01 0.  1.
       -5    1    3    3    0  502 -0.14058498790E+04  0.70692267779E+03  0.13725189716E+03  0.15795612454E+04  0.46999998093E+01 0. -1.
</event>
<event>
 5   0  0.8030324E-07  0.3008567E+04  0.7818609E-02  0.8241289E-01
       -1   -1    0    0    0  501  0.00000000000E+00  0.00000000000E+00  0.25731212705E+04  0.25731212705E+04  0.50400001928E-02 0.  1.
        1   -1    0    0  501    0  0.00000000000E+00  0.00000000000E+00 -0.87942539358E+03  0.87942539359E+03  0.50400001928E-02 0. -1.
    10030    2    1    2    0    0  0.00000000000E+00  0.00000000000E+00  0.16936958769E+04  0.34525466640E+04  0.30085665597E+04 0.  0.
        1    1    3    3  502    0 -0.59032988694E+03 -0.12038711549E+04  0.16294491599E+04  0.21101894934E+04  0.50400001928E-02 0.  1.
       -1    1    3    3    0  502  0.59032988694E+03  0.12038711549E+04  0.64246716931E+02  0.13423571707E+04  0.50400001928E-02 0. -1.
</event>
<event>
 5   0  0.1372748E-06  0.3941960E+04  0.7818609E-02  0.8016358E-01
        2   -1    0    0  501    0  0.00000000000E+00  0.00000000000E+00  0.26447385203E+04  0.26447385203E+04  0.25500000920E-02 0. -1.
       -2   -1    0    0    0  501  0.00000000000E+00  0.00000000000E+00 -0.14688644583E+04  0.14688644583E+04  0.25500000920E-02 0.  1.
    10030    2    1    2    0    0  0.00000000000E+00  0.00000000000E+00  0.11758740621E+04  0.41136029786E+04  0.39419601286E+04 0.  0.
        1    1    3    3  502    0 -0.17128823656E+04 -0.80413759133E+03  0.12416807419E+02  0.18922889423E+04  0.50400001928E-02 0.  1.
       -1    1    3    3    0  502  0.17128823656E+04  0.80413759133E+03  0.11634572546E+04  0.22213140362E+04  0.50400001928E-02 0. -1.
</event>
<event>
 5   0  0.1341932E-06  0.1951513E+04  0.7818609E-02  0.8629631E-01
        2   -1    0    0  501    0  0.00000000000E+00  0.00000000000E+00  0.10284245421E+04  0.10284245421E+04  0.25500000920E-02 0. -1.
       -2   -1    0    0    0  501  0.00000000000E+00  0.00000000000E+00 -0.92578581656E+03  0.92578581656E+03  0.25500000920E-02 0.  1.
    10030    2    1    2    0    0  0.00000000000E+00  0.00000000000E+00  0.10263872552E+03  0.19542103586E+04  0.19515131098E+04 0.  0.
        2    1    3    3  502    0  0.96939842300E+03 -0.18649670555E+02  0.16110547500E+03  0.98287134804E+03  0.25500000920E-02 0.  1.
       -2    1    3    3    0  502 -0.96939842300E+03  0.18649670555E+02 -0.58466749485E+02  0.97133901060E+03  0.25500000920E-02 0. -1.
</event>
<event>
 5   0  0.1214844E-06  0.3672358E+04  0.7818609E-02  0.8074115E-01
        2   -1    0    0  501    0  0.00000000000E+00  0.00000000000E+00  0.22267370429E+04  0.22267370429E+04  0.25500000920E-02 0.  1.
       -2   -1    0    0    0  501  0.00000000000E+00  0.00000000000E+00 -0.15141228237E+04  0.15141228238E+04  0.25500000920E-02 0. -1.
    10030    2    1    2    0    0  0.00000000000E+00  0.00000000000E+00  0.71261421913E+03  0.37408598666E+04  0.36723580322E+04 0.  0.
        4    1    3    3  502    0 -0.17337879624E+04  0.59083947438E+03  0.48691651948E+03  0.18953103421E+04  0.12699999809E+01 0.  1.
       -4    1    3    3    0  502  0.17337879624E+04 -0.59083947438E+03  0.22569769965E+03  0.18455495245E+04  0.12699999809E+01 0. -1.
</event>
<event>
 5   0  0.1184616E-06  0.3868863E+04  0.7818609E-02  0.8031536E-01
       -2   -1    0    0    0  501  0.00000000000E+00  0.00000000000E+00  0.27640374987E+04  0.27640374987E+04  0.25500000920E-02 0.  1.
        2   -1    0    0  501    0  0.00000000000E+00  0.00000000000E+00 -0.13538261073E+04  0.13538261073E+04  0.25500000920E-02 0. -1.
    10030    2    1    2    0    0  0.00000000000E+00  0.00000000000E+00  0.14102113913E+04  0.41178636060E+04  0.38688634648E+04 0.  0.
        5    1    3    3  502    0 -0.44192799556E+03  0.12351817123E+04 -0.80801968184E+03  0.15407440124E+04  0.46999998093E+01 0. -1.
       -5    1    3    3    0  502  0.44192799556E+03 -0.12351817123E+04  0.22182310732E+04  0.25771195936E+04  0.46999998093E+01 0.  1.
</event>
<event>
 5   0  0.1079205E-06  0.3910122E+04  0.7818609E-02  0.8022927E-01
       -1   -1    0    0    0  501  0.00000000000E+00  0.00000000000E+00  0.18928469524E+04  0.18928469524E+04  0.50400001928E-02 0. -1.
        1   -1    0    0  501    0  0.00000000000E+00  0.00000000000E+00 -0.20193201378E+04  0.20193201378E+04  0.50400001928E-02 0.  1.
    10030    2    1    2    0    0  0.00000000000E+00  0.00000000000E+00 -0.12647318538E+03  0.39121670901E+04  0.39101222327E+04 0.  0.
        4    1    3    3  502    0  0.77713545878E+03 -0.11164265315E+04 -0.14682197451E+04  0.20015040730E+04  0.12699999809E+01 0.  1.
       -4    1    3    3    0  502 -0.77713545878E+03  0.11164265315E+04  0.13417465597E+04  0.19106630171E+04  0.12699999809E+01 0. -1.
</event>
<event>
 5   0  0.1337854E-06  0.3719633E+04  0.7818609E-02  0.8063625E-01
        2   -1    0    0  501    0  0.00000000000E+00  0.00000000000E+00  0.27544316366E+04  0.27544316366E+04  0.25500000920E-02 0.  1.
       -2   -1    0    0    0  501  0.00000000000E+00  0.00000000000E+00 -0.12557642189E+04  0.12557642189E+04  0.25500000920E-02 0. -1.
    10030    2    1    2    0    0  0.00000000000E+00  0.00000000000E+00  0.14986674177E+04  0.40101958556E+04  0.37196326124E+04 0.  0.
        3    1    3    3  502    0 -0.39033133002E+03 -0.72797258075E+03  0.25458174707E+04  0.26764695458E+04  0.10100000352E+00 0.  1.
       -3    1    3    3    0  502  0.39033133002E+03  0.72797258075E+03 -0.10471500530E+04  0.13337263097E+04  0.10100000352E+00 0. -1.
</event>
<event>
 5   0  0.5284458E-07  0.3781524E+04  0.7818609E-02  0.8050131E-01
       -1   -1    0    0    0  501  0.00000000000E+00  0.00000000000E+00  0.30736823540E+04  0.30736823540E+04  0.50400001928E-02 0.  1.
        1   -1    0    0  501    0  0.00000000000E+00  0.00000000000E+00 -0.11630936589E+04  0.11630936589E+04  0.50400001928E-02 0. -1.
    10030    2    1    2    0    0  0.00000000000E+00  0.00000000000E+00  0.19105886951E+04  0.42367760129E+04  0.37815237434E+04 0.  0.
        5    1    3    3  502    0  0.24909788397E+03  0.18475913688E+04  0.60221238181E+03  0.19591644813E+04  0.46999998093E+01 0. -1.
       -5    1    3    3    0  502 -0.24909788397E+03 -0.18475913688E+04  0.13083763132E+04  0.22776115316E+04  0.46999998093E+01 0.  1.
</event>
<event>
 5   0  0.5284458E-07  0.3363340E+04  0.7818609E-02  0.8146963E-01
        1   -1    0    0  501    0  0.00000000000E+00  0.00000000000E+00  0.17798819053E+04  0.17798819053E+04  0.50400001928E-02 0.  1.
       -1   -1    0    0    0  501  0.00000000000E+00  0.00000000000E+00 -0.15888771702E+04  0.15888771702E+04  0.50400001928E-02 0. -1.
    10030    2    1    2    0    0  0.00000000000E+00  0.00000000000E+00  0.19100473506E+03  0.33687590755E+04  0.33633398430E+04 0.  0.
        5    1    3    3  502    0  0.99427996040E+03  0.12693378244E+04  0.57395444854E+03  0.17115072162E+04  0.46999998093E+01 0.  1.
       -5    1    3    3    0  502 -0.99427996040E+03 -0.12693378244E+04 -0.38294971348E+03  0.16572518593E+04  0.46999998093E+01 0. -1.
</event>
<event>
 5   0  0.4795023E-07  0.2481079E+04  0.7818609E-02  0.8409757E-01
        1   -1    0    0  501    0  0.00000000000E+00  0.00000000000E+00  0.10332277717E+04  0.10332277718E+04  0.50400001928E-02 0.  1.
       -1   -1    0    0    0  501  0.00000000000E+00  0.00000000000E+00 -0.14894477270E+04  0.14894477271E+04  0.50400001928E-02 0. -1.
    10030    2    1    2    0    0  0.00000000000E+00  0.00000000000E+00 -0.45621995530E+03  0.25226754988E+04  0.24810794072E+04 0.  0.
        3    1    3    3  502    0 -0.16640742839E+03  0.92786037149E+03 -0.10480556852E+04  0.14096230101E+04  0.10100000352E+00 0. -1.
       -3    1    3    3    0  502  0.16640742839E+03 -0.92786037149E+03  0.59183572989E+03  0.11130524887E+04  0.10100000352E+00 0.  1.
</event>
<event>
 5   0  0.1337854E-06  0.3018001E+04  0.7818609E-02  0.8238609E-01
       -2   -1    0    0    0  501  0.00000000000E+00  0.00000000000E+00  0.10937872657E+04  0.10937872657E+04  0.25500000920E-02 0. -1.
        2   -1    0    0  501    0  0.00000000000E+00  0.00000000000E+00 -0.20818324869E+04  0.20818324869E+04  0.25500000920E-02 0.  1.
    10030    2    1    2    0    0  0.00000000000E+00  0.00000000000E+00 -0.98804522125E+03  0.31756197526E+04  0.30180005722E+04 0.  0.
        3    1    3    3  502    0  0.11953464053E+04  0.90751543003E+03 -0.32883792156E+03  0.15364152021E+04  0.10100000352E+00 0. -1.
       -3    1    3    3    0  502 -0.11953464053E+04 -0.90751543003E+03 -0.65920729969E+03  0.16392045505E+04  0.10100000352E+00 0.  1.
</event>
<event>
 5   0  0.1337854E-06  0.3743859E+04  0.7818609E-02  0.8058311E-01
       -2   -1    0    0    0  501  0.00000000000E+00  0.00000000000E+00  0.18354386990E+04  0.18354386990E+04  0.25500000920E-02 0.  1.
        2   -1    0    0  501    0  0.00000000000E+00  0.00000000000E+00 -0.19091456708E+04  0.19091456708E+04  0.25500000920E-02 0. -1.
    10030    2    1    2    0    0  0.00000000000E+00  0.00000000000E+00 -0.73706971774E+02  0.37445843698E+04  0.37438588895E+04 0.  0.
        3    1    3    3  502    0 -0.91061097484E+03  0.94065085496E+03 -0.13750527554E+04  0.18986327894E+04  0.10100000352E+00 0. -1.
       -3    1    3    3    0  502  0.91061097484E+03 -0.94065085496E+03  0.13013457836E+04  0.18459515804E+04  0.10100000352E+00 0.  1.
</event>
<event>
 5   0  0.1184616E-06  0.4116374E+04  0.7818609E-02  0.7981473E-01
       -2   -1    0    0    0  501  0.00000000000E+00  0.00000000000E+00  0.16941753586E+04  0.16941753586E+04  0.25500000920E-02 0. -1.
        2   -1    0    0  501    0  0.00000000000E+00  0.00000000000E+00 -0.25004109902E+04  0.25004109902E+04  0.25500000920E-02 0.  1.
    10030    2    1    2    0    0  0.00000000000E+00  0.00000000000E+00 -0.80623563160E+03  0.41945863488E+04  0.41163744659E+04 0.  0.
        5    1    3    3  502    0  0.74396988805E+03  0.13136682757E+04  0.10223527505E+04  0.18233054514E+04  0.46999998093E+01 0. -1.
       -5    1    3    3    0  502 -0.74396988805E+03 -0.13136682757E+04 -0.18285883821E+04  0.23712808973E+04  0.46999998093E+01 0.  1.
</event>
<event>
 5   0  0.4255250E-07  0.2968511E+04  0.7818609E-02  0.8252780E-01
       -1   -1    0    0    0  501  0.00000000000E+00  0.00000000000E+00  0.11355941143E+04  0.11355941143E+04  0.50400001928E-02 0.  1.
        1   -1    0    0  501    0  0.00000000000E+00  0.00000000000E+00 -0.19399661705E+04  0.19399661705E+04  0.50400001928E-02 0. -1.
    10030    2    1    2    0    0  0.00000000000E+00  0.00000000000E+00 -0.80437205621E+03  0.30755602848E+04  0.29685108490E+04 0.  0.
        2    1    3    3  502    0  0.44496627526E+03  0.90472071055E+03 -0.15307323885E+04  0.18329364952E+04  0.25500000920E-02 0. -1.
       -2    1    3    3    0  502 -0.44496627526E+03 -0.90472071055E+03  0.72636033228E+03  0.12426237896E+04  0.25500000920E-02 0.  1.
</event>
<event>
 5   0  0.8030324E-07  0.3608374E+04  0.7818609E-02  0.8088576E-01
       -1   -1    0    0    0  501  0.00000000000E+00  0.00000000000E+00  0.12269100837E+04  0.12269100837E+04  0.50400001928E-02 0. -1.
        1   -1    0    0  501    0  0.00000000000E+00  0.00000000000E+00 -0.26530803569E+04  0.26530803569E+04  0.50400001928E-02 0.  1.
    10030    2    1    2    0    0  0.00000000000E+00  0.00000000000E+00 -0.14261702732E+04  0.38799904406E+04  0.36083741728E+04 0.  0.
        1    1    3    3  502    0 -0.14807870768E+04 -0.89341251026E+03 -0.16041658519E+03  0.17368505293E+04  0.50400001928E-02 0.  1.
       -1    1    3    3    0  502  0.14807870768E+04  0.89341251026E+03 -0.12657536880E+04  0.21431399112E+04  0.50400001928E-02 0. -1.
</event>
<event>
 5   0  0.1341932E-06  0.1918858E+04  0.7818609E-02  0.8645526E-01
       -2   -1    0    0    0  501  0.00000000000E+00  0.00000000000E+00  0.51609912488E+03  0.51609912489E+03  0.25500000920E-02 0.  1.
        2   -1    0    0  501    0  0.00000000000E+00  0.00000000000E+00 -0.17835807682E+04  0.17835807682E+04  0.25500000920E-02 0. -1.
    10030    2    1    2    0    0  0.00000000000E+00  0.00000000000E+00 -0.12674816434E+04  0.22996798931E+04  0.19188584874E+04 0.  0.
        2    1    3    3  502    0 -0.50512091077E+03 -0.12292101449E+03 -0.16001562935E+04  0.16824853265E+04  0.25500000920E-02 0. -1.
       -2    1    3    3    0  502  0.50512091077E+03  0.12292101449E+03  0.33267465009E+03  0.61719456666E+03  0.25500000920E-02 0.  1.
</event>
<event>
 5   0  0.1337854E-06  0.3801385E+04  0.7818609E-02  0.8045858E-01
       -2   -1    0    0    0  501  0.00000000000E+00  0.00000000000E+00  0.13932571702E+04  0.13932571702E+04  0.25500000920E-02 0.  1.
        2   -1    0    0  501    0  0.00000000000E+00  0.00000000000E+00 -0.25929401302E+04  0.25929401302E+04  0.25500000920E-02 0. -1.
    10030    2    1    2    0    0  0.00000000000E+00  0.00000000000E+00 -0.11996829601E+04  0.39861973004E+04  0.38013852361E+04 0.  0.
        3    1    3    3  502    0 -0.92464024986E+02 -0.18897835107E+04 -0.78975730023E+03  0.20502555735E+04  0.10100000352E+00 0.  1.
       -3    1    3    3    0  502  0.92464024986E+02  0.18897835107E+04 -0.40992565983E+03  0.19359417269E+04  0.10100000352E+00 0. -1.
</event>
<event>
 5   0  0.4795023E-07  0.3702241E+04  0.7818609E-02  0.8067465E-01
       -1   -1    0    0    0  501  0.00000000000E+00  0.00000000000E+00  0.27942441742E+04  0.27942441742E+04  0.50400001928E-02 0. -1.
        1   -1    0    0  501    0  0.00000000000E+00  0.00000000000E+00 -0.12263237586E+04  0.12263237586E+04  0.50400001928E-02 0.  1.
    10030    2    1    2    0    0  0.00000000000E+00  0.00000000000E+00  0.15679204156E+04  0.40205679327E+04  0.37022414929E+04 0.  0.
        3    1    3    3  502    0 -0.81572135952E+03 -0.21478241015E+03  0.25733987620E+04  0.27081200155E+04  0.10100000352E+00 0. -1.
       -3    1    3    3    0  502  0.81572135952E+03  0.21478241015E+03 -0.10054783464E+04  0.13124479172E+04  0.10100000352E+00 0.  1.
</event>
<event>
 5   0  0.1184616E-06  0.1939848E+04  0.7818609E-02  0.8635272E-01
        2   -1    0    0  501    0  0.00000000000E+00  0.00000000000E+00  0.11224703963E+04  0.11224703963E+04  0.25500000920E-02 0.  1.
       -2   -1    0    0    0  501  0.00000000000E+00  0.00000000000E+00 -0.83810928021E+03  0.83810928021E+03  0.25500000920E-02 0. -1.
    10030    2    1    2    0    0  0.00000000000E+00  0.00000000000E+00  0.28436111609E+03  0.19605796765E+04  0.19398482991E+04 0.  0.
        5    1    3    3  502    0 -0.86245985357E+02 -0.65314689374E+03 -0.57724945354E+03  0.87594420850E+03  0.46999998093E+01 0. -1.
       -5    1    3    3    0  502  0.86245985357E+02  0.65314689374E+03  0.86161056962E+03  0.10846354680E+04  0.46999998093E+01 0.  1.
</event>
<event>
 5   0  0.8030324E-07  0.3769334E+04  0.7818609E-02  0.8052768E-01
       -1   -1    0    0    0  501  0.00000000000E+00  0.00000000000E+00  0.16147842820E+04  0.16147842820E+04  0.50400001928E-02 0.  1.
        1   -1    0    0  501    0  0.00000000000E+00  0.00000000000E+00 -0.21996559868E+04  0.21996559868E+04  0.50400001928E-02 0. -1.
    10030    2    1    2    0    0  0.00000000000E+00  0.00000000000E+00 -0.58487170479E+03  0.38144402688E+04  0.37693341127E+04 0.  0.
        1    1    3    3  502    0  0.14335402808E+04 -0.99715844964E+03 -0.10098675121E+04  0.20172246038E+04  0.50400001928E-02 0. -1.
       -1    1    3    3    0  502 -0.14335402808E+04  0.99715844964E+03  0.42499580733E+03  0.17972156650E+04  0.50400001928E-02 0.  1.
</event>
<event>
 5   0  0.1341932E-06  0.3773100E+04  0.7818609E-02  0.8051952E-01
       -2   -1    0    0    0  501  0.00000000000E+00  0.00000000000E+00  0.13158762123E+04  0.13158762123E+04  0.25500000920E-02 0. -1.
        2   -1    0    0  501    0  0.00000000000E+00  0.00000000000E+00 -0.27047151656E+04  0.27047151656E+04  0.25500000920E-02 0.  1.
    10030    2    1    2    0    0  0.00000000000E+00  0.00000000000E+00 -0.13888389533E+04  0.40205913779E+04  0.37730997058E+04 0.  0.
        2    1    3    3  502    0  0.10677060770E+02 -0.18599970528E+04 -0.10303221226E+04  0.21263270474E+04  0.25500000920E-02 0. -1.
       -2    1    3    3    0  502 -0.10677060770E+02  0.18599970528E+04 -0.35851683068E+03  0.18942643305E+04  0.25500000920E-02 0.  1.
</event>
<event>
 5   0  0.4795023E-07  0.3672308E+04  0.7818609E-02  0.8074126E-01
       -1   -1    0    0    0  501  0.00000000000E+00  0.00000000000E+00  0.12446442346E+04  0.12446442346E+04  0.50400001928E-02 0.  1.
        1   -1    0    0  501    0  0.00000000000E+00  0.00000000000E+00 -0.27087756348E+04  0.27087756348E+04  0.50400001928E-02 0. -1.
    10030    2    1    2    0    0  0.00000000000E+00  0.00000000000E+00 -0.14641314002E+04  0.39534198694E+04  0.36723082532E+04 0.  0.
        3    1    3    3  502    0 -0.19554486057E+03  0.45342507553E+01 -0.26975280728E+04  0.27046101504E+04  0.10100000352E+00 0. -1.
       -3    1    3    3    0  502  0.19554486057E+03 -0.45342507553E+01  0.12333966726E+04  0.12488097189E+04  0.10100000352E+00 0.  1.
</event>
<event>
 5   0  0.4255250E-07  0.3835349E+04  0.7818609E-02  0.8038611E-01
        1   -1    0    0  501    0  0.00000000000E+00  0.00000000000E+00  0.11879001970E+04  0.11879001970E+04  0.50400001928E-02 0.  1.
       -1   -1    0    0    0  501  0.00000000000E+00  0.00000000000E+00 -0.30957782980E+04  0.30957782980E+04  0.50400001928E-02 0. -1.
    10030    2    1    2    0    0  0.00000000000E+00  0.00000000000E+00 -0.19078781010E+04  0.42836784950E+04  0.38353490846E+04 0.  0.
        2    1    3    3  502    0 -0.13846408378E+04 -0.12992187893E+04 -0.65367119815E+03  0.20081050140E+04  0.25500000920E-02 0. -1.
       -2    1    3    3    0  502  0.13846408378E+04  0.12992187893E+04 -0.12542069029E+04  0.22755734810E+04  0.25500000920E-02 0.  1.
</event>
<event>
 5   0  0.1184616E-06  0.3765956E+04  0.7818609E-02  0.8053500E-01
        2   -1    0    0  501    0  0.00000000000E+00  0.00000000000E+00  0.22037647839E+04  0.22037647839E+04  0.25500000920E-02 0. -1.
       -2   -1    0    0    0  501  0.00000000000E+00  0.00000000000E+00 -0.16088856257E+04  0.16088856257E+04  0.25500000920E-02 0.  1.
    10030    2    1    2    0    0  0.00000000000E+00  0.00000000000E+00  0.59487915819E+03  0.38126504097E+04  0.37659556468E+04 0.  0.
        5    1    3    3  502    0  0.72888762590E+03 -0.75079643965E+03 -0.12874133535E+04  0.16590442121E+04  0.46999998093E+01 0.  1.
       -5    1    3    3    0  502 -0.72888762590E+03  0.75079643965E+03  0.18822925116E+04  0.21536061976E+04  0.46999998093E+01 0. -1.
</event>
<event>
 5   0  0.1214844E-06  0.3532927E+04  0.7818609E-02  0.8106031E-01
       -2   -1    0    0    0  501  0.00000000000E+00  0.00000000000E+00  0.16962976436E+04  0.16962976436E+04  0.25500000920E-02 0. -1.
        2   -1    0    0  501    0  0.00000000000E+00  0.00000000000E+00 -0.18395316736E+04  0.18395316736E+04  0.25500000920E-02 0.  1.
    10030    2    1    2    0    0  0.00000000000E+00  0.00000000000E+00 -0.14323402999E+03  0.35358293172E+04  0.35329269696E+04 0.  0.
        4    1    3    3  502    0  0.13575734446E+04  0.71028988473E+03 -0.95147190504E+03  0.18035569791E+04  0.12699999809E+01 0.  1.
       -4    1    3    3    0  502 -0.13575734446E+04 -0.71028988473E+03  0.80823787505E+03  0.17322723381E+04  0.12699999809E+01 0. -1.
</event>
<event>
 5   0  0.4255250E-07  0.2319342E+04  0.7818609E-02  0.8470334E-01
        1   -1    0    0  501    0  0.00000000000E+00  0.00000000000E+00  0.15401168889E+04  0.15401168889E+04  0.50400001928E-02 0. -1.
       -1   -1    0    0    0  501  0.00000000000E+00  0.00000000000E+00 -0.87320451159E+03  0.87320451160E+03  0.50400001928E-02 0.  1.
    10030    2    1    2    0    0  0.00000000000E+00  0.00000000000E+00  0.66691237731E+03  0.24133214005E+04  0.23193421617E+04 0.  0.
        2    1    3    3  502    0 -0.32680471491E+01  0.11169588492E+03  0.15345019749E+04  0.15385652283E+04  0.25500000920E-02 0. -1.
       -2    1    3    3    0  502  0.32680471491E+01 -0.11169588492E+03 -0.86758959761E+03  0.87475617216E+03  0.25500000920E-02 0.  1.
</event>
<event>
 5   0  0.5284458E-07  0.2450824E+04  0.7818609E-02  0.8420717E-01
       -1   -1    0    0    0  501  0.00000000000E+00  0.00000000000E+00  0.15665828020E+04  0.15665828020E+04  0.50400001928E-02 0.  1.
        1   -1    0    0  501    0  0.00000000000E+00  0.00000000000E+00 -0.95854119567E+03  0.95854119569E+03  0.50400001928E-02 0. -1.
    10030    2    1    2    0    0  0.00000000000E+00  0.00000000000E+00  0.60804160630E+03  0.25251239977E+04  0.24508236592E+04 0.  0.
        5    1    3    3  502    0  0.10617801146E+04 -0.31696449529E+03 -0.23507062986E+03  0.11327505436E+04  0.46999998093E+01 0.  1.
       -5    1    3    3    0  502 -0.10617801146E+04  0.31696449529E+03  0.84311223616E+03  0.13923734541E+04  0.46999998093E+01 0. -1.
</event>
<event>
 5   0  0.4255250E-07  0.3524354E+04  0.7818609E-02  0.8108042E-01
        1   -1    0    0  501    0  0.00000000000E+00  0.00000000000E+00  0.28157880919E+04  0.28157880919E+04  0.50400001928E-02 0.  1.
       -1   -1    0    0    0  501  0.00000000000E+00  0.00000000000E+00 -0.11028059759E+04  0.11028059759E+04  0.50400001928E-02 0. -1.
    10030    2    1    2    0    0  0.00000000000E+00  0.00000000000E+00  0.17129821160E+04  0.39185940678E+04  0.35243540881E+04 0.  0.
        2    1    3    3  502    0 -0.86946239132E+03 -0.64719247443E+02  0.25591700120E+04  0.27036095468E+04  0.25500000920E-02 0.  1.
       -2    1    3    3    0  502  0.86946239132E+03  0.64719247443E+02 -0.84618789601E+03  0.12149845210E+04  0.25500000920E-02 0. -1.
</event>
<event>
 5   0  0.1337854E-06  0.3692023E+04  0.7818609E-02  0.8069732E-01
        2   -1    0    0  501    0  0.00000000000E+00  0.00000000000E+00  0.21058517553E+04  0.21058517553E+04  0.25500000920E-02 0.  1.
       -2   -1    0    0    0  501  0.00000000000E+00  0.00000000000E+00 -0.16182329558E+04  0.16182329558E+04  0.25500000920E-02 0. -1.
    10030    2    1    2    0    0  0.00000000000E+00  0.00000000000E+00  0.48761879951E+03  0.37240847111E+04  0.36920231367E+04 0.  0.
        3    1    3    3  502    0  0.26897803775E+03 -0.10347625070E+04 -0.12741431039E+04  0.16632868935E+04  0.10100000352E+00 0. -1.
       -3    1    3    3    0  502 -0.26897803775E+03  0.10347625070E+04  0.17617619034E+04  0.20607978176E+04  0.10100000352E+00 0.  1.
</event>
<event>
 5   0  0.8030324E-07  0.2907414E+04  0.7818609E-02  0.8270675E-01
       -1   -1    0    0    0  501  0.00000000000E+00  0.00000000000E+00  0.13380063511E+04  0.13380063511E+04  0.50400001928E-02 0.  1.
        1   -1    0    0  501    0  0.00000000000E+00  0.00000000000E+00 -0.15794122490E+04  0.15794122490E+04  0.50400001928E-02 0. -1.
    10030    2    1    2    0    0  0.00000000000E+00  0.00000000000E+00 -0.24140589785E+03  0.29174186001E+04  0.29074137099E+04 0.  0.
        1    1    3    3  502    0  0.66340549754E+03  0.46479423833E+03 -0.13319703589E+04  0.15589373224E+04  0.50400001928E-02 0. -1.
       -1    1    3    3    0  502 -0.66340549754E+03 -0.46479423833E+03  0.10905644611E+04  0.13584812777E+04  0.50400001928E-02 0.  1.
</event>
<event>
 5   0  0.5284458E-07  0.3441955E+04  0.7818609E-02  0.8127685E-01
        1   -1    0    0  501    0  0.00000000000E+00  0.00000000000E+00  0.13446024750E+04  0.13446024750E+04  0.50400001928E-02 0. -1.
       -1   -1    0    0    0  501  0.00000000000E+00  0.00000000000E+00 -0.22027056348E+04  0.22027056348E+04  0.50400001928E-02 0.  1.
    10030    2    1    2    0    0  0.00000000000E+00  0.00000000000E+00 -0.85810315983E+03  0.35473081098E+04  0.34419549377E+04 0.  0.
        5    1    3    3  502    0  0.16839676872E+04 -0.19356777607E+03 -0.73569130972E+03  0.18478310119E+04  0.46999998093E+01 0.  1.
       -5    1    3    3    0  502 -0.16839676872E+04  0.19356777607E+03 -0.12241185011E+03  0.16994770979E+04  0.46999998093E+01 0. -1.
</event>
<event>
 5   0  0.1372748E-06  0.3862519E+04  0.7818609E-02  0.8032870E-01
       -2   -1    0    0    0  501  0.00000000000E+00  0.00000000000E+00  0.20109412037E+04  0.20109412037E+04  0.25500000920E-02 0.  1.
        2   -1    0    0  501    0  0.00000000000E+00  0.00000000000E+00 -0.18547350542E+04  0.18547350542E+04  0.25500000920E-02 0. -1.
    10030    2    1    2    0    0  0.00000000000E+00  0.00000000000E+00  0.15620614950E+03  0.38656762579E+04  0.38625189411E+04 0.  0.
        1    1    3    3  502    0  0.15231541009E+04  0.96829323577E+03 -0.60960702682E+03  0.19050488006E+04  0.50400001928E-02 0. -1.
       -1    1    3    3    0  502 -0.15231541009E+04 -0.96829323577E+03  0.76581317632E+03  0.19606274573E+04  0.50400001928E-02 0.  1.
</event>
<event>
 5   0  0.4795023E-07  0.3794068E+04  0.7818609E-02  0.8047429E-01
       -1   -1    0    0    0  501  0.00000000000E+00  0.00000000000E+00  0.21167355538E+04  0.21167355538E+04  0.50400001928E-02 0.  1.
        1   -1    0    0  501    0  0.00000000000E+00  0.00000000000E+00 -0.17001356739E+04  0.17001356739E+04  0.50400001928E-02 0. -1.
    10030    2    1    2    0    0  0.00000000000E+00  0.00000000000E+00  0.41659987995E+03  0.38168712277E+04  0.37940678050E+04 0.  0.
        3    1    3    3  502    0 -0.84645678115E+03 -0.58136147939E+03 -0.13963628933E+04  0.17332915485E+04  0.10100000352E+00 0. -1.
       -3    1    3    3    0  502  0.84645678115E+03  0.58136147939E+03  0.18129627733E+04  0.20835796792E+04  0.10100000352E+00 0.  1.
</event>
<event>
 5   0  0.1337854E-06  0.3842961E+04  0.7818609E-02  0.8036998E-01
        2   -1    0    0  501    0  0.00000000000E+00  0.00000000000E+00  0.22328788348E+04  0.22328788348E+04  0.25500000920E-02 0.  1.
       -2   -1    0    0    0  501  0.00000000000E+00  0.00000000000E+00 -0.16535097522E+04  0.16535097522E+04  0.25500000920E-02 0. -1.
    10030    2    1    2    0    0  0.00000000000E+00  0.00000000000E+00  0.57936908263E+03  0.38863885870E+04  0.38429608006E+04 0.  0.
        3    1    3    3  502    0 -0.48409302457E+03  0.10898505609E+04 -0.12339822522E+04  0.17160514300E+04  0.10100000352E+00 0. -1.
       -3    1    3    3    0  502  0.48409302457E+03 -0.10898505609E+04  0.18133513348E+04  0.21703371570E+04  0.10100000352E+00 0.  1.
</event>
<event>
 5   0  0.1337854E-06  0.3793434E+04  0.7818609E-02  0.8047565E-01
        2   -1    0    0  501    0  0.00000000000E+00  0.00000000000E+00  0.23477956392E+04  0.23477956392E+04  0.25500000920E-02 0.  1.
       -2   -1    0    0    0  501  0.00000000000E+00  0.00000000000E+00 -0.15323038290E+04  0.15323038290E+04  0.25500000920E-02 0. -1.
    10030    2    1    2    0    0  0.00000000000E+00  0.00000000000E+00  0.81549181025E+03  0.38800994682E+04  0.37934344585E+04 0.  0.
        3    1    3    3  502    0  0.18561968657E+04 -0.30554440919E+03  0.65558732382E+03  0.19921392872E+04  0.10100000352E+00 0.  1.
       -3    1    3    3    0  502 -0.18561968657E+04  0.30554440919E+03  0.15990448643E+03  0.18879601810E+04  0.10100000352E+00 0. -1.
</event>
<event>
 5   0  0.1214844E-06  0.3811224E+04  0.7818609E-02  0.8043750E-01
       -2   -1    0    0    0  501  0.00000000000E+00  0.00000000000E+00  0.15684444691E+04  0.15684444691E+04  0.25500000920E-02 0. -1.
        2   -1    0    0  501    0  0.00000000000E+00  0.00000000000E+00 -0.23152603915E+04  0.23152603915E+04  0.25500000920E-02 0.  1.
    10030    2    1    2    0    0  0.00000000000E+00  0.00000000000E+00 -0.74681592249E+03  0.38837048606E+04  0.38112241370E+04 0.  0.
        4    1    3    3  502    0  0.10980441506E+04  0.11947518912E+04 -0.13915197123E+04  0.21376299401E+04  0.12699999809E+01 0. -1.
       -4    1    3    3    0  502 -0.10980441506E+04 -0.11947518912E+04  0.64470378984E+03  0.17460749205E+04  0.12699999809E+01 0.  1.
</event>
<event>
 5   0  0.4255250E-07  0.3849496E+04  0.7818609E-02  0.8035616E-01
        3   -1    0    0  501    0  0.00000000000E+00  0.00000000000E+00  0.17285996671E+04  0.17285996701E+04  0.10100000352E+00 0.  1.
       -3   -1    0    0    0  501  0.00000000000E+00  0.00000000000E+00 -0.21431540336E+04  0.21431540359E+04  0.10100000352E+00 0. -1.
    10030    2    1    2    0    0  0.00000000000E+00  0.00000000000E+00 -0.41455436645E+03  0.38717537060E+04  0.38494962576E+04 0.  0.
        4    1    3    3  502    0 -0.11751034762E+04 -0.76460214818E+03  0.11191234758E+04  0.17938571827E+04  0.12699999809E+01 0.  1.
       -4    1    3    3    0  502  0.11751034762E+04  0.76460214818E+03 -0.15336778422E+04  0.20778965233E+04  0.12699999809E+01 0. -1.
</event>
<event>
 5   0  0.1214844E-06  0.3738163E+04  0.7818609E-02  0.8059557E-01
       -2   -1    0    0    0  501  0.00000000000E+00  0.00000000000E+00  0.18758664300E+04  0.18758664300E+04  0.25500000920E-02 0.  1.
        2   -1    0    0  501    0  0.00000000000E+00  0.00000000000E+00 -0.18623208670E+04  0.18623208670E+04  0.25500000920E-02 0. -1.
    10030    2    1    2    0    0  0.00000000000E+00  0.00000000000E+00  0.13545563078E+02  0.37381872970E+04  0.37381627553E+04 0.  0.
        4    1    3    3  502    0 -0.31963100890E+03 -0.18273637133E+04  0.23490025510E+03  0.18699202831E+04  0.12699999809E+01 0.  1.
       -4    1    3    3    0  502  0.31963100890E+03  0.18273637133E+04 -0.22135469202E+03  0.18682670139E+04  0.12699999809E+01 0. -1.
</event>
<event>
 5   0  0.1372748E-06  0.3819702E+04  0.7818609E-02  0.8041940E-01
       -2   -1    0    0    0  501  0.00000000000E+00  0.00000000000E+00  0.11680627488E+04  0.11680627488E+04  0.25500000920E-02 0.  1.
        2   -1    0    0  501    0  0.00000000000E+00  0.00000000000E+00 -0.31227187207E+04  0.31227187207E+04  0.25500000920E-02 0. -1.
    10030    2    1    2    0    0  0.00000000000E+00  0.00000000000E+00 -0.19546559719E+04  0.42907814694E+04  0.38197022986E+04 0.  0.
        1    1    3    3  502    0 -0.17221627820E+03 -0.19007218138E+04 -0.89687417467E+03  0.21087401796E+04  0.50400001928E-02 0.  1.
       -1    1    3    3    0  502  0.17221627820E+03  0.19007218138E+04 -0.10577817972E+04  0.21820412898E+04  0.50400001928E-02 0. -1.
</event>
<event>
 5   0  0.4725465E-07  0.2165536E+04  0.7818609E-02  0.8532911E-01
        1   -1    0    0  501    0  0.00000000000E+00  0.00000000000E+00  0.86740753191E+03  0.86740753192E+03  0.50400001928E-02 0.  1.
       -1   -1    0    0    0  501  0.00000000000E+00  0.00000000000E+00 -0.13515985971E+04  0.13515985971E+04  0.50400001928E-02 0. -1.
    10030    2    1    2    0    0  0.00000000000E+00  0.00000000000E+00 -0.48419106516E+03  0.22190061290E+04  0.21655362414E+04 0.  0.
        2    1    3    3  502    0 -0.94767818848E+03  0.35951427350E+03 -0.63234331740E+03  0.11946558219E+04  0.25500000920E-02 0. -1.
       -2    1    3    3    0  502  0.94767818848E+03 -0.35951427350E+03  0.14815225224E+03  0.10243503071E+04  0.25500000920E-02 0.  1.
</event>
<event>
 5   0  0.1184616E-06  0.2411143E+04  0.7818609E-02  0.8435343E-01
       -2   -1    0    0    0  501  0.00000000000E+00  0.00000000000E+00  0.80782626166E+03  0.80782626167E+03  0.25500000920E-02 0.  1.
        2   -1    0    0  501    0  0.00000000000E+00  0.00000000000E+00 -0.17991527685E+04  0.17991527685E+04  0.25500000920E-02 0. -1.
    10030    2    1    2    0    0  0.00000000000E+00  0.00000000000E+00 -0.99132650687E+03  0.26069790302E+04  0.24111431771E+04 0.  0.
        5    1    3    3  502    0  0.85977575561E+03 -0.25891616295E+03  0.37411774123E+03  0.97274770813E+03  0.46999998093E+01 0. -1.
       -5    1    3    3    0  502 -0.85977575561E+03  0.25891616295E+03 -0.13654442481E+04  0.16342313221E+04  0.46999998093E+01 0.  1.
</event>
<event>
 5   0  0.5284458E-07  0.2561392E+04  0.7818609E-02  0.8381435E-01
        1   -1    0    0  501    0  0.00000000000E+00  0.00000000000E+00  0.13359408165E+04  0.13359408165E+04  0.50400001928E-02 0.  1.
       -1   -1    0    0    0  501  0.00000000000E+00  0.00000000000E+00 -0.12277360319E+04  0.12277360319E+04  0.50400001928E-02 0. -1.
    10030    2    1    2    0    0  0.00000000000E+00  0.00000000000E+00  0.10820478454E+03  0.25636768484E+04  0.25613923377E+04 0.  0.
        5    1    3    3  502    0  0.12382576371E+03  0.79812086905E+03  0.10488856490E+04  0.13238251153E+04  0.46999998093E+01 0.  1.
       -5    1    3    3    0  502 -0.12382576371E+03 -0.79812086905E+03 -0.94068086443E+03  0.12398517331E+04  0.46999998093E+01 0. -1.
</event>
<event>
 5   0  0.5284458E-07  0.2282945E+04  0.7818609E-02  0.8484676E-01
       -1   -1    0    0    0  501  0.00000000000E+00  0.00000000000E+00  0.66762711013E+03  0.66762711014E+03  0.50400001928E-02 0.  1.
        1   -1    0    0  501    0  0.00000000000E+00  0.00000000000E+00 -0.19516271860E+04  0.19516271860E+04  0.50400001928E-02 0. -1.
    10030    2    1    2    0    0  0.00000000000E+00  0.00000000000E+00 -0.12840000759E+04  0.26192542962E+04  0.22829447810E+04 0.  0.
        5    1    3    3  502    0 -0.23115239020E+03  0.65362101664E+03  0.39838359764E+03  0.79961455824E+03  0.46999998093E+01 0.  1.
       -5    1    3    3    0  502  0.23115239020E+03 -0.65362101664E+03 -0.16823836735E+04  0.18196397379E+04  0.46999998093E+01 0. -1.
</event>
<event>
 5   0  0.5284458E-07  0.3712849E+04  0.7818609E-02  0.8065120E-01
        1   -1    0    0  501    0  0.00000000000E+00  0.00000000000E+00  0.24012395816E+04  0.24012395816E+04  0.50400001928E-02 0.  1.
       -1   -1    0    0    0  501  0.00000000000E+00  0.00000000000E+00 -0.14352221328E+04  0.14352221328E+04  0.50400001928E-02 0. -1.
    10030    2    1    2    0    0  0.00000000000E+00  0.00000000000E+00  0.96601744884E+03  0.38364617144E+04  0.37128491451E+04 0.  0.
        5    1    3    3  502    0 -0.11196253662E+04 -0.11311973602E+04  0.14703968284E+04  0.21668542524E+04  0.46999998093E+01 0.  1.
       -5    1    3    3    0  502  0.11196253662E+04  0.11311973602E+04 -0.50437937952E+03  0.16696074619E+04  0.46999998093E+01 0. -1.
</event>
<event>
 5   0  0.4255250E-07  0.2246482E+04  0.7818609E-02  0.8499327E-01
       -1   -1    0    0    0  501  0.00000000000E+00  0.00000000000E+00  0.68625096294E+03  0.68625096296E+03  0.50400001928E-02 0.  1.
        1   -1    0    0  501    0  0.00000000000E+00  0.00000000000E+00 -0.18384972250E+04  0.18384972250E+04  0.50400001928E-02 0. -1.
    10030    2    1    2    0    0  0.00000000000E+00  0.00000000000E+00 -0.11522462620E+04  0.25247481879E+04  0.22464821308E+04 0.  0.
        2    1    3    3  502    0  0.82497105936E+03  0.29326080817E+03  0.21466067292E+03  0.90147565407E+03  0.25500000920E-02 0.  1.
       -2    1    3    3    0  502 -0.82497105936E+03 -0.29326080817E+03 -0.13669069349E+04  0.16232725339E+04  0.25500000920E-02 0. -1.
</event>
<event>
 5   0  0.1184616E-06  0.4026055E+04  0.7818609E-02  0.7999311E-01
       -2   -1    0    0    0  501  0.00000000000E+00  0.00000000000E+00  0.18196271954E+04  0.18196271954E+04  0.25500000920E-02 0.  1.
        2   -1    0    0  501    0  0.00000000000E+00  0.00000000000E+00 -0.22269830245E+04  0.22269830245E+04  0.25500000920E-02 0. -1.
    10030    2    1    2    0    0  0.00000000000E+00  0.00000000000E+00 -0.40735582914E+03  0.40466102199E+04  0.40260545824E+04 0.  0.
        5    1    3    3  502    0 -0.14868531330E+04  0.21149529755E+03  0.11436114900E+04  0.18876789531E+04  0.46999998093E+01 0.  1.
       -5    1    3    3    0  502  0.14868531330E+04 -0.21149529755E+03 -0.15509673191E+04  0.21589312668E+04  0.46999998093E+01 0. -1.
</event>
<event>
 5   0  0.1372748E-06  0.3837391E+04  0.7818609E-02  0.8038178E-01
       -2   -1    0    0    0  501  0.00000000000E+00  0.00000000000E+00  0.23941382896E+04  0.23941382896E+04  0.25500000920E-02 0.  1.
        2   -1    0    0  501    0  0.00000000000E+00  0.00000000000E+00 -0.15376688932E+04  0.15376688932E+04  0.25500000920E-02 0. -1.
    10030    2    1    2    0    0  0.00000000000E+00  0.00000000000E+00  0.85646939642E+03  0.39318071829E+04  0.38373907667E+04 0.  0.
        1    1    3    3  502    0  0.13982859886E+04  0.84155990674E+03 -0.60553226609E+03  0.17407171246E+04  0.50400001928E-02 0. -1.
       -1    1    3    3    0  502 -0.13982859886E+04 -0.84155990674E+03  0.14620016625E+04  0.21910900583E+04  0.50400001928E-02 0.  1.
</event>
<event>
 5   0  0.4795023E-07  0.3837932E+04  0.7818609E-02  0.8038063E-01
        1   -1    0    0  501    0  0.00000000000E+00  0.00000000000E+00  0.21917990341E+04  0.21917990341E+04  0.50400001928E-02 0. -1.
       -1   -1    0    0    0  501  0.00000000000E+00  0.00000000000E+00 -0.16800948189E+04  0.16800948189E+04  0.50400001928E-02 0.  1.
    10030    2    1    2    0    0  0.00000000000E+00  0.00000000000E+00  0.51170421518E+03  0.38718938530E+04  0.38379318395E+04 0.  0.
        3    1    3    3  502    0 -0.30423732366E+03  0.24846657549E+03  0.21508063758E+04  0.21863815002E+04  0.10100000352E+00 0. -1.
       -3    1    3    3    0  502  0.30423732366E+03 -0.24846657549E+03 -0.16391021606E+04  0.16855123528E+04  0.10100000352E+00 0.  1.
</event>
<event>
 5   0  0.1214844E-06  0.2011686E+04  0.7818609E-02  0.8601177E-01
        2   -1    0    0  501    0  0.00000000000E+00  0.00000000000E+00  0.12052888659E+04  0.12052888659E+04  0.25500000920E-02 0.  1.
       -2   -1    0    0    0  501  0.00000000000E+00  0.00000000000E+00 -0.83940047261E+03  0.83940047262E+03  0.25500000920E-02 0. -1.
    10030    2    1    2    0    0  0.00000000000E+00  0.00000000000E+00  0.36588839326E+03  0.20446893385E+04  0.20116859036E+04 0.  0.
        4    1    3    3  502    0 -0.31358086154E+03 -0.90374356702E+03 -0.13301425648E+03  0.96580525831E+03  0.12699999809E+01 0. -1.
       -4    1    3    3    0  502  0.31358086154E+03  0.90374356702E+03  0.49890264974E+03  0.10788840802E+04  0.12699999809E+01 0.  1.
</event>
<event>
 5   0  0.1337854E-06  0.2388013E+04  0.7818609E-02  0.8444005E-01
        2   -1    0    0  501    0  0.00000000000E+00  0.00000000000E+00  0.16040647537E+04  0.16040647537E+04  0.25500000920E-02 0.  1.
       -2   -1    0    0    0  501  0.00000000000E+00  0.00000000000E+00 -0.88877431222E+03  0.88877431223E+03  0.25500000920E-02 0. -1.
    10030    2    1    2    0    0  0.00000000000E+00  0.00000000000E+00  0.71529044147E+03  0.24928390659E+04  0.23880130219E+04 0.  0.
        3    1    3    3  502    0 -0.63978431562E+03  0.53063052035E+03  0.12524534198E+04  0.15031740746E+04  0.10100000352E+00 0.  1.
       -3    1    3    3    0  502  0.63978431562E+03 -0.53063052035E+03 -0.53716297829E+03  0.98966499134E+03  0.10100000352E+00 0. -1.
</event>
<event>
 5   0  0.5284458E-07  0.3713542E+04  0.7818609E-02  0.8064967E-01
        1   -1    0    0  501    0  0.00000000000E+00  0.00000000000E+00  0.18008376283E+04  0.18008376283E+04  0.50400001928E-02 0.  1.
       -1   -1    0    0    0  501  0.00000000000E+00  0.00000000000E+00 -0.19144419836E+04  0.19144419836E+04  0.50400001928E-02 0. -1.
    10030    2    1    2    0    0  0.00000000000E+00  0.00000000000E+00 -0.11360435526E+03  0.37152796119E+04  0.37135423311E+04 0.  0.
        5    1    3    3  502    0 -0.97786168408E+03  0.74018010269E+03 -0.14515479840E+04  0.19002877934E+04  0.46999998093E+01 0. -1.
       -5    1    3    3    0  502  0.97786168408E+03 -0.74018010269E+03  0.13379436288E+04  0.18149918185E+04  0.46999998093E+01 0.  1.
</event>
<event>
 5   0  0.1079205E-06  0.3767794E+04  0.7818609E-02  0.8053102E-01
       -1   -1    0    0    0  501  0.00000000000E+00  0.00000000000E+00  0.17019092084E+04  0.17019092084E+04  0.50400001928E-02 0. -1.
        1   -1    0    0  501    0  0.00000000000E+00  0.00000000000E+00 -0.20853448581E+04  0.20853448581E+04  0.50400001928E-02 0.  1.
    10030    2    1    2    0    0  0.00000000000E+00  0.00000000000E+00 -0.38343564975E+03  0.37872540665E+04  0.37677938461E+04 0.  0.
        4    1    3    3  502    0  0.61235630961E+03  0.14568015707E+04  0.83915947206E+03  0.17892571919E+04  0.12699999809E+01 0. -1.
       -4    1    3    3    0  502 -0.61235630961E+03 -0.14568015707E+04 -0.12225951218E+04  0.19979968746E+04  0.12699999809E+01 0.  1.
</event>
<event>
 5   0  0.1184616E-06  0.3813194E+04  0.7818609E-02  0.8043329E-01
        2   -1    0    0  501    0  0.00000000000E+00  0.00000000000E+00  0.18854385465E+04  0.18854385465E+04  0.25500000920E-02 0. -1.
       -2   -1    0    0    0  501  0.00000000000E+00  0.00000000000E+00 -0.19279926632E+04  0.19279926632E+04  0.25500000920E-02 0.  1.
    10030    2    1    2    0    0  0.00000000000E+00  0.00000000000E+00 -0.42554116698E+02  0.38134312096E+04  0.38131937713E+04 0.  0.
        5    1    3    3  502    0 -0.10128162649E+04 -0.72785612427E+03  0.14208662256E+04  0.18906227136E+04  0.46999998093E+01 0. -1.
       -5    1    3    3    0  502  0.10128162649E+04  0.72785612427E+03 -0.14634203423E+04  0.19228084960E+04  0.46999998093E+01 0.  1.
</event>
<event>
 5   0  0.1341932E-06  0.2735588E+04  0.7818609E-02  0.8323549E-01
        2   -1    0    0  501    0  0.00000000000E+00  0.00000000000E+00  0.13607142285E+04  0.13607142286E+04  0.25500000920E-02 0.  1.
       -2   -1    0    0    0  501  0.00000000000E+00  0.00000000000E+00 -0.13749106082E+04  0.13749106082E+04  0.25500000920E-02 0. -1.
    10030    2    1    2    0    0  0.00000000000E+00  0.00000000000E+00 -0.14196379605E+02  0.27356248367E+04  0.27355880008E+04 0.  0.
        2    1    3    3  502    0 -0.62072050475E+02 -0.77190590192E+03 -0.11345745756E+04  0.13736633971E+04  0.25500000920E-02 0. -1.
       -2    1    3    3    0  502  0.62072050475E+02  0.77190590192E+03  0.11203781960E+04  0.13619614396E+04  0.25500000920E-02 0.  1.
</event>
<event>
 5   0  0.1337854E-06  0.2620259E+04  0.7818609E-02  0.8361352E-01
       -2   -1    0    0    0  501  0.00000000000E+00  0.00000000000E+00  0.88533767905E+03  0.88533767906E+03  0.25500000920E-02 0.  1.
        2   -1    0    0  501    0  0.00000000000E+00  0.00000000000E+00 -0.19387400067E+04  0.19387400067E+04  0.25500000920E-02 0. -1.
    10030    2    1    2    0    0  0.00000000000E+00  0.00000000000E+00 -0.10534023276E+04  0.28240776857E+04  0.26202592069E+04 0.  0.
        3    1    3    3  502    0 -0.64606318222E+03  0.10956731883E+04 -0.86503349645E+03  0.15382393608E+04  0.10100000352E+00 0.  1.
       -3    1    3    3    0  502  0.64606318222E+03 -0.10956731883E+04 -0.18836883118E+03  0.12858383249E+04  0.10100000352E+00 0. -1.
</event>
<event>
 5   0  0.1341932E-06  0.3490086E+04  0.7818609E-02  0.8116144E-01
        2   -1    0    0  501    0  0.00000000000E+00  0.00000000000E+00  0.15001889580E+04  0.15001889580E+04  0.25500000920E-02 0.  1.
       -2   -1    0    0    0  501  0.00000000000E+00  0.00000000000E+00 -0.20298605383E+04  0.20298605383E+04  0.25500000920E-02 0. -1.
    10030    2    1    2    0    0  0.00000000000E+00  0.00000000000E+00 -0.52967158030E+03  0.35300494963E+04  0.34900855954E+04 0.  0.
        2    1    3    3  502    0 -0.16331558753E+04 -0.18728972239E+03  0.32744508216E+03  0.16761550748E+04  0.25500000920E-02 0.  1.
       -2    1    3    3    0  502  0.16331558753E+04  0.18728972239E+03 -0.85711666246E+03  0.18538944215E+04  0.25500000920E-02 0. -1.
</event>
<event>
 5   0  0.1337854E-06  0.3689010E+04  0.7818609E-02  0.8070402E-01
        2   -1    0    0  501    0  0.00000000000E+00  0.00000000000E+00  0.20542340649E+04  0.20542340649E+04  0.25500000920E-02 0. -1.
       -2   -1    0    0    0  501  0.00000000000E+00  0.00000000000E+00 -0.16561888073E+04  0.16561888073E+04  0.25500000920E-02 0.  1.
    10030    2    1    2    0    0  0.00000000000E+00  0.00000000000E+00  0.39804525753E+03  0.37104228722E+04  0.36890104179E+04 0.  0.
        3    1    3    3  502    0  0.14359645817E+04 -0.76110728211E+03 -0.67834837584E+03  0.17610891812E+04  0.10100000352E+00 0.  1.
       -3    1    3    3    0  502 -0.14359645817E+04  0.76110728211E+03  0.10763936334E+04  0.19493336910E+04  0.10100000352E+00 0. -1.
</event>
<event>
 5   0  0.1184616E-06  0.1867717E+04  0.7818609E-02  0.8671094E-01
        2   -1    0    0  501    0  0.00000000000E+00  0.00000000000E+00  0.19418056735E+04  0.19418056735E+04  0.25500000920E-02 0. -1.
       -2   -1    0    0    0  501  0.00000000000E+00  0.00000000000E+00 -0.44911401273E+03  0.44911401274E+03  0.25500000920E-02 0.  1.
    10030    2    1    2    0    0  0.00000000000E+00  0.00000000000E+00  0.14926916608E+04  0.23909196862E+04  0.18677174711E+04 0.  0.
        5    1    3    3  502    0 -0.27292313212E+03  0.46818730379E+03  0.17199037957E+04  0.18032685723E+04  0.46999998093E+01 0. -1.
       -5    1    3    3    0  502  0.27292313212E+03 -0.46818730379E+03 -0.22721213490E+03  0.58765111394E+03  0.46999998093E+01 0.  1.
</event>
<event>
 5   0  0.1214844E-06  0.1963788E+04  0.7818609E-02  0.8623741E-01
       -2   -1    0    0    0  501  0.00000000000E+00  0.00000000000E+00  0.81073496943E+03  0.81073496944E+03  0.25500000920E-02 0.  1.
        2   -1    0    0  501    0  0.00000000000E+00  0.00000000000E+00 -0.11891869727E+04  0.11891869727E+04  0.25500000920E-02 0. -1.
    10030    2    1    2    0    0  0.00000000000E+00  0.00000000000E+00 -0.37845200327E+03  0.19999219421E+04  0.19637876300E+04 0.  0.
        4    1    3    3  502    0  0.74281913264E+03 -0.62044839922E+03 -0.20720378875E+02  0.96807408132E+03  0.12699999809E+01 0.  1.
       -4    1    3    3    0  502 -0.74281913264E+03  0.62044839922E+03 -0.35773162440E+03  0.10318478608E+04  0.12699999809E+01 0. -1.
</event>
<event>
 5   0  0.1214844E-06  0.3793235E+04  0.7818609E-02  0.8047608E-01
       -2   -1    0    0    0  501  0.00000000000E+00  0.00000000000E+00  0.14941397756E+04  0.14941397756E+04  0.25500000920E-02 0.  1.
        2   -1    0    0  501    0  0.00000000000E+00  0.00000000000E+00 -0.24075115518E+04  0.24075115518E+04  0.25500000920E-02 0. -1.
    10030    2    1    2    0    0  0.00000000000E+00  0.00000000000E+00 -0.91337177622E+03  0.39016513274E+04  0.37932354368E+04 0.  0.
        4    1    3    3  502    0  0.10872494820E+04  0.82745570323E+03  0.89634352966E+03  0.16340831414E+04  0.12699999809E+01 0.  1.
       -4    1    3    3    0  502 -0.10872494820E+04 -0.82745570323E+03 -0.18097153059E+04  0.22675681860E+04  0.12699999809E+01 0. -1.
</event>
<event>
 5   0  0.4795023E-07  0.2676194E+04  0.7818609E-02  0.8342771E-01
       -1   -1    0    0    0  501  0.00000000000E+00  0.00000000000E+00  0.14625329940E+04  0.14625329940E+04  0.50400001928E-02 0.  1.
        1   -1    0    0  501    0  0.00000000000E+00  0.00000000000E+00 -0.12242482262E+04  0.12242482262E+04  0.50400001928E-02 0. -1.
    10030    2    1    2    0    0  0.00000000000E+00  0.00000000000E+00  0.23828476782E+03  0.26867812202E+04  0.26761938821E+04 0.  0.
        3    1    3    3  502    0  0.74396697436E+03  0.11115646338E+04  0.15724803222E+03  0.13467701170E+04  0.10100000352E+00 0. -1.
       -3    1    3    3    0  502 -0.74396697436E+03 -0.11115646338E+04  0.81036735596E+02  0.13400111032E+04  0.10100000352E+00 0.  1.
</event>
<event>
 5   0  0.1341932E-06  0.3893500E+04  0.7818609E-02  0.8026382E-01
        2   -1    0    0  501    0  0.00000000000E+00  0.00000000000E+00  0.12312654862E+04  0.12312654862E+04  0.25500000920E-02 0. -1.
       -2   -1    0    0    0  501  0.00000000000E+00  0.00000000000E+00 -0.30780003113E+04  0.30780003113E+04  0.25500000920E-02 0.  1.
    10030    2    1    2    0    0  0.00000000000E+00  0.00000000000E+00 -0.18467348251E+04  0.43092657975E+04  0.38934999934E+04 0.  0.
        2    1    3    3  502    0 -0.11775587813E+04 -0.93390281423E+03  0.44610417222E+03  0.15677461792E+04  0.25500000920E-02 0. -1.
       -2    1    3    3    0  502  0.11775587813E+04  0.93390281423E+03 -0.22928389974E+04  0.27415196183E+04  0.25500000920E-02 0.  1.
</event>
<event>
 5   0  0.8030324E-07  0.3702300E+04  0.7818609E-02  0.8067452E-01
       -1   -1    0    0    0  501  0.00000000000E+00  0.00000000000E+00  0.13844652951E+04  0.13844652951E+04  0.50400001928E-02 0. -1.
        1   -1    0    0  501    0  0.00000000000E+00  0.00000000000E+00 -0.24751480213E+04  0.24751480213E+04  0.50400001928E-02 0.  1.
    10030    2    1    2    0    0  0.00000000000E+00  0.00000000000E+00 -0.10906827262E+04  0.38596133164E+04  0.37023001151E+04 0.  0.
        1    1    3    3  502    0  0.74640421041E+02  0.16174182429E+04  0.39008335180E+03  0.16654662970E+04  0.50400001928E-02 0. -1.
       -1    1    3    3    0  502 -0.74640421041E+02 -0.16174182429E+04 -0.14807660780E+04  0.21941470194E+04  0.50400001928E-02 0.  1.
</event>
<event>
 5   0  0.1372748E-06  0.3241086E+04  0.7818609E-02  0.8178050E-01
       -2   -1    0    0    0  501  0.00000000000E+00  0.00000000000E+00  0.11829063139E+04  0.11829063139E+04  0.25500000920E-02 0. -1.
        2   -1    0    0  501    0  0.00000000000E+00  0.00000000000E+00 -0.22200914533E+04  0.22200914533E+04  0.25500000920E-02 0.  1.
    10030    2    1    2    0    0  0.00000000000E+00  0.00000000000E+00 -0.10371851395E+04  0.34029977672E+04  0.32410863595E+04 0.  0.
        1    1    3    3  502    0 -0.37255574125E+03 -0.46271653605E+03  0.10644595634E+04  0.12190071925E+04  0.50400001928E-02 0. -1.
       -1    1    3    3    0  502  0.37255574125E+03  0.46271653605E+03 -0.21016447029E+04  0.21839905747E+04  0.50400001928E-02 0.  1.
</event>
<event>
 5   0  0.1337854E-06  0.3901306E+04  0.7818609E-02  0.8024758E-01
        2   -1    0    0  501    0  0.00000000000E+00  0.00000000000E+00  0.12590561010E+04  0.12590561010E+04  0.25500000920E-02 0.  1.
       -2   -1    0    0    0  501  0.00000000000E+00  0.00000000000E+00 -0.30221423842E+04  0.30221423842E+04  0.25500000920E-02 0. -1.
    10030    2    1    2    0    0  0.00000000000E+00  0.00000000000E+00 -0.17630862832E+04  0.42811984852E+04  0.39013058362E+04 0.  0.
        3    1    3    3  502    0  0.61260937551E+03  0.16412817950E+04 -0.18229550837E+04  0.25282921954E+04  0.10100000352E+00 0.  1.
       -3    1    3    3    0  502 -0.61260937551E+03 -0.16412817950E+04  0.59868800544E+02  0.17529062899E+04  0.10100000352E+00 0. -1.
</event>
<event>
 5   0  0.1184616E-06  0.3630828E+04  0.7818609E-02  0.8083466E-01
       -2   -1    0    0    0  501  0.00000000000E+00  0.00000000000E+00  0.15130360256E+04  0.15130360256E+04  0.25500000920E-02 0. -1.
        2   -1    0    0  501    0  0.00000000000E+00  0.00000000000E+00 -0.21782219858E+04  0.21782219858E+04  0.25500000920E-02 0.  1.
    10030    2    1    2    0    0  0.00000000000E+00  0.00000000000E+00 -0.66518596015E+03  0.36912580114E+04  0.36308281900E+04 0.  0.
        5    1    3    3  502    0  0.69939918604E+03  0.87096579054E+03  0.11222966030E+04  0.15834495208E+04  0.46999998093E+01 0. -1.
       -5    1    3    3    0  502 -0.69939918604E+03 -0.87096579054E+03 -0.17874825631E+04  0.21078084906E+04  0.46999998093E+01 0.  1.
</event>
<event>
 5   0  0.1337854E-06  0.3754306E+04  0.7818609E-02  0.8056032E-01
       -2   -1    0    0    0  501  0.00000000000E+00  0.00000000000E+00  0.27363914183E+04  0.27363914183E+04  0.25500000920E-02 0. -1.
        2   -1    0    0  501    0  0.00000000000E+00  0.00000000000E+00 -0.12877188627E+04  0.12877188627E+04  0.25500000920E-02 0.  1.
    10030    2    1    2    0    0  0.00000000000E+00  0.00000000000E+00  0.14486725555E+04  0.40241102810E+04  0.37543057122E+04 0.  0.
        3    1    3    3  502    0  0.40580910223E+03 -0.54894107605E+03  0.25986256686E+04  0.26867959930E+04  0.10100000352E+00 0. -1.
       -3    1    3    3    0  502 -0.40580910223E+03  0.54894107605E+03 -0.11499531131E+04  0.13373142880E+04  0.10100000352E+00 0.  1.
</event>
<event>
 5   0  0.1214844E-06  0.2411495E+04  0.7818609E-02  0.8435213E-01
        2   -1    0    0  501    0  0.00000000000E+00  0.00000000000E+00  0.50618839520E+03  0.50618839521E+03  0.25500000920E-02 0. -1.
       -2   -1    0    0    0  501  0.00000000000E+00  0.00000000000E+00 -0.28721055409E+04  0.28721055409E+04  0.25500000920E-02 0.  1.
    10030    2    1    2    0    0  0.00000000000E+00  0.00000000000E+00 -0.23659171457E+04  0.33782939361E+04  0.24114945529E+04 0.  0.
        4    1    3    3  502    0 -0.65798389735E+03 -0.75568725326E+03 -0.24338677445E+03  0.10311376090E+04  0.12699999809E+01 0. -1.
       -4    1    3    3    0  502  0.65798389735E+03  0.75568725326E+03 -0.21225303713E+04  0.23471563271E+04  0.12699999809E+01 0.  1.
</event>
<event>
 5   0  0.1184616E-06  0.2026205E+04  0.7818609E-02  0.8594466E-01
        2   -1    0    0  501    0  0.00000000000E+00  0.00000000000E+00  0.90775560307E+03  0.90775560308E+03  0.25500000920E-02 0.  1.
       -2   -1    0    0    0  501  0.00000000000E+00  0.00000000000E+00 -0.11306754933E+04  0.11306754933E+04  0.25500000920E-02 0. -1.
    10030    2    1    2    0    0  0.00000000000E+00  0.00000000000E+00 -0.22291989024E+03  0.20384310964E+04  0.20262053344E+04 0.  0.
        5    1    3    3  502    0  0.42450046702E+03 -0.52444573066E+03  0.64881875991E+03  0.93607256349E+03  0.46999998093E+01 0.  1.
       -5    1    3    3    0  502 -0.42450046702E+03  0.52444573066E+03 -0.87173865015E+03  0.11023585329E+04  0.46999998093E+01 0. -1.
</event>
<event>
 5   0  0.1337854E-06  0.3724333E+04  0.7818609E-02  0.8062591E-01
       -2   -1    0    0    0  501  0.00000000000E+00  0.00000000000E+00  0.12847259543E+04  0.12847259543E+04  0.25500000920E-02 0.  1.
        2   -1    0    0  501    0  0.00000000000E+00  0.00000000000E+00 -0.26991475021E+04  0.26991475021E+04  0.25500000920E-02 0. -1.
    10030    2    1    2    0    0  0.00000000000E+00  0.00000000000E+00 -0.14144215478E+04  0.39838734564E+04  0.37243334171E+04 0.  0.
        3    1    3    3  502    0 -0.35854982589E+03  0.11083636144E+04 -0.22612563480E+04  0.25436800429E+04  0.10100000352E+00 0. -1.
       -3    1    3    3    0  502  0.35854982589E+03 -0.11083636144E+04  0.84683480015E+03  0.14401934135E+04  0.10100000352E+00 0.  1.
</event>
<event>
 5   0  0.1372748E-06  0.2891943E+04  0.7818609E-02  0.8275279E-01
        2   -1    0    0  501    0  0.00000000000E+00  0.00000000000E+00  0.15812280760E+04  0.15812280760E+04  0.25500000920E-02 0. -1.
       -2   -1    0    0    0  501  0.00000000000E+00  0.00000000000E+00 -0.13222842898E+04  0.13222842898E+04  0.25500000920E-02 0.  1.
    10030    2    1    2    0    0  0.00000000000E+00  0.00000000000E+00  0.25894378617E+03  0.29035123658E+04  0.28919426298E+04 0.  0.
        1    1    3    3  502    0 -0.30828538028E+02 -0.54718277495E+03  0.14729109635E+04  0.15715680368E+04  0.50400001928E-02 0. -1.
       -1    1    3    3    0  502  0.30828538028E+02  0.54718277495E+03 -0.12139671773E+04  0.13319443290E+04  0.50400001928E-02 0.  1.
</event>
<event>
 5   0  0.1214844E-06  0.3517670E+04  0.7818609E-02  0.8109615E-01
       -2   -1    0    0    0  501  0.00000000000E+00  0.00000000000E+00  0.17424381193E+04  0.17424381193E+04  0.25500000920E-02 0.  1.
        2   -1    0    0  501    0  0.00000000000E+00  0.00000000000E+00 -0.17753858145E+04  0.17753858145E+04  0.25500000920E-02 0. -1.
    10030    2    1    2    0    0  0.00000000000E+00  0.00000000000E+00 -0.32947695127E+02  0.35178239338E+04  0.35176696375E+04 0.  0.
        4    1    3    3  502    0  0.52606885577E+02 -0.17157036146E+04  0.36706863147E+03  0.17553197346E+04  0.12699999809E+01 0.  1.
       -4    1    3    3    0  502 -0.52606885577E+02  0.17157036146E+04 -0.40001632659E+03  0.17625041992E+04  0.12699999809E+01 0. -1.
</event>
<event>
 5   0  0.1372748E-06  0.2370972E+04  0.7818609E-02  0.8450452E-01
        2   -1    0    0  501    0  0.00000000000E+00  0.00000000000E+00  0.57247859049E+03  0.57247859049E+03  0.25500000920E-02 0. -1.
       -2   -1    0    0    0  501  0.00000000000E+00  0.00000000000E+00 -0.24548992200E+04  0.24548992200E+04  0.25500000920E-02 0.  1.
    10030    2    1    2    0    0  0.00000000000E+00  0.00000000000E+00 -0.18824206296E+04  0.30273778105E+04  0.23709721595E+04 0.  0.
        1    1    3    3  502    0 -0.87574970945E+03  0.77349254480E+03 -0.11970555888E+04  0.16727732522E+04  0.50400001928E-02 0.  1.
       -1    1    3    3    0  502  0.87574970945E+03 -0.77349254480E+03 -0.68536504076E+03  0.13546045584E+04  0.50400001928E-02 0. -1.
</event>
<event>
 5   0  0.1337854E-06  0.3691424E+04  0.7818609E-02  0.8069865E-01
       -2   -1    0    0    0  501  0.00000000000E+00  0.00000000000E+00  0.13739028560E+04  0.13739028560E+04  0.25500000920E-02 0. -1.
        2   -1    0    0  501    0  0.00000000000E+00  0.00000000000E+00 -0.24795435385E+04  0.24795435385E+04  0.25500000920E-02 0.  1.
    10030    2    1    2    0    0  0.00000000000E+00  0.00000000000E+00 -0.11056406826E+04  0.38534463945E+04  0.36914235460E+04 0.  0.
        3    1    3    3  502    0  0.10830501782E+04 -0.69553004763E+02 -0.21112694092E+04  0.23738773846E+04  0.10100000352E+00 0.  1.
       -3    1    3    3    0  502 -0.10830501782E+04  0.69553004763E+02  0.10056287266E+04  0.14795690098E+04  0.10100000352E+00 0. -1.
</event>
<event>
 5   0  0.1341932E-06  0.3843947E+04  0.7818609E-02  0.8036789E-01
       -2   -1    0    0    0  501  0.00000000000E+00  0.00000000000E+00  0.14187460363E+04  0.14187460363E+04  0.25500000920E-02 0.  1.
        2   -1    0    0  501    0  0.00000000000E+00  0.00000000000E+00 -0.26036955918E+04  0.26036955918E+04  0.25500000920E-02 0. -1.
    10030    2    1    2    0    0  0.00000000000E+00  0.00000000000E+00 -0.11849495555E+04  0.40224416282E+04  0.38439473465E+04 0.  0.
        2    1    3    3  502    0  0.11491305792E+04  0.80067186689E+02  0.10174958724E+04  0.15369481751E+04  0.25500000920E-02 0.  1.
       -2    1    3    3    0  502 -0.11491305792E+04 -0.80067186689E+02 -0.22024454279E+04  0.24854934531E+04  0.25500000920E-02 0. -1.
</event>
<event>
 5   0  0.1372748E-06  0.2209305E+04  0.7818609E-02  0.8514565E-01
       -2   -1    0    0    0  501  0.00000000000E+00  0.00000000000E+00  0.58116964523E+03  0.58116964524E+03  0.25500000920E-02 0. -1.
        2   -1    0    0  501    0  0.00000000000E+00  0.00000000000E+00 -0.20996578125E+04  0.20996578125E+04  0.25500000920E-02 0.  1.
    10030    2    1    2    0    0  0.00000000000E+00  0.00000000000E+00 -0.15184881673E+04  0.26808274578E+04  0.22093052175E+04 0.  0.
        1    1    3    3  502    0  0.17745636735E+03 -0.76876574592E+03  0.17891976901E+03  0.80901410258E+03  0.50400001928E-02 0. -1.
       -1    1    3    3    0  502 -0.17745636735E+03  0.76876574592E+03 -0.16974079363E+04  0.18718133552E+04  0.50400001928E-02 0.  1.
</event>
<event>
 5   0  0.1341932E-06  0.2288685E+04  0.7818609E-02  0.8482396E-01
       -2   -1    0    0    0  501  0.00000000000E+00  0.00000000000E+00  0.14457516090E+04  0.14457516090E+04  0.25500000920E-02 0.  1.
        2   -1    0    0  501    0  0.00000000000E+00  0.00000000000E+00 -0.90577053811E+03  0.90577053811E+03  0.25500000920E-02 0. -1.
    10030    2    1    2    0    0  0.00000000000E+00  0.00000000000E+00  0.53998107087E+03  0.23515221471E+04  0.22886845242E+04 0.  0.
        2    1    3    3  502    0  0.34741587104E+03 -0.63230930947E+03 -0.64265764668E+03  0.96618926776E+03  0.25500000920E-02 0. -1.
       -2    1    3    3    0  502 -0.34741587104E+03  0.63230930947E+03  0.11826387176E+04  0.13853328793E+04  0.25500000920E-02 0.  1.
</event>
<event>
 5   0  0.4795023E-07  0.3521483E+04  0.7818609E-02  0.8108718E-01
       -1   -1    0    0    0  501  0.00000000000E+00  0.00000000000E+00  0.15843925225E+04  0.15843925225E+04  0.50400001928E-02 0. -1.
        1   -1    0    0  501    0  0.00000000000E+00  0.00000000000E+00 -0.19567185583E+04  0.19567185583E+04  0.50400001928E-02 0.  1.
    10030    2    1    2    0    0  0.00000000000E+00  0.00000000000E+00 -0.37232603583E+03  0.35411110807E+04  0.35214827856E+04 0.  0.
        3    1    3    3  502    0 -0.68484177454E+03 -0.27818176320E+03  0.14208110120E+04  0.16015921115E+04  0.10100000352E+00 0. -1.
       -3    1    3    3    0  502  0.68484177454E+03  0.27818176320E+03 -0.17931370478E+04  0.19395189692E+04  0.10100000352E+00 0.  1.
</event>
<event>
 5   0  0.4255250E-07  0.3882295E+04  0.7818609E-02  0.8028722E-01
        1   -1    0    0  501    0  0.00000000000E+00  0.00000000000E+00  0.23482355945E+04  0.23482355945E+04  0.50400001928E-02 0. -1.
       -1   -1    0    0    0  501  0.00000000000E+00  0.00000000000E+00 -0.16046317005E+04  0.16046317005E+04  0.50400001928E-02 0.  1.
    10030    2    1    2    0    0  0.00000000000E+00  0.00000000000E+00  0.74360389395E+03  0.39528672950E+04  0.38822948241E+04 0.  0.
        2    1    3    3  502    0  0.17826015017E+04 -0.57073854290E+03 -0.15198378284E+03  0.18779003350E+04  0.25500000920E-02 0. -1.
       -2    1    3    3    0  502 -0.17826015017E+04  0.57073854290E+03  0.89558767679E+03  0.20749669600E+04  0.25500000920E-02 0.  1.
</event>
<event>
 5   0  0.1079205E-06  0.3729186E+04  0.7818609E-02  0.8061524E-01
       -1   -1    0    0    0  501  0.00000000000E+00  0.00000000000E+00  0.19119518492E+04  0.19119518492E+04  0.50400001928E-02 0.  1.
        1   -1    0    0  501    0  0.00000000000E+00  0.00000000000E+00 -0.18184075181E+04  0.18184075181E+04  0.50400001928E-02 0. -1.
    10030    2    1    2    0    0  0.00000000000E+00  0.00000000000E+00  0.93544331092E+02  0.37303593674E+04  0.37291863010E+04 0.  0.
        4    1    3    3  502    0 -0.11707531104E+04  0.67614160374E+03 -0.12377173073E+04  0.18329691922E+04  0.12699999809E+01 0. -1.
       -4    1    3    3    0  502  0.11707531104E+04 -0.67614160374E+03  0.13312616384E+04  0.18973901751E+04  0.12699999809E+01 0.  1.
</event>
<event>
 5   0  0.1337854E-06  0.3720661E+04  0.7818609E-02  0.8063399E-01
       -2   -1    0    0    0  501  0.00000000000E+00  0.00000000000E+00  0.19441533855E+04  0.19441533855E+04  0.25500000920E-02 0.  1.
        2   -1    0    0  501    0  0.00000000000E+00  0.00000000000E+00 -0.17801215015E+04  0.17801215015E+04  0.25500000920E-02 0. -1.
    10030    2    1    2    0    0  0.00000000000E+00  0.00000000000E+00  0.16403188406E+03  0.37242748870E+04  0.37206608251E+04 0.  0.
        3    1    3    3  502    0 -0.17616808658E+04 -0.28811438203E+03  0.60626111774E+03  0.18852272869E+04  0.10100000352E+00 0.  1.
       -3    1    3    3    0  502  0.17616808658E+04  0.28811438203E+03 -0.44222923368E+03  0.18390476001E+04  0.10100000352E+00 0. -1.
</event>
<event>
 5   0  0.1337854E-06  0.2142122E+04  0.7818609E-02  0.8542912E-01
       -2   -1    0    0    0  501  0.00000000000E+00  0.00000000000E+00  0.67177102450E+03  0.67177102450E+03  0.25500000920E-02 0. -1.
        2   -1    0    0  501    0  0.00000000000E+00  0.00000000000E+00 -0.17076833432E+04  0.17076833432E+04  0.25500000920E-02 0.  1.
    10030    2    1    2    0    0  0.00000000000E+00  0.00000000000E+00 -0.10359123187E+04  0.23794543677E+04  0.21421224885E+04 0.  0.
        3    1    3    3  502    0  0.71781591924E+03  0.24057200250E+03  0.32363903822E+03  0.82333275142E+03  0.10100000352E+00 0. -1.
       -3    1    3    3    0  502 -0.71781591924E+03 -0.24057200250E+03 -0.13595513569E+04  0.15561216162E+04  0.10100000352E+00 0.  1.
</event>
<event>
 5   0  0.5284458E-07  0.3656033E+04  0.7818609E-02  0.8077776E-01
       -1   -1    0    0    0  501  0.00000000000E+00  0.00000000000E+00  0.13054947868E+04  0.13054947868E+04  0.50400001928E-02 0.  1.
        1   -1    0    0  501    0  0.00000000000E+00  0.00000000000E+00 -0.25596758467E+04  0.25596758467E+04  0.50400001928E-02 0. -1.
    10030    2    1    2    0    0  0.00000000000E+00  0.00000000000E+00 -0.12541810599E+04  0.38651706336E+04  0.36560325348E+04 0.  0.
        5    1    3    3  502    0  0.13083175211E+04 -0.51652002660E+03  0.60722970410E+03  0.15320697365E+04  0.46999998093E+01 0.  1.
       -5    1    3    3    0  502 -0.13083175211E+04  0.51652002660E+03 -0.18614107640E+04  0.23331008971E+04  0.46999998093E+01 0. -1.
</event>
<event>
 5   0  0.1079205E-06  0.3795158E+04  0.7818609E-02  0.8047195E-01
        1   -1    0    0  501    0  0.00000000000E+00  0.00000000000E+00  0.18595232476E+04  0.18595232476E+04  0.50400001928E-02 0. -1.
       -1   -1    0    0    0  501  0.00000000000E+00  0.00000000000E+00 -0.19364140753E+04  0.19364140753E+04  0.50400001928E-02 0.  1.
    10030    2    1    2    0    0  0.00000000000E+00  0.00000000000E+00 -0.76890827711E+02  0.37959373229E+04  0.37951584895E+04 0.  0.
        4    1    3    3  502    0  0.12376146897E+04  0.17010846911E+03 -0.14670866609E+04  0.19269073395E+04  0.12699999809E+01 0.  1.
       -4    1    3    3    0  502 -0.12376146897E+04 -0.17010846911E+03  0.13901958332E+04  0.18690299834E+04  0.12699999809E+01 0. -1.
</event>
<event>
 5   0  0.1214844E-06  0.3810281E+04  0.7818609E-02  0.8043952E-01
        2   -1    0    0  501    0  0.00000000000E+00  0.00000000000E+00  0.12424124671E+04  0.12424124671E+04  0.25500000920E-02 0. -1.
       -2   -1    0    0    0  501  0.00000000000E+00  0.00000000000E+00 -0.29213817069E+04  0.29213817069E+04  0.25500000920E-02 0.  1.
    10030    2    1    2    0    0  0.00000000000E+00  0.00000000000E+00 -0.16789692398E+04  0.41637941740E+04  0.38102813827E+04 0.  0.
        4    1    3    3  502    0  0.89897533643E+03 -0.43138659223E+03  0.93449214423E+03  0.13665753649E+04  0.12699999809E+01 0. -1.
       -4    1    3    3    0  502 -0.89897533643E+03  0.43138659223E+03 -0.26134613840E+04  0.27972188091E+04  0.12699999809E+01 0.  1.
</event>
<event>
 5   0  0.1214844E-06  0.1954746E+04  0.7818609E-02  0.8628075E-01
       -2   -1    0    0    0  501  0.00000000000E+00  0.00000000000E+00  0.96978242027E+03  0.96978242028E+03  0.25500000920E-02 0. -1.
        2   -1    0    0  501    0  0.00000000000E+00  0.00000000000E+00 -0.98502340365E+03  0.98502340365E+03  0.25500000920E-02 0.  1.
    10030    2    1    2    0    0  0.00000000000E+00  0.00000000000E+00 -0.15240983371E+02  0.19548058239E+04  0.19547464085E+04 0.  0.
        4    1    3    3  502    0 -0.47126862334E+03  0.74819132878E+03  0.40877226443E+03  0.97415643347E+03  0.12699999809E+01 0. -1.
       -4    1    3    3    0  502  0.47126862334E+03 -0.74819132878E+03 -0.42401324780E+03  0.98064939046E+03  0.12699999809E+01 0.  1.
</event>
<event>
 5   0  0.1337854E-06  0.3815883E+04  0.7818609E-02  0.8042755E-01
        2   -1    0    0  501    0  0.00000000000E+00  0.00000000000E+00  0.16245471843E+04  0.16245471843E+04  0.25500000920E-02 0. -1.
       -2   -1    0    0    0  501  0.00000000000E+00  0.00000000000E+00 -0.22407728193E+04  0.22407728193E+04  0.25500000920E-02 0.  1.
    10030    2    1    2    0    0  0.00000000000E+00  0.00000000000E+00 -0.61622563498E+03  0.38653200037E+04  0.38158832133E+04 0.  0.
        3    1    3    3  502    0 -0.18530491071E+04 -0.10272184848E+03  0.14022545709E+03  0.18611840212E+04  0.10100000352E+00 0. -1.
       -3    1    3    3    0  502  0.18530491071E+04  0.10272184848E+03 -0.75645109206E+03  0.20041359825E+04  0.10100000352E+00 0.  1.
</event>
<event>
 5   0  0.4795023E-07  0.2027488E+04  0.7818609E-02  0.8593876E-01
       -1   -1    0    0    0  501  0.00000000000E+00  0.00000000000E+00  0.64452029090E+03  0.64452029091E+03  0.50400001928E-02 0.  1.
        1   -1    0    0  501    0  0.00000000000E+00  0.00000000000E+00 -0.15944835612E+04  0.15944835612E+04  0.50400001928E-02 0. -1.
    10030    2    1    2    0    0  0.00000000000E+00  0.00000000000E+00 -0.94996327031E+03  0.22390038521E+04  0.20274881097E+04 0.  0.
        3    1    3    3  502    0 -0.81217380725E+03  0.59946601043E+03 -0.37202920822E+03  0.10758213294E+04  0.10100000352E+00 0. -1.
       -3    1    3    3    0  502  0.81217380725E+03 -0.59946601043E+03 -0.57793406209E+03  0.11631825227E+04  0.10100000352E+00 0.  1.
</event>
<event>
 5   0  0.1214844E-06  0.3656013E+04  0.7818609E-02  0.8077780E-01
       -2   -1    0    0    0  501  0.00000000000E+00  0.00000000000E+00  0.34966067614E+04  0.34966067614E+04  0.25500000920E-02 0. -1.
        2   -1    0    0  501    0  0.00000000000E+00  0.00000000000E+00 -0.95567155775E+03  0.95567155775E+03  0.25500000920E-02 0.  1.
    10030    2    1    2    0    0  0.00000000000E+00  0.00000000000E+00  0.25409352037E+04  0.44522783192E+04  0.36560129270E+04 0.  0.
        4    1    3    3  502    0 -0.15452023520E+04  0.43586284788E+03  0.23348933571E+04  0.28336117117E+04  0.12699999809E+01 0. -1.
       -4    1    3    3    0  502  0.15452023520E+04 -0.43586284788E+03  0.20604184660E+03  0.16186666075E+04  0.12699999809E+01 0.  1.
</event>
<event>
 5   0  0.1079205E-06  0.3773765E+04  0.7818609E-02  0.8051808E-01
        1   -1    0    0  501    0  0.00000000000E+00  0.00000000000E+00  0.25898353132E+04  0.25898353132E+04  0.50400001928E-02 0. -1.
       -1   -1    0    0    0  501  0.00000000000E+00  0.00000000000E+00 -0.13747308512E+04  0.13747308512E+04  0.50400001928E-02 0.  1.
    10030    2    1    2    0    0  0.00000000000E+00  0.00000000000E+00  0.12151044620E+04  0.39645661643E+04  0.37737654959E+04 0.  0.
        4    1    3    3  502    0  0.62480099531E+02  0.18858065954E+04  0.59448918443E+03  0.19782793739E+04  0.12699999809E+01 0. -1.
       -4    1    3    3    0  502 -0.62480099531E+02 -0.18858065954E+04  0.62061527759E+03  0.19862867904E+04  0.12699999809E+01 0.  1.
</event>
<event>
 5   0  0.1372748E-06  0.3745565E+04  0.7818609E-02  0.8057938E-01
       -2   -1    0    0    0  501  0.00000000000E+00  0.00000000000E+00  0.14021491326E+04  0.14021491326E+04  0.25500000920E-02 0.  1.
        2   -1    0    0  501    0  0.00000000000E+00  0.00000000000E+00 -0.25013849637E+04  0.25013849637E+04  0.25500000920E-02 0. -1.
    10030    2    1    2    0    0  0.00000000000E+00  0.00000000000E+00 -0.10992358311E+04  0.39035340962E+04  0.37455652481E+04 0.  0.
        1    1    3    3  502    0  0.87477160061E+03 -0.80724215230E+03 -0.20564347087E+04  0.23760869001E+04  0.50400001928E-02 0. -1.
       -1    1    3    3    0  502 -0.87477160061E+03  0.80724215230E+03  0.95719887759E+03  0.15274471961E+04  0.50400001928E-02 0.  1.
</event>
<event>
 5   0  0.1184616E-06  0.3822568E+04  0.7818609E-02  0.8041329E-01
       -2   -1    0    0    0  501  0.00000000000E+00  0.00000000000E+00  0.30699101729E+04  0.30699101729E+04  0.25500000920E-02 0.  1.
        2   -1    0    0  501    0  0.00000000000E+00  0.00000000000E+00 -0.11899391062E+04  0.11899391062E+04  0.25500000920E-02 0. -1.
    10030    2    1    2    0    0  0.00000000000E+00  0.00000000000E+00  0.18799710667E+04  0.42598492790E+04  0.38225678109E+04 0.  0.
        5    1    3    3  502    0  0.42057098054E+03  0.50378652452E+03  0.29404103821E+04  0.30127588879E+04  0.46999998093E+01 0.  1.
       -5    1    3    3    0  502 -0.42057098054E+03 -0.50378652452E+03 -0.10604393154E+04  0.12470903911E+04  0.46999998093E+01 0. -1.
</event>
<event>
 5   0  0.4795023E-07  0.3728368E+04  0.7818609E-02  0.8061704E-01
        1   -1    0    0  501    0  0.00000000000E+00  0.00000000000E+00  0.23230973041E+04  0.23230973041E+04  0.50400001928E-02 0. -1.
       -1   -1    0    0    0  501  0.00000000000E+00  0.00000000000E+00 -0.14959261790E+04  0.14959261790E+04  0.50400001928E-02 0.  1.
    10030    2    1    2    0    0  0.00000000000E+00  0.00000000000E+00  0.82717112508E+03  0.38190234831E+04  0.37283680471E+04 0.  0.
        3    1    3    3  502    0  0.49163373354E+03  0.14577927801E+04 -0.66477960636E+03  0.16759461367E+04  0.10100000352E+00 0.  1.
       -3    1    3    3    0  502 -0.49163373354E+03 -0.14577927801E+04  0.14919507314E+04  0.21430773465E+04  0.10100000352E+00 0. -1.
</event>
<event>
 5   0  0.4795023E-07  0.3688918E+04  0.7818609E-02  0.8070422E-01
       -1   -1    0    0    0  501  0.00000000000E+00  0.00000000000E+00  0.34578224555E+04  0.34578224556E+04  0.50400001928E-02 0.  1.
        1   -1    0    0  501    0  0.00000000000E+00  0.00000000000E+00 -0.98386474567E+03  0.98386474568E+03  0.50400001928E-02 0. -1.
    10030    2    1    2    0    0  0.00000000000E+00  0.00000000000E+00  0.24739577099E+04  0.44416872012E+04  0.36889183297E+04 0.  0.
        3    1    3    3  502    0 -0.76412174093E+03  0.36041458550E+03 -0.73718714596E+03  0.11212607220E+04  0.10100000352E+00 0. -1.
       -3    1    3    3    0  502  0.76412174093E+03 -0.36041458550E+03  0.32111448558E+04  0.33204264792E+04  0.10100000352E+00 0.  1.
</event>
<event>
 5   0  0.8030324E-07  0.3738531E+04  0.7818609E-02  0.8059476E-01
        1   -1    0    0  501    0  0.00000000000E+00  0.00000000000E+00  0.28948167908E+04  0.28948167908E+04  0.50400001928E-02 0.  1.
       -1   -1    0    0    0  501  0.00000000000E+00  0.00000000000E+00 -0.12070377157E+04  0.12070377157E+04  0.50400001928E-02 0. -1.
    10030    2    1    2    0    0  0.00000000000E+00  0.00000000000E+00  0.16877790751E+04  0.41018545065E+04  0.37385307523E+04 0.  0.
        1    1    3    3  502    0 -0.52527989000E+03 -0.16505521762E+04  0.16149774696E+04  0.23682047371E+04  0.50400001928E-02 0.  1.
       -1    1    3    3    0  502  0.52527989000E+03  0.16505521762E+04  0.72801605520E+02  0.17336497694E+04  0.50400001928E-02 0. -1.
</event>
<event>
 5   0  0.1214844E-06  0.3789167E+04  0.7818609E-02  0.8048484E-01
        2   -1    0    0  501    0  0.00000000000E+00  0.00000000000E+00  0.18177109287E+04  0.18177109287E+04  0.25500000920E-02 0. -1.
       -2   -1    0    0    0  501  0.00000000000E+00  0.00000000000E+00 -0.19747071252E+04  0.19747071252E+04  0.25500000920E-02 0.  1.
    10030    2    1    2    0    0  0.00000000000E+00  0.00000000000E+00 -0.15699619654E+03  0.37924180539E+04  0.37891670443E+04 0.  0.
        4    1    3    3  502    0 -0.44856977533E+03 -0.34406075859E+03  0.17313266914E+04  0.18212870103E+04  0.12699999809E+01 0. -1.
       -4    1    3    3    0  502  0.44856977533E+03  0.34406075859E+03 -0.18883228879E+04  0.19711310435E+04  0.12699999809E+01 0.  1.
</event>
<event>
 5   0  0.4795023E-07  0.1963974E+04  0.7818609E-02  0.8623652E-01
       -1   -1    0    0    0  501  0.00000000000E+00  0.00000000000E+00  0.69184055131E+03  0.69184055133E+03  0.50400001928E-02 0. -1.
        1   -1    0    0  501    0  0.00000000000E+00  0.00000000000E+00 -0.13938158502E+04  0.13938158502E+04  0.50400001928E-02 0.  1.
    10030    2    1    2    0    0  0.00000000000E+00  0.00000000000E+00 -0.70197529891E+03  0.20856564016E+04  0.19639738555E+04 0.  0.
        3    1    3    3  502    0  0.82037749819E+03 -0.44114254728E+03 -0.20802031511E+02  0.93169668953E+03  0.10100000352E+00 0. -1.
       -3    1    3    3    0  502 -0.82037749819E+03  0.44114254728E+03 -0.68117326740E+03  0.11539597120E+04  0.10100000352E+00 0.  1.
</event>
<event>
 5   0  0.1372748E-06  0.4029668E+04  0.7818609E-02  0.7998588E-01
        2   -1    0    0  501    0  0.00000000000E+00  0.00000000000E+00  0.28714576765E+04  0.28714576765E+04  0.25500000920E-02 0.  1.
       -2   -1    0    0    0  501  0.00000000000E+00  0.00000000000E+00 -0.14137611231E+04  0.14137611231E+04  0.25500000920E-02 0. -1.
    10030    2    1    2    0    0  0.00000000000E+00  0.00000000000E+00  0.14576965534E+04  0.42852187996E+04  0.40296675940E+04 0.  0.
        1    1    3    3  502    0  0.70938788522E+03 -0.19939428536E+03 -0.12653262470E+04  0.14642539958E+04  0.50400001928E-02 0. -1.
       -1    1    3    3    0  502 -0.70938788522E+03  0.19939428536E+03  0.27230228004E+04  0.28209648038E+04  0.50400001928E-02 0.  1.
</event>
<event>
 5   0  0.1337854E-06  0.3540430E+04  0.7818609E-02  0.8104275E-01
       -2   -1    0    0    0  501  0.00000000000E+00  0.00000000000E+00  0.13220317715E+04  0.13220317715E+04  0.25500000920E-02 0.  1.
        2   -1    0    0  501    0  0.00000000000E+00  0.00000000000E+00 -0.23703365881E+04  0.23703365881E+04  0.25500000920E-02 0. -1.
    10030    2    1    2    0    0  0.00000000000E+00  0.00000000000E+00 -0.10483048166E+04  0.36923683596E+04  0.35404295099E+04 0.  0.
        3    1    3    3  502    0 -0.17194873947E+04  0.38557738470E+03 -0.34854128899E+03  0.17963262122E+04  0.10100000352E+00 0. -1.
       -3    1    3    3    0  502  0.17194873947E+04 -0.38557738470E+03 -0.69976352756E+03  0.18960421474E+04  0.10100000352E+00 0.  1.
</event>
<event>
 5   0  0.4795023E-07  0.3762498E+04  0.7818609E-02  0.8054251E-01
       -1   -1    0    0    0  501  0.00000000000E+00  0.00000000000E+00  0.13506848699E+04  0.13506848699E+04  0.50400001928E-02 0. -1.
        1   -1    0    0  501    0  0.00000000000E+00  0.00000000000E+00 -0.26202250140E+04  0.26202250140E+04  0.50400001928E-02 0.  1.
    10030    2    1    2    0    0  0.00000000000E+00  0.00000000000E+00 -0.12695401441E+04  0.39709098839E+04  0.37624982563E+04 0.  0.
        3    1    3    3  502    0 -0.15724209491E+04 -0.44529868226E+03 -0.16182116219E+04  0.22998711749E+04  0.10100000352E+00 0.  1.
       -3    1    3    3    0  502  0.15724209491E+04  0.44529868226E+03  0.34867147780E+03  0.16710387090E+04  0.10100000352E+00 0. -1.
</event>
<event>
 5   0  0.1184616E-06  0.3298117E+04  0.7818609E-02  0.8163375E-01
       -2   -1    0    0    0  501  0.00000000000E+00  0.00000000000E+00  0.96843017866E+03  0.96843017867E+03  0.25500000920E-02 0.  1.
        2   -1    0    0  501    0  0.00000000000E+00  0.00000000000E+00 -0.28080439933E+04  0.28080439933E+04  0.25500000920E-02 0. -1.
    10030    2    1    2    0    0  0.00000000000E+00  0.00000000000E+00 -0.18396138146E+04  0.37764741719E+04  0.32981173697E+04 0.  0.
        5    1    3    3  502    0  0.46643511927E+03 -0.68065858421E+03  0.71504089598E+03  0.10918623547E+04  0.46999998093E+01 0.  1.
       -5    1    3    3    0  502 -0.46643511927E+03  0.68065858421E+03 -0.25546547106E+04  0.26846118172E+04  0.46999998093E+01 0. -1.
</event>
<event>
 5   0  0.4795023E-07  0.3603358E+04  0.7818609E-02  0.8089723E-01
        1   -1    0    0  501    0  0.00000000000E+00  0.00000000000E+00  0.22187491278E+04  0.22187491278E+04  0.50400001928E-02 0.  1.
       -1   -1    0    0    0  501  0.00000000000E+00  0.00000000000E+00 -0.14630078402E+04  0.14630078402E+04  0.50400001928E-02 0. -1.
    10030    2    1    2    0    0  0.00000000000E+00  0.00000000000E+00  0.75574128758E+03  0.36817569680E+04  0.36033580835E+04 0.  0.
        3    1    3    3  502    0  0.14785552066E+04  0.26106602469E+02  0.14294570034E+04  0.20567339129E+04  0.10100000352E+00 0.  1.
       -3    1    3    3    0  502 -0.14785552066E+04 -0.26106602469E+02 -0.67371571580E+03  0.16250230551E+04  0.10100000352E+00 0. -1.
</event>
<event>
 5   0  0.5284458E-07  0.3732174E+04  0.7818609E-02  0.8060869E-01
       -1   -1    0    0    0  501  0.00000000000E+00  0.00000000000E+00  0.30153201038E+04  0.30153201038E+04  0.50400001928E-02 0.  1.
        1   -1    0    0  501    0  0.00000000000E+00  0.00000000000E+00 -0.11548629432E+04  0.11548629432E+04  0.50400001928E-02 0. -1.
    10030    2    1    2    0    0  0.00000000000E+00  0.00000000000E+00  0.18604571606E+04  0.41701830471E+04  0.37321744064E+04 0.  0.
        5    1    3    3  502    0  0.14003049749E+03 -0.12723700768E+04  0.24474231680E+04  0.27619624193E+04  0.46999998093E+01 0.  1.
       -5    1    3    3    0  502 -0.14003049749E+03  0.12723700768E+04 -0.58696600742E+03  0.14082206277E+04  0.46999998093E+01 0. -1.
</event>
<event>
 5   0  0.1214844E-06  0.2700638E+04  0.7818609E-02  0.8334798E-01
       -2   -1    0    0    0  501  0.00000000000E+00  0.00000000000E+00  0.17543018444E+04  0.17543018444E+04  0.25500000920E-02 0. -1.
        2   -1    0    0  501    0  0.00000000000E+00  0.00000000000E+00 -0.10393656287E+04  0.10393656287E+04  0.25500000920E-02 0.  1.
    10030    2    1    2    0    0  0.00000000000E+00  0.00000000000E+00  0.71493621571E+03  0.27936674731E+04  0.27006377317E+04 0.  0.
        4    1    3    3  502    0  0.92544768558E+02 -0.10941001964E+04 -0.45557040836E+03  0.11887664968E+04  0.12699999809E+01 0.  1.
       -4    1    3    3    0  502 -0.92544768558E+02  0.10941001964E+04  0.11705066241E+04  0.16049009763E+04  0.12699999809E+01 0. -1.
</event>
<event>
 5   0  0.4255250E-07  0.2455541E+04  0.7818609E-02  0.8418998E-01
       -1   -1    0    0    0  501  0.00000000000E+00  0.00000000000E+00  0.11715751478E+04  0.11715751478E+04  0.50400001928E-02 0. -1.
        1   -1    0    0  501    0  0.00000000000E+00  0.00000000000E+00 -0.12866611555E+04  0.12866611556E+04  0.50400001928E-02 0.  1.
    10030    2    1    2    0    0  0.00000000000E+00  0.00000000000E+00 -0.11508600779E+03  0.24582363033E+04  0.24555408638E+04 0.  0.
        2    1    3    3  502    0  0.57801189259E+03  0.32931673381E+03  0.97551656499E+03  0.11807539234E+04  0.25500000920E-02 0. -1.
       -2    1    3    3    0  502 -0.57801189259E+03 -0.32931673381E+03 -0.10906025728E+04  0.12774823799E+04  0.25500000920E-02 0.  1.
</event>
<event>
 5   0  0.1372748E-06  0.3875849E+04  0.7818609E-02  0.8030071E-01
       -2   -1    0    0    0  501  0.00000000000E+00  0.00000000000E+00  0.22346221798E+04  0.22346221798E+04  0.25500000920E-02 0.  1.
        2   -1    0    0  501    0  0.00000000000E+00  0.00000000000E+00 -0.16806200535E+04  0.16806200535E+04  0.25500000920E-02 0. -1.
    10030    2    1    2    0    0  0.00000000000E+00  0.00000000000E+00  0.55400212627E+03  0.39152422333E+04  0.38758487315E+04 0.  0.
        1    1    3    3  502    0 -0.15847032237E+04  0.60276964129E+03  0.12251221907E+04  0.20917791302E+04  0.50400001928E-02 0.  1.
       -1    1    3    3    0  502  0.15847032237E+04 -0.60276964129E+03 -0.67112006438E+03  0.18234631031E+04  0.50400001928E-02 0. -1.
</event>
<event>
 5   0  0.1214844E-06  0.3794193E+04  0.7818609E-02  0.8047402E-01
       -2   -1    0    0    0  501  0.00000000000E+00  0.00000000000E+00  0.20295616542E+04  0.20295616542E+04  0.25500000920E-02 0.  1.
        2   -1    0    0  501    0  0.00000000000E+00  0.00000000000E+00 -0.17732772197E+04  0.17732772197E+04  0.25500000920E-02 0. -1.
    10030    2    1    2    0    0  0.00000000000E+00  0.00000000000E+00  0.25628443449E+03  0.38028388740E+04  0.37941931672E+04 0.  0.
        4    1    3    3  502    0  0.69220933041E+03 -0.66087229540E+03  0.17698819835E+04  0.20120610817E+04  0.12699999809E+01 0.  1.
       -4    1    3    3    0  502 -0.69220933041E+03  0.66087229540E+03 -0.15135975491E+04  0.17907777923E+04  0.12699999809E+01 0. -1.
</event>
<event>
 5   0  0.1214844E-06  0.2869844E+04  0.7818609E-02  0.8281907E-01
       -2   -1    0    0    0  501  0.00000000000E+00  0.00000000000E+00  0.98320671637E+03  0.98320671637E+03  0.25500000920E-02 0.  1.
        2   -1    0    0  501    0  0.00000000000E+00  0.00000000000E+00 -0.20941691687E+04  0.20941691687E+04  0.25500000920E-02 0. -1.
    10030    2    1    2    0    0  0.00000000000E+00  0.00000000000E+00 -0.11109624524E+04  0.30773758851E+04  0.28698440319E+04 0.  0.
        4    1    3    3  502    0  0.13288178936E+04 -0.17923961608E+03 -0.75339386407E+01  0.13408736732E+04  0.12699999809E+01 0. -1.
       -4    1    3    3    0  502 -0.13288178936E+04  0.17923961608E+03 -0.11034285137E+04  0.17365022119E+04  0.12699999809E+01 0.  1.
</event>
<event>
 5   0  0.1214844E-06  0.3974393E+04  0.7818609E-02  0.8009732E-01
        2   -1    0    0  501    0  0.00000000000E+00  0.00000000000E+00  0.21139767932E+04  0.21139767932E+04  0.25500000920E-02 0.  1.
       -2   -1    0    0    0  501  0.00000000000E+00  0.00000000000E+00 -0.18680195118E+04  0.18680195118E+04  0.25500000920E-02 0. -1.
    10030    2    1    2    0    0  0.00000000000E+00  0.00000000000E+00  0.24595728133E+03  0.39819963050E+04  0.39743929837E+04 0.  0.
        4    1    3    3  502    0 -0.11581934114E+04 -0.82074699849E+03 -0.12703329505E+04  0.19049370151E+04  0.12699999809E+01 0. -1.
       -4    1    3    3    0  502  0.11581934114E+04  0.82074699849E+03  0.15162902318E+04  0.20770592899E+04  0.12699999809E+01 0.  1.
</event>
<event>
 5   0  0.1337854E-06  0.3172419E+04  0.7818609E-02  0.8196140E-01
        2   -1    0    0  501    0  0.00000000000E+00  0.00000000000E+00  0.21737689572E+04  0.21737689572E+04  0.25500000920E-02 0. -1.
       -2   -1    0    0    0  501  0.00000000000E+00  0.00000000000E+00 -0.11574643209E+04  0.11574643209E+04  0.25500000920E-02 0.  1.
    10030    2    1    2    0    0  0.00000000000E+00  0.00000000000E+00  0.10163046364E+04  0.33312332781E+04  0.31724186418E+04 0.  0.
        3    1    3    3  502    0 -0.55337887524E+03  0.14737570948E+04  0.71250144581E+03  0.17279602063E+04  0.10100000352E+00 0. -1.
       -3    1    3    3    0  502  0.55337887524E+03 -0.14737570948E+04  0.30380319055E+03  0.16032730718E+04  0.10100000352E+00 0.  1.
</event>
<event>
 5   0  0.5284458E-07  0.1943660E+04  0.7818609E-02  0.8633424E-01
       -1   -1    0    0    0  501  0.00000000000E+00  0.00000000000E+00  0.73354446633E+03  0.73354446635E+03  0.50400001928E-02 0. -1.
        1   -1    0    0  501    0  0.00000000000E+00  0.00000000000E+00 -0.12875209396E+04  0.12875209396E+04  0.50400001928E-02 0.  1.
    10030    2    1    2    0    0  0.00000000000E+00  0.00000000000E+00 -0.55397647326E+03  0.20210654059E+04  0.19436603207E+04 0.  0.
        5    1    3    3  502    0  0.93845798169E+03 -0.21220029451E+03 -0.41917988632E+03  0.10495076062E+04  0.46999998093E+01 0.  1.
       -5    1    3    3    0  502 -0.93845798169E+03  0.21220029451E+03 -0.13479658694E+03  0.97155779974E+03  0.46999998093E+01 0. -1.
</event>
<event>
 5   0  0.8030324E-07  0.3697055E+04  0.7818609E-02  0.8068615E-01
       -1   -1    0    0    0  501  0.00000000000E+00  0.00000000000E+00  0.12819113061E+04  0.12819113061E+04  0.50400001928E-02 0.  1.
        1   -1    0    0  501    0  0.00000000000E+00  0.00000000000E+00 -0.26655929645E+04  0.26655929645E+04  0.50400001928E-02 0. -1.
    10030    2    1    2    0    0  0.00000000000E+00  0.00000000000E+00 -0.13836816584E+04  0.39475042707E+04  0.36970549137E+04 0.  0.
        1    1    3    3  502    0  0.13057874268E+04 -0.12164854575E+04 -0.17739691186E+03  0.17934289327E+04  0.50400001928E-02 0.  1.
       -1    1    3    3    0  502 -0.13057874268E+04  0.12164854575E+04 -0.12062847465E+04  0.21540753380E+04  0.50400001928E-02 0. -1.
</event>
<event>
 5   0  0.1337854E-06  0.3770827E+04  0.7818609E-02  0.8052445E-01
        2   -1    0    0  501    0  0.00000000000E+00  0.00000000000E+00  0.22470141832E+04  0.22470141832E+04  0.25500000920E-02 0.  1.
       -2   -1    0    0    0  501  0.00000000000E+00  0.00000000000E+00 -0.15820030684E+04  0.15820030684E+04  0.25500000920E-02 0. -1.
    10030    2    1    2    0    0  0.00000000000E+00  0.00000000000E+00  0.66501111485E+03  0.38290172516E+04  0.37708266110E+04 0.  0.
        3    1    3    3  502    0  0.10711041225E+04  0.39458043974E+03  0.18562710413E+04  0.21791512003E+04  0.10100000352E+00 0.  1.
       -3    1    3    3    0  502 -0.10711041225E+04 -0.39458043974E+03 -0.11912599264E+04  0.16498660513E+04  0.10100000352E+00 0. -1.
</event>
<event>
 5   0  0.1341932E-06  0.2059910E+04  0.7818609E-02  0.8579112E-01
        2   -1    0    0  501    0  0.00000000000E+00  0.00000000000E+00  0.97137969241E+03  0.97137969241E+03  0.25500000920E-02 0.  1.
       -2   -1    0    0    0  501  0.00000000000E+00  0.00000000000E+00 -0.10920627550E+04  0.10920627550E+04  0.25500000920E-02 0. -1.
    10030    2    1    2    0    0  0.00000000000E+00  0.00000000000E+00 -0.12068306255E+03  0.20634424474E+04  0.20599102728E+04 0.  0.
        2    1    3    3  502    0 -0.51806367453E+03 -0.87778807128E+03  0.87918048197E+02  0.10230500731E+04  0.25500000920E-02 0.  1.
       -2    1    3    3    0  502  0.51806367453E+03  0.87778807128E+03 -0.20860111075E+03  0.10403923742E+04  0.25500000920E-02 0. -1.
</event>
<event>
 5   0  0.4795023E-07  0.1878224E+04  0.7818609E-02  0.8665772E-01
        1   -1    0    0  501    0  0.00000000000E+00  0.00000000000E+00  0.86972393035E+03  0.86972393036E+03  0.50400001928E-02 0.  1.
       -1   -1    0    0    0  501  0.00000000000E+00  0.00000000000E+00 -0.10140357458E+04  0.10140357459E+04  0.50400001928E-02 0. -1.
    10030    2    1    2    0    0  0.00000000000E+00  0.00000000000E+00 -0.14431181550E+03  0.18837596762E+04  0.18782237933E+04 0.  0.
        3    1    3    3  502    0 -0.22407948805E+03  0.53825280711E+03 -0.81053464309E+03  0.99844585190E+03  0.10100000352E+00 0. -1.
       -3    1    3    3    0  502  0.22407948805E+03 -0.53825280711E+03  0.66622282759E+03  0.88531382432E+03  0.10100000352E+00 0.  1.
</event>
<event>
 5   0  0.1372748E-06  0.3463963E+04  0.7818609E-02  0.8122384E-01
       -2   -1    0    0    0  501  0.00000000000E+00  0.00000000000E+00  0.20298774843E+04  0.20298774843E+04  0.25500000920E-02 0. -1.
        2   -1    0    0  501    0  0.00000000000E+00  0.00000000000E+00 -0.14778032445E+04  0.14778032445E+04  0.25500000920E-02 0.  1.
    10030    2    1    2    0    0  0.00000000000E+00  0.00000000000E+00  0.55207423976E+03  0.35076807288E+04  0.34639627782E+04 0.  0.
        1    1    3    3  502    0  0.13887772919E+04 -0.40359678335E+03 -0.68896807482E+03  0.16019580950E+04  0.50400001928E-02 0. -1.
       -1    1    3    3    0  502 -0.13887772919E+04  0.40359678335E+03  0.12410423146E+04  0.19057226337E+04  0.50400001928E-02 0.  1.
</event>
<event>
 5   0  0.4255250E-07  0.2328298E+04  0.7818609E-02  0.8466846E-01
        1   -1    0    0  501    0  0.00000000000E+00  0.00000000000E+00  0.13960202750E+04  0.13960202750E+04  0.50400001928E-02 0.  1.
       -1   -1    0    0    0  501  0.00000000000E+00  0.00000000000E+00 -0.97079030403E+03  0.97079030404E+03  0.50400001928E-02 0. -1.
    10030    2    1    2    0    0  0.00000000000E+00  0.00000000000E+00  0.42522997098E+03  0.23668105790E+04  0.23282980455E+04 0.  0.
        2    1    3    3  502    0  0.37224535123E+03  0.45997084236E+03 -0.80651657147E+03  0.10003043324E+04  0.25500000920E-02 0. -1.
       -2    1    3    3    0  502 -0.37224535123E+03 -0.45997084236E+03  0.12317465424E+04  0.13665062467E+04  0.25500000920E-02 0.  1.
</event>
<event>
 5   0  0.1184616E-06  0.2442354E+04  0.7818609E-02  0.8423815E-01
        2   -1    0    0  501    0  0.00000000000E+00  0.00000000000E+00  0.17539810818E+04  0.17539810818E+04  0.25500000920E-02 0.  1.
       -2   -1    0    0    0  501  0.00000000000E+00  0.00000000000E+00 -0.85022198128E+03  0.85022198128E+03  0.25500000920E-02 0. -1.
    10030    2    1    2    0    0  0.00000000000E+00  0.00000000000E+00  0.90375910048E+03  0.26042030630E+04  0.24423540042E+04 0.  0.
        5    1    3    3  502    0  0.86282247111E+03  0.72833903544E+03  0.94779238445E+03  0.14742024492E+04  0.46999998093E+01 0.  1.
       -5    1    3    3    0  502 -0.86282247111E+03 -0.72833903544E+03 -0.44033283967E+02  0.11300006138E+04  0.46999998093E+01 0. -1.
</event>
<event>
 5   0  0.4255250E-07  0.3764740E+04  0.7818609E-02  0.8053764E-01
        1   -1    0    0  501    0  0.00000000000E+00  0.00000000000E+00  0.19183522815E+04  0.19183522815E+04  0.50400001928E-02 0.  1.
       -1   -1    0    0    0  501  0.00000000000E+00  0.00000000000E+00 -0.18470625482E+04  0.18470625482E+04  0.50400001928E-02 0. -1.
    10030    2    1    2    0    0  0.00000000000E+00  0.00000000000E+00  0.71289733326E+02  0.37654148298E+04  0.37647399132E+04 0.  0.
        2    1    3    3  502    0 -0.11197609783E+02  0.11283948089E+04  0.15425391446E+04  0.19112370978E+04  0.25500000920E-02 0.  1.
       -2    1    3    3    0  502  0.11197609783E+02 -0.11283948089E+04 -0.14712494113E+04  0.18541777319E+04  0.25500000920E-02 0. -1.
</event>
<event>
 5   0  0.5284458E-07  0.2517485E+04  0.7818609E-02  0.8396783E-01
       -1   -1    0    0    0  501  0.00000000000E+00  0.00000000000E+00  0.10198234367E+04  0.10198234367E+04  0.50400001928E-02 0. -1.
        1   -1    0    0  501    0  0.00000000000E+00  0.00000000000E+00 -0.15536340179E+04  0.15536340179E+04  0.50400001928E-02 0.  1.
    10030    2    1    2    0    0  0.00000000000E+00  0.00000000000E+00 -0.53381058125E+03  0.25734574546E+04  0.25174847634E+04 0.  0.
        5    1    3    3  502    0 -0.24615659707E+03 -0.47768603380E+02  0.99402526868E+03  0.10251747337E+04  0.46999998093E+01 0. -1.
       -5    1    3    3    0  502  0.24615659707E+03  0.47768603380E+02 -0.15278358499E+04  0.15482827210E+04  0.46999998093E+01 0.  1.
</event>
<event>
 5   0  0.1372748E-06  0.3585861E+04  0.7818609E-02  0.8093738E-01
        2   -1    0    0  501    0  0.00000000000E+00  0.00000000000E+00  0.18966108358E+04  0.18966108358E+04  0.25500000920E-02 0.  1.
       -2   -1    0    0    0  501  0.00000000000E+00  0.00000000000E+00 -0.16949177717E+04  0.16949177717E+04  0.25500000920E-02 0. -1.
    10030    2    1    2    0    0  0.00000000000E+00  0.00000000000E+00  0.20169306403E+03  0.35915286075E+04  0.35858607957E+04 0.  0.
        1    1    3    3  502    0  0.14369172315E+03 -0.79476269630E+02 -0.16873705523E+04  0.16953416085E+04  0.50400001928E-02 0. -1.
       -1    1    3    3    0  502 -0.14369172315E+03  0.79476269630E+02  0.18890636163E+04  0.18961869990E+04  0.50400001928E-02 0.  1.
</event>
<event>
 5   0  0.5284458E-07  0.3768418E+04  0.7818609E-02  0.8052966E-01
        1   -1    0    0  501    0  0.00000000000E+00  0.00000000000E+00  0.27239503124E+04  0.27239503124E+04  0.50400001928E-02 0.  1.
       -1   -1    0    0    0  501  0.00000000000E+00  0.00000000000E+00 -0.13033439351E+04  0.13033439351E+04  0.50400001928E-02 0. -1.
    10030    2    1    2    0    0  0.00000000000E+00  0.00000000000E+00  0.14206063773E+04  0.40272942475E+04  0.37684182991E+04 0.  0.
        5    1    3    3  502    0  0.58683263562E+03 -0.34059087921E+03  0.25888532331E+04  0.26762955445E+04  0.46999998093E+01 0.  1.
       -5    1    3    3    0  502 -0.58683263562E+03  0.34059087921E+03 -0.11682468558E+04  0.13509987030E+04  0.46999998093E+01 0. -1.
</event>
<event>
 5   0  0.1341932E-06  0.3736830E+04  0.7818609E-02  0.8059848E-01
       -2   -1    0    0    0  501  0.00000000000E+00  0.00000000000E+00  0.13271185393E+04  0.13271185393E+04  0.25500000920E-02 0.  1.
        2   -1    0    0  501    0  0.00000000000E+00  0.00000000000E+00 -0.26304926224E+04  0.26304926224E+04  0.25500000920E-02 0. -1.
    10030    2    1    2    0    0  0.00000000000E+00  0.00000000000E+00 -0.13033740831E+04  0.39576111617E+04  0.37368304894E+04 0.  0.
        2    1    3    3  502    0 -0.69544333644E+03 -0.78942314973E+03 -0.22869819088E+04  0.25173630240E+04  0.25500000920E-02 0. -1.
       -2    1    3    3    0  502  0.69544333644E+03  0.78942314973E+03  0.98360782561E+03  0.14402481377E+04  0.25500000920E-02 0.  1.
</event>
<event>
 5   0  0.8030324E-07  0.3786912E+04  0.7818609E-02  0.8048969E-01
       -1   -1    0    0    0  501  0.00000000000E+00  0.00000000000E+00  0.31353538006E+04  0.31353538006E+04  0.50400001928E-02 0.  1.
        1   -1    0    0  501    0  0.00000000000E+00  0.00000000000E+00 -0.11434676515E+04  0.11434676515E+04  0.50400001928E-02 0. -1.
    10030    2    1    2    0    0  0.00000000000E+00  0.00000000000E+00  0.19918861491E+04  0.42788214521E+04  0.37869120122E+04 0.  0.
        1    1    3    3  502    0  0.22516532978E+03  0.11292190744E+04 -0.70241708681E+03  0.13487864573E+04  0.50400001928E-02 0. -1.
       -1    1    3    3    0  502 -0.22516532978E+03 -0.11292190744E+04  0.26943032359E+04  0.29300349948E+04  0.50400001928E-02 0.  1.
</event>
<event>
 5   0  0.1184616E-06  0.2157955E+04  0.7818609E-02  0.8536135E-01
        2   -1    0    0  501    0  0.00000000000E+00  0.00000000000E+00  0.12846778969E+04  0.12846778969E+04  0.25500000920E-02 0. -1.
       -2   -1    0    0    0  501  0.00000000000E+00  0.00000000000E+00 -0.90621346143E+03  0.90621346143E+03  0.25500000920E-02 0.  1.
    10030    2    1    2    0    0  0.00000000000E+00  0.00000000000E+00  0.37846443548E+03  0.21908913583E+04  0.21579549613E+04 0.  0.
        5    1    3    3  502    0  0.53366630951E+03 -0.13783435325E+03  0.11309519481E+04  0.12581225845E+04  0.46999998093E+01 0. -1.
       -5    1    3    3    0  502 -0.53366630951E+03  0.13783435325E+03 -0.75248751259E+03  0.93276877383E+03  0.46999998093E+01 0.  1.
</event>
<event>
 5   0  0.4255250E-07  0.3863599E+04  0.7818609E-02  0.8032643E-01
       -1   -1    0    0    0  501  0.00000000000E+00  0.00000000000E+00  0.24255870330E+04  0.24255870330E+04  0.50400001928E-02 0.  1.
        1   -1    0    0  501    0  0.00000000000E+00  0.00000000000E+00 -0.15385347300E+04  0.15385347301E+04  0.50400001928E-02 0. -1.
    10030    2    1    2    0    0  0.00000000000E+00  0.00000000000E+00  0.88705230299E+03  0.39641217631E+04  0.38635993017E+04 0.  0.
        2    1    3    3  502    0  0.10144956408E+04 -0.72665864025E+03 -0.10694990688E+04  0.16434909318E+04  0.25500000920E-02 0. -1.
       -2    1    3    3    0  502 -0.10144956408E+04  0.72665864025E+03  0.19565513718E+04  0.23206308313E+04  0.25500000920E-02 0.  1.
</event>
<event>
 5   0  0.1372748E-06  0.3786930E+04  0.7818609E-02  0.8048965E-01
       -2   -1    0    0    0  501  0.00000000000E+00  0.00000000000E+00  0.16003826095E+04  0.16003826095E+04  0.25500000920E-02 0.  1.
        2   -1    0    0  501    0  0.00000000000E+00  0.00000000000E+00 -0.22402208556E+04  0.22402208556E+04  0.25500000920E-02 0. -1.
    10030    2    1    2    0    0  0.00000000000E+00  0.00000000000E+00 -0.63983824607E+03  0.38406034651E+04  0.37869304186E+04 0.  0.
        1    1    3    3  502    0  0.13491957970E+04  0.11210659822E+04  0.40298954999E+03  0.17998663318E+04  0.50400001928E-02 0.  1.
       -1    1    3    3    0  502 -0.13491957970E+04 -0.11210659822E+04 -0.10428277961E+04  0.20407371333E+04  0.50400001928E-02 0. -1.
</event>
<event>
 5   0  0.8030324E-07  0.3822555E+04  0.7818609E-02  0.8041332E-01
       -1   -1    0    0    0  501  0.00000000000E+00  0.00000000000E+00  0.25094965717E+04  0.25094965717E+04  0.50400001928E-02 0.  1.
        1   -1    0    0  501    0  0.00000000000E+00  0.00000000000E+00 -0.14556631874E+04  0.14556631874E+04  0.50400001928E-02 0. -1.
    10030    2    1    2    0    0  0.00000000000E+00  0.00000000000E+00  0.10538333843E+04  0.39651597591E+04  0.38225550504E+04 0.  0.
        1    1    3    3  502    0  0.14116308172E+04  0.12786997069E+04  0.69160769752E+03  0.20263503428E+04  0.50400001928E-02 0. -1.
       -1    1    3    3    0  502 -0.14116308172E+04 -0.12786997069E+04  0.36222568678E+03  0.19388094163E+04  0.50400001928E-02 0.  1.
</event>
<event>
 5   0  0.1372748E-06  0.3064576E+04  0.7818609E-02  0.8225527E-01
        2   -1    0    0  501    0  0.00000000000E+00  0.00000000000E+00  0.19039723039E+04  0.19039723039E+04  0.25500000920E-02 0. -1.
       -2   -1    0    0    0  501  0.00000000000E+00  0.00000000000E+00 -0.12331622544E+04  0.12331622544E+04  0.25500000920E-02 0.  1.
    10030    2    1    2    0    0  0.00000000000E+00  0.00000000000E+00  0.67081004943E+03  0.31371345583E+04  0.30645761721E+04 0.  0.
        1    1    3    3  502    0  0.85977472402E+02  0.11700577251E+03  0.18969141334E+04  0.19024630630E+04  0.50400001928E-02 0. -1.
       -1    1    3    3    0  502 -0.85977472402E+02 -0.11700577251E+03 -0.12261040840E+04  0.12346714953E+04  0.50400001928E-02 0.  1.
</event>
<event>
 5   0  0.1372748E-06  0.2632001E+04  0.7818609E-02  0.8357412E-01
        2   -1    0    0  501    0  0.00000000000E+00  0.00000000000E+00  0.18441078025E+04  0.18441078025E+04  0.25500000920E-02 0.  1.
       -2   -1    0    0    0  501  0.00000000000E+00  0.00000000000E+00 -0.93913026093E+03  0.93913026094E+03  0.25500000920E-02 0. -1.
    10030    2    1    2    0    0  0.00000000000E+00  0.00000000000E+00  0.90497754159E+03  0.27832380635E+04  0.26320010956E+04 0.  0.
        1    1    3    3  502    0 -0.91411841258E+03  0.78117119285E+02  0.14501752879E+04  0.17160195576E+04  0.50400001928E-02 0.  1.
       -1    1    3    3    0  502  0.91411841258E+03 -0.78117119285E+02 -0.54519774632E+03  0.10672185058E+04  0.50400001928E-02 0. -1.
</event>
<event>
 5   0  0.8030324E-07  0.2628273E+04  0.7818609E-02  0.8358661E-01
       -1   -1    0    0    0  501  0.00000000000E+00  0.00000000000E+00  0.13609991620E+04  0.13609991621E+04  0.50400001928E-02 0. -1.
        1   -1    0    0  501    0  0.00000000000E+00  0.00000000000E+00 -0.12688873175E+04  0.12688873175E+04  0.50400001928E-02 0.  1.
    10030    2    1    2    0    0  0.00000000000E+00  0.00000000000E+00  0.92111844514E+02  0.26298864796E+04  0.26282728747E+04 0.  0.
        1    1    3    3  502    0  0.29676729200E+03  0.81289204768E+03  0.10356475641E+04  0.13496037136E+04  0.50400001928E-02 0. -1.
       -1    1    3    3    0  502 -0.29676729200E+03 -0.81289204768E+03 -0.94353571956E+03  0.12802827660E+04  0.50400001928E-02 0.  1.
</event>
<event>
 5   0  0.4255250E-07  0.2428542E+04  0.7818609E-02  0.8428895E-01
        3   -1    0    0  501    0  0.00000000000E+00  0.00000000000E+00  0.25756392155E+04  0.25756392175E+04  0.10100000352E+00 0.  1.
       -3   -1    0    0    0  501  0.00000000000E+00  0.00000000000E+00 -0.57246134381E+03  0.57246135272E+03  0.10100000352E+00 0. -1.
    10030    2    1    2    0    0  0.00000000000E+00  0.00000000000E+00  0.20031778717E+04  0.31481005702E+04  0.24285418700E+04 0.  0.
        4    1    3    3  502    0  0.70420327830E+03 -0.56875047741E+03 -0.47585810274E+02  0.90644657038E+03  0.12699999809E+01 0. -1.
       -4    1    3    3    0  502 -0.70420327830E+03  0.56875047741E+03  0.20507636819E+04  0.22416539998E+04  0.12699999809E+01 0.  1.
</event>
<event>
 5   0  0.1214844E-06  0.3558034E+04  0.7818609E-02  0.8100173E-01
        2   -1    0    0  501    0  0.00000000000E+00  0.00000000000E+00  0.20457031839E+04  0.20457031839E+04  0.25500000920E-02 0.  1.
       -2   -1    0    0    0  501  0.00000000000E+00  0.00000000000E+00 -0.15470968660E+04  0.15470968661E+04  0.25500000920E-02 0. -1.
    10030    2    1    2    0    0  0.00000000000E+00  0.00000000000E+00  0.49860631787E+03  0.35928000500E+04  0.35580337181E+04 0.  0.
        4    1    3    3  502    0  0.19319248192E+03 -0.15962957447E+04  0.10179347057E+04  0.19030701820E+04  0.12699999809E+01 0.  1.
       -4    1    3    3    0  502 -0.19319248192E+03  0.15962957447E+04 -0.51932838783E+03  0.16897298680E+04  0.12699999809E+01 0. -1.
</event>
<event>
 5   0  0.8030324E-07  0.3853632E+04  0.7818609E-02  0.8034743E-01
        1   -1    0    0  501    0  0.00000000000E+00  0.00000000000E+00  0.19600280603E+04  0.19600280603E+04  0.50400001928E-02 0. -1.
       -1   -1    0    0    0  501  0.00000000000E+00  0.00000000000E+00 -0.18941668239E+04  0.18941668239E+04  0.50400001928E-02 0.  1.
    10030    2    1    2    0    0  0.00000000000E+00  0.00000000000E+00  0.65861236410E+02  0.38541948842E+04  0.38536321182E+04 0.  0.
        1    1    3    3  502    0 -0.12425627586E+04  0.13349065927E+04  0.65485927336E+03  0.19377250806E+04  0.50400001928E-02 0.  1.
       -1    1    3    3    0  502  0.12425627586E+04 -0.13349065927E+04 -0.58899803695E+03  0.19164698035E+04  0.50400001928E-02 0. -1.
</event>
<event>
 5   0  0.4795023E-07  0.2111592E+04  0.7818609E-02  0.8556154E-01
       -1   -1    0    0    0  501  0.00000000000E+00  0.00000000000E+00  0.11338829724E+04  0.11338829724E+04  0.50400001928E-02 0. -1.
        1   -1    0    0  501    0  0.00000000000E+00  0.00000000000E+00 -0.98308665734E+03  0.98308665735E+03  0.50400001928E-02 0.  1.
    10030    2    1    2    0    0  0.00000000000E+00  0.00000000000E+00  0.15079631504E+03  0.21169696297E+04  0.21115920261E+04 0.  0.
        3    1    3    3  502    0 -0.43533015727E+03  0.96186913378E+03  0.76196802489E+02  0.10585417041E+04  0.10100000352E+00 0.  1.
       -3    1    3    3    0  502  0.43533015727E+03 -0.96186913378E+03  0.74599512552E+02  0.10584279257E+04  0.10100000352E+00 0. -1.
</event>
<event>
 5   0  0.1214844E-06  0.3721795E+04  0.7818609E-02  0.8063149E-01
       -2   -1    0    0    0  501  0.00000000000E+00  0.00000000000E+00  0.16334788344E+04  0.16334788344E+04  0.25500000920E-02 0. -1.
        2   -1    0    0  501    0  0.00000000000E+00  0.00000000000E+00 -0.21199778533E+04  0.21199778533E+04  0.25500000920E-02 0.  1.
    10030    2    1    2    0    0  0.00000000000E+00  0.00000000000E+00 -0.48649901893E+03  0.37534566877E+04  0.37217947030E+04 0.  0.
        4    1    3    3  502    0  0.93214467490E+03 -0.14935537956E+04 -0.85115493910E+03  0.19555211527E+04  0.12699999809E+01 0.  1.
       -4    1    3    3    0  502 -0.93214467490E+03  0.14935537956E+04  0.36465592016E+03  0.17979355351E+04  0.12699999809E+01 0. -1.
</event>
<event>
 5   0  0.1341932E-06  0.2029245E+04  0.7818609E-02  0.8593069E-01
       -2   -1    0    0    0  501  0.00000000000E+00  0.00000000000E+00  0.14153986167E+04  0.14153986167E+04  0.25500000920E-02 0. -1.
        2   -1    0    0  501    0  0.00000000000E+00  0.00000000000E+00 -0.72732767771E+03  0.72732767772E+03  0.25500000920E-02 0.  1.
    10030    2    1    2    0    0  0.00000000000E+00  0.00000000000E+00  0.68807093903E+03  0.21427262945E+04  0.20292447747E+04 0.  0.
        2    1    3    3  502    0 -0.28436673204E+03  0.13005368794E+03 -0.67517926416E+03  0.74407354394E+03  0.25500000920E-02 0.  1.
       -2    1    3    3    0  502  0.28436673204E+03 -0.13005368794E+03  0.13632502032E+04  0.13986527505E+04  0.25500000920E-02 0. -1.
</event>
<event>
 5   0  0.4795023E-07  0.3673168E+04  0.7818609E-02  0.8073934E-01
        1   -1    0    0  501    0  0.00000000000E+00  0.00000000000E+00  0.13324688146E+04  0.13324688147E+04  0.50400001928E-02 0.  1.
       -1   -1    0    0    0  501  0.00000000000E+00  0.00000000000E+00 -0.25314224730E+04  0.25314224730E+04  0.50400001928E-02 0. -1.
    10030    2    1    2    0    0  0.00000000000E+00  0.00000000000E+00 -0.11989536583E+04  0.38638912876E+04  0.36731683882E+04 0.  0.
        3    1    3    3  502    0 -0.14778002528E+04 -0.21758875578E+02  0.54739669166E+03  0.15760742952E+04  0.10100000352E+00 0.  1.
       -3    1    3    3    0  502  0.14778002528E+04  0.21758875578E+02 -0.17463503500E+04  0.22878169924E+04  0.10100000352E+00 0. -1.
</event>
<event>
 5   0  0.1337854E-06  0.3728750E+04  0.7818609E-02  0.8061620E-01
       -2   -1    0    0    0  501  0.00000000000E+00  0.00000000000E+00  0.16842993571E+04  0.16842993571E+04  0.25500000920E-02 0. -1.
        2   -1    0    0  501    0  0.00000000000E+00  0.00000000000E+00 -0.20637036581E+04  0.20637036581E+04  0.25500000920E-02 0.  1.
    10030    2    1    2    0    0  0.00000000000E+00  0.00000000000E+00 -0.37940430098E+03  0.37480030152E+04  0.37287503239E+04 0.  0.
        3    1    3    3  502    0  0.16523849898E+04  0.35271919357E+03 -0.98187527024E+03  0.19541919150E+04  0.10100000352E+00 0.  1.
       -3    1    3    3    0  502 -0.16523849898E+04 -0.35271919357E+03  0.60247096925E+03  0.17938111002E+04  0.10100000352E+00 0. -1.
</event>
<event>
 5   0  0.1214844E-06  0.1986374E+04  0.7818609E-02  0.8613018E-01
       -2   -1    0    0    0  501  0.00000000000E+00  0.00000000000E+00  0.99825893450E+03  0.99825893450E+03  0.25500000920E-02 0.  1.
        2   -1    0    0  501    0  0.00000000000E+00  0.00000000000E+00 -0.98814115411E+03  0.98814115411E+03  0.25500000920E-02 0. -1.
    10030    2    1    2    0    0  0.00000000000E+00  0.00000000000E+00  0.10117780388E+02  0.19864000886E+04  0.19863743209E+04 0.  0.
        4    1    3    3  502    0 -0.51180285139E+03  0.35975972256E+03 -0.76634589619E+03  0.98927087401E+03  0.12699999809E+01 0. -1.
       -4    1    3    3    0  502  0.51180285139E+03 -0.35975972256E+03  0.77646367657E+03  0.99712921460E+03  0.12699999809E+01 0.  1.
</event>
<event>
 5   0  0.1214844E-06  0.3880322E+04  0.7818609E-02  0.8029134E-01
       -2   -1    0    0    0  501  0.00000000000E+00  0.00000000000E+00  0.24901523710E+04  0.24901523710E+04  0.25500000920E-02 0.  1.
        2   -1    0    0  501    0  0.00000000000E+00  0.00000000000E+00 -0.15116443008E+04  0.15116443008E+04  0.25500000920E-02 0. -1.
    10030    2    1    2    0    0  0.00000000000E+00  0.00000000000E+00  0.97850807025E+03  0.40017966718E+04  0.38803219659E+04 0.  0.
        4    1    3    3  502    0 -0.15792822488E+04 -0.10615930578E+04  0.87939669288E+03  0.20962949216E+04  0.12699999809E+01 0.  1.
       -4    1    3    3    0  502  0.15792822488E+04  0.10615930578E+04  0.99111377368E+02  0.19055017502E+04  0.12699999809E+01 0. -1.
</event>
<event>
 5   0  0.5284458E-07  0.3827456E+04  0.7818609E-02  0.8040288E-01
       -1   -1    0    0    0  501  0.00000000000E+00  0.00000000000E+00  0.27279909950E+04  0.27279909950E+04  0.50400001928E-02 0. -1.
        1   -1    0    0  501    0  0.00000000000E+00  0.00000000000E+00 -0.13425100160E+04  0.13425100160E+04  0.50400001928E-02 0.  1.
    10030    2    1    2    0    0  0.00000000000E+00  0.00000000000E+00  0.13854809790E+04  0.40705010110E+04  0.38274561967E+04 0.  0.
        5    1    3    3  502    0  0.11554519631E+04 -0.39848630697E+03 -0.87334189336E+03  0.15022012943E+04  0.46999998093E+01 0.  1.
       -5    1    3    3    0  502 -0.11554519631E+04  0.39848630697E+03  0.22588228724E+04  0.25682997167E+04  0.46999998093E+01 0. -1.
</event>
<event>
 5   0  0.4255250E-07  0.3663678E+04  0.7818609E-02  0.8076059E-01
        3   -1    0    0  501    0  0.00000000000E+00  0.00000000000E+00  0.20506275200E+04  0.20506275224E+04  0.10100000352E+00 0. -1.
       -3   -1    0    0    0  501  0.00000000000E+00  0.00000000000E+00 -0.16363937382E+04  0.16363937413E+04  0.10100000352E+00 0.  1.
    10030    2    1    2    0    0  0.00000000000E+00  0.00000000000E+00  0.41423378179E+03  0.36870212637E+04  0.36636779571E+04 0.  0.
        4    1    3    3  502    0 -0.21948167054E+03  0.65280693685E+03  0.19153724446E+04  0.20354317269E+04  0.12699999809E+01 0. -1.
       -4    1    3    3    0  502  0.21948167054E+03 -0.65280693685E+03 -0.15011386628E+04  0.16515895369E+04  0.12699999809E+01 0.  1.
</event>
<event>
 5   0  0.4795023E-07  0.3712535E+04  0.7818609E-02  0.8065190E-01
       -1   -1    0    0    0  501  0.00000000000E+00  0.00000000000E+00  0.18492936321E+04  0.18492936321E+04  0.50400001928E-02 0. -1.
        1   -1    0    0  501    0  0.00000000000E+00  0.00000000000E+00 -0.18632678303E+04  0.18632678303E+04  0.50400001928E-02 0.  1.
    10030    2    1    2    0    0  0.00000000000E+00  0.00000000000E+00 -0.13974198189E+02  0.37125614624E+04  0.37125351627E+04 0.  0.
        3    1    3    3  502    0  0.12792973384E+04 -0.13341963171E+04  0.16344834963E+03  0.18556392068E+04  0.10100000352E+00 0. -1.
       -3    1    3    3    0  502 -0.12792973384E+04  0.13341963171E+04 -0.17742254782E+03  0.18569222556E+04  0.10100000352E+00 0.  1.
</event>
<event>
 5   0  0.4255250E-07  0.2833035E+04  0.7818609E-02  0.8293085E-01
        1   -1    0    0  501    0  0.00000000000E+00  0.00000000000E+00  0.18614285937E+04  0.18614285937E+04  0.50400001928E-02 0.  1.
       -1   -1    0    0    0  501  0.00000000000E+00  0.00000000000E+00 -0.10779472278E+04  0.10779472278E+04  0.50400001928E-02 0. -1.
    10030    2    1    2    0    0  0.00000000000E+00  0.00000000000E+00  0.78348136587E+03  0.29393758215E+04  0.28330349749E+04 0.  0.
        2    1    3    3  502    0 -0.49424734550E+03  0.26769922493E+03 -0.95728696156E+03  0.11101088417E+04  0.25500000920E-02 0. -1.
       -2    1    3    3    0  502  0.49424734550E+03 -0.26769922493E+03  0.17407683274E+04  0.18292669798E+04  0.25500000920E-02 0.  1.
</event>
<event>
 5   0  0.1337854E-06  0.3726285E+04  0.7818609E-02  0.8062162E-01
       -2   -1    0    0    0  501  0.00000000000E+00  0.00000000000E+00  0.12606894634E+04  0.12606894634E+04  0.25500000920E-02 0.  1.
        2   -1    0    0  501    0  0.00000000000E+00  0.00000000000E+00 -0.27534939158E+04  0.27534939158E+04  0.25500000920E-02 0. -1.
    10030    2    1    2    0    0  0.00000000000E+00  0.00000000000E+00 -0.14928044524E+04  0.40141833792E+04  0.37262854250E+04 0.  0.
        3    1    3    3  502    0  0.32690079329E+03  0.18016370842E+04 -0.11173001204E+04  0.21450221167E+04  0.10100000352E+00 0.  1.
       -3    1    3    3    0  502 -0.32690079329E+03 -0.18016370842E+04 -0.37550433194E+03  0.18691612625E+04  0.10100000352E+00 0. -1.
</event>
<event>
 5   0  0.1337854E-06  0.3795233E+04  0.7818609E-02  0.8047179E-01
       -2   -1    0    0    0  501  0.00000000000E+00  0.00000000000E+00  0.16830924122E+04  0.16830924122E+04  0.25500000920E-02 0.  1.
        2   -1    0    0  501    0  0.00000000000E+00  0.00000000000E+00 -0.21394831068E+04  0.21394831068E+04  0.25500000920E-02 0. -1.
    10030    2    1    2    0    0  0.00000000000E+00  0.00000000000E+00 -0.45639069460E+03  0.38225755190E+04  0.37952326849E+04 0.  0.
        3    1    3    3  502    0  0.34805218412E+03  0.59936128213E+03 -0.20074367455E+04  0.21237176287E+04  0.10100000352E+00 0. -1.
       -3    1    3    3    0  502 -0.34805218412E+03 -0.59936128213E+03  0.15510460508E+04  0.16988578903E+04  0.10100000352E+00 0.  1.
</event>
<event>
 5   0  0.5284458E-07  0.2598407E+04  0.7818609E-02  0.8368743E-01
       -1   -1    0    0    0  501  0.00000000000E+00  0.00000000000E+00  0.13759152954E+04  0.13759152954E+04  0.50400001928E-02 0. -1.
        1   -1    0    0  501    0  0.00000000000E+00  0.00000000000E+00 -0.12267683838E+04  0.12267683838E+04  0.50400001928E-02 0.  1.
    10030    2    1    2    0    0  0.00000000000E+00  0.00000000000E+00  0.14914691158E+03  0.26026836792E+04  0.25984067296E+04 0.  0.
        5    1    3    3  502    0  0.55242035507E+02  0.10633288351E+04  0.82023643162E+03  0.13440720918E+04  0.46999998093E+01 0. -1.
       -5    1    3    3    0  502 -0.55242035507E+02 -0.10633288351E+04 -0.67108952004E+03  0.12586115874E+04  0.46999998093E+01 0.  1.
</event>
<event>
 5   0  0.1341932E-06  0.3503053E+04  0.7818609E-02  0.8113067E-01
        2   -1    0    0  501    0  0.00000000000E+00  0.00000000000E+00  0.14638945555E+04  0.14638945555E+04  0.25500000920E-02 0.  1.
       -2   -1    0    0    0  501  0.00000000000E+00  0.00000000000E+00 -0.20956729599E+04  0.20956729599E+04  0.25500000920E-02 0. -1.
    10030    2    1    2    0    0  0.00000000000E+00  0.00000000000E+00 -0.63177840439E+03  0.35595675154E+04  0.35030525181E+04 0.  0.
        2    1    3    3  502    0  0.13373313687E+03  0.13181852815E+04  0.84816973303E+03  0.15731779570E+04  0.25500000920E-02 0.  1.
       -2    1    3    3    0  502 -0.13373313687E+03 -0.13181852815E+04 -0.14799481374E+04  0.19863895584E+04  0.25500000920E-02 0. -1.
</event>
<event>
 5   0  0.1372748E-06  0.3779891E+04  0.7818609E-02  0.8050484E-01
        2   -1    0    0  501    0  0.00000000000E+00  0.00000000000E+00  0.21709417597E+04  0.21709417597E+04  0.25500000920E-02 0.  1.
       -2   -1    0    0    0  501  0.00000000000E+00  0.00000000000E+00 -0.16453202548E+04  0.16453202548E+04  0.25500000920E-02 0. -1.
    10030    2    1    2    0    0  0.00000000000E+00  0.00000000000E+00  0.52562150488E+03  0.38162620144E+04  0.37798912414E+04 0.  0.
        1    1    3    3  502    0 -0.40683733179E+03  0.13350944708E+04 -0.10237745923E+04  0.17309269991E+04  0.50400001928E-02 0. -1.
       -1    1    3    3    0  502  0.40683733179E+03 -0.13350944708E+04  0.15493960971E+04  0.20853350154E+04  0.50400001928E-02 0.  1.
</event>
<event>
 5   0  0.1214844E-06  0.3811323E+04  0.7818609E-02  0.8043729E-01
       -2   -1    0    0    0  501  0.00000000000E+00  0.00000000000E+00  0.17026138236E+04  0.17026138236E+04  0.25500000920E-02 0.  1.
        2   -1    0    0  501    0  0.00000000000E+00  0.00000000000E+00 -0.21329234087E+04  0.21329234087E+04  0.25500000920E-02 0. -1.
    10030    2    1    2    0    0  0.00000000000E+00  0.00000000000E+00 -0.43030958512E+03  0.38355372323E+04  0.38113225422E+04 0.  0.
        4    1    3    3  502    0 -0.62717486765E+03 -0.14824337629E+03 -0.20199307470E+04  0.21202467424E+04  0.12699999809E+01 0. -1.
       -4    1    3    3    0  502  0.62717486765E+03  0.14824337629E+03  0.15896211619E+04  0.17152904898E+04  0.12699999809E+01 0.  1.
</event>
<event>
 5   0  0.1372748E-06  0.3679445E+04  0.7818609E-02  0.8072532E-01
        2   -1    0    0  501    0  0.00000000000E+00  0.00000000000E+00  0.16623333261E+04  0.16623333261E+04  0.25500000920E-02 0.  1.
       -2   -1    0    0    0  501  0.00000000000E+00  0.00000000000E+00 -0.20360411341E+04  0.20360411341E+04  0.25500000920E-02 0. -1.
    10030    2    1    2    0    0  0.00000000000E+00  0.00000000000E+00 -0.37370780800E+03  0.36983744602E+04  0.36794450834E+04 0.  0.
        1    1    3    3  502    0 -0.18358195726E+04 -0.78853130109E+02 -0.27747153147E+03  0.18583438245E+04  0.50400001928E-02 0.  1.
       -1    1    3    3    0  502  0.18358195726E+04  0.78853130109E+02 -0.96236276529E+02  0.18400306357E+04  0.50400001928E-02 0. -1.
</event>
<event>
 5   0  0.1337854E-06  0.3741989E+04  0.7818609E-02  0.8058720E-01
       -2   -1    0    0    0  501  0.00000000000E+00  0.00000000000E+00  0.10392965141E+04  0.10392965141E+04  0.25500000920E-02 0.  1.
        2   -1    0    0  501    0  0.00000000000E+00  0.00000000000E+00 -0.33682589890E+04  0.33682589890E+04  0.25500000920E-02 0. -1.
    10030    2    1    2    0    0  0.00000000000E+00  0.00000000000E+00 -0.23289624749E+04  0.44075555030E+04  0.37419886829E+04 0.  0.
        3    1    3    3  502    0  0.29723193024E+03  0.11318786164E+02  0.10112690611E+04  0.10541062847E+04  0.10100000352E+00 0.  1.
       -3    1    3    3    0  502 -0.29723193024E+03 -0.11318786164E+02 -0.33402315361E+04  0.33534492183E+04  0.10100000352E+00 0. -1.
</event>
<event>
 5   0  0.8030324E-07  0.3826990E+04  0.7818609E-02  0.8040388E-01
        1   -1    0    0  501    0  0.00000000000E+00  0.00000000000E+00  0.19804671942E+04  0.19804671942E+04  0.50400001928E-02 0.  1.
       -1   -1    0    0    0  501  0.00000000000E+00  0.00000000000E+00 -0.18487879058E+04  0.18487879058E+04  0.50400001928E-02 0. -1.
    10030    2    1    2    0    0  0.00000000000E+00  0.00000000000E+00  0.13167928836E+03  0.38292551000E+04  0.38269903561E+04 0.  0.
        1    1    3    3  502    0  0.13430343882E+04 -0.13600638186E+04 -0.23369372631E+02  0.19115598568E+04  0.50400001928E-02 0. -1.
       -1    1    3    3    0  502 -0.13430343882E+04  0.13600638186E+04  0.15504866099E+03  0.19176952432E+04  0.50400001928E-02 0.  1.
</event>
<event>
 5   0  0.1184616E-06  0.2898341E+04  0.7818609E-02  0.8273371E-01
        2   -1    0    0  501    0  0.00000000000E+00  0.00000000000E+00  0.15672013736E+04  0.15672013736E+04  0.25500000920E-02 0. -1.
       -2   -1    0    0    0  501  0.00000000000E+00  0.00000000000E+00 -0.13400292234E+04  0.13400292234E+04  0.25500000920E-02 0.  1.
    10030    2    1    2    0    0  0.00000000000E+00  0.00000000000E+00  0.22717215017E+03  0.29072305970E+04  0.28983413460E+04 0.  0.
        5    1    3    3  502    0 -0.28394228284E+03 -0.39255871952E+03  0.14835523598E+04  0.15606650065E+04  0.46999998093E+01 0. -1.
       -5    1    3    3    0  502  0.28394228284E+03  0.39255871952E+03 -0.12563802096E+04  0.13465655905E+04  0.46999998093E+01 0.  1.
</event>
<event>
 5   0  0.1341932E-06  0.3846900E+04  0.7818609E-02  0.8036165E-01
       -2   -1    0    0    0  501  0.00000000000E+00  0.00000000000E+00  0.15820815787E+04  0.15820815787E+04  0.25500000920E-02 0.  1.
        2   -1    0    0  501    0  0.00000000000E+00  0.00000000000E+00 -0.23384756441E+04  0.23384756441E+04  0.25500000920E-02 0. -1.
    10030    2    1    2    0    0  0.00000000000E+00  0.00000000000E+00 -0.75639406546E+03  0.39205572228E+04  0.38468996549E+04 0.  0.
        2    1    3    3  502    0 -0.10809655778E+04  0.86681566964E+02  0.12408231845E+04  0.16479206442E+04  0.25500000920E-02 0.  1.
       -2    1    3    3    0  502  0.10809655778E+04 -0.86681566964E+02 -0.19972172500E+04  0.22726365785E+04  0.25500000920E-02 0. -1.
</event>
<event>
 5   0  0.1341932E-06  0.3414804E+04  0.7818609E-02  0.8134283E-01
        2   -1    0    0  501    0  0.00000000000E+00  0.00000000000E+00  0.86393879345E+03  0.86393879345E+03  0.25500000920E-02 0.  1.
       -2   -1    0    0    0  501  0.00000000000E+00  0.00000000000E+00 -0.33743373309E+04  0.33743373309E+04  0.25500000920E-02 0. -1.
    10030    2    1    2    0    0  0.00000000000E+00  0.00000000000E+00 -0.25103985375E+04  0.42382761244E+04  0.34148036092E+04 0.  0.
        2    1    3    3  502    0  0.12008835708E+03 -0.14194258648E+04 -0.86917201402E+02  0.14271459628E+04  0.25500000920E-02 0.  1.
       -2    1    3    3    0  502 -0.12008835708E+03  0.14194258648E+04 -0.24234813361E+04  0.28111301616E+04  0.25500000920E-02 0. -1.
</event>
<event>
 5   0  0.5284458E-07  0.3723406E+04  0.7818609E-02  0.8062794E-01
        1   -1    0    0  501    0  0.00000000000E+00  0.00000000000E+00  0.16120465697E+04  0.16120465697E+04  0.50400001928E-02 0.  1.
       -1   -1    0    0    0  501  0.00000000000E+00  0.00000000000E+00 -0.21500239602E+04  0.21500239602E+04  0.50400001928E-02 0. -1.
    10030    2    1    2    0    0  0.00000000000E+00  0.00000000000E+00 -0.53797739057E+03  0.37620705299E+04  0.37234063704E+04 0.  0.
        5    1    3    3  502    0 -0.11815528368E+04  0.14080936746E+04  0.29240261184E+02  0.18383884207E+04  0.46999998093E+01 0. -1.
       -5    1    3    3    0  502  0.11815528368E+04 -0.14080936746E+04 -0.56721765176E+03  0.19236821092E+04  0.46999998093E+01 0.  1.
</event>
<event>
 5   0  0.4255250E-07  0.2706403E+04  0.7818609E-02  0.8332930E-01
        1   -1    0    0  501    0  0.00000000000E+00  0.00000000000E+00  0.10687902745E+04  0.10687902745E+04  0.50400001928E-02 0.  1.
       -1   -1    0    0    0  501  0.00000000000E+00  0.00000000000E+00 -0.17132959982E+04  0.17132959982E+04  0.50400001928E-02 0. -1.
    10030    2    1    2    0    0  0.00000000000E+00  0.00000000000E+00 -0.64450572372E+03  0.27820862727E+04  0.27064028527E+04 0.  0.
        2    1    3    3  502    0 -0.61277628462E+03  0.11304175716E+04 -0.75572669298E+03  0.14914628710E+04  0.25500000920E-02 0.  1.
       -2    1    3    3    0  502  0.61277628462E+03 -0.11304175716E+04  0.11122096926E+03  0.12906234017E+04  0.25500000920E-02 0. -1.
</event>
<event>
 5   0  0.1372748E-06  0.3819595E+04  0.7818609E-02  0.8041963E-01
        2   -1    0    0  501    0  0.00000000000E+00  0.00000000000E+00  0.16937973872E+04  0.16937973872E+04  0.25500000920E-02 0. -1.
       -2   -1    0    0    0  501  0.00000000000E+00  0.00000000000E+00 -0.21533431712E+04  0.21533431712E+04  0.25500000920E-02 0.  1.
    10030    2    1    2    0    0  0.00000000000E+00  0.00000000000E+00 -0.45954578401E+03  0.38471405585E+04  0.38195952860E+04 0.  0.
        1    1    3    3  502    0 -0.34714314697E+03  0.10638376574E+04  0.13289884963E+04  0.17373742686E+04  0.50400001928E-02 0. -1.
       -1    1    3    3    0  502  0.34714314697E+03 -0.10638376574E+04 -0.17885342803E+04  0.21097662899E+04  0.50400001928E-02 0.  1.
</event>
<event>
 5   0  0.4255250E-07  0.3316275E+04  0.7818609E-02  0.8158766E-01
       -1   -1    0    0    0  501  0.00000000000E+00  0.00000000000E+00  0.16031695664E+04  0.16031695664E+04  0.50400001928E-02 0. -1.
        1   -1    0    0  501    0  0.00000000000E+00  0.00000000000E+00 -0.17149903309E+04  0.17149903309E+04  0.50400001928E-02 0.  1.
    10030    2    1    2    0    0  0.00000000000E+00  0.00000000000E+00 -0.11182076457E+03  0.33181598973E+04  0.33162752028E+04 0.  0.
        2    1    3    3  502    0 -0.14045145563E+03  0.41629424094E+03  0.15438706358E+04  0.16051679185E+04  0.25500000920E-02 0. -1.
       -2    1    3    3    0  502  0.14045145563E+03 -0.41629424094E+03 -0.16556914003E+04  0.17129919789E+04  0.25500000920E-02 0.  1.
</event>
<event>
 5   0  0.1184616E-06  0.2872665E+04  0.7818609E-02  0.8281057E-01
        2   -1    0    0  501    0  0.00000000000E+00  0.00000000000E+00  0.14390482359E+04  0.14390482359E+04  0.25500000920E-02 0.  1.
       -2   -1    0    0    0  501  0.00000000000E+00  0.00000000000E+00 -0.14336215428E+04  0.14336215428E+04  0.25500000920E-02 0. -1.
    10030    2    1    2    0    0  0.00000000000E+00  0.00000000000E+00  0.54266931256E+01  0.28726697787E+04  0.28726646530E+04 0.  0.
        5    1    3    3  502    0  0.10189607812E+04 -0.80246411729E+03 -0.61437666937E+03  0.14351691591E+04  0.46999998093E+01 0. -1.
       -5    1    3    3    0  502 -0.10189607812E+04  0.80246411729E+03  0.61980336249E+03  0.14375006196E+04  0.46999998093E+01 0.  1.
</event>
<event>
 5   0  0.4255250E-07  0.2200804E+04  0.7818609E-02  0.8518094E-01
        1   -1    0    0  501    0  0.00000000000E+00  0.00000000000E+00  0.21495332770E+04  0.21495332770E+04  0.50400001928E-02 0. -1.
       -1   -1    0    0    0  501  0.00000000000E+00  0.00000000000E+00 -0.56332428165E+03  0.56332428168E+03  0.50400001928E-02 0.  1.
    10030    2    1    2    0    0  0.00000000000E+00  0.00000000000E+00  0.15862089953E+04  0.27128575586E+04  0.22008037524E+04 0.  0.
        2    1    3    3  502    0  0.51670351036E+03  0.16712433838E+03  0.19728452704E+04  0.20462237226E+04  0.25500000920E-02 0. -1.
       -2    1    3    3    0  502 -0.51670351036E+03 -0.16712433838E+03 -0.38663627509E+03  0.66663383602E+03  0.25500000920E-02 0.  1.
</event>
<event>
 5   0  0.5284458E-07  0.3741402E+04  0.7818609E-02  0.8058848E-01
        1   -1    0    0  501    0  0.00000000000E+00  0.00000000000E+00  0.29779005699E+04  0.29779005699E+04  0.50400001928E-02 0.  1.
       -1   -1    0    0    0  501  0.00000000000E+00  0.00000000000E+00 -0.11751641333E+04  0.11751641333E+04  0.50400001928E-02 0. -1.
    10030    2    1    2    0    0  0.00000000000E+00  0.00000000000E+00  0.18027364366E+04  0.41530647032E+04  0.37414018454E+04 0.  0.
        5    1    3    3  502    0  0.14193872006E+04  0.72461522678E+03 -0.18610486147E+03  0.16044888163E+04  0.46999998093E+01 0. -1.
       -5    1    3    3    0  502 -0.14193872006E+04 -0.72461522678E+03  0.19888412981E+04  0.25485758869E+04  0.46999998093E+01 0.  1.
</event>
<event>
 5   0  0.4255250E-07  0.3724117E+04  0.7818609E-02  0.8062638E-01
       -3   -1    0    0    0  501  0.00000000000E+00  0.00000000000E+00  0.13968561311E+04  0.13968561347E+04  0.10100000352E+00 0.  1.
        3   -1    0    0  501    0  0.00000000000E+00  0.00000000000E+00 -0.24821894361E+04  0.24821894381E+04  0.10100000352E+00 0. -1.
    10030    2    1    2    0    0  0.00000000000E+00  0.00000000000E+00 -0.10853333050E+04  0.38790455729E+04  0.37241168314E+04 0.  0.
        5    1    3    3  502    0  0.78241436960E+03 -0.80653600876E+03 -0.20892140113E+04  0.23722373098E+04  0.46999998093E+01 0. -1.
       -5    1    3    3    0  502 -0.78241436960E+03  0.80653600876E+03  0.10038807063E+04  0.15068082631E+04  0.46999998093E+01 0.  1.
</event>
<event>
 5   0  0.1341932E-06  0.3703596E+04  0.7818609E-02  0.8067165E-01
        2   -1    0    0  501    0  0.00000000000E+00  0.00000000000E+00  0.11150715248E+04  0.11150715248E+04  0.25500000920E-02 0. -1.
       -2   -1    0    0    0  501  0.00000000000E+00  0.00000000000E+00 -0.30752781039E+04  0.30752781039E+04  0.25500000920E-02 0.  1.
    10030    2    1    2    0    0  0.00000000000E+00  0.00000000000E+00 -0.19602065791E+04  0.41903496287E+04  0.37035955744E+04 0.  0.
        2    1    3    3  502    0 -0.50908743630E+03  0.19766849756E+03 -0.29820944150E+04  0.30316876410E+04  0.25500000920E-02 0.  1.
       -2    1    3    3    0  502  0.50908743630E+03 -0.19766849756E+03  0.10218878359E+04  0.11586619878E+04  0.25500000920E-02 0. -1.
</event>
<event>
 5   0  0.1372748E-06  0.3223222E+04  0.7818609E-02  0.8182711E-01
        2   -1    0    0  501    0  0.00000000000E+00  0.00000000000E+00  0.16936865530E+04  0.16936865530E+04  0.25500000920E-02 0.  1.
       -2   -1    0    0    0  501  0.00000000000E+00  0.00000000000E+00 -0.15335125715E+04  0.15335125716E+04  0.25500000920E-02 0. -1.
    10030    2    1    2    0    0  0.00000000000E+00  0.00000000000E+00  0.16017398141E+03  0.32271991245E+04  0.32232217555E+04 0.  0.
        1    1    3    3  502    0  0.59543389615E+03  0.18037594077E+03 -0.14084259142E+04  0.15397209359E+04  0.50400001928E-02 0. -1.
       -1    1    3    3    0  502 -0.59543389615E+03 -0.18037594077E+03  0.15685998956E+04  0.16874781886E+04  0.50400001928E-02 0.  1.
</event>
<event>
 5   0  0.5284458E-07  0.2786644E+04  0.7818609E-02  0.8307427E-01
       -1   -1    0    0    0  501  0.00000000000E+00  0.00000000000E+00  0.13972143906E+04  0.13972143906E+04  0.50400001928E-02 0.  1.
        1   -1    0    0  501    0  0.00000000000E+00  0.00000000000E+00 -0.13894401213E+04  0.13894401213E+04  0.50400001928E-02 0. -1.
    10030    2    1    2    0    0  0.00000000000E+00  0.00000000000E+00  0.77742692391E+01  0.27866545119E+04  0.27866436675E+04 0.  0.
        5    1    3    3  502    0  0.44961494602E+03  0.51433062765E+03  0.12182369712E+04  0.13967150755E+04  0.46999998093E+01 0.  1.
       -5    1    3    3    0  502 -0.44961494602E+03 -0.51433062765E+03 -0.12104627019E+04  0.13899394364E+04  0.46999998093E+01 0. -1.
</event>
<event>
 5   0  0.1559284E-06  0.1942471E+04  0.7818609E-02  0.8634000E-01
       -2   -1    0    0    0  501  0.00000000000E+00  0.00000000000E+00  0.39869820094E+03  0.39869820094E+03  0.25500000920E-02 0.  1.
        2   -1    0    0  501    0  0.00000000000E+00  0.00000000000E+00 -0.23659451648E+04  0.23659451648E+04  0.25500000920E-02 0. -1.
    10030    2    1    2    0    0  0.00000000000E+00  0.00000000000E+00 -0.19672469639E+04  0.27646433658E+04  0.19424706749E+04 0.  0.
        1    1    3    3  502    0  0.12185943990E+03 -0.12399628053E+03 -0.23436189522E+04  0.23500584235E+04  0.50400001928E-02 0. -1.
       -1    1    3    3    0  502 -0.12185943990E+03  0.12399628053E+03  0.37637198836E+03  0.41458494223E+03  0.50400001928E-02 0.  1.
</event>
<event>
 5   0  0.1372748E-06  0.3771729E+04  0.7818609E-02  0.8052249E-01
       -2   -1    0    0    0  501  0.00000000000E+00  0.00000000000E+00  0.12609060788E+04  0.12609060788E+04  0.25500000920E-02 0. -1.
        2   -1    0    0  501    0  0.00000000000E+00  0.00000000000E+00 -0.28205793046E+04  0.28205793046E+04  0.25500000920E-02 0.  1.
    10030    2    1    2    0    0  0.00000000000E+00  0.00000000000E+00 -0.15596732258E+04  0.40814853835E+04  0.37717293599E+04 0.  0.
        1    1    3    3  502    0 -0.10603688536E+03  0.24446053647E+03  0.12404317900E+04  0.12687299952E+04  0.50400001928E-02 0. -1.
       -1    1    3    3    0  502  0.10603688536E+03 -0.24446053647E+03 -0.28001050158E+04  0.28127553883E+04  0.50400001928E-02 0.  1.
</event>
<event>
 5   0  0.1184616E-06  0.3914919E+04  0.7818609E-02  0.8021933E-01
        2   -1    0    0  501    0  0.00000000000E+00  0.00000000000E+00  0.22568669363E+04  0.22568669363E+04  0.25500000920E-02 0. -1.
       -2   -1    0    0    0  501  0.00000000000E+00  0.00000000000E+00 -0.16977728907E+04  0.16977728907E+04  0.25500000920E-02 0.  1.
    10030    2    1    2    0    0  0.00000000000E+00  0.00000000000E+00  0.55909404556E+03  0.39546398270E+04  0.39149189020E+04 0.  0.
        5    1    3    3  502    0 -0.10477815443E+04  0.22049715043E+03  0.19348186497E+04  0.22113368027E+04  0.46999998093E+01 0. -1.
       -5    1    3    3    0  502  0.10477815443E+04 -0.22049715043E+03 -0.13757246042E+04  0.17433030243E+04  0.46999998093E+01 0.  1.
</event>
<event>
 5   0  0.1337854E-06  0.3610746E+04  0.7818609E-02  0.8088035E-01
        2   -1    0    0  501    0  0.00000000000E+00  0.00000000000E+00  0.16149704841E+04  0.16149704841E+04  0.25500000920E-02 0. -1.
       -2   -1    0    0    0  501  0.00000000000E+00  0.00000000000E+00 -0.20182233609E+04  0.20182233609E+04  0.25500000920E-02 0.  1.
    10030    2    1    2    0    0  0.00000000000E+00  0.00000000000E+00 -0.40325287685E+03  0.36331938450E+04  0.36107457169E+04 0.  0.
        3    1    3    3  502    0 -0.49328008138E+03 -0.15944238692E+04  0.49102696536E+03  0.17397184267E+04  0.10100000352E+00 0. -1.
       -3    1    3    3    0  502  0.49328008138E+03  0.15944238692E+04 -0.89427984221E+03  0.18934754183E+04  0.10100000352E+00 0.  1.
</event>
<event>
 5   0  0.4795023E-07  0.1888821E+04  0.7818609E-02  0.8660441E-01
       -1   -1    0    0    0  501  0.00000000000E+00  0.00000000000E+00  0.52166883047E+03  0.52166883049E+03  0.50400001928E-02 0. -1.
        1   -1    0    0  501    0  0.00000000000E+00  0.00000000000E+00 -0.17097264228E+04  0.17097264228E+04  0.50400001928E-02 0.  1.
    10030    2    1    2    0    0  0.00000000000E+00  0.00000000000E+00 -0.11880575923E+04  0.22313952533E+04  0.18888207786E+04 0.  0.
        3    1    3    3  502    0 -0.67543159553E+03 -0.57152265913E+03 -0.20388166177E+03  0.90797231915E+03  0.10100000352E+00 0. -1.
       -3    1    3    3    0  502  0.67543159553E+03  0.57152265913E+03 -0.98417593057E+03  0.13234229342E+04  0.10100000352E+00 0.  1.
</event>
<event>
 5   0  0.4795023E-07  0.3851634E+04  0.7818609E-02  0.8035164E-01
       -1   -1    0    0    0  501  0.00000000000E+00  0.00000000000E+00  0.33436998073E+04  0.33436998073E+04  0.50400001928E-02 0. -1.
        1   -1    0    0  501    0  0.00000000000E+00  0.00000000000E+00 -0.11091819932E+04  0.11091819932E+04  0.50400001928E-02 0.  1.
    10030    2    1    2    0    0  0.00000000000E+00  0.00000000000E+00  0.22345178141E+04  0.44528818005E+04  0.38516342594E+04 0.  0.
        3    1    3    3  502    0  0.13752980920E+04  0.60322532712E+03  0.25110432197E+04  0.29258611892E+04  0.10100000352E+00 0. -1.
       -3    1    3    3    0  502 -0.13752980920E+04 -0.60322532712E+03 -0.27652540558E+03  0.15270206113E+04  0.10100000352E+00 0.  1.
</event>
<event>
 5   0  0.4795023E-07  0.3765331E+04  0.7818609E-02  0.8053636E-01
       -1   -1    0    0    0  501  0.00000000000E+00  0.00000000000E+00  0.19879043899E+04  0.19879043899E+04  0.50400001928E-02 0.  1.
        1   -1    0    0  501    0  0.00000000000E+00  0.00000000000E+00 -0.17829975445E+04  0.17829975445E+04  0.50400001928E-02 0. -1.
    10030    2    1    2    0    0  0.00000000000E+00  0.00000000000E+00  0.20490684541E+03  0.37709019344E+04  0.37653306074E+04 0.  0.
        3    1    3    3  502    0  0.15284020404E+04  0.12427358619E+03 -0.99139522304E+03  0.18260123821E+04  0.10100000352E+00 0. -1.
       -3    1    3    3    0  502 -0.15284020404E+04 -0.12427358619E+03  0.11963020684E+04  0.19448895522E+04  0.10100000352E+00 0.  1.
</event>
<event>
 5   0  0.1184616E-06  0.3802262E+04  0.7818609E-02  0.8045670E-01
        2   -1    0    0  501    0  0.00000000000E+00  0.00000000000E+00  0.14322134991E+04  0.14322134991E+04  0.25500000920E-02 0. -1.
       -2   -1    0    0    0  501  0.00000000000E+00  0.00000000000E+00 -0.25235759037E+04  0.25235759037E+04  0.25500000920E-02 0.  1.
    10030    2    1    2    0    0  0.00000000000E+00  0.00000000000E+00 -0.10913624046E+04  0.39557894028E+04  0.38022622083E+04 0.  0.
        5    1    3    3  502    0 -0.40123124222E+03  0.39220088330E+03  0.13441070652E+04  0.14565211757E+04  0.46999998093E+01 0. -1.
       -5    1    3    3    0  502  0.40123124222E+03 -0.39220088330E+03 -0.24354694698E+04  0.24992682271E+04  0.46999998093E+01 0.  1.
</event>
<event>
 5   0  0.1372748E-06  0.3530183E+04  0.7818609E-02  0.8106674E-01
       -2   -1    0    0    0  501  0.00000000000E+00  0.00000000000E+00  0.12109268950E+04  0.12109268950E+04  0.25500000920E-02 0.  1.
        2   -1    0    0  501    0  0.00000000000E+00  0.00000000000E+00 -0.25728622117E+04  0.25728622117E+04  0.25500000920E-02 0. -1.
    10030    2    1    2    0    0  0.00000000000E+00  0.00000000000E+00 -0.13619353167E+04  0.37837891067E+04  0.35301830260E+04 0.  0.
        1    1    3    3  502    0  0.18372916373E+03 -0.16056455900E+04 -0.14416669965E+04  0.21657003244E+04  0.50400001928E-02 0. -1.
       -1    1    3    3    0  502 -0.18372916373E+03  0.16056455900E+04  0.79731679783E+02  0.16180887822E+04  0.50400001928E-02 0.  1.
</event>
<event>
 5   0  0.4255250E-07  0.2320544E+04  0.7818609E-02  0.8469865E-01
        3   -1    0    0  501    0  0.00000000000E+00  0.00000000000E+00  0.14372681003E+04  0.14372681038E+04  0.10100000352E+00 0. -1.
       -3   -1    0    0    0  501  0.00000000000E+00  0.00000000000E+00 -0.93665929936E+03  0.93665930481E+03  0.10100000352E+00 0.  1.
    10030    2    1    2    0    0  0.00000000000E+00  0.00000000000E+00  0.50060880091E+03  0.23739274086E+04  0.23205435074E+04 0.  0.
        3    1    3    3  502    0 -0.65094979102E+02 -0.11583636797E+04  0.23632393973E+03  0.11840155343E+04  0.10100000352E+00 0.  1.
       -3    1    3    3    0  502  0.65094979102E+02  0.11583636797E+04  0.26428486118E+03  0.11899118744E+04  0.10100000352E+00 0. -1.
</event>
<event>
 5   0  0.1372748E-06  0.3675225E+04  0.7818609E-02  0.8073475E-01
       -2   -1    0    0    0  501  0.00000000000E+00  0.00000000000E+00  0.14467490079E+04  0.14467490079E+04  0.25500000920E-02 0. -1.
        2   -1    0    0  501    0  0.00000000000E+00  0.00000000000E+00 -0.23340742014E+04  0.23340742014E+04  0.25500000920E-02 0.  1.
    10030    2    1    2    0    0  0.00000000000E+00  0.00000000000E+00 -0.88732519351E+03  0.37808232092E+04  0.36752249102E+04 0.  0.
        1    1    3    3  502    0  0.10323862438E+04  0.10445654272E+04 -0.15798794489E+04  0.21570714780E+04  0.50400001928E-02 0.  1.
       -1    1    3    3    0  502 -0.10323862438E+04 -0.10445654272E+04  0.69255425537E+03  0.16237517313E+04  0.50400001928E-02 0. -1.
</event>
<event>
 5   0  0.4795023E-07  0.2036195E+04  0.7818609E-02  0.8589883E-01
        1   -1    0    0  501    0  0.00000000000E+00  0.00000000000E+00  0.83054193104E+03  0.83054193106E+03  0.50400001928E-02 0.  1.
       -1   -1    0    0    0  501  0.00000000000E+00  0.00000000000E+00 -0.12480072754E+04  0.12480072754E+04  0.50400001928E-02 0. -1.
    10030    2    1    2    0    0  0.00000000000E+00  0.00000000000E+00 -0.41746534431E+03  0.20785492064E+04  0.20361948556E+04 0.  0.
        3    1    3    3  502    0  0.89178113357E+03  0.10971188719E+03  0.27998688617E+03  0.94111792832E+03  0.10100000352E+00 0.  1.
       -3    1    3    3    0  502 -0.89178113357E+03 -0.10971188719E+03 -0.69745223049E+03  0.11374312781E+04  0.10100000352E+00 0. -1.
</event>
<event>
 5   0  0.4255250E-07  0.3663834E+04  0.7818609E-02  0.8076024E-01
       -1   -1    0    0    0  501  0.00000000000E+00  0.00000000000E+00  0.12907481589E+04  0.12907481589E+04  0.50400001928E-02 0.  1.
        1   -1    0    0  501    0  0.00000000000E+00  0.00000000000E+00 -0.25999810853E+04  0.25999810853E+04  0.50400001928E-02 0. -1.
    10030    2    1    2    0    0  0.00000000000E+00  0.00000000000E+00 -0.13092329265E+04  0.38907292442E+04  0.36638344935E+04 0.  0.
        2    1    3    3  502    0 -0.48763188884E+03  0.14525410732E+04  0.41168869750E+03  0.15865522405E+04  0.25500000920E-02 0.  1.
       -2    1    3    3    0  502  0.48763188884E+03 -0.14525410732E+04 -0.17209216239E+04  0.23041770036E+04  0.25500000920E-02 0. -1.
</event>
<event>
 5   0  0.8030324E-07  0.2145771E+04  0.7818609E-02  0.8541345E-01
        1   -1    0    0  501    0  0.00000000000E+00  0.00000000000E+00  0.70199436415E+03  0.70199436417E+03  0.50400001928E-02 0.  1.
       -1   -1    0    0    0  501  0.00000000000E+00  0.00000000000E+00 -0.16397334129E+04  0.16397334129E+04  0.50400001928E-02 0. -1.
    10030    2    1    2    0    0  0.00000000000E+00  0.00000000000E+00 -0.93773904876E+03  0.23417277771E+04  0.21457712969E+04 0.  0.
        1    1    3    3  502    0  0.57982184412E+03  0.38174972879E+03 -0.13615933272E+04  0.15283529092E+04  0.50400001928E-02 0. -1.
       -1    1    3    3    0  502 -0.57982184412E+03 -0.38174972879E+03  0.42385427843E+03  0.81337486789E+03  0.50400001928E-02 0.  1.
</event>
<event>
 5   0  0.1079205E-06  0.2368659E+04  0.7818609E-02  0.8451331E-01
        1   -1    0    0  501    0  0.00000000000E+00  0.00000000000E+00  0.75076091844E+03  0.75076091846E+03  0.50400001928E-02 0. -1.
       -1   -1    0    0    0  501  0.00000000000E+00  0.00000000000E+00 -0.18682861136E+04  0.18682861137E+04  0.50400001928E-02 0.  1.
    10030    2    1    2    0    0  0.00000000000E+00  0.00000000000E+00 -0.11175251952E+04  0.26190470321E+04  0.23686588599E+04 0.  0.
        4    1    3    3  502    0  0.72031710856E+02  0.11234888028E+04 -0.96535524901E+03  0.14830131581E+04  0.12699999809E+01 0.  1.
       -4    1    3    3    0  502 -0.72031710856E+02 -0.11234888028E+04 -0.15216994619E+03  0.11360338740E+04  0.12699999809E+01 0. -1.
</event>
<event>
 5   0  0.4795023E-07  0.3693400E+04  0.7818609E-02  0.8069426E-01
        1   -1    0    0  501    0  0.00000000000E+00  0.00000000000E+00  0.12077625222E+04  0.12077625222E+04  0.50400001928E-02 0. -1.
       -1   -1    0    0    0  501  0.00000000000E+00  0.00000000000E+00 -0.28236521751E+04  0.28236521751E+04  0.50400001928E-02 0.  1.
    10030    2    1    2    0    0  0.00000000000E+00  0.00000000000E+00 -0.16158896528E+04  0.40314146973E+04  0.36934002073E+04 0.  0.
        3    1    3    3  502    0 -0.52519044743E+03 -0.10427490752E+04  0.75378535883E+03  0.13897276774E+04  0.10100000352E+00 0. -1.
       -3    1    3    3    0  502  0.52519044743E+03  0.10427490752E+04 -0.23696750117E+04  0.26416870199E+04  0.10100000352E+00 0.  1.
</event>
<event>
 5   0  0.5726641E-07  0.1895020E+04  0.7818609E-02  0.8657339E-01
        1   -1    0    0  501    0  0.00000000000E+00  0.00000000000E+00  0.14064985123E+04  0.14064985123E+04  0.50400001928E-02 0. -1.
       -1   -1    0    0    0  501  0.00000000000E+00  0.00000000000E+00 -0.63830486718E+03  0.63830486720E+03  0.50400001928E-02 0.  1.
    10030    2    1    2    0    0  0.00000000000E+00  0.00000000000E+00  0.76819364512E+03  0.20448033795E+04  0.18950196264E+04 0.  0.
        5    1    3    3  502    0 -0.15455898740E+03  0.83162820317E+03  0.84475852036E+03  0.11954635070E+04  0.46999998093E+01 0. -1.
       -5    1    3    3    0  502  0.15455898740E+03 -0.83162820317E+03 -0.76564875246E+02  0.84933987250E+03  0.46999998093E+01 0.  1.
</event>
<event>
 5   0  0.8030324E-07  0.3658495E+04  0.7818609E-02  0.8077223E-01
        1   -1    0    0  501    0  0.00000000000E+00  0.00000000000E+00  0.14176668427E+04  0.14176668427E+04  0.50400001928E-02 0. -1.
       -1   -1    0    0    0  501  0.00000000000E+00  0.00000000000E+00 -0.23603193029E+04  0.23603193030E+04  0.50400001928E-02 0.  1.
    10030    2    1    2    0    0  0.00000000000E+00  0.00000000000E+00 -0.94265246021E+03  0.37779861457E+04  0.36584949988E+04 0.  0.
        1    1    3    3  502    0  0.10866924902E+04  0.86673457640E+03 -0.16992890394E+04  0.21953843931E+04  0.50400001928E-02 0.  1.
       -1    1    3    3    0  502 -0.10866924902E+04 -0.86673457640E+03  0.75663657917E+03  0.15826017526E+04  0.50400001928E-02 0. -1.
</event>
<event>
 5   0  0.1184616E-06  0.2003307E+04  0.7818609E-02  0.8605076E-01
       -2   -1    0    0    0  501  0.00000000000E+00  0.00000000000E+00  0.13475227377E+04  0.13475227377E+04  0.25500000920E-02 0. -1.
        2   -1    0    0  501    0  0.00000000000E+00  0.00000000000E+00 -0.74455899544E+03  0.74455899545E+03  0.25500000920E-02 0.  1.
    10030    2    1    2    0    0  0.00000000000E+00  0.00000000000E+00  0.60296374230E+03  0.20920817332E+04  0.20033074412E+04 0.  0.
        5    1    3    3  502    0 -0.57075374365E+03 -0.72949913703E+03  0.69963707265E+03  0.11607941033E+04  0.46999998093E+01 0. -1.
       -5    1    3    3    0  502  0.57075374365E+03  0.72949913703E+03 -0.96673330346E+02  0.93128762990E+03  0.46999998093E+01 0.  1.
</event>
<event>
 5   0  0.4255250E-07  0.2262456E+04  0.7818609E-02  0.8492873E-01
        1   -1    0    0  501    0  0.00000000000E+00  0.00000000000E+00  0.96391038799E+03  0.96391038801E+03  0.50400001928E-02 0.  1.
       -1   -1    0    0    0  501  0.00000000000E+00  0.00000000000E+00 -0.13275889810E+04  0.13275889810E+04  0.50400001928E-02 0. -1.
    10030    2    1    2    0    0  0.00000000000E+00  0.00000000000E+00 -0.36367859297E+03  0.22914993690E+04  0.22624560193E+04 0.  0.
        2    1    3    3  502    0 -0.65032658600E+03 -0.56140481440E+03 -0.92720535509E+03  0.12640450168E+04  0.25500000920E-02 0. -1.
       -2    1    3    3    0  502  0.65032658600E+03  0.56140481440E+03  0.56352676212E+03  0.10274543521E+04  0.25500000920E-02 0.  1.
</event>
<event>
 5   0  0.5284458E-07  0.2452124E+04  0.7818609E-02  0.8420243E-01
       -1   -1    0    0    0  501  0.00000000000E+00  0.00000000000E+00  0.14644039216E+04  0.14644039216E+04  0.50400001928E-02 0.  1.
        1   -1    0    0  501    0  0.00000000000E+00  0.00000000000E+00 -0.10265121943E+04  0.10265121943E+04  0.50400001928E-02 0. -1.
    10030    2    1    2    0    0  0.00000000000E+00  0.00000000000E+00  0.43789172736E+03  0.24909161159E+04  0.24521243712E+04 0.  0.
        5    1    3    3  502    0 -0.96437836652E+03  0.87537927546E+02  0.98285160724E+03  0.13797492143E+04  0.46999998093E+01 0.  1.
       -5    1    3    3    0  502  0.96437836652E+03 -0.87537927546E+02 -0.54495987988E+03  0.11111669016E+04  0.46999998093E+01 0. -1.
</event>
<event>
 5   0  0.4255250E-07  0.3634488E+04  0.7818609E-02  0.8082637E-01
       -1   -1    0    0    0  501  0.00000000000E+00  0.00000000000E+00  0.13585727012E+04  0.13585727012E+04  0.50400001928E-02 0. -1.
        1   -1    0    0  501    0  0.00000000000E+00  0.00000000000E+00 -0.24307682612E+04  0.24307682612E+04  0.50400001928E-02 0.  1.
    10030    2    1    2    0    0  0.00000000000E+00  0.00000000000E+00 -0.10721955599E+04  0.37893409624E+04  0.36344878058E+04 0.  0.
        2    1    3    3  502    0 -0.16471440469E+04  0.76601240920E+03 -0.58840380928E+03  0.19094704934E+04  0.25500000920E-02 0.  1.
       -2    1    3    3    0  502  0.16471440469E+04 -0.76601240920E+03 -0.48379175066E+03  0.18798704690E+04  0.25500000920E-02 0. -1.
</event>
<event>
 5   0  0.1372748E-06  0.3777761E+04  0.7818609E-02  0.8050944E-01
        2   -1    0    0  501    0  0.00000000000E+00  0.00000000000E+00  0.19335887163E+04  0.19335887163E+04  0.25500000920E-02 0. -1.
       -2   -1    0    0    0  501  0.00000000000E+00  0.00000000000E+00 -0.18452061949E+04  0.18452061949E+04  0.25500000920E-02 0.  1.
    10030    2    1    2    0    0  0.00000000000E+00  0.00000000000E+00  0.88382521343E+02  0.37787949112E+04  0.37777611770E+04 0.  0.
        1    1    3    3  502    0 -0.59470067747E+01 -0.18863253971E+04 -0.53871309684E+02  0.18871038627E+04  0.50400001928E-02 0.  1.
       -1    1    3    3    0  502  0.59470067747E+01  0.18863253971E+04  0.14225383103E+03  0.18916910485E+04  0.50400001928E-02 0. -1.
</event>
<event>
 5   0  0.4795023E-07  0.2400597E+04  0.7818609E-02  0.8439280E-01
       -1   -1    0    0    0  501  0.00000000000E+00  0.00000000000E+00  0.92764123938E+03  0.92764123939E+03  0.50400001928E-02 0.  1.
        1   -1    0    0  501    0  0.00000000000E+00  0.00000000000E+00 -0.15530959985E+04  0.15530959985E+04  0.50400001928E-02 0. -1.
    10030    2    1    2    0    0  0.00000000000E+00  0.00000000000E+00 -0.62545475915E+03  0.24807372379E+04  0.24005965067E+04 0.  0.
        3    1    3    3  502    0 -0.10821478952E+04  0.50703668468E+03 -0.19679656056E+03  0.12111396134E+04  0.10100000352E+00 0.  1.
       -3    1    3    3    0  502  0.10821478952E+04 -0.50703668468E+03 -0.42865819860E+03  0.12695976245E+04  0.10100000352E+00 0. -1.
</event>
<event>
 5   0  0.1341932E-06  0.2757907E+04  0.7818609E-02  0.8316457E-01
        2   -1    0    0  501    0  0.00000000000E+00  0.00000000000E+00  0.23200162286E+04  0.23200162286E+04  0.25500000920E-02 0. -1.
       -2   -1    0    0    0  501  0.00000000000E+00  0.00000000000E+00 -0.81961197616E+03  0.81961197617E+03  0.25500000920E-02 0.  1.
    10030    2    1    2    0    0  0.00000000000E+00  0.00000000000E+00  0.15004042524E+04  0.31396282048E+04  0.27579072398E+04 0.  0.
        2    1    3    3  502    0 -0.10698290271E+04  0.78321295718E+03  0.31887194282E+03  0.13636847141E+04  0.25500000920E-02 0.  1.
       -2    1    3    3    0  502  0.10698290271E+04 -0.78321295718E+03  0.11815323096E+04  0.17759434907E+04  0.25500000920E-02 0. -1.
</event>
<event>
 5   0  0.8030324E-07  0.2754673E+04  0.7818609E-02  0.8317480E-01
       -1   -1    0    0    0  501  0.00000000000E+00  0.00000000000E+00  0.64525364751E+03  0.64525364753E+03  0.50400001928E-02 0. -1.
        1   -1    0    0  501    0  0.00000000000E+00  0.00000000000E+00 -0.29400156906E+04  0.29400156906E+04  0.50400001928E-02 0.  1.
    10030    2    1    2    0    0  0.00000000000E+00  0.00000000000E+00 -0.22947620431E+04  0.35852693381E+04  0.27546730101E+04 0.  0.
        1    1    3    3  502    0 -0.79049994614E+03  0.74804951101E+03 -0.48701911060E+02  0.10894219164E+04  0.50400001928E-02 0. -1.
       -1    1    3    3    0  502  0.79049994614E+03 -0.74804951101E+03 -0.22460601320E+04  0.24958474217E+04  0.50400001928E-02 0.  1.
</event>
<event>
 5   0  0.5284458E-07  0.2379327E+04  0.7818609E-02  0.8447284E-01
       -1   -1    0    0    0  501  0.00000000000E+00  0.00000000000E+00  0.10463408611E+04  0.10463408611E+04  0.50400001928E-02 0.  1.
        1   -1    0    0  501    0  0.00000000000E+00  0.00000000000E+00 -0.13526180949E+04  0.13526180949E+04  0.50400001928E-02 0. -1.
    10030    2    1    2    0    0  0.00000000000E+00  0.00000000000E+00 -0.30627723382E+03  0.23989589560E+04  0.23793272849E+04 0.  0.
        5    1    3    3  502    0 -0.14254347080E+03  0.60930002564E+03 -0.11732735034E+04  0.13297210106E+04  0.46999998093E+01 0. -1.
       -5    1    3    3    0  502  0.14254347080E+03 -0.60930002564E+03  0.86699626960E+03  0.10692379454E+04  0.46999998093E+01 0.  1.
</event>
<event>
 5   0  0.1337854E-06  0.3767911E+04  0.7818609E-02  0.8053076E-01
        2   -1    0    0  501    0  0.00000000000E+00  0.00000000000E+00  0.19877171305E+04  0.19877171305E+04  0.25500000920E-02 0. -1.
       -2   -1    0    0    0  501  0.00000000000E+00  0.00000000000E+00 -0.17856102542E+04  0.17856102542E+04  0.25500000920E-02 0.  1.
    10030    2    1    2    0    0  0.00000000000E+00  0.00000000000E+00  0.20210687639E+03  0.37733273847E+04  0.37679108751E+04 0.  0.
        3    1    3    3  502    0 -0.57584722471E+02 -0.42723967126E+03  0.19376577574E+04  0.19850358515E+04  0.10100000352E+00 0. -1.
       -3    1    3    3    0  502  0.57584722471E+02  0.42723967126E+03 -0.17355508810E+04  0.17882915332E+04  0.10100000352E+00 0.  1.
</event>
<event>
 5   0  0.1214844E-06  0.2106422E+04  0.7818609E-02  0.8558420E-01
        2   -1    0    0  501    0  0.00000000000E+00  0.00000000000E+00  0.72287197901E+03  0.72287197901E+03  0.25500000920E-02 0.  1.
       -2   -1    0    0    0  501  0.00000000000E+00  0.00000000000E+00 -0.15345091999E+04  0.15345091999E+04  0.25500000920E-02 0. -1.
    10030    2    1    2    0    0  0.00000000000E+00  0.00000000000E+00 -0.81163722089E+03  0.22573811789E+04  0.21064222769E+04 0.  0.
        4    1    3    3  502    0 -0.13619958052E+03 -0.48614560409E+03 -0.13963790640E+04  0.14848447654E+04  0.12699999809E+01 0. -1.
       -4    1    3    3    0  502  0.13619958052E+03  0.48614560409E+03  0.58474184314E+03  0.77253641347E+03  0.12699999809E+01 0.  1.
</event>
<event>
 5   0  0.4795023E-07  0.2690674E+04  0.7818609E-02  0.8338037E-01
       -1   -1    0    0    0  501  0.00000000000E+00  0.00000000000E+00  0.16285464168E+04  0.16285464168E+04  0.50400001928E-02 0.  1.
        1   -1    0    0  501    0  0.00000000000E+00  0.00000000000E+00 -0.11113788514E+04  0.11113788514E+04  0.50400001928E-02 0. -1.
    10030    2    1    2    0    0  0.00000000000E+00  0.00000000000E+00  0.51716756543E+03  0.27399252683E+04  0.26906742993E+04 0.  0.
        3    1    3    3  502    0 -0.28367168357E+03  0.12995229287E+04  0.53142129290E+02  0.13311850219E+04  0.10100000352E+00 0.  1.
       -3    1    3    3    0  502  0.28367168357E+03 -0.12995229287E+04  0.46402543614E+03  0.14087402464E+04  0.10100000352E+00 0. -1.
</event>
<event>
 5   0  0.1337854E-06  0.3753516E+04  0.7818609E-02  0.8056204E-01
       -2   -1    0    0    0  501  0.00000000000E+00  0.00000000000E+00  0.21029273590E+04  0.21029273590E+04  0.25500000920E-02 0. -1.
        2   -1    0    0  501    0  0.00000000000E+00  0.00000000000E+00 -0.16749131898E+04  0.16749131898E+04  0.25500000920E-02 0.  1.
    10030    2    1    2    0    0  0.00000000000E+00  0.00000000000E+00  0.42801416924E+03  0.37778405488E+04  0.37535160960E+04 0.  0.
        3    1    3    3  502    0 -0.18234722685E+04 -0.41342291196E+03  0.50935067096E+02  0.18704448694E+04  0.10100000352E+00 0.  1.
       -3    1    3    3    0  502  0.18234722685E+04  0.41342291196E+03  0.37707910215E+03  0.19073956794E+04  0.10100000352E+00 0. -1.
</event>
<event>
 5   0  0.1079205E-06  0.3873765E+04  0.7818609E-02  0.8030508E-01
       -1   -1    0    0    0  501  0.00000000000E+00  0.00000000000E+00  0.13083057085E+04  0.13083057085E+04  0.50400001928E-02 0.  1.
        1   -1    0    0  501    0  0.00000000000E+00  0.00000000000E+00 -0.28674592274E+04  0.28674592274E+04  0.50400001928E-02 0. -1.
    10030    2    1    2    0    0  0.00000000000E+00  0.00000000000E+00 -0.15591535189E+04  0.41757649359E+04  0.38737647198E+04 0.  0.
        4    1    3    3  502    0 -0.12028491792E+04 -0.13332570143E+04  0.30338058574E+01  0.17956701343E+04  0.12699999809E+01 0.  1.
       -4    1    3    3    0  502  0.12028491792E+04  0.13332570143E+04 -0.15621873248E+04  0.23800948016E+04  0.12699999809E+01 0. -1.
</event>
<event>
 5   0  0.1337854E-06  0.3515412E+04  0.7818609E-02  0.8110147E-01
       -2   -1    0    0    0  501  0.00000000000E+00  0.00000000000E+00  0.15626177823E+04  0.15626177823E+04  0.25500000920E-02 0.  1.
        2   -1    0    0  501    0  0.00000000000E+00  0.00000000000E+00 -0.19771507129E+04  0.19771507129E+04  0.25500000920E-02 0. -1.
    10030    2    1    2    0    0  0.00000000000E+00  0.00000000000E+00 -0.41453293059E+03  0.35397684953E+04  0.35154122731E+04 0.  0.
        3    1    3    3  502    0  0.44191575444E+03 -0.60958495988E+03  0.13920222729E+04  0.15825957715E+04  0.10100000352E+00 0.  1.
       -3    1    3    3    0  502 -0.44191575444E+03  0.60958495988E+03 -0.18065552035E+04  0.19571727238E+04  0.10100000352E+00 0. -1.
</event>
<event>
 5   0  0.7405759E-07  0.2145182E+04  0.7818609E-02  0.8541597E-01
        1   -1    0    0  501    0  0.00000000000E+00  0.00000000000E+00  0.16810532324E+04  0.16810532324E+04  0.50400001928E-02 0. -1.
       -1   -1    0    0    0  501  0.00000000000E+00  0.00000000000E+00 -0.68436349096E+03  0.68436349097E+03  0.50400001928E-02 0.  1.
    10030    2    1    2    0    0  0.00000000000E+00  0.00000000000E+00  0.99668974148E+03  0.23654167234E+04  0.21451820050E+04 0.  0.
        2    1    3    3  502    0  0.18734615558E+03 -0.20618429698E+03  0.16404634098E+04  0.16639503434E+04  0.25500000920E-02 0. -1.
       -2    1    3    3    0  502 -0.18734615558E+03  0.20618429698E+03 -0.64377366831E+03  0.70146638005E+03  0.25500000920E-02 0.  1.
</event>
<event>
 5   0  0.1184616E-06  0.3450801E+04  0.7818609E-02  0.8125549E-01
        2   -1    0    0  501    0  0.00000000000E+00  0.00000000000E+00  0.18581910543E+04  0.18581910543E+04  0.25500000920E-02 0. -1.
       -2   -1    0    0    0  501  0.00000000000E+00  0.00000000000E+00 -0.16020997969E+04  0.16020997969E+04  0.25500000920E-02 0.  1.
    10030    2    1    2    0    0  0.00000000000E+00  0.00000000000E+00  0.25609125736E+03  0.34602908512E+04  0.34508013624E+04 0.  0.
        5    1    3    3  502    0 -0.28362676880E+03 -0.43871649320E+03  0.17769730398E+04  0.18521802233E+04  0.46999998093E+01 0. -1.
       -5    1    3    3    0  502  0.28362676880E+03  0.43871649320E+03 -0.15208817825E+04  0.16081106279E+04  0.46999998093E+01 0.  1.
</event>
<event>
 5   0  0.4795023E-07  0.2383988E+04  0.7818609E-02  0.8445523E-01
       -1   -1    0    0    0  501  0.00000000000E+00  0.00000000000E+00  0.57838578011E+03  0.57838578013E+03  0.50400001928E-02 0.  1.
        1   -1    0    0  501    0  0.00000000000E+00  0.00000000000E+00 -0.24565778590E+04  0.24565778590E+04  0.50400001928E-02 0. -1.
    10030    2    1    2    0    0  0.00000000000E+00  0.00000000000E+00 -0.18781920789E+04  0.30349636392E+04  0.23839880045E+04 0.  0.
        3    1    3    3  502    0 -0.62131113931E+03 -0.81854686929E+03 -0.17080117517E+04  0.19933265320E+04  0.10100000352E+00 0. -1.
       -3    1    3    3    0  502  0.62131113931E+03  0.81854686929E+03 -0.17018032723E+03  0.10416371072E+04  0.10100000352E+00 0.  1.
</event>
<event>
 5   0  0.4795023E-07  0.2799270E+04  0.7818609E-02  0.8303495E-01
        1   -1    0    0  501    0  0.00000000000E+00  0.00000000000E+00  0.12788393307E+04  0.12788393307E+04  0.50400001928E-02 0. -1.
       -1   -1    0    0    0  501  0.00000000000E+00  0.00000000000E+00 -0.15318407971E+04  0.15318407971E+04  0.50400001928E-02 0.  1.
    10030    2    1    2    0    0  0.00000000000E+00  0.00000000000E+00 -0.25300146640E+03  0.28106801277E+04  0.27992700903E+04 0.  0.
        3    1    3    3  502    0  0.13405293660E+04  0.19670078171E+03 -0.47902735457E+03  0.14370725087E+04  0.10100000352E+00 0.  1.
       -3    1    3    3    0  502 -0.13405293660E+04 -0.19670078171E+03  0.22602588817E+03  0.13736076190E+04  0.10100000352E+00 0. -1.
</event>
<event>
 5   0  0.1337854E-06  0.3610127E+04  0.7818609E-02  0.8088176E-01
       -2   -1    0    0    0  501  0.00000000000E+00  0.00000000000E+00  0.26475842820E+04  0.26475842820E+04  0.25500000920E-02 0. -1.
        2   -1    0    0  501    0  0.00000000000E+00  0.00000000000E+00 -0.12306516669E+04  0.12306516669E+04  0.25500000920E-02 0.  1.
    10030    2    1    2    0    0  0.00000000000E+00  0.00000000000E+00  0.14169326151E+04  0.38782359488E+04  0.36101268730E+04 0.  0.
        3    1    3    3  502    0  0.88576566973E+03 -0.15261867011E+04  0.11167259550E+04  0.20882776484E+04  0.10100000352E+00 0. -1.
       -3    1    3    3    0  502 -0.88576566973E+03  0.15261867011E+04  0.30020666011E+03  0.17899583004E+04  0.10100000352E+00 0.  1.
</event>
<event>
 5   0  0.1079205E-06  0.2554358E+04  0.7818609E-02  0.8383872E-01
        1   -1    0    0  501    0  0.00000000000E+00  0.00000000000E+00  0.96575587497E+03  0.96575587498E+03  0.50400001928E-02 0. -1.
       -1   -1    0    0    0  501  0.00000000000E+00  0.00000000000E+00 -0.16890256297E+04  0.16890256298E+04  0.50400001928E-02 0.  1.
    10030    2    1    2    0    0  0.00000000000E+00  0.00000000000E+00 -0.72326975478E+03  0.26547815047E+04  0.25543581777E+04 0.  0.
        4    1    3    3  502    0  0.13126938191E+03 -0.11308751690E+04  0.23997877952E+03  0.11634868826E+04  0.12699999809E+01 0. -1.
       -4    1    3    3    0  502 -0.13126938191E+03  0.11308751690E+04 -0.96324853429E+03  0.14912946222E+04  0.12699999809E+01 0.  1.
</event>
<event>
 5   0  0.4795023E-07  0.3580924E+04  0.7818609E-02  0.8094875E-01
       -1   -1    0    0    0  501  0.00000000000E+00  0.00000000000E+00  0.12141235597E+04  0.12141235597E+04  0.50400001928E-02 0.  1.
        1   -1    0    0  501    0  0.00000000000E+00  0.00000000000E+00 -0.26403858889E+04  0.26403858889E+04  0.50400001928E-02 0. -1.
    10030    2    1    2    0    0  0.00000000000E+00  0.00000000000E+00 -0.14262623293E+04  0.38545094486E+04  0.35809243021E+04 0.  0.
        3    1    3    3  502    0  0.14386600398E+04  0.87946033303E+03 -0.64997131382E+02  0.16874293540E+04  0.10100000352E+00 0.  1.
       -3    1    3    3    0  502 -0.14386600398E+04 -0.87946033303E+03 -0.13612651979E+04  0.21670800946E+04  0.10100000352E+00 0. -1.
</event>
<event>
 5   0  0.1184616E-06  0.2799333E+04  0.7818609E-02  0.8303476E-01
       -2   -1    0    0    0  501  0.00000000000E+00  0.00000000000E+00  0.12832901171E+04  0.12832901171E+04  0.25500000920E-02 0. -1.
        2   -1    0    0  501    0  0.00000000000E+00  0.00000000000E+00 -0.15265961718E+04  0.15265961718E+04  0.25500000920E-02 0.  1.
    10030    2    1    2    0    0  0.00000000000E+00  0.00000000000E+00 -0.24330605468E+03  0.28098862889E+04  0.27993326206E+04 0.  0.
        5    1    3    3  502    0  0.80542331451E+03 -0.97082122853E+03 -0.73044028959E+03  0.14576576004E+04  0.46999998093E+01 0.  1.
       -5    1    3    3    0  502 -0.80542331451E+03  0.97082122853E+03  0.48713423490E+03  0.13522286886E+04  0.46999998093E+01 0. -1.
</event>
<event>
 5   0  0.1337854E-06  0.1869359E+04  0.7818609E-02  0.8670261E-01
        2   -1    0    0  501    0  0.00000000000E+00  0.00000000000E+00  0.14118810635E+04  0.14118810635E+04  0.25500000920E-02 0. -1.
       -2   -1    0    0    0  501  0.00000000000E+00  0.00000000000E+00 -0.61876714114E+03  0.61876714114E+03  0.25500000920E-02 0.  1.
    10030    2    1    2    0    0  0.00000000000E+00  0.00000000000E+00  0.79311392232E+03  0.20306482046E+04  0.18693588305E+04 0.  0.
        3    1    3    3  502    0 -0.64095569623E+03 -0.24362340557E+03 -0.29342280622E+03  0.74583746331E+03  0.10100000352E+00 0.  1.
       -3    1    3    3    0  502  0.64095569623E+03  0.24362340557E+03  0.10865367285E+04  0.12848107413E+04  0.10100000352E+00 0. -1.
</event>
<event>
 5   0  0.4255250E-07  0.1873325E+04  0.7818609E-02  0.8668249E-01
       -1   -1    0    0    0  501  0.00000000000E+00  0.00000000000E+00  0.72618189028E+03  0.72618189030E+03  0.50400001928E-02 0.  1.
        1   -1    0    0  501    0  0.00000000000E+00  0.00000000000E+00 -0.12081498767E+04  0.12081498767E+04  0.50400001928E-02 0. -1.
    10030    2    1    2    0    0  0.00000000000E+00  0.00000000000E+00 -0.48196798642E+03  0.19343317670E+04  0.18733249171E+04 0.  0.
        2    1    3    3  502    0  0.75854647488E+03 -0.19572408429E+03 -0.77116006171E+03  0.10992672616E+04  0.25500000920E-02 0. -1.
       -2    1    3    3    0  502 -0.75854647488E+03  0.19572408429E+03  0.28919207529E+03  0.83506450538E+03  0.25500000920E-02 0.  1.
</event>
<event>
 5   0  0.1079205E-06  0.2064211E+04  0.7818609E-02  0.8577175E-01
        1   -1    0    0  501    0  0.00000000000E+00  0.00000000000E+00  0.98975629487E+03  0.98975629488E+03  0.50400001928E-02 0.  1.
       -1   -1    0    0    0  501  0.00000000000E+00  0.00000000000E+00 -0.10762666444E+04  0.10762666444E+04  0.50400001928E-02 0. -1.
    10030    2    1    2    0    0  0.00000000000E+00  0.00000000000E+00 -0.86510349519E+02  0.20660229393E+04  0.20642109255E+04 0.  0.
        4    1    3    3  502    0 -0.43858501073E+03  0.43229313118E+03 -0.87223697426E+03  0.10677233326E+04  0.12699999809E+01 0. -1.
       -4    1    3    3    0  502  0.43858501073E+03 -0.43229313118E+03  0.78572662475E+03  0.99829960665E+03  0.12699999809E+01 0.  1.
</event>
<event>
 5   0  0.4795023E-07  0.2195765E+04  0.7818609E-02  0.8520193E-01
        1   -1    0    0  501    0  0.00000000000E+00  0.00000000000E+00  0.10481920683E+04  0.10481920683E+04  0.50400001928E-02 0.  1.
       -1   -1    0    0    0  501  0.00000000000E+00  0.00000000000E+00 -0.11499285678E+04  0.11499285678E+04  0.50400001928E-02 0. -1.
    10030    2    1    2    0    0  0.00000000000E+00  0.00000000000E+00 -0.10173649948E+03  0.21981206361E+04  0.21957650182E+04 0.  0.
        3    1    3    3  502    0  0.68326127448E+03  0.75111353291E+03 -0.46884280053E+03  0.11184056019E+04  0.10100000352E+00 0. -1.
       -3    1    3    3    0  502 -0.68326127448E+03 -0.75111353291E+03  0.36710630105E+03  0.10797150342E+04  0.10100000352E+00 0.  1.
</event>
<event>
 5   0  0.1079205E-06  0.3792944E+04  0.7818609E-02  0.8047671E-01
        1   -1    0    0  501    0  0.00000000000E+00  0.00000000000E+00  0.16112815920E+04  0.16112815920E+04  0.50400001928E-02 0. -1.
       -1   -1    0    0    0  501  0.00000000000E+00  0.00000000000E+00 -0.22321399721E+04  0.22321399721E+04  0.50400001928E-02 0.  1.
    10030    2    1    2    0    0  0.00000000000E+00  0.00000000000E+00 -0.62085838012E+03  0.38434215642E+04  0.37929440006E+04 0.  0.
        4    1    3    3  502    0  0.17243912160E+04 -0.65920812725E+03 -0.75040108104E+03  0.19927829325E+04  0.12699999809E+01 0.  1.
       -4    1    3    3    0  502 -0.17243912160E+04  0.65920812725E+03  0.12954270092E+03  0.18506386317E+04  0.12699999809E+01 0. -1.
</event>
<event>
 5   0  0.1341932E-06  0.3764920E+04  0.7818609E-02  0.8053725E-01
        2   -1    0    0  501    0  0.00000000000E+00  0.00000000000E+00  0.27334939456E+04  0.27334939456E+04  0.25500000920E-02 0.  1.
       -2   -1    0    0    0  501  0.00000000000E+00  0.00000000000E+00 -0.12963832036E+04  0.12963832036E+04  0.25500000920E-02 0. -1.
    10030    2    1    2    0    0  0.00000000000E+00  0.00000000000E+00  0.14371107420E+04  0.40298771492E+04  0.37649199929E+04 0.  0.
        2    1    3    3  502    0  0.13654016356E+04 -0.76539008724E+03  0.18378588074E+04  0.24140978870E+04  0.25500000920E-02 0.  1.
       -2    1    3    3    0  502 -0.13654016356E+04  0.76539008724E+03 -0.40074806540E+03  0.16157792622E+04  0.25500000920E-02 0. -1.
</event>
<event>
 5   0  0.1372748E-06  0.3819953E+04  0.7818609E-02  0.8041887E-01
       -2   -1    0    0    0  501  0.00000000000E+00  0.00000000000E+00  0.16984300028E+04  0.16984300028E+04  0.25500000920E-02 0.  1.
        2   -1    0    0  501    0  0.00000000000E+00  0.00000000000E+00 -0.21478715848E+04  0.21478715848E+04  0.25500000920E-02 0. -1.
    10030    2    1    2    0    0  0.00000000000E+00  0.00000000000E+00 -0.44944158200E+03  0.38463015876E+04  0.38199526394E+04 0.  0.
        1    1    3    3  502    0 -0.16855592810E+03 -0.14022369832E+04 -0.15194087637E+04  0.20744355013E+04  0.50400001928E-02 0. -1.
       -1    1    3    3    0  502  0.16855592810E+03  0.14022369832E+04  0.10699671817E+04  0.17718660863E+04  0.50400001928E-02 0.  1.
</event>
<event>
 5   0  0.1337854E-06  0.3848294E+04  0.7818609E-02  0.8035870E-01
       -2   -1    0    0    0  501  0.00000000000E+00  0.00000000000E+00  0.29737106766E+04  0.29737106766E+04  0.25500000920E-02 0. -1.
        2   -1    0    0  501    0  0.00000000000E+00  0.00000000000E+00 -0.12450244091E+04  0.12450244091E+04  0.25500000920E-02 0.  1.
    10030    2    1    2    0    0  0.00000000000E+00  0.00000000000E+00  0.17286862674E+04  0.42187350857E+04  0.38482943640E+04 0.  0.
        3    1    3    3  502    0 -0.26600165901E+03  0.18092636170E+04  0.20827817574E+03  0.18405356631E+04  0.10100000352E+00 0.  1.
       -3    1    3    3    0  502  0.26600165901E+03 -0.18092636170E+04  0.15204080917E+04  0.23781994226E+04  0.10100000352E+00 0. -1.
</event>
<event>
 5   0  0.1372748E-06  0.2595219E+04  0.7818609E-02  0.8369827E-01
        2   -1    0    0  501    0  0.00000000000E+00  0.00000000000E+00  0.19964846439E+04  0.19964846439E+04  0.25500000920E-02 0.  1.
       -2   -1    0    0    0  501  0.00000000000E+00  0.00000000000E+00 -0.84337750977E+03  0.84337750977E+03  0.25500000920E-02 0. -1.
    10030    2    1    2    0    0  0.00000000000E+00  0.00000000000E+00  0.11531071342E+04  0.28398621537E+04  0.25952188712E+04 0.  0.
        1    1    3    3  502    0  0.43268641382E+03 -0.10147534311E+04  0.13242255528E+04  0.17235183125E+04  0.50400001928E-02 0.  1.
       -1    1    3    3    0  502 -0.43268641382E+03  0.10147534311E+04 -0.17111841867E+03  0.11163438412E+04  0.50400001928E-02 0. -1.
</event>
<event>
 5   0  0.1214844E-06  0.2562438E+04  0.7818609E-02  0.8381073E-01
       -2   -1    0    0    0  501  0.00000000000E+00  0.00000000000E+00  0.10584545796E+04  0.10584545796E+04  0.25500000920E-02 0.  1.
        2   -1    0    0  501    0  0.00000000000E+00  0.00000000000E+00 -0.15508673376E+04  0.15508673376E+04  0.25500000920E-02 0. -1.
    10030    2    1    2    0    0  0.00000000000E+00  0.00000000000E+00 -0.49241275805E+03  0.26093219172E+04  0.25624383979E+04 0.  0.
        4    1    3    3  502    0 -0.64960690739E+03 -0.92059663551E+03  0.37489913242E+03  0.11874503239E+04  0.12699999809E+01 0.  1.
       -4    1    3    3    0  502  0.64960690739E+03  0.92059663551E+03 -0.86731189047E+03  0.14218715933E+04  0.12699999809E+01 0. -1.
</event>
<event>
 5   0  0.6741864E-07  0.1949523E+04  0.7818609E-02  0.8630591E-01
        1   -1    0    0  501    0  0.00000000000E+00  0.00000000000E+00  0.75918758595E+03  0.75918758597E+03  0.50400001928E-02 0.  1.
       -1   -1    0    0    0  501  0.00000000000E+00  0.00000000000E+00 -0.12515482572E+04  0.12515482572E+04  0.50400001928E-02 0. -1.
    10030    2    1    2    0    0  0.00000000000E+00  0.00000000000E+00 -0.49236067123E+03  0.20107358432E+04  0.19495229161E+04 0.  0.
        5    1    3    3  502    0 -0.32054670986E+03 -0.22425539870E+03 -0.11670163547E+04  0.12308492756E+04  0.46999998093E+01 0. -1.
       -5    1    3    3    0  502  0.32054670986E+03  0.22425539870E+03  0.67465568348E+03  0.77988656758E+03  0.46999998093E+01 0.  1.
</event>
<event>
 5   0  0.4795023E-07  0.3719934E+04  0.7818609E-02  0.8063558E-01
       -1   -1    0    0    0  501  0.00000000000E+00  0.00000000000E+00  0.23253811439E+04  0.23253811439E+04  0.50400001928E-02 0.  1.
        1   -1    0    0  501    0  0.00000000000E+00  0.00000000000E+00 -0.14877034837E+04  0.14877034837E+04  0.50400001928E-02 0. -1.
    10030    2    1    2    0    0  0.00000000000E+00  0.00000000000E+00  0.83767766015E+03  0.38130846276E+04  0.37199342085E+04 0.  0.
        3    1    3    3  502    0 -0.66157651918E+03 -0.11779033176E+04 -0.89158599380E+03  0.16186615801E+04  0.10100000352E+00 0. -1.
       -3    1    3    3    0  502  0.66157651918E+03  0.11779033176E+04  0.17292636540E+04  0.21944230475E+04  0.10100000352E+00 0.  1.
</event>
<event>
 5   0  0.4795023E-07  0.3736621E+04  0.7818609E-02  0.8059894E-01
       -1   -1    0    0    0  501  0.00000000000E+00  0.00000000000E+00  0.17566313139E+04  0.17566313139E+04  0.50400001928E-02 0. -1.
        1   -1    0    0  501    0  0.00000000000E+00  0.00000000000E+00 -0.19870896941E+04  0.19870896941E+04  0.50400001928E-02 0.  1.
    10030    2    1    2    0    0  0.00000000000E+00  0.00000000000E+00 -0.23045838017E+03  0.37437210080E+04  0.37366209228E+04 0.  0.
        3    1    3    3  502    0  0.41381736607E+03  0.15786764828E+04 -0.10264185147E+04  0.19279520811E+04  0.10100000352E+00 0.  1.
       -3    1    3    3    0  502 -0.41381736607E+03 -0.15786764828E+04  0.79596013453E+03  0.18157689268E+04  0.10100000352E+00 0. -1.
</event>
<event>
 5   0  0.8030324E-07  0.3789071E+04  0.7818609E-02  0.8048504E-01
       -1   -1    0    0    0  501  0.00000000000E+00  0.00000000000E+00  0.23778116113E+04  0.23778116113E+04  0.50400001928E-02 0. -1.
        1   -1    0    0  501    0  0.00000000000E+00  0.00000000000E+00 -0.15094822429E+04  0.15094822429E+04  0.50400001928E-02 0.  1.
    10030    2    1    2    0    0  0.00000000000E+00  0.00000000000E+00  0.86832936836E+03  0.38872938542E+04  0.37890708118E+04 0.  0.
        1    1    3    3  502    0 -0.11700233891E+03  0.38409378141E+03 -0.14653297387E+04  0.15193448665E+04  0.50400001928E-02 0.  1.
       -1    1    3    3    0  502  0.11700233891E+03 -0.38409378141E+03  0.23336591071E+04  0.23679489877E+04  0.50400001928E-02 0. -1.
</event>
<event>
 5   0  0.5284458E-07  0.3816518E+04  0.7818609E-02  0.8042619E-01
        1   -1    0    0  501    0  0.00000000000E+00  0.00000000000E+00  0.18527904593E+04  0.18527904593E+04  0.50400001928E-02 0. -1.
       -1   -1    0    0    0  501  0.00000000000E+00  0.00000000000E+00 -0.19653880736E+04  0.19653880736E+04  0.50400001928E-02 0.  1.
    10030    2    1    2    0    0  0.00000000000E+00  0.00000000000E+00 -0.11259761428E+03  0.38181785329E+04  0.38165179269E+04 0.  0.
        5    1    3    3  502    0 -0.15973056374E+04  0.14360067614E+03  0.97828060743E+03  0.18785796471E+04  0.46999998093E+01 0. -1.
       -5    1    3    3    0  502  0.15973056374E+04 -0.14360067614E+03 -0.10908782217E+04  0.19395988859E+04  0.46999998093E+01 0.  1.
</event>
<event>
 5   0  0.1214844E-06  0.3851133E+04  0.7818609E-02  0.8035270E-01
       -2   -1    0    0    0  501  0.00000000000E+00  0.00000000000E+00  0.14422824950E+04  0.14422824950E+04  0.25500000920E-02 0. -1.
        2   -1    0    0  501    0  0.00000000000E+00  0.00000000000E+00 -0.25707907316E+04  0.25707907316E+04  0.25500000920E-02 0.  1.
    10030    2    1    2    0    0  0.00000000000E+00  0.00000000000E+00 -0.11285082366E+04  0.40130732267E+04  0.38511330648E+04 0.  0.
        4    1    3    3  502    0 -0.13372426368E+04  0.13854628432E+04 -0.55495133315E+03  0.20039205959E+04  0.12699999809E+01 0. -1.
       -4    1    3    3    0  502  0.13372426368E+04 -0.13854628432E+04 -0.57355690347E+03  0.20091526308E+04  0.12699999809E+01 0.  1.
</event>
<event>
 5   0  0.4255250E-07  0.3784963E+04  0.7818609E-02  0.8049390E-01
       -1   -1    0    0    0  501  0.00000000000E+00  0.00000000000E+00  0.29657605617E+04  0.29657605617E+04  0.50400001928E-02 0. -1.
        1   -1    0    0  501    0  0.00000000000E+00  0.00000000000E+00 -0.12076111618E+04  0.12076111618E+04  0.50400001928E-02 0.  1.
    10030    2    1    2    0    0  0.00000000000E+00  0.00000000000E+00  0.17581493999E+04  0.41733717235E+04  0.37849626458E+04 0.  0.
        2    1    3    3  502    0  0.11163256483E+04 -0.20926775575E+03 -0.79004050329E+03  0.13835244644E+04  0.25500000920E-02 0.  1.
       -2    1    3    3    0  502 -0.11163256483E+04  0.20926775575E+03  0.25481899032E+04  0.27898472592E+04  0.25500000920E-02 0. -1.
</event>
<event>
 5   0  0.5284458E-07  0.2541261E+04  0.7818609E-02  0.8388432E-01
        1   -1    0    0  501    0  0.00000000000E+00  0.00000000000E+00  0.13556061605E+04  0.13556061605E+04  0.50400001928E-02 0.  1.
       -1   -1    0    0    0  501  0.00000000000E+00  0.00000000000E+00 -0.11909814044E+04  0.11909814045E+04  0.50400001928E-02 0. -1.
    10030    2    1    2    0    0  0.00000000000E+00  0.00000000000E+00  0.16462475607E+03  0.25465875650E+04  0.25412608909E+04 0.  0.
        5    1    3    3  502    0  0.14510742730E+03  0.60547866221E+03  0.11922526752E+04  0.13450461358E+04  0.46999998093E+01 0.  1.
       -5    1    3    3    0  502 -0.14510742730E+03 -0.60547866221E+03 -0.10276279191E+04  0.12015414292E+04  0.46999998093E+01 0. -1.
</event>
<event>
 5   0  0.1184616E-06  0.3781988E+04  0.7818609E-02  0.8050031E-01
        2   -1    0    0  501    0  0.00000000000E+00  0.00000000000E+00  0.13230753658E+04  0.13230753658E+04  0.25500000920E-02 0.  1.
       -2   -1    0    0    0  501  0.00000000000E+00  0.00000000000E+00 -0.27026868049E+04  0.27026868049E+04  0.25500000920E-02 0. -1.
    10030    2    1    2    0    0  0.00000000000E+00  0.00000000000E+00 -0.13796114391E+04  0.40257621707E+04  0.37819880132E+04 0.  0.
        5    1    3    3  502    0  0.64096146367E+03 -0.17772679984E+04 -0.60516229541E+03  0.19838741467E+04  0.46999998093E+01 0. -1.
       -5    1    3    3    0  502 -0.64096146367E+03  0.17772679984E+04 -0.77444914374E+03  0.20418880240E+04  0.46999998093E+01 0.  1.
</event>
<event>
 5   0  0.4255250E-07  0.2759771E+04  0.7818609E-02  0.8315868E-01
        1   -1    0    0  501    0  0.00000000000E+00  0.00000000000E+00  0.22075452103E+04  0.22075452103E+04  0.50400001928E-02 0.  1.
       -1   -1    0    0    0  501  0.00000000000E+00  0.00000000000E+00 -0.86253446590E+03  0.86253446592E+03  0.50400001928E-02 0. -1.
    10030    2    1    2    0    0  0.00000000000E+00  0.00000000000E+00  0.13450107444E+04  0.30700796763E+04  0.27597708811E+04 0.  0.
        2    1    3    3  502    0  0.74403990331E+03 -0.11669216279E+03  0.19587436603E+04  0.20985445350E+04  0.25500000920E-02 0.  1.
       -2    1    3    3    0  502 -0.74403990331E+03  0.11669216279E+03 -0.61373291590E+03  0.97153514123E+03  0.25500000920E-02 0. -1.
</event>
<event>
 5   0  0.4255250E-07  0.1869039E+04  0.7818609E-02  0.8670423E-01
        3   -1    0    0  501    0  0.00000000000E+00  0.00000000000E+00  0.79424475328E+03  0.79424475970E+03  0.10100000352E+00 0.  1.
       -3   -1    0    0    0  501  0.00000000000E+00  0.00000000000E+00 -0.10995683728E+04  0.10995683775E+04  0.10100000352E+00 0. -1.
    10030    2    1    2    0    0  0.00000000000E+00  0.00000000000E+00 -0.30532361956E+03  0.18938131372E+04  0.18690387064E+04 0.  0.
        5    1    3    3  502    0 -0.30006198891E+03  0.88167489137E+03 -0.23060030299E+03  0.95947193862E+03  0.46999998093E+01 0.  1.
       -5    1    3    3    0  502  0.30006198891E+03 -0.88167489137E+03 -0.74723316566E+02  0.93434119855E+03  0.46999998093E+01 0. -1.
</event>
<event>
 5   0  0.1341932E-06  0.3894958E+04  0.7818609E-02  0.8026079E-01
        2   -1    0    0  501    0  0.00000000000E+00  0.00000000000E+00  0.15924938287E+04  0.15924938287E+04  0.25500000920E-02 0.  1.
       -2   -1    0    0    0  501  0.00000000000E+00  0.00000000000E+00 -0.23815949385E+04  0.23815949385E+04  0.25500000920E-02 0. -1.
    10030    2    1    2    0    0  0.00000000000E+00  0.00000000000E+00 -0.78910110981E+03  0.39740887672E+04  0.38949584039E+04 0.  0.
        2    1    3    3  502    0 -0.39621253252E+03  0.14169207304E+04 -0.16964141311E+04  0.22455443953E+04  0.25500000920E-02 0. -1.
       -2    1    3    3    0  502  0.39621253252E+03 -0.14169207304E+04  0.90731302127E+03  0.17285443719E+04  0.25500000920E-02 0.  1.
</event>
<event>
 5   0  0.1341932E-06  0.3386172E+04  0.7818609E-02  0.8141308E-01
        2   -1    0    0  501    0  0.00000000000E+00  0.00000000000E+00  0.21320931251E+04  0.21320931251E+04  0.25500000920E-02 0. -1.
       -2   -1    0    0    0  501  0.00000000000E+00  0.00000000000E+00 -0.13444725433E+04  0.13444725433E+04  0.25500000920E-02 0.  1.
    10030    2    1    2    0    0  0.00000000000E+00  0.00000000000E+00  0.78762058181E+03  0.34765656683E+04  0.33861722734E+04 0.  0.
        2    1    3    3  502    0 -0.95447011279E+02 -0.52937535303E+03  0.20420288417E+04  0.21116889417E+04  0.25500000920E-02 0. -1.
       -2    1    3    3    0  502  0.95447011279E+02  0.52937535303E+03 -0.12544082599E+04  0.13648767266E+04  0.25500000920E-02 0.  1.
</event>
<event>
 5   0  0.1184616E-06  0.1908682E+04  0.7818609E-02  0.8650547E-01
        2   -1    0    0  501    0  0.00000000000E+00  0.00000000000E+00  0.80644182604E+03  0.80644182605E+03  0.25500000920E-02 0.  1.
       -2   -1    0    0    0  501  0.00000000000E+00  0.00000000000E+00 -0.11293648997E+04  0.11293648997E+04  0.25500000920E-02 0. -1.
    10030    2    1    2    0    0  0.00000000000E+00  0.00000000000E+00 -0.32292307365E+03  0.19358067257E+04  0.19086823643E+04 0.  0.
        5    1    3    3  502    0 -0.60459461593E+03  0.66800821937E+03  0.15761282063E+03  0.91467673086E+03  0.46999998093E+01 0.  1.
       -5    1    3    3    0  502  0.60459461593E+03 -0.66800821937E+03 -0.48053589428E+03  0.10211299949E+04  0.46999998093E+01 0. -1.
</event>
<event>
 5   0  0.1214844E-06  0.2339734E+04  0.7818609E-02  0.8462417E-01
       -2   -1    0    0    0  501  0.00000000000E+00  0.00000000000E+00  0.77232360253E+03  0.77232360254E+03  0.25500000920E-02 0.  1.
        2   -1    0    0  501    0  0.00000000000E+00  0.00000000000E+00 -0.17720402238E+04  0.17720402238E+04  0.25500000920E-02 0. -1.
    10030    2    1    2    0    0  0.00000000000E+00  0.00000000000E+00 -0.99971662124E+03  0.25443638263E+04  0.23397337365E+04 0.  0.
        4    1    3    3  502    0  0.28050169264E+02  0.15916958584E+03  0.76012350882E+03  0.77711719233E+03  0.12699999809E+01 0.  1.
       -4    1    3    3    0  502 -0.28050169264E+02 -0.15916958584E+03 -0.17598401301E+04  0.17672466340E+04  0.12699999809E+01 0. -1.
</event>
<event>
 5   0  0.4795023E-07  0.2005799E+04  0.7818609E-02  0.8603914E-01
       -1   -1    0    0    0  501  0.00000000000E+00  0.00000000000E+00  0.82348066576E+03  0.82348066578E+03  0.50400001928E-02 0.  1.
        1   -1    0    0  501    0  0.00000000000E+00  0.00000000000E+00 -0.12214100470E+04  0.12214100470E+04  0.50400001928E-02 0. -1.
    10030    2    1    2    0    0  0.00000000000E+00  0.00000000000E+00 -0.39792938124E+03  0.20448907128E+04  0.20057991512E+04 0.  0.
        3    1    3    3  502    0  0.24104641834E+03 -0.96718530580E+03 -0.86096790148E+02  0.10004816135E+04  0.10100000352E+00 0. -1.
       -3    1    3    3    0  502 -0.24104641834E+03  0.96718530580E+03 -0.31183259109E+03  0.10444090993E+04  0.10100000352E+00 0.  1.
</event>
<event>
 5   0  0.1214844E-06  0.1922149E+04  0.7818609E-02  0.8643909E-01
        2   -1    0    0  501    0  0.00000000000E+00  0.00000000000E+00  0.58795649439E+03  0.58795649440E+03  0.25500000920E-02 0.  1.
       -2   -1    0    0    0  501  0.00000000000E+00  0.00000000000E+00 -0.15709730715E+04  0.15709730715E+04  0.25500000920E-02 0. -1.
    10030    2    1    2    0    0  0.00000000000E+00  0.00000000000E+00 -0.98301657714E+03  0.21589295659E+04  0.19221486102E+04 0.  0.
        4    1    3    3  502    0 -0.36081040509E+02  0.11771741399E+03 -0.15620773515E+04  0.15669226197E+04  0.12699999809E+01 0. -1.
       -4    1    3    3    0  502  0.36081040509E+02 -0.11771741399E+03  0.57906077440E+03  0.59200694623E+03  0.12699999809E+01 0.  1.
</event>
<event>
 5   0  0.1079205E-06  0.2808544E+04  0.7818609E-02  0.8300621E-01
        1   -1    0    0  501    0  0.00000000000E+00  0.00000000000E+00  0.16794210749E+04  0.16794210749E+04  0.50400001928E-02 0.  1.
       -1   -1    0    0    0  501  0.00000000000E+00  0.00000000000E+00 -0.11742019354E+04  0.11742019354E+04  0.50400001928E-02 0. -1.
    10030    2    1    2    0    0  0.00000000000E+00  0.00000000000E+00  0.50521913955E+03  0.28536230103E+04  0.28085437340E+04 0.  0.
        4    1    3    3  502    0  0.99411034950E+03 -0.98131730912E+03  0.39893081235E+03  0.14527169215E+04  0.12699999809E+01 0. -1.
       -4    1    3    3    0  502 -0.99411034950E+03  0.98131730912E+03  0.10628832720E+03  0.14009060888E+04  0.12699999809E+01 0.  1.
</event>
<event>
 5   0  0.1372748E-06  0.3011102E+04  0.7818609E-02  0.8240568E-01
       -2   -1    0    0    0  501  0.00000000000E+00  0.00000000000E+00  0.11483515422E+04  0.11483515422E+04  0.25500000920E-02 0. -1.
        2   -1    0    0  501    0  0.00000000000E+00  0.00000000000E+00 -0.19738581711E+04  0.19738581711E+04  0.25500000920E-02 0.  1.
    10030    2    1    2    0    0  0.00000000000E+00  0.00000000000E+00 -0.82550662889E+03  0.31222097132E+04  0.30111015092E+04 0.  0.
        1    1    3    3  502    0  0.13745559898E+03 -0.13623197570E+04  0.23634405708E+03  0.13894846798E+04  0.50400001928E-02 0. -1.
       -1    1    3    3    0  502 -0.13745559898E+03  0.13623197570E+04 -0.10618506860E+04  0.17327250334E+04  0.50400001928E-02 0.  1.
</event>
<event>
 5   0  0.5284458E-07  0.3083026E+04  0.7818609E-02  0.8220412E-01
        1   -1    0    0  501    0  0.00000000000E+00  0.00000000000E+00  0.17590837352E+04  0.17590837352E+04  0.50400001928E-02 0. -1.
       -1   -1    0    0    0  501  0.00000000000E+00  0.00000000000E+00 -0.13508521617E+04  0.13508521618E+04  0.50400001928E-02 0.  1.
    10030    2    1    2    0    0  0.00000000000E+00  0.00000000000E+00  0.40823157346E+03  0.31099358970E+04  0.30830258296E+04 0.  0.
        5    1    3    3  502    0 -0.15039923584E+04 -0.13114354051E+03  0.51836074339E+03  0.15962179026E+04  0.46999998093E+01 0. -1.
       -5    1    3    3    0  502  0.15039923584E+04  0.13114354051E+03 -0.11012916993E+03  0.15137179944E+04  0.46999998093E+01 0.  1.
</event>
<event>
 5   0  0.1337854E-06  0.3807812E+04  0.7818609E-02  0.8044481E-01
       -2   -1    0    0    0  501  0.00000000000E+00  0.00000000000E+00  0.22602698242E+04  0.22602698242E+04  0.25500000920E-02 0. -1.
        2   -1    0    0  501    0  0.00000000000E+00  0.00000000000E+00 -0.16037279677E+04  0.16037279677E+04  0.25500000920E-02 0.  1.
    10030    2    1    2    0    0  0.00000000000E+00  0.00000000000E+00  0.65654185645E+03  0.38639977919E+04  0.38078119342E+04 0.  0.
        3    1    3    3  502    0  0.12165404019E+04  0.14275204327E+04  0.66031897595E+03  0.19884180384E+04  0.10100000352E+00 0.  1.
       -3    1    3    3    0  502 -0.12165404019E+04 -0.14275204327E+04 -0.37771194981E+01  0.18755797535E+04  0.10100000352E+00 0. -1.
</event>
<event>
 5   0  0.1372748E-06  0.3866979E+04  0.7818609E-02  0.8031932E-01
        2   -1    0    0  501    0  0.00000000000E+00  0.00000000000E+00  0.12942456975E+04  0.12942456975E+04  0.25500000920E-02 0. -1.
       -2   -1    0    0    0  501  0.00000000000E+00  0.00000000000E+00 -0.28884636123E+04  0.28884636123E+04  0.25500000920E-02 0.  1.
    10030    2    1    2    0    0  0.00000000000E+00  0.00000000000E+00 -0.15942179149E+04  0.41827093098E+04  0.38669789772E+04 0.  0.
        1    1    3    3  502    0  0.32173461823E+03  0.19044300047E+04 -0.70027401868E+03  0.20544465213E+04  0.50400001928E-02 0. -1.
       -1    1    3    3    0  502 -0.32173461823E+03 -0.19044300047E+04 -0.89394389618E+03  0.21282627885E+04  0.50400001928E-02 0.  1.
</event>
<event>
 5   0  0.1337854E-06  0.2506646E+04  0.7818609E-02  0.8400622E-01
        2   -1    0    0  501    0  0.00000000000E+00  0.00000000000E+00  0.11016952854E+04  0.11016952854E+04  0.25500000920E-02 0.  1.
       -2   -1    0    0    0  501  0.00000000000E+00  0.00000000000E+00 -0.14258196552E+04  0.14258196552E+04  0.25500000920E-02 0. -1.
    10030    2    1    2    0    0  0.00000000000E+00  0.00000000000E+00 -0.32412436982E+03  0.25275149406E+04  0.25066461992E+04 0.  0.
        3    1    3    3  502    0  0.55598086663E+02 -0.98454596014E+02 -0.14206664603E+04  0.14251588180E+04  0.10100000352E+00 0. -1.
       -3    1    3    3    0  502 -0.55598086663E+02  0.98454596014E+02  0.10965420905E+04  0.11023561227E+04  0.10100000352E+00 0.  1.
</event>
<event>
 5   0  0.8030324E-07  0.2647191E+04  0.7818609E-02  0.8352346E-01
       -1   -1    0    0    0  501  0.00000000000E+00  0.00000000000E+00  0.17352808180E+04  0.17352808180E+04  0.50400001928E-02 0.  1.
        1   -1    0    0  501    0  0.00000000000E+00  0.00000000000E+00 -0.10095802964E+04  0.10095802964E+04  0.50400001928E-02 0. -1.
    10030    2    1    2    0    0  0.00000000000E+00  0.00000000000E+00  0.72570052158E+03  0.27448611144E+04  0.26471912077E+04 0.  0.
        1    1    3    3  502    0  0.55150784242E+03 -0.71459763730E+03 -0.64090258530E+03  0.11070532089E+04  0.50400001928E-02 0. -1.
       -1    1    3    3    0  502 -0.55150784242E+03  0.71459763730E+03  0.13666031069E+04  0.16378079055E+04  0.50400001928E-02 0.  1.
</event>
<event>
 5   0  0.4255250E-07  0.2479504E+04  0.7818609E-02  0.8410324E-01
        1   -1    0    0  501    0  0.00000000000E+00  0.00000000000E+00  0.10509433230E+04  0.10509433230E+04  0.50400001928E-02 0. -1.
       -1   -1    0    0    0  501  0.00000000000E+00  0.00000000000E+00 -0.14624816459E+04  0.14624816459E+04  0.50400001928E-02 0.  1.
    10030    2    1    2    0    0  0.00000000000E+00  0.00000000000E+00 -0.41153832296E+03  0.25134249689E+04  0.24795042414E+04 0.  0.
        2    1    3    3  502    0  0.75127118086E+02 -0.47535470556E+03 -0.13639314083E+04  0.14463454175E+04  0.25500000920E-02 0.  1.
       -2    1    3    3    0  502 -0.75127118086E+02  0.47535470556E+03  0.95239308538E+03  0.10670795514E+04  0.25500000920E-02 0. -1.
</event>
<event>
 5   0  0.1214844E-06  0.4202655E+04  0.7818609E-02  0.7964867E-01
       -2   -1    0    0    0  501  0.00000000000E+00  0.00000000000E+00  0.22439655543E+04  0.22439655543E+04  0.25500000920E-02 0.  1.
        2   -1    0    0  501    0  0.00000000000E+00  0.00000000000E+00 -0.19677561880E+04  0.19677561880E+04  0.25500000920E-02 0. -1.
    10030    2    1    2    0    0  0.00000000000E+00  0.00000000000E+00  0.27620936629E+03  0.42117217423E+04  0.42026549252E+04 0.  0.
        4    1    3    3  502    0  0.10881869066E+04  0.24129926447E+01 -0.16633882830E+04  0.19877169716E+04  0.12699999809E+01 0. -1.
       -4    1    3    3    0  502 -0.10881869066E+04 -0.24129926447E+01  0.19395976493E+04  0.22240047707E+04  0.12699999809E+01 0.  1.
</event>
<event>
 5   0  0.1372748E-06  0.4111928E+04  0.7818609E-02  0.7982340E-01
        2   -1    0    0  501    0  0.00000000000E+00  0.00000000000E+00  0.17192225600E+04  0.17192225600E+04  0.25500000920E-02 0.  1.
       -2   -1    0    0    0  501  0.00000000000E+00  0.00000000000E+00 -0.24586620729E+04  0.24586620729E+04  0.25500000920E-02 0. -1.
    10030    2    1    2    0    0  0.00000000000E+00  0.00000000000E+00 -0.73943951294E+03  0.41778846329E+04  0.41119276760E+04 0.  0.
        1    1    3    3  502    0 -0.12460806589E+04 -0.64596408426E+03 -0.18961495090E+04  0.23591035516E+04  0.50400001928E-02 0. -1.
       -1    1    3    3    0  502  0.12460806589E+04  0.64596408426E+03  0.11567099961E+04  0.18187810813E+04  0.50400001928E-02 0.  1.
</event>
<event>
 5   0  0.4795023E-07  0.3839186E+04  0.7818609E-02  0.8037798E-01
       -1   -1    0    0    0  501  0.00000000000E+00  0.00000000000E+00  0.17506960457E+04  0.17506960457E+04  0.50400001928E-02 0. -1.
        1   -1    0    0  501    0  0.00000000000E+00  0.00000000000E+00 -0.21047843980E+04  0.21047843980E+04  0.50400001928E-02 0.  1.
    10030    2    1    2    0    0  0.00000000000E+00  0.00000000000E+00 -0.35408835230E+03  0.38554804438E+04  0.38391862277E+04 0.  0.
        3    1    3    3  502    0  0.53034328911E+02 -0.55971785190E+03 -0.20202470406E+04  0.20970204646E+04  0.10100000352E+00 0.  1.
       -3    1    3    3    0  502 -0.53034328911E+02  0.55971785190E+03  0.16661586883E+04  0.17584599792E+04  0.10100000352E+00 0. -1.
</event>
<event>
 5   0  0.1184616E-06  0.3809038E+04  0.7818609E-02  0.8044218E-01
        2   -1    0    0  501    0  0.00000000000E+00  0.00000000000E+00  0.17401645161E+04  0.17401645161E+04  0.25500000920E-02 0. -1.
       -2   -1    0    0    0  501  0.00000000000E+00  0.00000000000E+00 -0.20843963430E+04  0.20843963430E+04  0.25500000920E-02 0.  1.
    10030    2    1    2    0    0  0.00000000000E+00  0.00000000000E+00 -0.34423182690E+03  0.38245608591E+04  0.38090379645E+04 0.  0.
        5    1    3    3  502    0  0.66128534518E+03  0.55336708289E+03  0.15329378500E+04  0.17588160729E+04  0.46999998093E+01 0. -1.
       -5    1    3    3    0  502 -0.66128534518E+03 -0.55336708289E+03 -0.18771696769E+04  0.20657447863E+04  0.46999998093E+01 0.  1.
</event>
<event>
 5   0  0.1079205E-06  0.3865127E+04  0.7818609E-02  0.8032322E-01
        1   -1    0    0  501    0  0.00000000000E+00  0.00000000000E+00  0.23423814816E+04  0.23423814816E+04  0.50400001928E-02 0.  1.
       -1   -1    0    0    0  501  0.00000000000E+00  0.00000000000E+00 -0.15944462044E+04  0.15944462044E+04  0.50400001928E-02 0. -1.
    10030    2    1    2    0    0  0.00000000000E+00  0.00000000000E+00  0.74793527717E+03  0.39368276860E+04  0.38651267832E+04 0.  0.
        4    1    3    3  502    0  0.12978652495E+03 -0.13681066684E+04 -0.10100022848E+04  0.17054813474E+04  0.12699999809E+01 0. -1.
       -4    1    3    3    0  502 -0.12978652495E+03  0.13681066684E+04  0.17579375619E+04  0.22313463386E+04  0.12699999809E+01 0.  1.
</event>
<event>
 5   0  0.4255250E-07  0.3676469E+04  0.7818609E-02  0.8073197E-01
       -3   -1    0    0    0  501  0.00000000000E+00  0.00000000000E+00  0.14856229679E+04  0.14856229714E+04  0.10100000352E+00 0.  1.
        3   -1    0    0  501    0  0.00000000000E+00  0.00000000000E+00 -0.22745383888E+04  0.22745383911E+04  0.10100000352E+00 0. -1.
    10030    2    1    2    0    0  0.00000000000E+00  0.00000000000E+00 -0.78891542089E+03  0.37601613625E+04  0.36764692206E+04 0.  0.
        4    1    3    3  502    0  0.16293444221E+04  0.76188382164E+02 -0.12614197908E+04  0.20619770651E+04  0.12699999809E+01 0. -1.
       -4    1    3    3    0  502 -0.16293444221E+04 -0.76188382164E+02  0.47250436994E+03  0.16981842974E+04  0.12699999809E+01 0.  1.
</event>
<event>
 5   0  0.4255250E-07  0.1871463E+04  0.7818609E-02  0.8669193E-01
        1   -1    0    0  501    0  0.00000000000E+00  0.00000000000E+00  0.95571977033E+03  0.95571977034E+03  0.50400001928E-02 0. -1.
       -1   -1    0    0    0  501  0.00000000000E+00  0.00000000000E+00 -0.91616174371E+03  0.91616174372E+03  0.50400001928E-02 0.  1.
    10030    2    1    2    0    0  0.00000000000E+00  0.00000000000E+00  0.39558026618E+02  0.18718815141E+04  0.18714634822E+04 0.  0.
        2    1    3    3  502    0 -0.80453894922E+03 -0.85275936438E+02 -0.45047383767E+03  0.92600301543E+03  0.25500000920E-02 0.  1.
       -2    1    3    3    0  502  0.80453894922E+03  0.85275936438E+02  0.49003186429E+03  0.94587849863E+03  0.25500000920E-02 0. -1.
</event>
<event>
 5   0  0.1214844E-06  0.2229310E+04  0.7818609E-02  0.8506327E-01
       -2   -1    0    0    0  501  0.00000000000E+00  0.00000000000E+00  0.10068127059E+04  0.10068127059E+04  0.25500000920E-02 0.  1.
        2   -1    0    0  501    0  0.00000000000E+00  0.00000000000E+00 -0.12340488851E+04  0.12340488851E+04  0.25500000920E-02 0. -1.
    10030    2    1    2    0    0  0.00000000000E+00  0.00000000000E+00 -0.22723617914E+03  0.22408615910E+04  0.22293102945E+04 0.  0.
        4    1    3    3  502    0 -0.98529542737E+03 -0.26978551098E+03  0.33463336209E+03  0.10749755351E+04  0.12699999809E+01 0.  1.
       -4    1    3    3    0  502  0.98529542737E+03  0.26978551098E+03 -0.56186954123E+03  0.11658860559E+04  0.12699999809E+01 0. -1.
</event>
<event>
 5   0  0.4795023E-07  0.2486281E+04  0.7818609E-02  0.8407889E-01
        1   -1    0    0  501    0  0.00000000000E+00  0.00000000000E+00  0.15276468125E+04  0.15276468125E+04  0.50400001928E-02 0. -1.
       -1   -1    0    0    0  501  0.00000000000E+00  0.00000000000E+00 -0.10116204176E+04  0.10116204176E+04  0.50400001928E-02 0.  1.
    10030    2    1    2    0    0  0.00000000000E+00  0.00000000000E+00  0.51602639491E+03  0.25392672301E+04  0.24862813247E+04 0.  0.
        3    1    3    3  502    0  0.12296740442E+04 -0.10446479623E+03  0.41082658379E+03  0.13006881413E+04  0.10100000352E+00 0.  1.
       -3    1    3    3    0  502 -0.12296740442E+04  0.10446479623E+03  0.10519981112E+03  0.12385790888E+04  0.10100000352E+00 0. -1.
</event>
<event>
 5   0  0.5284458E-07  0.3279952E+04  0.7818609E-02  0.8168015E-01
        1   -1    0    0  501    0  0.00000000000E+00  0.00000000000E+00  0.27392378689E+04  0.27392378689E+04  0.50400001928E-02 0.  1.
       -1   -1    0    0    0  501  0.00000000000E+00  0.00000000000E+00 -0.98185008962E+03  0.98185008963E+03  0.50400001928E-02 0. -1.
    10030    2    1    2    0    0  0.00000000000E+00  0.00000000000E+00  0.17573877793E+04  0.37210879585E+04  0.32799517966E+04 0.  0.
        5    1    3    3  502    0  0.29775802840E+03 -0.28752616479E+03  0.26789935552E+04  0.27107858081E+04  0.46999998093E+01 0.  1.
       -5    1    3    3    0  502 -0.29775802840E+03  0.28752616479E+03 -0.92160577591E+03  0.10103021504E+04  0.46999998093E+01 0. -1.
</event>
<event>
 5   0  0.1341932E-06  0.3918736E+04  0.7818609E-02  0.8021144E-01
        2   -1    0    0  501    0  0.00000000000E+00  0.00000000000E+00  0.14187830373E+04  0.14187830373E+04  0.25500000920E-02 0.  1.
       -2   -1    0    0    0  501  0.00000000000E+00  0.00000000000E+00 -0.27059265200E+04  0.27059265200E+04  0.25500000920E-02 0. -1.
    10030    2    1    2    0    0  0.00000000000E+00  0.00000000000E+00 -0.12871434827E+04  0.41247095573E+04  0.39187358404E+04 0.  0.
        2    1    3    3  502    0 -0.11156329580E+04  0.11332481831E+04 -0.18483909061E+04  0.24383267384E+04  0.25500000920E-02 0. -1.
       -2    1    3    3    0  502  0.11156329580E+04 -0.11332481831E+04  0.56124742333E+03  0.16863828189E+04  0.25500000920E-02 0.  1.
</event>
<event>
 5   0  0.1214844E-06  0.3705032E+04  0.7818609E-02  0.8066848E-01
        2   -1    0    0  501    0  0.00000000000E+00  0.00000000000E+00  0.20739543169E+04  0.20739543169E+04  0.25500000920E-02 0.  1.
       -2   -1    0    0    0  501  0.00000000000E+00  0.00000000000E+00 -0.16547211119E+04  0.16547211119E+04  0.25500000920E-02 0. -1.
    10030    2    1    2    0    0  0.00000000000E+00  0.00000000000E+00  0.41923320502E+03  0.37286754288E+04  0.37050322499E+04 0.  0.
        4    1    3    3  502    0  0.60938076690E+03  0.16885026216E+04 -0.25093715754E+03  0.18125554039E+04  0.12699999809E+01 0.  1.
       -4    1    3    3    0  502 -0.60938076690E+03 -0.16885026216E+04  0.67017036256E+03  0.19161200249E+04  0.12699999809E+01 0. -1.
</event>
<event>
 5   0  0.1214844E-06  0.3808127E+04  0.7818609E-02  0.8044413E-01
        2   -1    0    0  501    0  0.00000000000E+00  0.00000000000E+00  0.25222333322E+04  0.25222333322E+04  0.25500000920E-02 0. -1.
       -2   -1    0    0    0  501  0.00000000000E+00  0.00000000000E+00 -0.14373998149E+04  0.14373998149E+04  0.25500000920E-02 0.  1.
    10030    2    1    2    0    0  0.00000000000E+00  0.00000000000E+00  0.10848335173E+04  0.39596331470E+04  0.38081269541E+04 0.  0.
        4    1    3    3  502    0  0.16668967605E+04  0.83961132129E+03  0.15064525212E+03  0.18724816650E+04  0.12699999809E+01 0.  1.
       -4    1    3    3    0  502 -0.16668967605E+04 -0.83961132129E+03  0.93418826519E+03  0.20871514820E+04  0.12699999809E+01 0. -1.
</event>
<event>
 5   0  0.4255250E-07  0.3906982E+04  0.7818609E-02  0.8023579E-01
       -1   -1    0    0    0  501  0.00000000000E+00  0.00000000000E+00  0.19290738386E+04  0.19290738386E+04  0.50400001928E-02 0. -1.
        1   -1    0    0  501    0  0.00000000000E+00  0.00000000000E+00 -0.19782172371E+04  0.19782172372E+04  0.50400001928E-02 0.  1.
    10030    2    1    2    0    0  0.00000000000E+00  0.00000000000E+00 -0.49143398590E+02  0.39072910757E+04  0.39069820164E+04 0.  0.
        2    1    3    3  502    0  0.13854110696E+03 -0.19317151863E+04  0.23120216294E+03  0.19504285784E+04  0.25500000920E-02 0. -1.
       -2    1    3    3    0  502 -0.13854110696E+03  0.19317151863E+04 -0.28034556153E+03  0.19568624973E+04  0.25500000920E-02 0.  1.
</event>
<event>
 5   0  0.1184616E-06  0.2025365E+04  0.7818609E-02  0.8594853E-01
        2   -1    0    0  501    0  0.00000000000E+00  0.00000000000E+00  0.10789830793E+04  0.10789830793E+04  0.25500000920E-02 0. -1.
       -2   -1    0    0    0  501  0.00000000000E+00  0.00000000000E+00 -0.95045583459E+03  0.95045583459E+03  0.25500000920E-02 0.  1.
    10030    2    1    2    0    0  0.00000000000E+00  0.00000000000E+00  0.12852724470E+03  0.20294389139E+04  0.20253649184E+04 0.  0.
        5    1    3    3  502    0  0.78355587491E+03 -0.50341849782E+03  0.46269856949E+03  0.10399529072E+04  0.46999998093E+01 0. -1.
       -5    1    3    3    0  502 -0.78355587491E+03  0.50341849782E+03 -0.33417132479E+03  0.98948600665E+03  0.46999998093E+01 0.  1.
</event>
<event>
 5   0  0.1079205E-06  0.2430175E+04  0.7818609E-02  0.8428292E-01
        1   -1    0    0  501    0  0.00000000000E+00  0.00000000000E+00  0.20895064334E+04  0.20895064334E+04  0.50400001928E-02 0.  1.
       -1   -1    0    0    0  501  0.00000000000E+00  0.00000000000E+00 -0.70659647824E+03  0.70659647826E+03  0.50400001928E-02 0. -1.
    10030    2    1    2    0    0  0.00000000000E+00  0.00000000000E+00  0.13829099552E+04  0.27961029117E+04  0.24301752094E+04 0.  0.
        4    1    3    3  502    0 -0.62895521872E+03  0.99083140670E+03  0.10536669141E+04  0.15771959683E+04  0.12699999809E+01 0.  1.
       -4    1    3    3    0  502  0.62895521872E+03 -0.99083140670E+03  0.32924304110E+03  0.12189069434E+04  0.12699999809E+01 0. -1.
</event>
<event>
 5   0  0.1337854E-06  0.2246045E+04  0.7818609E-02  0.8499504E-01
       -2   -1    0    0    0  501  0.00000000000E+00  0.00000000000E+00  0.11680699027E+04  0.11680699027E+04  0.25500000920E-02 0. -1.
        2   -1    0    0  501    0  0.00000000000E+00  0.00000000000E+00 -0.10797119370E+04  0.10797119370E+04  0.25500000920E-02 0.  1.
    10030    2    1    2    0    0  0.00000000000E+00  0.00000000000E+00  0.88357965704E+02  0.22477818397E+04  0.22460445384E+04 0.  0.
        3    1    3    3  502    0  0.33959700557E+03  0.78868538728E+03  0.76849860133E+03  0.11523631705E+04  0.10100000352E+00 0. -1.
       -3    1    3    3    0  502 -0.33959700557E+03 -0.78868538728E+03 -0.68014063562E+03  0.10954186692E+04  0.10100000352E+00 0.  1.
</event>
<event>
 5   0  0.4255250E-07  0.3970337E+04  0.7818609E-02  0.8010557E-01
       -4   -1    0    0    0  501  0.00000000000E+00  0.00000000000E+00  0.16757319474E+04  0.16757324286E+04  0.12699999809E+01 0.  1.
        4   -1    0    0  501    0  0.00000000000E+00  0.00000000000E+00 -0.23517440006E+04  0.23517443435E+04  0.12699999809E+01 0. -1.
    10030    2    1    2    0    0  0.00000000000E+00  0.00000000000E+00 -0.67601205322E+03  0.40274767722E+04  0.39703371210E+04 0.  0.
        4    1    3    3  502    0 -0.30592508564E+03  0.38672357925E+03  0.16126211714E+04  0.16863255736E+04  0.12699999809E+01 0.  1.
       -4    1    3    3    0  502  0.30592508564E+03 -0.38672357925E+03 -0.22886332246E+04  0.23411511986E+04  0.12699999809E+01 0. -1.
</event>
<event>
 5   0  0.1341932E-06  0.3728693E+04  0.7818609E-02  0.8061633E-01
        2   -1    0    0  501    0  0.00000000000E+00  0.00000000000E+00  0.19963471261E+04  0.19963471261E+04  0.25500000920E-02 0.  1.
       -2   -1    0    0    0  501  0.00000000000E+00  0.00000000000E+00 -0.17410743257E+04  0.17410743257E+04  0.25500000920E-02 0. -1.
    10030    2    1    2    0    0  0.00000000000E+00  0.00000000000E+00  0.25527280039E+03  0.37374214518E+04  0.37286934583E+04 0.  0.
        2    1    3    3  502    0 -0.16011530485E+04  0.63813755409E+03 -0.58457457391E+03  0.18200653986E+04  0.25500000920E-02 0.  1.
       -2    1    3    3    0  502  0.16011530485E+04 -0.63813755409E+03  0.83984737430E+03  0.19173560532E+04  0.25500000920E-02 0. -1.
</event>
<event>
 5   0  0.1214844E-06  0.3736270E+04  0.7818609E-02  0.8059971E-01
        2   -1    0    0  501    0  0.00000000000E+00  0.00000000000E+00  0.18874356651E+04  0.18874356651E+04  0.25500000920E-02 0. -1.
       -2   -1    0    0    0  501  0.00000000000E+00  0.00000000000E+00 -0.18490319996E+04  0.18490319996E+04  0.25500000920E-02 0.  1.
    10030    2    1    2    0    0  0.00000000000E+00  0.00000000000E+00  0.38403665432E+02  0.37364676647E+04  0.37362703018E+04 0.  0.
        4    1    3    3  502    0 -0.17360393931E+04 -0.52785986705E+03  0.46358835006E+03  0.18728012668E+04  0.12699999809E+01 0.  1.
       -4    1    3    3    0  502  0.17360393931E+04  0.52785986705E+03 -0.42518468462E+03  0.18636663979E+04  0.12699999809E+01 0. -1.
</event>
<event>
 5   0  0.1184616E-06  0.4144790E+04  0.7818609E-02  0.7975958E-01
       -2   -1    0    0    0  501  0.00000000000E+00  0.00000000000E+00  0.12856139178E+04  0.12856139178E+04  0.25500000920E-02 0. -1.
        2   -1    0    0  501    0  0.00000000000E+00  0.00000000000E+00 -0.33406768901E+04  0.33406768901E+04  0.25500000920E-02 0.  1.
    10030    2    1    2    0    0  0.00000000000E+00  0.00000000000E+00 -0.20550629723E+04  0.46262908079E+04  0.41447898402E+04 0.  0.
        5    1    3    3  502    0 -0.56083175850E+03 -0.85514433994E+02 -0.32523119520E+04  0.33014239508E+04  0.46999998093E+01 0.  1.
       -5    1    3    3    0  502  0.56083175850E+03  0.85514433994E+02  0.11972489797E+04  0.13248668571E+04  0.46999998093E+01 0. -1.
</event>
<event>
 5   0  0.8030324E-07  0.3738882E+04  0.7818609E-02  0.8059399E-01
        1   -1    0    0  501    0  0.00000000000E+00  0.00000000000E+00  0.29229091235E+04  0.29229091235E+04  0.50400001928E-02 0. -1.
       -1   -1    0    0    0  501  0.00000000000E+00  0.00000000000E+00 -0.11956612097E+04  0.11956612097E+04  0.50400001928E-02 0.  1.
    10030    2    1    2    0    0  0.00000000000E+00  0.00000000000E+00  0.17272479139E+04  0.41185703332E+04  0.37388816822E+04 0.  0.
        1    1    3    3  502    0  0.11478568084E+04  0.99902396627E+03 -0.33255380230E+03  0.15576315897E+04  0.50400001928E-02 0.  1.
       -1    1    3    3    0  502 -0.11478568084E+04 -0.99902396627E+03  0.20598017162E+04  0.25609387435E+04  0.50400001928E-02 0. -1.
</event>
<event>
 5   0  0.4255250E-07  0.3699188E+04  0.7818609E-02  0.8068142E-01
        1   -1    0    0  501    0  0.00000000000E+00  0.00000000000E+00  0.20932198731E+04  0.20932198731E+04  0.50400001928E-02 0.  1.
       -1   -1    0    0    0  501  0.00000000000E+00  0.00000000000E+00 -0.16343229227E+04  0.16343229227E+04  0.50400001928E-02 0. -1.
    10030    2    1    2    0    0  0.00000000000E+00  0.00000000000E+00  0.45889695037E+03  0.37275427958E+04  0.36991875978E+04 0.  0.
        2    1    3    3  502    0 -0.77724509689E+02 -0.14908779977E+04 -0.87081812324E+03  0.17283178259E+04  0.25500000920E-02 0. -1.
       -2    1    3    3    0  502  0.77724509689E+02  0.14908779977E+04  0.13297150736E+04  0.19992249699E+04  0.25500000920E-02 0.  1.
</event>
<event>
 5   0  0.1184616E-06  0.2205600E+04  0.7818609E-02  0.8516101E-01
       -2   -1    0    0    0  501  0.00000000000E+00  0.00000000000E+00  0.14274771024E+04  0.14274771024E+04  0.25500000920E-02 0. -1.
        2   -1    0    0  501    0  0.00000000000E+00  0.00000000000E+00 -0.85196981299E+03  0.85196981300E+03  0.25500000920E-02 0.  1.
    10030    2    1    2    0    0  0.00000000000E+00  0.00000000000E+00  0.57550728939E+03  0.22794469154E+04  0.22055996010E+04 0.  0.
        5    1    3    3  502    0 -0.24791314770E+03 -0.13948667997E+02  0.13982007114E+04  0.14200854951E+04  0.46999998093E+01 0. -1.
       -5    1    3    3    0  502  0.24791314770E+03  0.13948667997E+02 -0.82269342196E+03  0.85936142029E+03  0.46999998093E+01 0.  1.
</event>
<event>
 5   0  0.5284458E-07  0.2688104E+04  0.7818609E-02  0.8338875E-01
       -1   -1    0    0    0  501  0.00000000000E+00  0.00000000000E+00  0.13843071707E+04  0.13843071707E+04  0.50400001928E-02 0. -1.
        1   -1    0    0  501    0  0.00000000000E+00  0.00000000000E+00 -0.13049674084E+04  0.13049674084E+04  0.50400001928E-02 0.  1.
    10030    2    1    2    0    0  0.00000000000E+00  0.00000000000E+00  0.79339762370E+02  0.26892745791E+04  0.26881039720E+04 0.  0.
        5    1    3    3  502    0  0.11470659245E+04  0.67639564606E+03  0.22190942777E+03  0.13500137738E+04  0.46999998093E+01 0. -1.
       -5    1    3    3    0  502 -0.11470659245E+04 -0.67639564606E+03 -0.14256966540E+03  0.13392608053E+04  0.46999998093E+01 0.  1.
</event>
<event>
 5   0  0.1372748E-06  0.3776405E+04  0.7818609E-02  0.8051237E-01
       -2   -1    0    0    0  501  0.00000000000E+00  0.00000000000E+00  0.27537302291E+04  0.27537302291E+04  0.25500000920E-02 0. -1.
        2   -1    0    0  501    0  0.00000000000E+00  0.00000000000E+00 -0.12947199353E+04  0.12947199353E+04  0.25500000920E-02 0.  1.
    10030    2    1    2    0    0  0.00000000000E+00  0.00000000000E+00  0.14590102939E+04  0.40484501644E+04  0.37764053935E+04 0.  0.
        1    1    3    3  502    0 -0.17462233638E+04 -0.10849844482E+03  0.14907589419E+04  0.22985713327E+04  0.50400001928E-02 0.  1.
       -1    1    3    3    0  502  0.17462233638E+04  0.10849844482E+03 -0.31748648019E+02  0.17498788317E+04  0.50400001928E-02 0. -1.
</event>
<event>
 5   0  0.4795023E-07  0.2069526E+04  0.7818609E-02  0.8574787E-01
       -1   -1    0    0    0  501  0.00000000000E+00  0.00000000000E+00  0.60745788516E+03  0.60745788518E+03  0.50400001928E-02 0. -1.
        1   -1    0    0  501    0  0.00000000000E+00  0.00000000000E+00 -0.17626484966E+04  0.17626484966E+04  0.50400001928E-02 0.  1.
    10030    2    1    2    0    0  0.00000000000E+00  0.00000000000E+00 -0.11551906114E+04  0.23701063818E+04  0.20695262531E+04 0.  0.
        3    1    3    3  502    0  0.64002981514E+03 -0.16694255760E+03 -0.14889270983E+04  0.16292365992E+04  0.10100000352E+00 0.  1.
       -3    1    3    3    0  502 -0.64002981514E+03  0.16694255760E+03  0.33373648693E+03  0.74086978256E+03  0.10100000352E+00 0. -1.
</event>
<event>
 5   0  0.1372748E-06  0.2662134E+04  0.7818609E-02  0.8347397E-01
        2   -1    0    0  501    0  0.00000000000E+00  0.00000000000E+00  0.91008446062E+03  0.91008446062E+03  0.25500000920E-02 0.  1.
       -2   -1    0    0    0  501  0.00000000000E+00  0.00000000000E+00 -0.19467849604E+04  0.19467849604E+04  0.25500000920E-02 0. -1.
    10030    2    1    2    0    0  0.00000000000E+00  0.00000000000E+00 -0.10367004997E+04  0.28568694210E+04  0.26621335358E+04 0.  0.
        1    1    3    3  502    0  0.53383160285E+03  0.12167420139E+04 -0.60353859442E+03  0.14593478487E+04  0.50400001928E-02 0. -1.
       -1    1    3    3    0  502 -0.53383160285E+03 -0.12167420139E+04 -0.43316190532E+03  0.13975215722E+04  0.50400001928E-02 0.  1.
</event>
<event>
 5   0  0.1372748E-06  0.3917369E+04  0.7818609E-02  0.8021426E-01
       -2   -1    0    0    0  501  0.00000000000E+00  0.00000000000E+00  0.20567013139E+04  0.20567013139E+04  0.25500000920E-02 0. -1.
        2   -1    0    0  501    0  0.00000000000E+00  0.00000000000E+00 -0.18653393475E+04  0.18653393475E+04  0.25500000920E-02 0.  1.
    10030    2    1    2    0    0  0.00000000000E+00  0.00000000000E+00  0.19136196643E+03  0.39220406613E+04  0.39173694678E+04 0.  0.
        1    1    3    3  502    0  0.13607269847E+04 -0.59377052622E+03 -0.11834592220E+04  0.18986092528E+04  0.50400001928E-02 0. -1.
       -1    1    3    3    0  502 -0.13607269847E+04  0.59377052622E+03  0.13748211885E+04  0.20234314085E+04  0.50400001928E-02 0.  1.
</event>
<event>
 5   0  0.1184616E-06  0.3822796E+04  0.7818609E-02  0.8041280E-01
       -2   -1    0    0    0  501  0.00000000000E+00  0.00000000000E+00  0.26808285660E+04  0.26808285660E+04  0.25500000920E-02 0. -1.
        2   -1    0    0  501    0  0.00000000000E+00  0.00000000000E+00 -0.13628037287E+04  0.13628037287E+04  0.25500000920E-02 0.  1.
    10030    2    1    2    0    0  0.00000000000E+00  0.00000000000E+00  0.13180248373E+04  0.40436322947E+04  0.38227964454E+04 0.  0.
        5    1    3    3  502    0 -0.72210074986E+03  0.15840115719E+04  0.14938447747E+04  0.22939303506E+04  0.46999998093E+01 0. -1.
       -5    1    3    3    0  502  0.72210074986E+03 -0.15840115719E+04 -0.17581993733E+03  0.17497019441E+04  0.46999998093E+01 0.  1.
</event>
<event>
 5   0  0.1337854E-06  0.2751531E+04  0.7818609E-02  0.8318476E-01
        2   -1    0    0  501    0  0.00000000000E+00  0.00000000000E+00  0.17224624130E+04  0.17224624130E+04  0.25500000920E-02 0.  1.
       -2   -1    0    0    0  501  0.00000000000E+00  0.00000000000E+00 -0.10988518477E+04  0.10988518477E+04  0.25500000920E-02 0. -1.
    10030    2    1    2    0    0  0.00000000000E+00  0.00000000000E+00  0.62361056529E+03  0.28213142608E+04  0.27515312139E+04 0.  0.
        3    1    3    3  502    0 -0.13595266281E+04  0.11124246373E+03  0.49535203330E+03  0.14512274754E+04  0.10100000352E+00 0. -1.
       -3    1    3    3    0  502  0.13595266281E+04 -0.11124246373E+03  0.12825853198E+03  0.13700867854E+04  0.10100000352E+00 0.  1.
</event>
<event>
 5   0  0.4255250E-07  0.2727722E+04  0.7818609E-02  0.8326066E-01
        1   -1    0    0  501    0  0.00000000000E+00  0.00000000000E+00  0.11225331511E+04  0.11225331511E+04  0.50400001928E-02 0. -1.
       -1   -1    0    0    0  501  0.00000000000E+00  0.00000000000E+00 -0.16570707154E+04  0.16570707154E+04  0.50400001928E-02 0.  1.
    10030    2    1    2    0    0  0.00000000000E+00  0.00000000000E+00 -0.53453756430E+03  0.27796038666E+04  0.27277219887E+04 0.  0.
        2    1    3    3  502    0 -0.24185836302E+03  0.13415983578E+04 -0.22482086432E+03  0.13816388972E+04  0.25500000920E-02 0.  1.
       -2    1    3    3    0  502  0.24185836302E+03 -0.13415983578E+04 -0.30971669998E+03  0.13979649694E+04  0.25500000920E-02 0. -1.
</event>
<event>
 5   0  0.5284458E-07  0.3688814E+04  0.7818609E-02  0.8070445E-01
       -1   -1    0    0    0  501  0.00000000000E+00  0.00000000000E+00  0.19678334325E+04  0.19678334325E+04  0.50400001928E-02 0.  1.
        1   -1    0    0  501    0  0.00000000000E+00  0.00000000000E+00 -0.17287225519E+04  0.17287225519E+04  0.50400001928E-02 0. -1.
    10030    2    1    2    0    0  0.00000000000E+00  0.00000000000E+00  0.23911088062E+03  0.36965559844E+04  0.36888144616E+04 0.  0.
        5    1    3    3  502    0  0.82361788501E+03 -0.31629798228E+03 -0.15035428175E+04  0.17432882516E+04  0.46999998093E+01 0. -1.
       -5    1    3    3    0  502 -0.82361788501E+03  0.31629798228E+03  0.17426536981E+04  0.19532677327E+04  0.46999998093E+01 0.  1.
</event>
<event>
 5   0  0.4255250E-07  0.3731007E+04  0.7818609E-02  0.8061125E-01
       -1   -1    0    0    0  501  0.00000000000E+00  0.00000000000E+00  0.13616338764E+04  0.13616338764E+04  0.50400001928E-02 0.  1.
        1   -1    0    0  501    0  0.00000000000E+00  0.00000000000E+00 -0.25558287354E+04  0.25558287354E+04  0.50400001928E-02 0. -1.
    10030    2    1    2    0    0  0.00000000000E+00  0.00000000000E+00 -0.11941948590E+04  0.39174626118E+04  0.37310068284E+04 0.  0.
        2    1    3    3  502    0  0.16460509461E+04  0.14174188610E+03  0.31252762338E+03  0.16814422366E+04  0.25500000920E-02 0.  1.
       -2    1    3    3    0  502 -0.16460509461E+04 -0.14174188610E+03 -0.15067224823E+04  0.22360203752E+04  0.25500000920E-02 0. -1.
</event>
<event>
 5   0  0.4795023E-07  0.3682205E+04  0.7818609E-02  0.8071917E-01
       -1   -1    0    0    0  501  0.00000000000E+00  0.00000000000E+00  0.13596307433E+04  0.13596307433E+04  0.50400001928E-02 0.  1.
        1   -1    0    0  501    0  0.00000000000E+00  0.00000000000E+00 -0.24930726264E+04  0.24930726264E+04  0.50400001928E-02 0. -1.
    10030    2    1    2    0    0  0.00000000000E+00  0.00000000000E+00 -0.11334418831E+04  0.38527033698E+04  0.36822048766E+04 0.  0.
        3    1    3    3  502    0 -0.44584219353E+03 -0.15810051408E+03  0.12949603677E+04  0.13786563743E+04  0.10100000352E+00 0.  1.
       -3    1    3    3    0  502  0.44584219353E+03  0.15810051408E+03 -0.24284022508E+04  0.24740469955E+04  0.10100000352E+00 0. -1.
</event>
<event>
 5   0  0.1214844E-06  0.3847380E+04  0.7818609E-02  0.8036063E-01
        2   -1    0    0  501    0  0.00000000000E+00  0.00000000000E+00  0.21647279466E+04  0.21647279466E+04  0.25500000920E-02 0.  1.
       -2   -1    0    0    0  501  0.00000000000E+00  0.00000000000E+00 -0.17094910028E+04  0.17094910028E+04  0.25500000920E-02 0. -1.
    10030    2    1    2    0    0  0.00000000000E+00  0.00000000000E+00  0.45523694380E+03  0.38742189494E+04  0.38473798608E+04 0.  0.
        4    1    3    3  502    0  0.10775713062E+04 -0.40057945043E+03 -0.13255280811E+04  0.17546082534E+04  0.12699999809E+01 0. -1.
       -4    1    3    3    0  502 -0.10775713062E+04  0.40057945043E+03  0.17807650249E+04  0.21196106961E+04  0.12699999809E+01 0.  1.
</event>
<event>
 5   0  0.5284458E-07  0.3841600E+04  0.7818609E-02  0.8037286E-01
        1   -1    0    0  501    0  0.00000000000E+00  0.00000000000E+00  0.21556564388E+04  0.21556564388E+04  0.50400001928E-02 0. -1.
       -1   -1    0    0    0  501  0.00000000000E+00  0.00000000000E+00 -0.17115309918E+04  0.17115309918E+04  0.50400001928E-02 0.  1.
    10030    2    1    2    0    0  0.00000000000E+00  0.00000000000E+00  0.44412544701E+03  0.38671874306E+04  0.38416000847E+04 0.  0.
        5    1    3    3  502    0 -0.10039786189E+04  0.57647169359E+03 -0.13208422748E+04  0.17563994664E+04  0.46999998093E+01 0.  1.
       -5    1    3    3    0  502  0.10039786189E+04 -0.57647169359E+03  0.17649677218E+04  0.21107879642E+04  0.46999998093E+01 0. -1.
</event>
<event>
 5   0  0.1341932E-06  0.2074682E+04  0.7818609E-02  0.8572479E-01
       -2   -1    0    0    0  501  0.00000000000E+00  0.00000000000E+00  0.67487498185E+03  0.67487498185E+03  0.25500000920E-02 0.  1.
        2   -1    0    0  501    0  0.00000000000E+00  0.00000000000E+00 -0.15944819909E+04  0.15944819909E+04  0.25500000920E-02 0. -1.
    10030    2    1    2    0    0  0.00000000000E+00  0.00000000000E+00 -0.91960700905E+03  0.22693569727E+04  0.20746816668E+04 0.  0.
        2    1    3    3  502    0 -0.23864565929E+03 -0.94121136392E+03 -0.60523560467E+02  0.97287906939E+03  0.25500000920E-02 0.  1.
       -2    1    3    3    0  502  0.23864565929E+03  0.94121136392E+03 -0.85908344858E+03  0.12964779034E+04  0.25500000920E-02 0. -1.
</event>
<event>
 5   0  0.1214844E-06  0.3840230E+04  0.7818609E-02  0.8037576E-01
        2   -1    0    0  501    0  0.00000000000E+00  0.00000000000E+00  0.14174751604E+04  0.14174751604E+04  0.25500000920E-02 0.  1.
       -2   -1    0    0    0  501  0.00000000000E+00  0.00000000000E+00 -0.26009924600E+04  0.26009924600E+04  0.25500000920E-02 0. -1.
    10030    2    1    2    0    0  0.00000000000E+00  0.00000000000E+00 -0.11835172995E+04  0.40184676204E+04  0.38402303079E+04 0.  0.
        4    1    3    3  502    0  0.66414736026E+03 -0.14414226446E+04 -0.17226837717E+04  0.23423133750E+04  0.12699999809E+01 0. -1.
       -4    1    3    3    0  502 -0.66414736026E+03  0.14414226446E+04  0.53916647218E+03  0.16761542454E+04  0.12699999809E+01 0.  1.
</event>
<event>
 5   0  0.1372748E-06  0.3895631E+04  0.7818609E-02  0.8025938E-01
       -2   -1    0    0    0  501  0.00000000000E+00  0.00000000000E+00  0.15699748786E+04  0.15699748786E+04  0.25500000920E-02 0.  1.
        2   -1    0    0  501    0  0.00000000000E+00  0.00000000000E+00 -0.24165900855E+04  0.24165900855E+04  0.25500000920E-02 0. -1.
    10030    2    1    2    0    0  0.00000000000E+00  0.00000000000E+00 -0.84661520690E+03  0.39865649641E+04  0.38956312588E+04 0.  0.
        1    1    3    3  502    0 -0.99361158937E+03  0.16639257729E+04 -0.22363054443E+03  0.19508776458E+04  0.50400001928E-02 0.  1.
       -1    1    3    3    0  502  0.99361158937E+03 -0.16639257729E+04 -0.62298466247E+03  0.20356873183E+04  0.50400001928E-02 0. -1.
</event>
<event>
 5   0  0.1372748E-06  0.2377131E+04  0.7818609E-02  0.8448115E-01
       -2   -1    0    0    0  501  0.00000000000E+00  0.00000000000E+00  0.10276931095E+04  0.10276931095E+04  0.25500000920E-02 0.  1.
        2   -1    0    0  501    0  0.00000000000E+00  0.00000000000E+00 -0.13746208605E+04  0.13746208605E+04  0.25500000920E-02 0. -1.
    10030    2    1    2    0    0  0.00000000000E+00  0.00000000000E+00 -0.34692775096E+03  0.24023139700E+04  0.23771313691E+04 0.  0.
        1    1    3    3  502    0 -0.39593852522E+03  0.10434802713E+04  0.23960817683E+03  0.11415036009E+04  0.50400001928E-02 0.  1.
       -1    1    3    3    0  502  0.39593852522E+03 -0.10434802713E+04 -0.58653592778E+03  0.12608103692E+04  0.50400001928E-02 0. -1.
</event>
<event>
 5   0  0.1079205E-06  0.3635931E+04  0.7818609E-02  0.8082311E-01
       -1   -1    0    0    0  501  0.00000000000E+00  0.00000000000E+00  0.15031231064E+04  0.15031231064E+04  0.50400001928E-02 0. -1.
        1   -1    0    0  501    0  0.00000000000E+00  0.00000000000E+00 -0.21987543076E+04  0.21987543076E+04  0.50400001928E-02 0.  1.
    10030    2    1    2    0    0  0.00000000000E+00  0.00000000000E+00 -0.69563120124E+03  0.37018774140E+04  0.36359309152E+04 0.  0.
        4    1    3    3  502    0  0.25934366512E+03  0.47434466357E+02  0.14835551855E+04  0.15068001748E+04  0.12699999809E+01 0. -1.
       -4    1    3    3    0  502 -0.25934366512E+03 -0.47434466357E+02 -0.21791863868E+04  0.21950772393E+04  0.12699999809E+01 0.  1.
</event>
<event>
 5   0  0.1214844E-06  0.2544901E+04  0.7818609E-02  0.8387162E-01
       -2   -1    0    0    0  501  0.00000000000E+00  0.00000000000E+00  0.98914994743E+03  0.98914994743E+03  0.25500000920E-02 0.  1.
        2   -1    0    0  501    0  0.00000000000E+00  0.00000000000E+00 -0.16368901618E+04  0.16368901618E+04  0.25500000920E-02 0. -1.
    10030    2    1    2    0    0  0.00000000000E+00  0.00000000000E+00 -0.64774021433E+03  0.26260401092E+04  0.25449006405E+04 0.  0.
        4    1    3    3  502    0 -0.78297112639E+03 -0.27929869764E+03 -0.13179526538E+04  0.15582208950E+04  0.12699999809E+01 0. -1.
       -4    1    3    3    0  502  0.78297112639E+03  0.27929869764E+03  0.67021243943E+03  0.10678192142E+04  0.12699999809E+01 0.  1.
</event>
<event>
 5   0  0.1214844E-06  0.3753865E+04  0.7818609E-02  0.8056128E-01
       -2   -1    0    0    0  501  0.00000000000E+00  0.00000000000E+00  0.17930259390E+04  0.17930259390E+04  0.25500000920E-02 0.  1.
        2   -1    0    0  501    0  0.00000000000E+00  0.00000000000E+00 -0.19647654791E+04  0.19647654791E+04  0.25500000920E-02 0. -1.
    10030    2    1    2    0    0  0.00000000000E+00  0.00000000000E+00 -0.17173954008E+03  0.37577914180E+04  0.37538649245E+04 0.  0.
        4    1    3    3  502    0 -0.42183138269E+02  0.23145217041E+03 -0.19499465105E+04  0.19640882188E+04  0.12699999809E+01 0. -1.
       -4    1    3    3    0  502  0.42183138269E+02 -0.23145217041E+03  0.17782069704E+04  0.17937031992E+04  0.12699999809E+01 0.  1.
</event>
<event>
 5   0  0.4255250E-07  0.3732111E+04  0.7818609E-02  0.8060883E-01
       -1   -1    0    0    0  501  0.00000000000E+00  0.00000000000E+00  0.18165847170E+04  0.18165847170E+04  0.50400001928E-02 0. -1.
        1   -1    0    0  501    0  0.00000000000E+00  0.00000000000E+00 -0.19168734075E+04  0.19168734075E+04  0.50400001928E-02 0.  1.
    10030    2    1    2    0    0  0.00000000000E+00  0.00000000000E+00 -0.10028869052E+03  0.37334581245E+04  0.37321108968E+04 0.  0.
        2    1    3    3  502    0 -0.13975811863E+03 -0.16644293810E+04 -0.88249364166E+03  0.18890877491E+04  0.25500000920E-02 0.  1.
       -2    1    3    3    0  502  0.13975811863E+03  0.16644293810E+04  0.78220495114E+03  0.18443703754E+04  0.25500000920E-02 0. -1.
</event>
<event>
 5   0  0.1214844E-06  0.4016611E+04  0.7818609E-02  0.8001204E-01
        2   -1    0    0  501    0  0.00000000000E+00  0.00000000000E+00  0.17792266895E+04  0.17792266895E+04  0.25500000920E-02 0. -1.
       -2   -1    0    0    0  501  0.00000000000E+00  0.00000000000E+00 -0.22668788776E+04  0.22668788776E+04  0.25500000920E-02 0.  1.
    10030    2    1    2    0    0  0.00000000000E+00  0.00000000000E+00 -0.48765218816E+03  0.40461055671E+04  0.40166112089E+04 0.  0.
        4    1    3    3  502    0  0.12134699471E+04 -0.28868598905E+03  0.13417206978E+04  0.18319565925E+04  0.12699999809E+01 0. -1.
       -4    1    3    3    0  502 -0.12134699471E+04  0.28868598905E+03 -0.18293728860E+04  0.22141489746E+04  0.12699999809E+01 0.  1.
</event>
<event>
 5   0  0.4255250E-07  0.2955875E+04  0.7818609E-02  0.8256444E-01
        1   -1    0    0  501    0  0.00000000000E+00  0.00000000000E+00  0.19413541933E+04  0.19413541933E+04  0.50400001928E-02 0.  1.
       -1   -1    0    0    0  501  0.00000000000E+00  0.00000000000E+00 -0.11251422692E+04  0.11251422692E+04  0.50400001928E-02 0. -1.
    10030    2    1    2    0    0  0.00000000000E+00  0.00000000000E+00  0.81621192412E+03  0.30664964625E+04  0.29558752764E+04 0.  0.
        2    1    3    3  502    0 -0.46611287942E+03  0.13050431741E+02  0.18630422804E+04  0.19205098461E+04  0.25500000920E-02 0.  1.
       -2    1    3    3    0  502  0.46611287942E+03 -0.13050431741E+02 -0.10468303563E+04  0.11459866164E+04  0.25500000920E-02 0. -1.
</event>
<event>
 5   0  0.1337854E-06  0.3787044E+04  0.7818609E-02  0.8048941E-01
       -2   -1    0    0    0  501  0.00000000000E+00  0.00000000000E+00  0.10464337277E+04  0.10464337277E+04  0.25500000920E-02 0. -1.
        2   -1    0    0  501    0  0.00000000000E+00  0.00000000000E+00 -0.34263276988E+04  0.34263276988E+04  0.25500000920E-02 0.  1.
    10030    2    1    2    0    0  0.00000000000E+00  0.00000000000E+00 -0.23798939711E+04  0.44727614265E+04  0.37870436313E+04 0.  0.
        3    1    3    3  502    0  0.10822442716E+04  0.51140240789E+03 -0.29227975211E+04  0.31584063143E+04  0.10100000352E+00 0.  1.
       -3    1    3    3    0  502 -0.10822442716E+04 -0.51140240789E+03  0.54290355006E+03  0.13143551123E+04  0.10100000352E+00 0. -1.
</event>
<event>
 5   0  0.1184616E-06  0.3879255E+04  0.7818609E-02  0.8029358E-01
       -2   -1    0    0    0  501  0.00000000000E+00  0.00000000000E+00  0.16113426132E+04  0.16113426132E+04  0.25500000920E-02 0.  1.
        2   -1    0    0  501    0  0.00000000000E+00  0.00000000000E+00 -0.23347955878E+04  0.23347955878E+04  0.25500000920E-02 0. -1.
    10030    2    1    2    0    0  0.00000000000E+00  0.00000000000E+00 -0.72345297454E+03  0.39461382010E+04  0.38792554047E+04 0.  0.
        5    1    3    3  502    0  0.32424701860E+03  0.18312235216E+04  0.19878890718E+03  0.18703087539E+04  0.46999998093E+01 0.  1.
       -5    1    3    3    0  502 -0.32424701860E+03 -0.18312235216E+04 -0.92224188173E+03  0.20758294471E+04  0.46999998093E+01 0. -1.
</event>
<event>
 5   0  0.1341932E-06  0.3895281E+04  0.7818609E-02  0.8026011E-01
       -2   -1    0    0    0  501  0.00000000000E+00  0.00000000000E+00  0.28726871474E+04  0.28726871474E+04  0.25500000920E-02 0.  1.
        2   -1    0    0  501    0  0.00000000000E+00  0.00000000000E+00 -0.13204718876E+04  0.13204718876E+04  0.25500000920E-02 0. -1.
    10030    2    1    2    0    0  0.00000000000E+00  0.00000000000E+00  0.15522152599E+04  0.41931590350E+04  0.38952805393E+04 0.  0.
        2    1    3    3  502    0 -0.11161181966E+04  0.29117535405E+03 -0.91323265872E+03  0.14712228942E+04  0.25500000920E-02 0. -1.
       -2    1    3    3    0  502  0.11161181966E+04 -0.29117535405E+03  0.24654479186E+04  0.27219361408E+04  0.25500000920E-02 0.  1.
</event>
<event>
 5   0  0.4255250E-07  0.4024643E+04  0.7818609E-02  0.7999594E-01
       -1   -1    0    0    0  501  0.00000000000E+00  0.00000000000E+00  0.17409670721E+04  0.17409670721E+04  0.50400001928E-02 0.  1.
        1   -1    0    0  501    0  0.00000000000E+00  0.00000000000E+00 -0.23259706667E+04  0.23259706667E+04  0.50400001928E-02 0. -1.
    10030    2    1    2    0    0  0.00000000000E+00  0.00000000000E+00 -0.58500359460E+03  0.40669377387E+04  0.40246432594E+04 0.  0.
        2    1    3    3  502    0  0.49314739657E+03  0.62743841201E+03 -0.21592279012E+04  0.23019857612E+04  0.25500000920E-02 0. -1.
       -2    1    3    3    0  502 -0.49314739657E+03 -0.62743841201E+03  0.15742243066E+04  0.17649519775E+04  0.25500000920E-02 0.  1.
</event>
<event>
 5   0  0.1372748E-06  0.3823120E+04  0.7818609E-02  0.8041212E-01
        2   -1    0    0  501    0  0.00000000000E+00  0.00000000000E+00  0.22344382548E+04  0.22344382548E+04  0.25500000920E-02 0. -1.
       -2   -1    0    0    0  501  0.00000000000E+00  0.00000000000E+00 -0.16353378862E+04  0.16353378862E+04  0.25500000920E-02 0.  1.
    10030    2    1    2    0    0  0.00000000000E+00  0.00000000000E+00  0.59910036856E+03  0.38697761411E+04  0.38231199471E+04 0.  0.
        1    1    3    3  502    0  0.53659452018E+03  0.17233656473E+04 -0.33752627009E+03  0.18362589187E+04  0.50400001928E-02 0.  1.
       -1    1    3    3    0  502 -0.53659452018E+03 -0.17233656473E+04  0.93662663865E+03  0.20335172224E+04  0.50400001928E-02 0. -1.
</event>
<event>
 5   0  0.4255250E-07  0.4198525E+04  0.7818609E-02  0.7965653E-01
        1   -1    0    0  501    0  0.00000000000E+00  0.00000000000E+00  0.16618189346E+04  0.16618189346E+04  0.50400001928E-02 0.  1.
       -1   -1    0    0    0  501  0.00000000000E+00  0.00000000000E+00 -0.26518552544E+04  0.26518552544E+04  0.50400001928E-02 0. -1.
    10030    2    1    2    0    0  0.00000000000E+00  0.00000000000E+00 -0.99003631972E+03  0.43136741890E+04  0.41985251094E+04 0.  0.
        2    1    3    3  502    0  0.18916063465E+03 -0.20882063651E+04 -0.38965961300E+03  0.21326561334E+04  0.25500000920E-02 0.  1.
       -2    1    3    3    0  502 -0.18916063465E+03  0.20882063651E+04 -0.60037670672E+03  0.21810180557E+04  0.25500000920E-02 0. -1.
</event>
<event>
 5   0  0.5475350E-07  0.1942675E+04  0.7818609E-02  0.8633901E-01
        1   -1    0    0  501    0  0.00000000000E+00  0.00000000000E+00  0.11474438412E+04  0.11474438412E+04  0.50400001928E-02 0.  1.
       -1   -1    0    0    0  501  0.00000000000E+00  0.00000000000E+00 -0.82225951840E+03  0.82225951842E+03  0.50400001928E-02 0. -1.
    10030    2    1    2    0    0  0.00000000000E+00  0.00000000000E+00  0.32518432275E+03  0.19697033596E+04  0.19426750837E+04 0.  0.
        3    1    3    3  502    0  0.53658907613E+03 -0.90690549655E+02 -0.65317875575E+03  0.85017357615E+03  0.10100000352E+00 0. -1.
       -3    1    3    3    0  502 -0.53658907613E+03  0.90690549655E+02  0.97836307850E+03  0.11195297834E+04  0.10100000352E+00 0.  1.
</event>
<event>
 5   0  0.5284458E-07  0.3854932E+04  0.7818609E-02  0.8034468E-01
       -1   -1    0    0    0  501  0.00000000000E+00  0.00000000000E+00  0.15627170603E+04  0.15627170603E+04  0.50400001928E-02 0. -1.
        1   -1    0    0  501    0  0.00000000000E+00  0.00000000000E+00 -0.23773500397E+04  0.23773500397E+04  0.50400001928E-02 0.  1.
    10030    2    1    2    0    0  0.00000000000E+00  0.00000000000E+00 -0.81463297938E+03  0.39400671000E+04  0.38549321475E+04 0.  0.
        5    1    3    3  502    0 -0.10633544485E+04 -0.87366268634E+03  0.97196556462E+03  0.16848585464E+04  0.46999998093E+01 0.  1.
       -5    1    3    3    0  502  0.10633544485E+04  0.87366268634E+03 -0.17865985440E+04  0.22552085536E+04  0.46999998093E+01 0. -1.
</event>
<event>
 5   0  0.4255250E-07  0.2307363E+04  0.7818609E-02  0.8475024E-01
        1   -1    0    0  501    0  0.00000000000E+00  0.00000000000E+00  0.13799026396E+04  0.13799026396E+04  0.50400001928E-02 0. -1.
       -1   -1    0    0    0  501  0.00000000000E+00  0.00000000000E+00 -0.96454690666E+03  0.96454690668E+03  0.50400001928E-02 0.  1.
    10030    2    1    2    0    0  0.00000000000E+00  0.00000000000E+00  0.41535573296E+03  0.23444495463E+04  0.23073628432E+04 0.  0.
        2    1    3    3  502    0  0.11258960054E+04  0.25166310389E+03  0.20547747362E+03  0.11718349393E+04  0.25500000920E-02 0. -1.
       -2    1    3    3    0  502 -0.11258960054E+04 -0.25166310389E+03  0.20987825934E+03  0.11726146070E+04  0.25500000920E-02 0.  1.
</event>
<event>
 5   0  0.5284458E-07  0.3223836E+04  0.7818609E-02  0.8182550E-01
        1   -1    0    0  501    0  0.00000000000E+00  0.00000000000E+00  0.12714814348E+04  0.12714814348E+04  0.50400001928E-02 0. -1.
       -1   -1    0    0    0  501  0.00000000000E+00  0.00000000000E+00 -0.20435052991E+04  0.20435052991E+04  0.50400001928E-02 0.  1.
    10030    2    1    2    0    0  0.00000000000E+00  0.00000000000E+00 -0.77202386434E+03  0.33149867339E+04  0.32238356346E+04 0.  0.
        5    1    3    3  502    0 -0.12436794897E+04  0.64208457497E+03  0.43612244040E+03  0.14660273352E+04  0.46999998093E+01 0. -1.
       -5    1    3    3    0  502  0.12436794897E+04 -0.64208457497E+03 -0.12081463047E+04  0.18489593987E+04  0.46999998093E+01 0.  1.
</event>
<event>
 5   0  0.8030324E-07  0.2148189E+04  0.7818609E-02  0.8540308E-01
       -1   -1    0    0    0  501  0.00000000000E+00  0.00000000000E+00  0.69450754925E+03  0.69450754927E+03  0.50400001928E-02 0.  1.
        1   -1    0    0  501    0  0.00000000000E+00  0.00000000000E+00 -0.16611461803E+04  0.16611461803E+04  0.50400001928E-02 0. -1.
    10030    2    1    2    0    0  0.00000000000E+00  0.00000000000E+00 -0.96663863101E+03  0.23556537295E+04  0.21481885975E+04 0.  0.
        1    1    3    3  502    0 -0.84900434552E+03 -0.15406559725E+02  0.23795219203E+03  0.88185428871E+03  0.50400001928E-02 0.  1.
       -1    1    3    3    0  502  0.84900434552E+03  0.15406559725E+02 -0.12045908230E+04  0.14737994408E+04  0.50400001928E-02 0. -1.
</event>
<event>
 5   0  0.4255250E-07  0.3406239E+04  0.7818609E-02  0.8136377E-01
       -1   -1    0    0    0  501  0.00000000000E+00  0.00000000000E+00  0.10048559971E+04  0.10048559971E+04  0.50400001928E-02 0. -1.
        1   -1    0    0  501    0  0.00000000000E+00  0.00000000000E+00 -0.28865990619E+04  0.28865990619E+04  0.50400001928E-02 0.  1.
    10030    2    1    2    0    0  0.00000000000E+00  0.00000000000E+00 -0.18817430648E+04  0.38914550590E+04  0.34062392039E+04 0.  0.
        2    1    3    3  502    0  0.12555511510E+04 -0.65546302986E+03 -0.20214230404E+04  0.24682365333E+04  0.25500000920E-02 0.  1.
       -2    1    3    3    0  502 -0.12555511510E+04  0.65546302986E+03  0.13967997559E+03  0.14232185257E+04  0.25500000920E-02 0. -1.
</event>
<event>
 5   0  0.1341932E-06  0.3781270E+04  0.7818609E-02  0.8050186E-01
       -2   -1    0    0    0  501  0.00000000000E+00  0.00000000000E+00  0.32354775890E+04  0.32354775890E+04  0.25500000920E-02 0.  1.
        2   -1    0    0  501    0  0.00000000000E+00  0.00000000000E+00 -0.11047832199E+04  0.11047832199E+04  0.25500000920E-02 0. -1.
    10030    2    1    2    0    0  0.00000000000E+00  0.00000000000E+00  0.21306943692E+04  0.43402608089E+04  0.37812703413E+04 0.  0.
        2    1    3    3  502    0  0.57052761447E+03 -0.10301521632E+04  0.27631237295E+04  0.30035925127E+04  0.25500000920E-02 0.  1.
       -2    1    3    3    0  502 -0.57052761447E+03  0.10301521632E+04 -0.63242936030E+03  0.13366682962E+04  0.25500000920E-02 0. -1.
</event>
<event>
 5   0  0.4255250E-07  0.3684749E+04  0.7818609E-02  0.8071350E-01
       -1   -1    0    0    0  501  0.00000000000E+00  0.00000000000E+00  0.19647643692E+04  0.19647643692E+04  0.50400001928E-02 0. -1.
        1   -1    0    0  501    0  0.00000000000E+00  0.00000000000E+00 -0.17276081893E+04  0.17276081893E+04  0.50400001928E-02 0.  1.
    10030    2    1    2    0    0  0.00000000000E+00  0.00000000000E+00  0.23715617986E+03  0.36923725585E+04  0.36847485745E+04 0.  0.
        2    1    3    3  502    0 -0.84343842502E+03 -0.39028929225E+02 -0.15223176931E+04  0.17407937249E+04  0.25500000920E-02 0.  1.
       -2    1    3    3    0  502  0.84343842502E+03  0.39028929225E+02  0.17594738729E+04  0.19515788336E+04  0.25500000920E-02 0. -1.
</event>
<event>
 5   0  0.1337854E-06  0.3668295E+04  0.7818609E-02  0.8075024E-01
       -2   -1    0    0    0  501  0.00000000000E+00  0.00000000000E+00  0.23595612165E+04  0.23595612165E+04  0.25500000920E-02 0.  1.
        2   -1    0    0  501    0  0.00000000000E+00  0.00000000000E+00 -0.14257302927E+04  0.14257302927E+04  0.25500000920E-02 0. -1.
    10030    2    1    2    0    0  0.00000000000E+00  0.00000000000E+00  0.93383092382E+03  0.37852915092E+04  0.36682954646E+04 0.  0.
        3    1    3    3  502    0 -0.83145798991E+02 -0.12693882994E+03  0.23530726687E+04  0.23579604926E+04  0.10100000352E+00 0.  1.
       -3    1    3    3    0  502  0.83145798991E+02  0.12693882994E+03 -0.14192417449E+04  0.14273310166E+04  0.10100000352E+00 0. -1.
</event>
<event>
 5   0  0.1337854E-06  0.1899236E+04  0.7818609E-02  0.8655237E-01
       -2   -1    0    0    0  501  0.00000000000E+00  0.00000000000E+00  0.49949229261E+03  0.49949229262E+03  0.25500000920E-02 0. -1.
        2   -1    0    0  501    0  0.00000000000E+00  0.00000000000E+00 -0.18053826050E+04  0.18053826050E+04  0.25500000920E-02 0.  1.
    10030    2    1    2    0    0  0.00000000000E+00  0.00000000000E+00 -0.13058903123E+04  0.23048748976E+04  0.18992363691E+04 0.  0.
        3    1    3    3  502    0  0.89911508791E+03 -0.30327301562E+03 -0.69822685643E+03  0.11780930424E+04  0.10100000352E+00 0.  1.
       -3    1    3    3    0  502 -0.89911508791E+03  0.30327301562E+03 -0.60766345592E+03  0.11267818552E+04  0.10100000352E+00 0. -1.
</event>
<event>
 5   0  0.1214844E-06  0.3723723E+04  0.7818609E-02  0.8062725E-01
        2   -1    0    0  501    0  0.00000000000E+00  0.00000000000E+00  0.19493444999E+04  0.19493444999E+04  0.25500000920E-02 0.  1.
       -2   -1    0    0    0  501  0.00000000000E+00  0.00000000000E+00 -0.17783046250E+04  0.17783046250E+04  0.25500000920E-02 0. -1.
    10030    2    1    2    0    0  0.00000000000E+00  0.00000000000E+00  0.17103987493E+03  0.37276491249E+04  0.37237230509E+04 0.  0.
        4    1    3    3  502    0  0.46853672310E+03 -0.15337886883E+04  0.10322931522E+04  0.19072664120E+04  0.12699999809E+01 0.  1.
       -4    1    3    3    0  502 -0.46853672310E+03  0.15337886883E+04 -0.86125327728E+03  0.18203827130E+04  0.12699999809E+01 0. -1.
</event>
<event>
 5   0  0.1337854E-06  0.3725160E+04  0.7818609E-02  0.8062409E-01
       -2   -1    0    0    0  501  0.00000000000E+00  0.00000000000E+00  0.17376157782E+04  0.17376157782E+04  0.25500000920E-02 0. -1.
        2   -1    0    0  501    0  0.00000000000E+00  0.00000000000E+00 -0.19965311498E+04  0.19965311498E+04  0.25500000920E-02 0.  1.
    10030    2    1    2    0    0  0.00000000000E+00  0.00000000000E+00 -0.25891537156E+03  0.37341469280E+04  0.37251598771E+04 0.  0.
        3    1    3    3  502    0 -0.65607927493E+03  0.48517575894E+03 -0.18078233221E+04  0.19834466734E+04  0.10100000352E+00 0.  1.
       -3    1    3    3    0  502  0.65607927493E+03 -0.48517575894E+03  0.15489079505E+04  0.17507002546E+04  0.10100000352E+00 0. -1.
</event>
<event>
 5   0  0.1372748E-06  0.2217547E+04  0.7818609E-02  0.8511160E-01
       -2   -1    0    0    0  501  0.00000000000E+00  0.00000000000E+00  0.47852522403E+03  0.47852522404E+03  0.25500000920E-02 0. -1.
        2   -1    0    0  501    0  0.00000000000E+00  0.00000000000E+00 -0.25690995902E+04  0.25690995902E+04  0.25500000920E-02 0.  1.
    10030    2    1    2    0    0  0.00000000000E+00  0.00000000000E+00 -0.20905743662E+04  0.30476248143E+04  0.22175472549E+04 0.  0.
        1    1    3    3  502    0 -0.92710015492E+03 -0.60238297041E+03 -0.11602631660E+04  0.16026823000E+04  0.50400001928E-02 0.  1.
       -1    1    3    3    0  502  0.92710015492E+03  0.60238297041E+03 -0.93031120018E+03  0.14449425143E+04  0.50400001928E-02 0. -1.
</event>
<event>
 5   0  0.1184616E-06  0.3867854E+04  0.7818609E-02  0.8031748E-01
       -2   -1    0    0    0  501  0.00000000000E+00  0.00000000000E+00  0.13844008274E+04  0.13844008274E+04  0.25500000920E-02 0.  1.
        2   -1    0    0  501    0  0.00000000000E+00  0.00000000000E+00 -0.27015829464E+04  0.27015829464E+04  0.25500000920E-02 0. -1.
    10030    2    1    2    0    0  0.00000000000E+00  0.00000000000E+00 -0.13171821189E+04  0.40859837738E+04  0.38678540130E+04 0.  0.
        5    1    3    3  502    0  0.17868581499E+04 -0.48217545324E+03 -0.65976353971E+02  0.18519530731E+04  0.46999998093E+01 0. -1.
       -5    1    3    3    0  502 -0.17868581499E+04  0.48217545324E+03 -0.12512057650E+04  0.22340307007E+04  0.46999998093E+01 0.  1.
</event>
<event>
 5   0  0.1184616E-06  0.3465198E+04  0.7818609E-02  0.8122088E-01
        2   -1    0    0  501    0  0.00000000000E+00  0.00000000000E+00  0.10686921745E+04  0.10686921745E+04  0.25500000920E-02 0. -1.
       -2   -1    0    0    0  501  0.00000000000E+00  0.00000000000E+00 -0.28089458682E+04  0.28089458682E+04  0.25500000920E-02 0.  1.
    10030    2    1    2    0    0  0.00000000000E+00  0.00000000000E+00 -0.17402536937E+04  0.38776380426E+04  0.34651975227E+04 0.  0.
        5    1    3    3  502    0  0.13872740252E+04  0.43363409229E+03 -0.19254015461E+04  0.24124180713E+04  0.46999998093E+01 0.  1.
       -5    1    3    3    0  502 -0.13872740252E+04 -0.43363409229E+03  0.18514785239E+03  0.14652199713E+04  0.46999998093E+01 0. -1.
</event>
<event>
 5   0  0.4255250E-07  0.3684326E+04  0.7818609E-02  0.8071444E-01
       -3   -1    0    0    0  501  0.00000000000E+00  0.00000000000E+00  0.17093417700E+04  0.17093417730E+04  0.10100000352E+00 0.  1.
        3   -1    0    0  501    0  0.00000000000E+00  0.00000000000E+00 -0.19853044088E+04  0.19853044113E+04  0.10100000352E+00 0. -1.
    10030    2    1    2    0    0  0.00000000000E+00  0.00000000000E+00 -0.27596263878E+03  0.36946461843E+04  0.36843255895E+04 0.  0.
        2    1    3    3  502    0 -0.65783915766E+03 -0.10255558295E+04 -0.15235342533E+04  0.19508136092E+04  0.25500000920E-02 0. -1.
       -2    1    3    3    0  502  0.65783915766E+03  0.10255558295E+04  0.12475716145E+04  0.17438325751E+04  0.25500000920E-02 0.  1.
</event>
<event>
 5   0  0.4795023E-07  0.3398289E+04  0.7818609E-02  0.8138326E-01
       -1   -1    0    0    0  501  0.00000000000E+00  0.00000000000E+00  0.21330137983E+04  0.21330137983E+04  0.50400001928E-02 0. -1.
        1   -1    0    0  501    0  0.00000000000E+00  0.00000000000E+00 -0.13535267574E+04  0.13535267574E+04  0.50400001928E-02 0.  1.
    10030    2    1    2    0    0  0.00000000000E+00  0.00000000000E+00  0.77948704090E+03  0.34865405556E+04  0.33982885397E+04 0.  0.
        3    1    3    3  502    0 -0.90208992264E+03 -0.68280625788E+03  0.16903802238E+04  0.20340540616E+04  0.10100000352E+00 0. -1.
       -3    1    3    3    0  502  0.90208992264E+03  0.68280625788E+03 -0.91089318294E+03  0.14524864940E+04  0.10100000352E+00 0.  1.
</event>
<event>
 5   0  0.5284458E-07  0.3338697E+04  0.7818609E-02  0.8153118E-01
       -1   -1    0    0    0  501  0.00000000000E+00  0.00000000000E+00  0.16070791268E+04  0.16070791268E+04  0.50400001928E-02 0.  1.
        1   -1    0    0  501    0  0.00000000000E+00  0.00000000000E+00 -0.17340301752E+04  0.17340301752E+04  0.50400001928E-02 0. -1.
    10030    2    1    2    0    0  0.00000000000E+00  0.00000000000E+00 -0.12695104833E+03  0.33411093020E+04  0.33386965719E+04 0.  0.
        5    1    3    3  502    0  0.11357650899E+04  0.69125589680E+03 -0.10736130015E+04  0.17089365177E+04  0.46999998093E+01 0. -1.
       -5    1    3    3    0  502 -0.11357650899E+04 -0.69125589680E+03  0.94666195320E+03  0.16321727843E+04  0.46999998093E+01 0.  1.
</event>
<event>
 5   0  0.4795023E-07  0.3814905E+04  0.7818609E-02  0.8042964E-01
       -1   -1    0    0    0  501  0.00000000000E+00  0.00000000000E+00  0.14596209016E+04  0.14596209016E+04  0.50400001928E-02 0.  1.
        1   -1    0    0  501    0  0.00000000000E+00  0.00000000000E+00 -0.24926843301E+04  0.24926843301E+04  0.50400001928E-02 0. -1.
    10030    2    1    2    0    0  0.00000000000E+00  0.00000000000E+00 -0.10330634285E+04  0.39523052317E+04  0.38149045332E+04 0.  0.
        3    1    3    3  502    0  0.58417875022E+03 -0.16471944406E+04  0.27509618316E+03  0.17692349357E+04  0.10100000352E+00 0.  1.
       -3    1    3    3    0  502 -0.58417875022E+03  0.16471944406E+04 -0.13081596116E+04  0.21830702960E+04  0.10100000352E+00 0. -1.
</event>
<event>
 5   0  0.1079205E-06  0.3855904E+04  0.7818609E-02  0.8034263E-01
       -1   -1    0    0    0  501  0.00000000000E+00  0.00000000000E+00  0.23853894791E+04  0.23853894791E+04  0.50400001928E-02 0.  1.
        1   -1    0    0  501    0  0.00000000000E+00  0.00000000000E+00 -0.15582359826E+04  0.15582359826E+04  0.50400001928E-02 0. -1.
    10030    2    1    2    0    0  0.00000000000E+00  0.00000000000E+00  0.82715349657E+03  0.39436254617E+04  0.38559044173E+04 0.  0.
        4    1    3    3  502    0 -0.17476979483E+04  0.79785121358E+03  0.57843763388E+03  0.20063913842E+04  0.12699999809E+01 0. -1.
       -4    1    3    3    0  502  0.17476979483E+04 -0.79785121358E+03  0.24871586268E+03  0.19372340775E+04  0.12699999809E+01 0.  1.
</event>
<event>
 5   0  0.1214844E-06  0.3770674E+04  0.7818609E-02  0.8052478E-01
       -2   -1    0    0    0  501  0.00000000000E+00  0.00000000000E+00  0.13458502421E+04  0.13458502421E+04  0.25500000920E-02 0.  1.
        2   -1    0    0  501    0  0.00000000000E+00  0.00000000000E+00 -0.26410778710E+04  0.26410778710E+04  0.25500000920E-02 0. -1.
    10030    2    1    2    0    0  0.00000000000E+00  0.00000000000E+00 -0.12952276289E+04  0.39869281132E+04  0.37706738349E+04 0.  0.
        4    1    3    3  502    0  0.15649265385E+04  0.18530921734E+03 -0.17419390873E+04  0.23489759415E+04  0.12699999809E+01 0. -1.
       -4    1    3    3    0  502 -0.15649265385E+04 -0.18530921734E+03  0.44671145836E+03  0.16379521717E+04  0.12699999809E+01 0.  1.
</event>
<event>
 5   0  0.1184616E-06  0.2767337E+04  0.7818609E-02  0.8313481E-01
        2   -1    0    0  501    0  0.00000000000E+00  0.00000000000E+00  0.19567385696E+04  0.19567385696E+04  0.25500000920E-02 0.  1.
       -2   -1    0    0    0  501  0.00000000000E+00  0.00000000000E+00 -0.97843372648E+03  0.97843372648E+03  0.25500000920E-02 0. -1.
    10030    2    1    2    0    0  0.00000000000E+00  0.00000000000E+00  0.97830484310E+03  0.29351722961E+04  0.27673373559E+04 0.  0.
        5    1    3    3  502    0 -0.10602715788E+04  0.86656123733E+03  0.27858571388E+03  0.13974034095E+04  0.46999998093E+01 0.  1.
       -5    1    3    3    0  502  0.10602715788E+04 -0.86656123733E+03  0.69971912922E+03  0.15377688866E+04  0.46999998093E+01 0. -1.
</event>
<event>
 5   0  0.4795023E-07  0.3682281E+04  0.7818609E-02  0.8071900E-01
       -1   -1    0    0    0  501  0.00000000000E+00  0.00000000000E+00  0.17040067838E+04  0.17040067838E+04  0.50400001928E-02 0. -1.
        1   -1    0    0  501    0  0.00000000000E+00  0.00000000000E+00 -0.19893106544E+04  0.19893106544E+04  0.50400001928E-02 0.  1.
    10030    2    1    2    0    0  0.00000000000E+00  0.00000000000E+00 -0.28530387055E+03  0.36933174382E+04  0.36822812767E+04 0.  0.
        3    1    3    3  502    0 -0.10416076629E+04  0.10320241264E+04 -0.12594424857E+04  0.19329293070E+04  0.10100000352E+00 0.  1.
       -3    1    3    3    0  502  0.10416076629E+04 -0.10320241264E+04  0.97413861510E+03  0.17603881312E+04  0.10100000352E+00 0. -1.
</event>
<event>
 5   0  0.1337854E-06  0.2559574E+04  0.7818609E-02  0.8382064E-01
        2   -1    0    0  501    0  0.00000000000E+00  0.00000000000E+00  0.20375343760E+04  0.20375343760E+04  0.25500000920E-02 0.  1.
       -2   -1    0    0    0  501  0.00000000000E+00  0.00000000000E+00 -0.80384158781E+03  0.80384158781E+03  0.25500000920E-02 0. -1.
    10030    2    1    2    0    0  0.00000000000E+00  0.00000000000E+00  0.12336927882E+04  0.28413759639E+04  0.25595740802E+04 0.  0.
        3    1    3    3  502    0 -0.51641009152E+03 -0.71489997278E+02  0.19143143065E+04  0.19840336380E+04  0.10100000352E+00 0.  1.
       -3    1    3    3    0  502  0.51641009152E+03  0.71489997278E+02 -0.68062151830E+03  0.85734232586E+03  0.10100000352E+00 0. -1.
</event>
<event>
 5   0  0.1372748E-06  0.2699378E+04  0.7818609E-02  0.8335207E-01
       -2   -1    0    0    0  501  0.00000000000E+00  0.00000000000E+00  0.10122488222E+04  0.10122488222E+04  0.25500000920E-02 0. -1.
        2   -1    0    0  501    0  0.00000000000E+00  0.00000000000E+00 -0.17996178598E+04  0.17996178598E+04  0.25500000920E-02 0.  1.
    10030    2    1    2    0    0  0.00000000000E+00  0.00000000000E+00 -0.78736903758E+03  0.28118666819E+04  0.26993784906E+04 0.  0.
        1    1    3    3  502    0  0.83762844088E+03  0.98673200927E+03 -0.79225110019E+03  0.15175385560E+04  0.50400001928E-02 0. -1.
       -1    1    3    3    0  502 -0.83762844088E+03 -0.98673200927E+03  0.48820626139E+01  0.12943281260E+04  0.50400001928E-02 0.  1.
</event>
<event>
 5   0  0.1341932E-06  0.2109696E+04  0.7818609E-02  0.8556984E-01
        2   -1    0    0  501    0  0.00000000000E+00  0.00000000000E+00  0.15457855546E+04  0.15457855546E+04  0.25500000920E-02 0.  1.
       -2   -1    0    0    0  501  0.00000000000E+00  0.00000000000E+00 -0.71983094671E+03  0.71983094671E+03  0.25500000920E-02 0. -1.
    10030    2    1    2    0    0  0.00000000000E+00  0.00000000000E+00  0.82595460790E+03  0.22656165013E+04  0.21096959773E+04 0.  0.
        2    1    3    3  502    0  0.75290875201E+03  0.46761853815E+03 -0.20128001016E+03  0.90887420943E+03  0.25500000920E-02 0. -1.
       -2    1    3    3    0  502 -0.75290875201E+03 -0.46761853815E+03  0.10272346181E+04  0.13567422919E+04  0.25500000920E-02 0.  1.
</event>
<event>
 5   0  0.4255250E-07  0.2615117E+04  0.7818609E-02  0.8363084E-01
        1   -1    0    0  501    0  0.00000000000E+00  0.00000000000E+00  0.24260764985E+04  0.24260764985E+04  0.50400001928E-02 0. -1.
       -1   -1    0    0    0  501  0.00000000000E+00  0.00000000000E+00 -0.70472184592E+03  0.70472184594E+03  0.50400001928E-02 0.  1.
    10030    2    1    2    0    0  0.00000000000E+00  0.00000000000E+00  0.17213546526E+04  0.31307983444E+04  0.26151169063E+04 0.  0.
        2    1    3    3  502    0  0.50332202793E+03 -0.11695273727E+04  0.12169940133E+04  0.17613068352E+04  0.25500000920E-02 0.  1.
       -2    1    3    3    0  502 -0.50332202793E+03  0.11695273727E+04  0.50436063925E+03  0.13694915092E+04  0.25500000920E-02 0. -1.
</event>
<event>
 5   0  0.8030324E-07  0.3823103E+04  0.7818609E-02  0.8041215E-01
       -1   -1    0    0    0  501  0.00000000000E+00  0.00000000000E+00  0.17104685090E+04  0.17104685090E+04  0.50400001928E-02 0.  1.
        1   -1    0    0  501    0  0.00000000000E+00  0.00000000000E+00 -0.21362733624E+04  0.21362733624E+04  0.50400001928E-02 0. -1.
    10030    2    1    2    0    0  0.00000000000E+00  0.00000000000E+00 -0.42580485337E+03  0.38467418714E+04  0.38231025689E+04 0.  0.
        1    1    3    3  502    0 -0.78462152247E+03  0.22771060598E+03  0.15259456741E+04  0.17308937731E+04  0.50400001928E-02 0.  1.
       -1    1    3    3    0  502  0.78462152247E+03 -0.22771060598E+03 -0.19517505275E+04  0.21158480983E+04  0.50400001928E-02 0. -1.
</event>
<event>
 5   0  0.1184616E-06  0.3562979E+04  0.7818609E-02  0.8099025E-01
        2   -1    0    0  501    0  0.00000000000E+00  0.00000000000E+00  0.22636799836E+04  0.22636799836E+04  0.25500000920E-02 0.  1.
       -2   -1    0    0    0  501  0.00000000000E+00  0.00000000000E+00 -0.14020113587E+04  0.14020113587E+04  0.25500000920E-02 0. -1.
    10030    2    1    2    0    0  0.00000000000E+00  0.00000000000E+00  0.86166862488E+03  0.36656913423E+04  0.35629791184E+04 0.  0.
        5    1    3    3  502    0  0.46007740837E+03 -0.54114551882E+03  0.21116922132E+04  0.22279532732E+04  0.46999998093E+01 0.  1.
       -5    1    3    3    0  502 -0.46007740837E+03  0.54114551882E+03 -0.12500235883E+04  0.14377380692E+04  0.46999998093E+01 0. -1.
</event>
<event>
 5   0  0.4255250E-07  0.2457893E+04  0.7818609E-02  0.8418142E-01
        4   -1    0    0  501    0  0.00000000000E+00  0.00000000000E+00  0.14178565991E+04  0.14178571679E+04  0.12699999809E+01 0. -1.
       -4   -1    0    0    0  501  0.00000000000E+00  0.00000000000E+00 -0.10652046505E+04  0.10652054076E+04  0.12699999809E+01 0.  1.
    10030    2    1    2    0    0  0.00000000000E+00  0.00000000000E+00  0.35265194859E+03  0.24830625755E+04  0.24578926659E+04 0.  0.
        2    1    3    3  502    0  0.89162068891E+03 -0.41194826996E+03 -0.56989936897E+03  0.11355501401E+04  0.25500000920E-02 0. -1.
       -2    1    3    3    0  502 -0.89162068891E+03  0.41194826996E+03  0.92255131756E+03  0.13475124354E+04  0.25500000920E-02 0.  1.
</event>
<event>
 5   0  0.8030324E-07  0.2297549E+04  0.7818609E-02  0.8478888E-01
       -1   -1    0    0    0  501  0.00000000000E+00  0.00000000000E+00  0.13375516987E+04  0.13375516987E+04  0.50400001928E-02 0.  1.
        1   -1    0    0  501    0  0.00000000000E+00  0.00000000000E+00 -0.98664105756E+03  0.98664105758E+03  0.50400001928E-02 0. -1.
    10030    2    1    2    0    0  0.00000000000E+00  0.00000000000E+00  0.35091064110E+03  0.23241927562E+04  0.22975494968E+04 0.  0.
        1    1    3    3  502    0 -0.67286312035E+02  0.68081958759E+03 -0.75809011942E+03  0.10211480734E+04  0.50400001928E-02 0. -1.
       -1    1    3    3    0  502  0.67286312035E+02 -0.68081958759E+03  0.11090007605E+04  0.13030446828E+04  0.50400001928E-02 0.  1.
</event>
<event>
 5   0  0.5284458E-07  0.2027017E+04  0.7818609E-02  0.8594092E-01
       -1   -1    0    0    0  501  0.00000000000E+00  0.00000000000E+00  0.77178641152E+03  0.77178641154E+03  0.50400001928E-02 0. -1.
        1   -1    0    0  501    0  0.00000000000E+00  0.00000000000E+00 -0.13309380382E+04  0.13309380382E+04  0.50400001928E-02 0.  1.
    10030    2    1    2    0    0  0.00000000000E+00  0.00000000000E+00 -0.55915162670E+03  0.21027244498E+04  0.20270174074E+04 0.  0.
        5    1    3    3  502    0 -0.53710154924E+03  0.85884054693E+03 -0.31386554472E+03  0.10604804710E+04  0.46999998093E+01 0.  1.
       -5    1    3    3    0  502  0.53710154924E+03 -0.85884054693E+03 -0.24528608198E+03  0.10422439788E+04  0.46999998093E+01 0. -1.
</event>
<event>
 5   0  0.4795023E-07  0.2036029E+04  0.7818609E-02  0.8589959E-01
       -1   -1    0    0    0  501  0.00000000000E+00  0.00000000000E+00  0.10135718115E+04  0.10135718115E+04  0.50400001928E-02 0. -1.
        1   -1    0    0  501    0  0.00000000000E+00  0.00000000000E+00 -0.10224763255E+04  0.10224763256E+04  0.50400001928E-02 0.  1.
    10030    2    1    2    0    0  0.00000000000E+00  0.00000000000E+00 -0.89045140218E+01  0.20360481371E+04  0.20360286654E+04 0.  0.
        3    1    3    3  502    0  0.86135396290E+03 -0.46441085750E+03  0.27616595971E+03  0.10167968044E+04  0.10100000352E+00 0. -1.
       -3    1    3    3    0  502 -0.86135396290E+03  0.46441085750E+03 -0.28507047373E+03  0.10192513327E+04  0.10100000352E+00 0.  1.
</event>
<event>
 5   0  0.1372748E-06  0.3756879E+04  0.7818609E-02  0.8055472E-01
        2   -1    0    0  501    0  0.00000000000E+00  0.00000000000E+00  0.15345402923E+04  0.15345402923E+04  0.25500000920E-02 0.  1.
       -2   -1    0    0    0  501  0.00000000000E+00  0.00000000000E+00 -0.22994081179E+04  0.22994081179E+04  0.25500000920E-02 0. -1.
    10030    2    1    2    0    0  0.00000000000E+00  0.00000000000E+00 -0.76486782560E+03  0.38339484102E+04  0.37568787073E+04 0.  0.
        1    1    3    3  502    0  0.15659301026E+04  0.57525005596E+03 -0.12635608043E+04  0.20927578979E+04  0.50400001928E-02 0. -1.
       -1    1    3    3    0  502 -0.15659301026E+04 -0.57525005596E+03  0.49869297872E+03  0.17411905123E+04  0.50400001928E-02 0.  1.
</event>
<event>
 5   0  0.4795023E-07  0.1958869E+04  0.7818609E-02  0.8626096E-01
        1   -1    0    0  501    0  0.00000000000E+00  0.00000000000E+00  0.21709351097E+04  0.21709351097E+04  0.50400001928E-02 0.  1.
       -1   -1    0    0    0  501  0.00000000000E+00  0.00000000000E+00 -0.44187938897E+03  0.44187938900E+03  0.50400001928E-02 0. -1.
    10030    2    1    2    0    0  0.00000000000E+00  0.00000000000E+00  0.17290557207E+04  0.26128144987E+04  0.19588685304E+04 0.  0.
        3    1    3    3  502    0 -0.49556554629E+03 -0.43543938590E+03  0.18301559058E+04  0.19454211161E+04  0.10100000352E+00 0.  1.
       -3    1    3    3    0  502  0.49556554629E+03  0.43543938590E+03 -0.10110018506E+03  0.66739338256E+03  0.10100000352E+00 0. -1.
</event>
<event>
 5   0  0.1214844E-06  0.3834085E+04  0.7818609E-02  0.8038880E-01
       -2   -1    0    0    0  501  0.00000000000E+00  0.00000000000E+00  0.15737937889E+04  0.15737937889E+04  0.25500000920E-02 0.  1.
        2   -1    0    0  501    0  0.00000000000E+00  0.00000000000E+00 -0.23351544782E+04  0.23351544782E+04  0.25500000920E-02 0. -1.
    10030    2    1    2    0    0  0.00000000000E+00  0.00000000000E+00 -0.76136068929E+03  0.39089482671E+04  0.38340848263E+04 0.  0.
        4    1    3    3  502    0 -0.54508381828E+02 -0.97399043508E+03  0.13018218296E+04  0.16267667996E+04  0.12699999809E+01 0.  1.
       -4    1    3    3    0  502  0.54508381828E+02  0.97399043508E+03 -0.20631825189E+04  0.22821814675E+04  0.12699999809E+01 0. -1.
</event>
<event>
 5   0  0.1184616E-06  0.3740934E+04  0.7818609E-02  0.8058950E-01
       -2   -1    0    0    0  501  0.00000000000E+00  0.00000000000E+00  0.19941545754E+04  0.19941545754E+04  0.25500000920E-02 0.  1.
        2   -1    0    0  501    0  0.00000000000E+00  0.00000000000E+00 -0.17544509767E+04  0.17544509767E+04  0.25500000920E-02 0. -1.
    10030    2    1    2    0    0  0.00000000000E+00  0.00000000000E+00  0.23970359875E+03  0.37486055521E+04  0.37409338099E+04 0.  0.
        5    1    3    3  502    0  0.11547749301E+04 -0.14710592483E+04  0.15314494519E+03  0.18764316975E+04  0.46999998093E+01 0.  1.
       -5    1    3    3    0  502 -0.11547749301E+04  0.14710592483E+04  0.86558653557E+02  0.18721738546E+04  0.46999998093E+01 0. -1.
</event>
<event>
 5   0  0.4255250E-07  0.3790806E+04  0.7818609E-02  0.8048131E-01
       -1   -1    0    0    0  501  0.00000000000E+00  0.00000000000E+00  0.18342818477E+04  0.18342818477E+04  0.50400001928E-02 0. -1.
        1   -1    0    0  501    0  0.00000000000E+00  0.00000000000E+00 -0.19585604955E+04  0.19585604955E+04  0.50400001928E-02 0.  1.
    10030    2    1    2    0    0  0.00000000000E+00  0.00000000000E+00 -0.12427864777E+03  0.37928423432E+04  0.37908057004E+04 0.  0.
        2    1    3    3  502    0 -0.10618001204E+04 -0.19323028542E+03 -0.16211146070E+04  0.19475035322E+04  0.25500000920E-02 0.  1.
       -2    1    3    3    0  502  0.10618001204E+04  0.19323028542E+03  0.14968359592E+04  0.18453388111E+04  0.25500000920E-02 0. -1.
</event>
<event>
 5   0  0.4795023E-07  0.3491177E+04  0.7818609E-02  0.8115884E-01
       -1   -1    0    0    0  501  0.00000000000E+00  0.00000000000E+00  0.21183916902E+04  0.21183916902E+04  0.50400001928E-02 0.  1.
        1   -1    0    0  501    0  0.00000000000E+00  0.00000000000E+00 -0.14383929959E+04  0.14383929959E+04  0.50400001928E-02 0. -1.
    10030    2    1    2    0    0  0.00000000000E+00  0.00000000000E+00  0.67999869429E+03  0.35567846861E+04  0.34911773199E+04 0.  0.
        3    1    3    3  502    0  0.12149897102E+04 -0.81366853341E+03  0.13112367297E+04  0.19640769460E+04  0.10100000352E+00 0.  1.
       -3    1    3    3    0  502 -0.12149897102E+04  0.81366853341E+03 -0.63123803542E+03  0.15927077402E+04  0.10100000352E+00 0. -1.
</event>
<event>
 5   0  0.1341932E-06  0.3768929E+04  0.7818609E-02  0.8052856E-01
        2   -1    0    0  501    0  0.00000000000E+00  0.00000000000E+00  0.16296487911E+04  0.16296487911E+04  0.25500000920E-02 0.  1.
       -2   -1    0    0    0  501  0.00000000000E+00  0.00000000000E+00 -0.21791236852E+04  0.21791236852E+04  0.25500000920E-02 0. -1.
    10030    2    1    2    0    0  0.00000000000E+00  0.00000000000E+00 -0.54947489408E+03  0.38087724763E+04  0.37689289084E+04 0.  0.
        2    1    3    3  502    0  0.44308116332E+03 -0.88718999629E+03  0.13446319544E+04  0.16707669196E+04  0.25500000920E-02 0.  1.
       -2    1    3    3    0  502 -0.44308116332E+03  0.88718999629E+03 -0.18941068485E+04  0.21380055567E+04  0.25500000920E-02 0. -1.
</event>
<event>
 5   0  0.5284458E-07  0.3020686E+04  0.7818609E-02  0.8237848E-01
        1   -1    0    0  501    0  0.00000000000E+00  0.00000000000E+00  0.80196415397E+03  0.80196415398E+03  0.50400001928E-02 0. -1.
       -1   -1    0    0    0  501  0.00000000000E+00  0.00000000000E+00 -0.28444361072E+04  0.28444361072E+04  0.50400001928E-02 0.  1.
    10030    2    1    2    0    0  0.00000000000E+00  0.00000000000E+00 -0.20424719532E+04  0.36464002612E+04  0.30206858799E+04 0.  0.
        5    1    3    3  502    0  0.11592330889E+04 -0.53907910723E+03 -0.19919817891E+04  0.23669476497E+04  0.46999998093E+01 0.  1.
       -5    1    3    3    0  502 -0.11592330889E+04  0.53907910723E+03 -0.50490164113E+02  0.12794526115E+04  0.46999998093E+01 0. -1.
</event>
<event>
 5   0  0.5284458E-07  0.2139080E+04  0.7818609E-02  0.8544221E-01
        1   -1    0    0  501    0  0.00000000000E+00  0.00000000000E+00  0.95679238640E+03  0.95679238641E+03  0.50400001928E-02 0. -1.
       -1   -1    0    0    0  501  0.00000000000E+00  0.00000000000E+00 -0.11955739524E+04  0.11955739524E+04  0.50400001928E-02 0.  1.
    10030    2    1    2    0    0  0.00000000000E+00  0.00000000000E+00 -0.23878156599E+03  0.21523663388E+04  0.21390802276E+04 0.  0.
        5    1    3    3  502    0 -0.48488074837E+03 -0.37670105772E+03 -0.10005473647E+04  0.11739378800E+04  0.46999998093E+01 0.  1.
       -5    1    3    3    0  502  0.48488074837E+03  0.37670105772E+03  0.76176579870E+03  0.97842845885E+03  0.46999998093E+01 0. -1.
</event>
<event>
 5   0  0.1341932E-06  0.3810240E+04  0.7818609E-02  0.8043961E-01
       -2   -1    0    0    0  501  0.00000000000E+00  0.00000000000E+00  0.13243459962E+04  0.13243459962E+04  0.25500000920E-02 0.  1.
        2   -1    0    0  501    0  0.00000000000E+00  0.00000000000E+00 -0.27405840147E+04  0.27405840147E+04  0.25500000920E-02 0. -1.
    10030    2    1    2    0    0  0.00000000000E+00  0.00000000000E+00 -0.14162380185E+04  0.40649300109E+04  0.38102396077E+04 0.  0.
        2    1    3    3  502    0  0.16976554041E+04 -0.56548806510E+03 -0.14057979389E+04  0.22755391598E+04  0.25500000920E-02 0. -1.
       -2    1    3    3    0  502 -0.16976554041E+04  0.56548806510E+03 -0.10440079619E+02  0.17893908511E+04  0.25500000920E-02 0.  1.
</event>
<event>
 5   0  0.1337854E-06  0.2675952E+04  0.7818609E-02  0.8342850E-01
        2   -1    0    0  501    0  0.00000000000E+00  0.00000000000E+00  0.16228970572E+04  0.16228970572E+04  0.25500000920E-02 0.  1.
       -2   -1    0    0    0  501  0.00000000000E+00  0.00000000000E+00 -0.11030763325E+04  0.11030763325E+04  0.25500000920E-02 0. -1.
    10030    2    1    2    0    0  0.00000000000E+00  0.00000000000E+00  0.51982072468E+03  0.27259733898E+04  0.26759516692E+04 0.  0.
        3    1    3    3  502    0 -0.80160687596E+03  0.30835840155E+03 -0.78519168336E+03  0.11636943229E+04  0.10100000352E+00 0. -1.
       -3    1    3    3    0  502  0.80160687596E+03 -0.30835840155E+03  0.13050124080E+04  0.15622790669E+04  0.10100000352E+00 0.  1.
</event>
<event>
 5   0  0.1337854E-06  0.2082286E+04  0.7818609E-02  0.8569087E-01
       -2   -1    0    0    0  501  0.00000000000E+00  0.00000000000E+00  0.13462624223E+04  0.13462624223E+04  0.25500000920E-02 0.  1.
        2   -1    0    0  501    0  0.00000000000E+00  0.00000000000E+00 -0.80517651461E+03  0.80517651462E+03  0.25500000920E-02 0. -1.
    10030    2    1    2    0    0  0.00000000000E+00  0.00000000000E+00  0.54108590770E+03  0.21514389369E+04  0.20822861330E+04 0.  0.
        3    1    3    3  502    0 -0.47030034312E+03 -0.11263339899E+03  0.12231772784E+04  0.13153065650E+04  0.10100000352E+00 0.  1.
       -3    1    3    3    0  502  0.47030034312E+03  0.11263339899E+03 -0.68209137067E+03  0.83613237197E+03  0.10100000352E+00 0. -1.
</event>
<event>
 5   0  0.1341932E-06  0.3812219E+04  0.7818609E-02  0.8043538E-01
       -2   -1    0    0    0  501  0.00000000000E+00  0.00000000000E+00  0.16912235226E+04  0.16912235226E+04  0.25500000920E-02 0.  1.
        2   -1    0    0  501    0  0.00000000000E+00  0.00000000000E+00 -0.21482983876E+04  0.21482983876E+04  0.25500000920E-02 0. -1.
    10030    2    1    2    0    0  0.00000000000E+00  0.00000000000E+00 -0.45707486506E+03  0.38395219102E+04  0.38122186541E+04 0.  0.
        2    1    3    3  502    0 -0.10696683037E+04 -0.13675763048E+04  0.56373334291E+03  0.18254452913E+04  0.25500000920E-02 0.  1.
       -2    1    3    3    0  502  0.10696683037E+04  0.13675763048E+04 -0.10208082080E+04  0.20140766189E+04  0.25500000920E-02 0. -1.
</event>
<event>
 5   0  0.8030324E-07  0.3772476E+04  0.7818609E-02  0.8052087E-01
       -1   -1    0    0    0  501  0.00000000000E+00  0.00000000000E+00  0.15053130626E+04  0.15053130626E+04  0.50400001928E-02 0. -1.
        1   -1    0    0  501    0  0.00000000000E+00  0.00000000000E+00 -0.23635569364E+04  0.23635569364E+04  0.50400001928E-02 0.  1.
    10030    2    1    2    0    0  0.00000000000E+00  0.00000000000E+00 -0.85824387376E+03  0.38688699990E+04  0.37724756490E+04 0.  0.
        1    1    3    3  502    0 -0.14727270457E+04 -0.13357794834E+03 -0.16299925968E+04  0.22008279999E+04  0.50400001928E-02 0.  1.
       -1    1    3    3    0  502  0.14727270457E+04  0.13357794834E+03  0.77174872303E+03  0.16680419992E+04  0.50400001928E-02 0. -1.
</event>
<event>
 5   0  0.1372748E-06  0.3415357E+04  0.7818609E-02  0.8134148E-01
        2   -1    0    0  501    0  0.00000000000E+00  0.00000000000E+00  0.14943001910E+04  0.14943001910E+04  0.25500000920E-02 0.  1.
       -2   -1    0    0    0  501  0.00000000000E+00  0.00000000000E+00 -0.19515258917E+04  0.19515258917E+04  0.25500000920E-02 0. -1.
    10030    2    1    2    0    0  0.00000000000E+00  0.00000000000E+00 -0.45722570068E+03  0.34458260828E+04  0.34153567971E+04 0.  0.
        1    1    3    3  502    0  0.12499779472E+04 -0.39187076107E+03 -0.13339034512E+04  0.18695737426E+04  0.50400001928E-02 0. -1.
       -1    1    3    3    0  502 -0.12499779472E+04  0.39187076107E+03  0.87667775050E+03  0.15762523402E+04  0.50400001928E-02 0.  1.
</event>
<event>
 5   0  0.1341932E-06  0.2008813E+04  0.7818609E-02  0.8602512E-01
        2   -1    0    0  501    0  0.00000000000E+00  0.00000000000E+00  0.48644330534E+03  0.48644330535E+03  0.25500000920E-02 0.  1.
       -2   -1    0    0    0  501  0.00000000000E+00  0.00000000000E+00 -0.20738944187E+04  0.20738944187E+04  0.25500000920E-02 0. -1.
    10030    2    1    2    0    0  0.00000000000E+00  0.00000000000E+00 -0.15874511134E+04  0.25603377241E+04  0.20088126403E+04 0.  0.
        2    1    3    3  502    0  0.69141736201E+03 -0.67800736907E+03 -0.45391894685E+03  0.10694832263E+04  0.25500000920E-02 0. -1.
       -2    1    3    3    0  502 -0.69141736201E+03  0.67800736907E+03 -0.11335321666E+04  0.14908544978E+04  0.25500000920E-02 0.  1.
</event>
<event>
 5   0  0.1214844E-06  0.3844765E+04  0.7818609E-02  0.8036616E-01
       -2   -1    0    0    0  501  0.00000000000E+00  0.00000000000E+00  0.18148270159E+04  0.18148270159E+04  0.25500000920E-02 0.  1.
        2   -1    0    0  501    0  0.00000000000E+00  0.00000000000E+00 -0.20363125949E+04  0.20363125949E+04  0.25500000920E-02 0. -1.
    10030    2    1    2    0    0  0.00000000000E+00  0.00000000000E+00 -0.22148557899E+03  0.38511396108E+04  0.38447653296E+04 0.  0.
        4    1    3    3  502    0 -0.12492115492E+04  0.45379367198E+03  0.12804786692E+04  0.18455582967E+04  0.12699999809E+01 0.  1.
       -4    1    3    3    0  502  0.12492115492E+04 -0.45379367198E+03 -0.15019642482E+04  0.20055813140E+04  0.12699999809E+01 0. -1.
</event>
<event>
 5   0  0.1337854E-06  0.2042104E+04  0.7818609E-02  0.8587185E-01
       -2   -1    0    0    0  501  0.00000000000E+00  0.00000000000E+00  0.89348598994E+03  0.89348598994E+03  0.25500000920E-02 0. -1.
        2   -1    0    0  501    0  0.00000000000E+00  0.00000000000E+00 -0.11668313241E+04  0.11668313241E+04  0.25500000920E-02 0.  1.
    10030    2    1    2    0    0  0.00000000000E+00  0.00000000000E+00 -0.27334533414E+03  0.20603173140E+04  0.20421042488E+04 0.  0.
        3    1    3    3  502    0 -0.41895752591E+03 -0.11396819220E+03 -0.10690540619E+04  0.11538590706E+04  0.10100000352E+00 0.  1.
       -3    1    3    3    0  502  0.41895752591E+03  0.11396819220E+03  0.79570872779E+03  0.90645824340E+03  0.10100000352E+00 0. -1.
</event>
<event>
 5   0  0.4255250E-07  0.3345647E+04  0.7818609E-02  0.8151377E-01
       -1   -1    0    0    0  501  0.00000000000E+00  0.00000000000E+00  0.10599095760E+04  0.10599095760E+04  0.50400001928E-02 0. -1.
        1   -1    0    0  501    0  0.00000000000E+00  0.00000000000E+00 -0.26401669989E+04  0.26401669990E+04  0.50400001928E-02 0.  1.
    10030    2    1    2    0    0  0.00000000000E+00  0.00000000000E+00 -0.15802574229E+04  0.37000765750E+04  0.33456468938E+04 0.  0.
        2    1    3    3  502    0 -0.15915185026E+04  0.45633633007E+03 -0.52570948346E+03  0.17371080712E+04  0.25500000920E-02 0.  1.
       -2    1    3    3    0  502  0.15915185026E+04 -0.45633633007E+03 -0.10545479394E+04  0.19629685038E+04  0.25500000920E-02 0. -1.
</event>
<event>
 5   0  0.1372748E-06  0.3719265E+04  0.7818609E-02  0.8063706E-01
       -2   -1    0    0    0  501  0.00000000000E+00  0.00000000000E+00  0.22105005265E+04  0.22105005265E+04  0.25500000920E-02 0. -1.
        2   -1    0    0  501    0  0.00000000000E+00  0.00000000000E+00 -0.15644573219E+04  0.15644573219E+04  0.25500000920E-02 0.  1.
    10030    2    1    2    0    0  0.00000000000E+00  0.00000000000E+00  0.64604320456E+03  0.37749578484E+04  0.37192653757E+04 0.  0.
        1    1    3    3  502    0  0.59700082237E+03  0.47784270384E+03 -0.13974986627E+04  0.15930304906E+04  0.50400001928E-02 0.  1.
       -1    1    3    3    0  502 -0.59700082237E+03 -0.47784270384E+03  0.20435418673E+04  0.21819273578E+04  0.50400001928E-02 0. -1.
</event>
<event>
 5   0  0.1214844E-06  0.2402234E+04  0.7818609E-02  0.8438668E-01
       -2   -1    0    0    0  501  0.00000000000E+00  0.00000000000E+00  0.87836681143E+03  0.87836681143E+03  0.25500000920E-02 0.  1.
        2   -1    0    0  501    0  0.00000000000E+00  0.00000000000E+00 -0.16424590808E+04  0.16424590808E+04  0.25500000920E-02 0. -1.
    10030    2    1    2    0    0  0.00000000000E+00  0.00000000000E+00 -0.76409226938E+03  0.25208258922E+04  0.24022335821E+04 0.  0.
        4    1    3    3  502    0  0.11994121688E+04 -0.39315191174E+02 -0.43498147694E+03  0.12764582771E+04  0.12699999809E+01 0. -1.
       -4    1    3    3    0  502 -0.11994121688E+04  0.39315191174E+02 -0.32911079244E+03  0.12443676151E+04  0.12699999809E+01 0.  1.
</event>
<event>
 5   0  0.4795023E-07  0.1980321E+04  0.7818609E-02  0.8615877E-01
        1   -1    0    0  501    0  0.00000000000E+00  0.00000000000E+00  0.15154635559E+04  0.15154635559E+04  0.50400001928E-02 0. -1.
       -1   -1    0    0    0  501  0.00000000000E+00  0.00000000000E+00 -0.64694235658E+03  0.64694235660E+03  0.50400001928E-02 0.  1.
    10030    2    1    2    0    0  0.00000000000E+00  0.00000000000E+00  0.86852119932E+03  0.21624059125E+04  0.19803207459E+04 0.  0.
        3    1    3    3  502    0 -0.61929783540E+03 -0.66691574074E+03  0.83855538411E+01  0.91015204328E+03  0.10100000352E+00 0.  1.
       -3    1    3    3    0  502  0.61929783540E+03  0.66691574074E+03  0.86013564548E+03  0.12522538692E+04  0.10100000352E+00 0. -1.
</event>
<event>
 5   0  0.4255250E-07  0.3826972E+04  0.7818609E-02  0.8040391E-01
       -1   -1    0    0    0  501  0.00000000000E+00  0.00000000000E+00  0.14318041118E+04  0.14318041118E+04  0.50400001928E-02 0.  1.
        1   -1    0    0  501    0  0.00000000000E+00  0.00000000000E+00 -0.25572136087E+04  0.25572136087E+04  0.50400001928E-02 0. -1.
    10030    2    1    2    0    0  0.00000000000E+00  0.00000000000E+00 -0.11254094969E+04  0.39890177205E+04  0.38269721502E+04 0.  0.
        2    1    3    3  502    0  0.91685432603E+03  0.57807089309E+03 -0.22063845627E+04  0.24582352717E+04  0.25500000920E-02 0. -1.
       -2    1    3    3    0  502 -0.91685432603E+03 -0.57807089309E+03  0.10809750658E+04  0.15307824487E+04  0.25500000920E-02 0.  1.
</event>
<event>
 5   0  0.5284458E-07  0.3602083E+04  0.7818609E-02  0.8090015E-01
        1   -1    0    0  501    0  0.00000000000E+00  0.00000000000E+00  0.20301032671E+04  0.20301032671E+04  0.50400001928E-02 0.  1.
       -1   -1    0    0    0  501  0.00000000000E+00  0.00000000000E+00 -0.15978251327E+04  0.15978251328E+04  0.50400001928E-02 0. -1.
    10030    2    1    2    0    0  0.00000000000E+00  0.00000000000E+00  0.43227813432E+03  0.36279283998E+04  0.36020827432E+04 0.  0.
        5    1    3    3  502    0 -0.12029419502E+04 -0.10702383505E+04  0.10289291210E+04  0.19108104795E+04  0.46999998093E+01 0.  1.
       -5    1    3    3    0  502  0.12029419502E+04  0.10702383505E+04 -0.59665098663E+03  0.17171179204E+04  0.46999998093E+01 0. -1.
</event>
<event>
 5   0  0.1214844E-06  0.3415748E+04  0.7818609E-02  0.8134052E-01
        2   -1    0    0  501    0  0.00000000000E+00  0.00000000000E+00  0.11557770065E+04  0.11557770065E+04  0.25500000920E-02 0.  1.
       -2   -1    0    0    0  501  0.00000000000E+00  0.00000000000E+00 -0.25236997488E+04  0.25236997488E+04  0.25500000920E-02 0. -1.
    10030    2    1    2    0    0  0.00000000000E+00  0.00000000000E+00 -0.13679227423E+04  0.36794767552E+04  0.34157483168E+04 0.  0.
        4    1    3    3  502    0 -0.72133455340E+03  0.34869760952E+03  0.94077598707E+03  0.12357081498E+04  0.12699999809E+01 0.  1.
       -4    1    3    3    0  502  0.72133455340E+03 -0.34869760952E+03 -0.23086987294E+04  0.24437686054E+04  0.12699999809E+01 0. -1.
</event>
<event>
 5   0  0.4795023E-07  0.1940327E+04  0.7818609E-02  0.8635040E-01
        1   -1    0    0  501    0  0.00000000000E+00  0.00000000000E+00  0.89411961778E+03  0.89411961780E+03  0.50400001928E-02 0.  1.
       -1   -1    0    0    0  501  0.00000000000E+00  0.00000000000E+00 -0.10526744666E+04  0.10526744666E+04  0.50400001928E-02 0. -1.
    10030    2    1    2    0    0  0.00000000000E+00  0.00000000000E+00 -0.15855484880E+03  0.19467940844E+04  0.19403266650E+04 0.  0.
        3    1    3    3  502    0  0.81048165260E+03  0.52828218630E+03 -0.15200561163E+03  0.97932032234E+03  0.10100000352E+00 0. -1.
       -3    1    3    3    0  502 -0.81048165260E+03 -0.52828218630E+03 -0.65492371694E+01  0.96747376206E+03  0.10100000352E+00 0.  1.
</event>
<event>
 5   0  0.1184616E-06  0.3891233E+04  0.7818609E-02  0.8026855E-01
        2   -1    0    0  501    0  0.00000000000E+00  0.00000000000E+00  0.18256957464E+04  0.18256957464E+04  0.25500000920E-02 0. -1.
       -2   -1    0    0    0  501  0.00000000000E+00  0.00000000000E+00 -0.20734145472E+04  0.20734145472E+04  0.25500000920E-02 0.  1.
    10030    2    1    2    0    0  0.00000000000E+00  0.00000000000E+00 -0.24771880083E+03  0.38991102936E+04  0.38912332849E+04 0.  0.
        5    1    3    3  502    0 -0.13927995801E+04 -0.10785214566E+04  0.70382893994E+03  0.18969703396E+04  0.46999998093E+01 0. -1.
       -5    1    3    3    0  502  0.13927995801E+04  0.10785214566E+04 -0.95154774077E+03  0.20021399540E+04  0.46999998093E+01 0.  1.
</event>
<event>
 5   0  0.1184616E-06  0.2275189E+04  0.7818609E-02  0.8487768E-01
       -2   -1    0    0    0  501  0.00000000000E+00  0.00000000000E+00  0.84091856686E+03  0.84091856686E+03  0.25500000920E-02 0. -1.
        2   -1    0    0  501    0  0.00000000000E+00  0.00000000000E+00 -0.15389381685E+04  0.15389381685E+04  0.25500000920E-02 0.  1.
    10030    2    1    2    0    0  0.00000000000E+00  0.00000000000E+00 -0.69801960163E+03  0.23798567354E+04  0.22751893804E+04 0.  0.
        5    1    3    3  502    0 -0.29746818707E+03  0.90213484482E+03  0.30569582450E+03  0.99790111117E+03  0.46999998093E+01 0. -1.
       -5    1    3    3    0  502  0.29746818707E+03 -0.90213484482E+03 -0.10037154261E+04  0.13819556242E+04  0.46999998093E+01 0.  1.
</event>
<event>
 5   0  0.1184616E-06  0.3386086E+04  0.7818609E-02  0.8141330E-01
        2   -1    0    0  501    0  0.00000000000E+00  0.00000000000E+00  0.26916506273E+04  0.26916506273E+04  0.25500000920E-02 0. -1.
       -2   -1    0    0    0  501  0.00000000000E+00  0.00000000000E+00 -0.10649207086E+04  0.10649207086E+04  0.25500000920E-02 0.  1.
    10030    2    1    2    0    0  0.00000000000E+00  0.00000000000E+00  0.16267299187E+04  0.37565713358E+04  0.33860859370E+04 0.  0.
        5    1    3    3  502    0 -0.59850696821E+03 -0.11403188691E+04 -0.40589809301E+03  0.13503011020E+04  0.46999998093E+01 0.  1.
       -5    1    3    3    0  502  0.59850696821E+03  0.11403188691E+04  0.20326280117E+04  0.24062702338E+04  0.46999998093E+01 0. -1.
</event>
<event>
 5   0  0.1341932E-06  0.3886969E+04  0.7818609E-02  0.8027745E-01
        2   -1    0    0  501    0  0.00000000000E+00  0.00000000000E+00  0.17900124061E+04  0.17900124061E+04  0.25500000920E-02 0.  1.
       -2   -1    0    0    0  501  0.00000000000E+00  0.00000000000E+00 -0.21101148612E+04  0.21101148612E+04  0.25500000920E-02 0. -1.
    10030    2    1    2    0    0  0.00000000000E+00  0.00000000000E+00 -0.32010245511E+03  0.39001272674E+04  0.38869688859E+04 0.  0.
        2    1    3    3  502    0 -0.97633527302E+02 -0.83495435385E+03  0.15981508105E+04  0.18057594225E+04  0.25500000920E-02 0.  1.
       -2    1    3    3    0  502  0.97633527302E+02  0.83495435385E+03 -0.19182532656E+04  0.20943678449E+04  0.25500000920E-02 0. -1.
</event>
<event>
 5   0  0.8030324E-07  0.2969649E+04  0.7818609E-02  0.8252451E-01
       -1   -1    0    0    0  501  0.00000000000E+00  0.00000000000E+00  0.13392015051E+04  0.13392015051E+04  0.50400001928E-02 0.  1.
        1   -1    0    0  501    0  0.00000000000E+00  0.00000000000E+00 -0.16462824203E+04  0.16462824203E+04  0.50400001928E-02 0. -1.
    10030    2    1    2    0    0  0.00000000000E+00  0.00000000000E+00 -0.30708091522E+03  0.29854839254E+04  0.29696490669E+04 0.  0.
        1    1    3    3  502    0 -0.11968220014E+04 -0.12934154724E+03 -0.10274232995E+04  0.15826278069E+04  0.50400001928E-02 0. -1.
       -1    1    3    3    0  502  0.11968220014E+04  0.12934154724E+03  0.72034238423E+03  0.14028561186E+04  0.50400001928E-02 0.  1.
</event>
<event>
 5   0  0.1372748E-06  0.3146143E+04  0.7818609E-02  0.8203187E-01
       -2   -1    0    0    0  501  0.00000000000E+00  0.00000000000E+00  0.14862892672E+04  0.14862892672E+04  0.25500000920E-02 0. -1.
        2   -1    0    0  501    0  0.00000000000E+00  0.00000000000E+00 -0.16649213245E+04  0.16649213245E+04  0.25500000920E-02 0.  1.
    10030    2    1    2    0    0  0.00000000000E+00  0.00000000000E+00 -0.17863205724E+03  0.31512105917E+04  0.31461434775E+04 0.  0.
        1    1    3    3  502    0 -0.11335171055E+04 -0.85113551934E+03  0.59388371109E+03  0.15368768861E+04  0.50400001928E-02 0. -1.
       -1    1    3    3    0  502  0.11335171055E+04  0.85113551934E+03 -0.77251576833E+03  0.16143337056E+04  0.50400001928E-02 0.  1.
</event>
<event>
 5   0  0.1184616E-06  0.3810560E+04  0.7818609E-02  0.8043893E-01
        2   -1    0    0  501    0  0.00000000000E+00  0.00000000000E+00  0.21311868517E+04  0.21311868517E+04  0.25500000920E-02 0. -1.
       -2   -1    0    0    0  501  0.00000000000E+00  0.00000000000E+00 -0.17033194653E+04  0.17033194653E+04  0.25500000920E-02 0.  1.
    10030    2    1    2    0    0  0.00000000000E+00  0.00000000000E+00  0.42786738645E+03  0.38345063170E+04  0.38105600894E+04 0.  0.
        5    1    3    3  502    0 -0.10609140042E+04 -0.22066438446E+03  0.17908932641E+04  0.20932157243E+04  0.46999998093E+01 0. -1.
       -5    1    3    3    0  502  0.10609140042E+04  0.22066438446E+03 -0.13630258777E+04  0.17412905927E+04  0.46999998093E+01 0.  1.
</event>
<event>
 5   0  0.1563440E-06  0.1926456E+04  0.7818609E-02  0.8641799E-01
        2   -1    0    0  501    0  0.00000000000E+00  0.00000000000E+00  0.10302097405E+04  0.10302097405E+04  0.25500000920E-02 0.  1.
       -2   -1    0    0    0  501  0.00000000000E+00  0.00000000000E+00 -0.90060083781E+03  0.90060083781E+03  0.25500000920E-02 0. -1.
    10030    2    1    2    0    0  0.00000000000E+00  0.00000000000E+00  0.12960890265E+03  0.19308105783E+04  0.19264555592E+04 0.  0.
        4    1    3    3  502    0  0.68104968306E+03  0.19075512113E+03  0.72018631943E+03  0.10093988977E+04  0.12699999809E+01 0.  1.
       -4    1    3    3    0  502 -0.68104968306E+03 -0.19075512113E+03 -0.59057741678E+03  0.92141168060E+03  0.12699999809E+01 0. -1.
</event>
<event>
 5   0  0.1337854E-06  0.3644717E+04  0.7818609E-02  0.8080325E-01
        2   -1    0    0  501    0  0.00000000000E+00  0.00000000000E+00  0.15244765475E+04  0.15244765475E+04  0.25500000920E-02 0.  1.
       -2   -1    0    0    0  501  0.00000000000E+00  0.00000000000E+00 -0.21784460270E+04  0.21784460270E+04  0.25500000920E-02 0. -1.
    10030    2    1    2    0    0  0.00000000000E+00  0.00000000000E+00 -0.65396947949E+03  0.37029225744E+04  0.36447166573E+04 0.  0.
        3    1    3    3  502    0 -0.14106110105E+04 -0.10487799893E+03 -0.14943191945E+04  0.20576230663E+04  0.10100000352E+00 0. -1.
       -3    1    3    3    0  502  0.14106110105E+04  0.10487799893E+03  0.84034971505E+03  0.16452995081E+04  0.10100000352E+00 0.  1.
</event>
<event>
 5   0  0.1184616E-06  0.3843117E+04  0.7818609E-02  0.8036965E-01
       -2   -1    0    0    0  501  0.00000000000E+00  0.00000000000E+00  0.26315181385E+04  0.26315181385E+04  0.25500000920E-02 0.  1.
        2   -1    0    0  501    0  0.00000000000E+00  0.00000000000E+00 -0.14031398633E+04  0.14031398633E+04  0.25500000920E-02 0. -1.
    10030    2    1    2    0    0  0.00000000000E+00  0.00000000000E+00  0.12283782752E+04  0.40346580017E+04  0.38431174850E+04 0.  0.
        5    1    3    3  502    0 -0.55664006885E+03  0.10100805890E+04  0.22277540825E+04  0.25085895050E+04  0.46999998093E+01 0.  1.
       -5    1    3    3    0  502  0.55664006885E+03 -0.10100805890E+04 -0.99937580724E+03  0.15260684967E+04  0.46999998093E+01 0. -1.
</event>
<event>
 5   0  0.8030324E-07  0.2067403E+04  0.7818609E-02  0.8575740E-01
        1   -1    0    0  501    0  0.00000000000E+00  0.00000000000E+00  0.93830377046E+03  0.93830377047E+03  0.50400001928E-02 0. -1.
       -1   -1    0    0    0  501  0.00000000000E+00  0.00000000000E+00 -0.11387980856E+04  0.11387980856E+04  0.50400001928E-02 0.  1.
    10030    2    1    2    0    0  0.00000000000E+00  0.00000000000E+00 -0.20049431517E+03  0.20771018561E+04  0.20674027547E+04 0.  0.
        1    1    3    3  502    0  0.21806352971E+03  0.60215576757E+03  0.71497514607E+03  0.95986078727E+03  0.50400001928E-02 0. -1.
       -1    1    3    3    0  502 -0.21806352971E+03 -0.60215576757E+03 -0.91546946124E+03  0.11172410688E+04  0.50400001928E-02 0.  1.
</event>
<event>
 5   0  0.5284458E-07  0.3381147E+04  0.7818609E-02  0.8142549E-01
        1   -1    0    0  501    0  0.00000000000E+00  0.00000000000E+00  0.19548468267E+04  0.19548468267E+04  0.50400001928E-02 0.  1.
       -1   -1    0    0    0  501  0.00000000000E+00  0.00000000000E+00 -0.14620272436E+04  0.14620272436E+04  0.50400001928E-02 0. -1.
    10030    2    1    2    0    0  0.00000000000E+00  0.00000000000E+00  0.49281958318E+03  0.34168740703E+04  0.33811473305E+04 0.  0.
        5    1    3    3  502    0  0.10428248207E+04  0.36266538211E+03  0.15401746204E+04  0.18950381889E+04  0.46999998093E+01 0.  1.
       -5    1    3    3    0  502 -0.10428248207E+04 -0.36266538211E+03 -0.10473550372E+04  0.15218358814E+04  0.46999998093E+01 0. -1.
</event>
<event>
 5   0  0.1372748E-06  0.3609697E+04  0.7818609E-02  0.8088274E-01
       -2   -1    0    0    0  501  0.00000000000E+00  0.00000000000E+00  0.15814575139E+04  0.15814575139E+04  0.25500000920E-02 0.  1.
        2   -1    0    0  501    0  0.00000000000E+00  0.00000000000E+00 -0.20597949600E+04  0.20597949600E+04  0.25500000920E-02 0. -1.
    10030    2    1    2    0    0  0.00000000000E+00  0.00000000000E+00 -0.47833744608E+03  0.36412524739E+04  0.36096970602E+04 0.  0.
        1    1    3    3  502    0  0.14640078740E+04 -0.11522260327E+03 -0.12975706026E+04  0.19596644540E+04  0.50400001928E-02 0. -1.
       -1    1    3    3    0  502 -0.14640078740E+04  0.11522260327E+03  0.81923315657E+03  0.16815880198E+04  0.50400001928E-02 0.  1.
</event>
<event>
 5   0  0.1184616E-06  0.3336716E+04  0.7818609E-02  0.8153615E-01
       -2   -1    0    0    0  501  0.00000000000E+00  0.00000000000E+00  0.17482907850E+04  0.17482907850E+04  0.25500000920E-02 0. -1.
        2   -1    0    0  501    0  0.00000000000E+00  0.00000000000E+00 -0.15920799735E+04  0.15920799735E+04  0.25500000920E-02 0.  1.
    10030    2    1    2    0    0  0.00000000000E+00  0.00000000000E+00  0.15621081148E+03  0.33403707585E+04  0.33367161981E+04 0.  0.
        5    1    3    3  502    0  0.12281946583E+04  0.10978999425E+04 -0.18590726159E+03  0.16578389555E+04  0.46999998093E+01 0.  1.
       -5    1    3    3    0  502 -0.12281946583E+04 -0.10978999425E+04  0.34211807306E+03  0.16825318031E+04  0.46999998093E+01 0. -1.
</event>
<event>
 5   0  0.4795023E-07  0.3746794E+04  0.7818609E-02  0.8057670E-01
        1   -1    0    0  501    0  0.00000000000E+00  0.00000000000E+00  0.10426443022E+04  0.10426443022E+04  0.50400001928E-02 0.  1.
       -1   -1    0    0    0  501  0.00000000000E+00  0.00000000000E+00 -0.33660719604E+04  0.33660719605E+04  0.50400001928E-02 0. -1.
    10030    2    1    2    0    0  0.00000000000E+00  0.00000000000E+00 -0.23234276582E+04  0.44087162627E+04  0.37467936962E+04 0.  0.
        3    1    3    3  502    0 -0.90664013407E+03  0.15145822999E+04 -0.18999799477E+04  0.25934301008E+04  0.10100000352E+00 0. -1.
       -3    1    3    3    0  502  0.90664013407E+03 -0.15145822999E+04 -0.42344771053E+03  0.18152861619E+04  0.10100000352E+00 0.  1.
</event>
<event>
 5   0  0.1214844E-06  0.3689216E+04  0.7818609E-02  0.8070356E-01
       -2   -1    0    0    0  501  0.00000000000E+00  0.00000000000E+00  0.15744712937E+04  0.15744712937E+04  0.25500000920E-02 0. -1.
        2   -1    0    0  501    0  0.00000000000E+00  0.00000000000E+00 -0.21610931792E+04  0.21610931792E+04  0.25500000920E-02 0.  1.
    10030    2    1    2    0    0  0.00000000000E+00  0.00000000000E+00 -0.58662188553E+03  0.37355644730E+04  0.36892162711E+04 0.  0.
        4    1    3    3  502    0  0.16881754734E+03  0.33863836684E+03  0.15347518177E+04  0.15807087216E+04  0.12699999809E+01 0. -1.
       -4    1    3    3    0  502 -0.16881754734E+03 -0.33863836684E+03 -0.21213737032E+04  0.21548557514E+04  0.12699999809E+01 0.  1.
</event>
<event>
 5   0  0.4795023E-07  0.3607234E+04  0.7818609E-02  0.8088837E-01
        1   -1    0    0  501    0  0.00000000000E+00  0.00000000000E+00  0.16206498946E+04  0.16206498946E+04  0.50400001928E-02 0. -1.
       -1   -1    0    0    0  501  0.00000000000E+00  0.00000000000E+00 -0.20072401365E+04  0.20072401366E+04  0.50400001928E-02 0.  1.
    10030    2    1    2    0    0  0.00000000000E+00  0.00000000000E+00 -0.38659024193E+03  0.36278900312E+04  0.36072335748E+04 0.  0.
        3    1    3    3  502    0 -0.41499947366E+03  0.16744696747E+04 -0.72257888464E+03  0.18703458261E+04  0.10100000352E+00 0.  1.
       -3    1    3    3    0  502  0.41499947366E+03 -0.16744696747E+04  0.33598864271E+03  0.17575442051E+04  0.10100000352E+00 0. -1.
</event>
<event>
 5   0  0.1214844E-06  0.3749081E+04  0.7818609E-02  0.8057171E-01
        2   -1    0    0  501    0  0.00000000000E+00  0.00000000000E+00  0.20695699980E+04  0.20695699980E+04  0.25500000920E-02 0. -1.
       -2   -1    0    0    0  501  0.00000000000E+00  0.00000000000E+00 -0.16978901119E+04  0.16978901119E+04  0.25500000920E-02 0.  1.
    10030    2    1    2    0    0  0.00000000000E+00  0.00000000000E+00  0.37167988609E+03  0.37674601098E+04  0.37490811863E+04 0.  0.
        4    1    3    3  502    0  0.16427582240E+04  0.45149911909E+02 -0.72036111602E+03  0.17943285227E+04  0.12699999809E+01 0.  1.
       -4    1    3    3    0  502 -0.16427582240E+04 -0.45149911909E+02  0.10920410021E+04  0.19731315871E+04  0.12699999809E+01 0. -1.
</event>
<event>
 5   0  0.1372748E-06  0.3249301E+04  0.7818609E-02  0.8175917E-01
       -2   -1    0    0    0  501  0.00000000000E+00  0.00000000000E+00  0.14029975363E+04  0.14029975363E+04  0.25500000920E-02 0.  1.
        2   -1    0    0  501    0  0.00000000000E+00  0.00000000000E+00 -0.18813213129E+04  0.18813213129E+04  0.25500000920E-02 0. -1.
    10030    2    1    2    0    0  0.00000000000E+00  0.00000000000E+00 -0.47832377660E+03  0.32843188492E+04  0.32493009507E+04 0.  0.
        1    1    3    3  502    0  0.12704907602E+04  0.26862159629E+03 -0.12259955084E+04  0.17858805448E+04  0.50400001928E-02 0. -1.
       -1    1    3    3    0  502 -0.12704907602E+04 -0.26862159629E+03  0.74767173178E+03  0.14984383044E+04  0.50400001928E-02 0.  1.
</event>
<event>
 5   0  0.1184616E-06  0.3500697E+04  0.7818609E-02  0.8113625E-01
        2   -1    0    0  501    0  0.00000000000E+00  0.00000000000E+00  0.18644437595E+04  0.18644437595E+04  0.25500000920E-02 0. -1.
       -2   -1    0    0    0  501  0.00000000000E+00  0.00000000000E+00 -0.16432354113E+04  0.16432354113E+04  0.25500000920E-02 0.  1.
    10030    2    1    2    0    0  0.00000000000E+00  0.00000000000E+00  0.22120834820E+03  0.35076791709E+04  0.35006970781E+04 0.  0.
        5    1    3    3  502    0  0.69994432053E+03 -0.93975131999E+03  0.14134449082E+04  0.18360019591E+04  0.46999998093E+01 0. -1.
       -5    1    3    3    0  502 -0.69994432053E+03  0.93975131999E+03 -0.11922365600E+04  0.16716772118E+04  0.46999998093E+01 0.  1.
</event>
<event>
 5   0  0.4795023E-07  0.3830583E+04  0.7818609E-02  0.8039623E-01
       -1   -1    0    0    0  501  0.00000000000E+00  0.00000000000E+00  0.14386201283E+04  0.14386201283E+04  0.50400001928E-02 0.  1.
        1   -1    0    0  501    0  0.00000000000E+00  0.00000000000E+00 -0.25499033246E+04  0.25499033246E+04  0.50400001928E-02 0. -1.
    10030    2    1    2    0    0  0.00000000000E+00  0.00000000000E+00 -0.11112831962E+04  0.39885234529E+04  0.38305833749E+04 0.  0.
        3    1    3    3  502    0 -0.47535344408E+03 -0.11286380136E+04  0.97767807966E+03  0.15670478934E+04  0.10100000352E+00 0.  1.
       -3    1    3    3    0  502  0.47535344408E+03  0.11286380136E+04 -0.20889612759E+04  0.24214755595E+04  0.10100000352E+00 0. -1.
</event>
<event>
 5   0  0.1214844E-06  0.2439768E+04  0.7818609E-02  0.8424763E-01
        2   -1    0    0  501    0  0.00000000000E+00  0.00000000000E+00  0.20782339498E+04  0.20782339498E+04  0.25500000920E-02 0. -1.
       -2   -1    0    0    0  501  0.00000000000E+00  0.00000000000E+00 -0.71604896357E+03  0.71604896357E+03  0.25500000920E-02 0.  1.
    10030    2    1    2    0    0  0.00000000000E+00  0.00000000000E+00  0.13621849862E+04  0.27942829133E+04  0.24397682396E+04 0.  0.
        4    1    3    3  502    0  0.31706007621E+02  0.27646732771E+03 -0.67920992817E+03  0.73400762505E+03  0.12699999809E+01 0.  1.
       -4    1    3    3    0  502 -0.31706007621E+02 -0.27646732771E+03  0.20413949144E+04  0.20602752883E+04  0.12699999809E+01 0. -1.
</event>
<event>
 5   0  0.1079205E-06  0.4030904E+04  0.7818609E-02  0.7998341E-01
        1   -1    0    0  501    0  0.00000000000E+00  0.00000000000E+00  0.33114803101E+04  0.33114803101E+04  0.50400001928E-02 0.  1.
       -1   -1    0    0    0  501  0.00000000000E+00  0.00000000000E+00 -0.12266560779E+04  0.12266560779E+04  0.50400001928E-02 0. -1.
    10030    2    1    2    0    0  0.00000000000E+00  0.00000000000E+00  0.20848242321E+04  0.45381363880E+04  0.40309043399E+04 0.  0.
        4    1    3    3  502    0 -0.37696188227E+03 -0.19272512967E+04  0.53186325294E+03  0.20345215540E+04  0.12699999809E+01 0. -1.
       -4    1    3    3    0  502  0.37696188227E+03  0.19272512967E+04  0.15529609792E+04  0.25036148340E+04  0.12699999809E+01 0.  1.
</event>
<event>
 5   0  0.1214844E-06  0.2661210E+04  0.7818609E-02  0.8347702E-01
       -2   -1    0    0    0  501  0.00000000000E+00  0.00000000000E+00  0.13796216676E+04  0.13796216676E+04  0.25500000920E-02 0.  1.
        2   -1    0    0  501    0  0.00000000000E+00  0.00000000000E+00 -0.12833294194E+04  0.12833294194E+04  0.25500000920E-02 0. -1.
    10030    2    1    2    0    0  0.00000000000E+00  0.00000000000E+00  0.96292248182E+02  0.26629510870E+04  0.26612095549E+04 0.  0.
        4    1    3    3  502    0  0.33133757066E+03  0.13967352440E+02  0.13376040892E+04  0.13781023130E+04  0.12699999809E+01 0.  1.
       -4    1    3    3    0  502 -0.33133757066E+03 -0.13967352440E+02 -0.12413118410E+04  0.12848487741E+04  0.12699999809E+01 0. -1.
</event>
<event>
 5   0  0.4255250E-07  0.2007916E+04  0.7818609E-02  0.8602929E-01
       -1   -1    0    0    0  501  0.00000000000E+00  0.00000000000E+00  0.10611476328E+04  0.10611476328E+04  0.50400001928E-02 0.  1.
        1   -1    0    0  501    0  0.00000000000E+00  0.00000000000E+00 -0.94985058964E+03  0.94985058965E+03  0.50400001928E-02 0. -1.
    10030    2    1    2    0    0  0.00000000000E+00  0.00000000000E+00  0.11129704317E+03  0.20109982225E+04  0.20079160388E+04 0.  0.
        2    1    3    3  502    0 -0.15076622212E+02 -0.75280152232E+03  0.72074187893E+03  0.10423081563E+04  0.25500000920E-02 0.  1.
       -2    1    3    3    0  502  0.15076622212E+02  0.75280152232E+03 -0.60944483576E+03  0.96869006622E+03  0.25500000920E-02 0. -1.
</event>
<event>
 5   0  0.1372748E-06  0.3862930E+04  0.7818609E-02  0.8032783E-01
        2   -1    0    0  501    0  0.00000000000E+00  0.00000000000E+00  0.23066237240E+04  0.23066237240E+04  0.25500000920E-02 0. -1.
       -2   -1    0    0    0  501  0.00000000000E+00  0.00000000000E+00 -0.16173237332E+04  0.16173237332E+04  0.25500000920E-02 0.  1.
    10030    2    1    2    0    0  0.00000000000E+00  0.00000000000E+00  0.68929999077E+03  0.39239474572E+04  0.38629301275E+04 0.  0.
        1    1    3    3  502    0  0.12145769855E+04  0.12884413559E+04  0.11283801904E+04  0.20996476455E+04  0.50400001928E-02 0. -1.
       -1    1    3    3    0  502 -0.12145769855E+04 -0.12884413559E+04 -0.43908019964E+03  0.18242998117E+04  0.50400001928E-02 0.  1.
</event>
<event>
 5   0  0.5284458E-07  0.3723007E+04  0.7818609E-02  0.8062882E-01
       -1   -1    0    0    0  501  0.00000000000E+00  0.00000000000E+00  0.18642142328E+04  0.18642142328E+04  0.50400001928E-02 0.  1.
        1   -1    0    0  501    0  0.00000000000E+00  0.00000000000E+00 -0.18587966007E+04  0.18587966007E+04  0.50400001928E-02 0. -1.
    10030    2    1    2    0    0  0.00000000000E+00  0.00000000000E+00  0.54176320231E+01  0.37230108335E+04  0.37230068917E+04 0.  0.
        5    1    3    3  502    0 -0.52206821262E+03 -0.15697401765E+04  0.85625148711E+03  0.18627474707E+04  0.46999998093E+01 0.  1.
       -5    1    3    3    0  502  0.52206821262E+03  0.15697401765E+04 -0.85083385508E+03  0.18602633629E+04  0.46999998093E+01 0. -1.
</event>
<event>
 5   0  0.4795023E-07  0.3370019E+04  0.7818609E-02  0.8145304E-01
       -1   -1    0    0    0  501  0.00000000000E+00  0.00000000000E+00  0.11441807538E+04  0.11441807538E+04  0.50400001928E-02 0.  1.
        1   -1    0    0  501    0  0.00000000000E+00  0.00000000000E+00 -0.24814762297E+04  0.24814762297E+04  0.50400001928E-02 0. -1.
    10030    2    1    2    0    0  0.00000000000E+00  0.00000000000E+00 -0.13372954759E+04  0.36256569835E+04  0.33700191947E+04 0.  0.
        3    1    3    3  502    0  0.10375513603E+04 -0.13144196330E+04 -0.46724253151E+03  0.17385417425E+04  0.10100000352E+00 0.  1.
       -3    1    3    3    0  502 -0.10375513603E+04  0.13144196330E+04 -0.87005294437E+03  0.18871152411E+04  0.10100000352E+00 0. -1.
</event>
<event>
 5   0  0.5284458E-07  0.2280173E+04  0.7818609E-02  0.8485780E-01
        1   -1    0    0  501    0  0.00000000000E+00  0.00000000000E+00  0.41630372304E+03  0.41630372307E+03  0.50400001928E-02 0. -1.
       -1   -1    0    0    0  501  0.00000000000E+00  0.00000000000E+00 -0.31222320219E+04  0.31222320219E+04  0.50400001928E-02 0.  1.
    10030    2    1    2    0    0  0.00000000000E+00  0.00000000000E+00 -0.27059282989E+04  0.35385357450E+04  0.22801726382E+04 0.  0.
        5    1    3    3  502    0 -0.93677732101E+03  0.54928520345E+03 -0.81424162771E+03  0.13573052354E+04  0.46999998093E+01 0. -1.
       -5    1    3    3    0  502  0.93677732101E+03 -0.54928520345E+03 -0.18916866712E+04  0.21812305095E+04  0.46999998093E+01 0.  1.
</event>
<event>
 5   0  0.1337854E-06  0.3697320E+04  0.7818609E-02  0.8068556E-01
       -2   -1    0    0    0  501  0.00000000000E+00  0.00000000000E+00  0.15112412691E+04  0.15112412691E+04  0.25500000920E-02 0.  1.
        2   -1    0    0  501    0  0.00000000000E+00  0.00000000000E+00 -0.22614152438E+04  0.22614152438E+04  0.25500000920E-02 0. -1.
    10030    2    1    2    0    0  0.00000000000E+00  0.00000000000E+00 -0.75017397473E+03  0.37726565129E+04  0.36973201338E+04 0.  0.
        3    1    3    3  502    0  0.73458545058E+03  0.15018618576E+04 -0.11800460461E+04  0.20463903598E+04  0.10100000352E+00 0. -1.
       -3    1    3    3    0  502 -0.73458545058E+03 -0.15018618576E+04  0.42987207133E+03  0.17262661531E+04  0.10100000352E+00 0.  1.
</event>
<event>
 5   0  0.1341932E-06  0.3777541E+04  0.7818609E-02  0.8050992E-01
       -2   -1    0    0    0  501  0.00000000000E+00  0.00000000000E+00  0.16926010631E+04  0.16926010631E+04  0.25500000920E-02 0.  1.
        2   -1    0    0  501    0  0.00000000000E+00  0.00000000000E+00 -0.21076752243E+04  0.21076752243E+04  0.25500000920E-02 0. -1.
    10030    2    1    2    0    0  0.00000000000E+00  0.00000000000E+00 -0.41507416126E+03  0.38002762874E+04  0.37775406419E+04 0.  0.
        2    1    3    3  502    0 -0.10280597427E+04 -0.14211971787E+04  0.49721115761E+03  0.18231640603E+04  0.25500000920E-02 0.  1.
       -2    1    3    3    0  502  0.10280597427E+04  0.14211971787E+04 -0.91228531887E+03  0.19771122271E+04  0.25500000920E-02 0. -1.
</event>
<event>
 5   0  0.1079205E-06  0.3724738E+04  0.7818609E-02  0.8062502E-01
       -1   -1    0    0    0  501  0.00000000000E+00  0.00000000000E+00  0.19399937176E+04  0.19399937176E+04  0.50400001928E-02 0.  1.
        1   -1    0    0  501    0  0.00000000000E+00  0.00000000000E+00 -0.17878502387E+04  0.17878502387E+04  0.50400001928E-02 0. -1.
    10030    2    1    2    0    0  0.00000000000E+00  0.00000000000E+00  0.15214347887E+03  0.37278439563E+04  0.37247379672E+04 0.  0.
        4    1    3    3  502    0  0.63422927286E+03 -0.54962729334E+03 -0.15878667920E+04  0.17960121086E+04  0.12699999809E+01 0. -1.
       -4    1    3    3    0  502 -0.63422927286E+03  0.54962729334E+03  0.17400102709E+04  0.19318318477E+04  0.12699999809E+01 0.  1.
</event>
<event>
 5   0  0.1514065E-06  0.1897973E+04  0.7818609E-02  0.8655866E-01
        2   -1    0    0  501    0  0.00000000000E+00  0.00000000000E+00  0.99114135336E+03  0.99114135336E+03  0.25500000920E-02 0.  1.
       -2   -1    0    0    0  501  0.00000000000E+00  0.00000000000E+00 -0.90862480232E+03  0.90862480232E+03  0.25500000920E-02 0. -1.
    10030    2    1    2    0    0  0.00000000000E+00  0.00000000000E+00  0.82516551035E+02  0.18997661557E+04  0.18979732519E+04 0.  0.
        4    1    3    3  502    0 -0.11104087840E+03  0.61009955922E+03  0.76028388505E+03  0.98111403394E+03  0.12699999809E+01 0.  1.
       -4    1    3    3    0  502  0.11104087840E+03 -0.61009955922E+03 -0.67776733401E+03  0.91865212174E+03  0.12699999809E+01 0. -1.
</event>
<event>
 5   0  0.1184616E-06  0.3728135E+04  0.7818609E-02  0.8061755E-01
        2   -1    0    0  501    0  0.00000000000E+00  0.00000000000E+00  0.17289178947E+04  0.17289178947E+04  0.25500000920E-02 0. -1.
       -2   -1    0    0    0  501  0.00000000000E+00  0.00000000000E+00 -0.20097817739E+04  0.20097817739E+04  0.25500000920E-02 0.  1.
    10030    2    1    2    0    0  0.00000000000E+00  0.00000000000E+00 -0.28086387915E+03  0.37386996686E+04  0.37281350154E+04 0.  0.
        5    1    3    3  502    0  0.14666751298E+04  0.34484973412E+03 -0.12411160322E+04  0.19520369799E+04  0.46999998093E+01 0.  1.
       -5    1    3    3    0  502 -0.14666751298E+04 -0.34484973412E+03  0.96025215306E+03  0.17866626887E+04  0.46999998093E+01 0. -1.
</event>
<event>
 5   0  0.1079205E-06  0.2081453E+04  0.7818609E-02  0.8569458E-01
       -1   -1    0    0    0  501  0.00000000000E+00  0.00000000000E+00  0.67836345315E+03  0.67836345317E+03  0.50400001928E-02 0. -1.
        1   -1    0    0  501    0  0.00000000000E+00  0.00000000000E+00 -0.15966536533E+04  0.15966536533E+04  0.50400001928E-02 0.  1.
    10030    2    1    2    0    0  0.00000000000E+00  0.00000000000E+00 -0.91829020016E+03  0.22750171065E+04  0.20814528443E+04 0.  0.
        4    1    3    3  502    0 -0.95974781762E+03 -0.23294456680E+03 -0.81789194450E+03  0.12823134915E+04  0.12699999809E+01 0. -1.
       -4    1    3    3    0  502  0.95974781762E+03  0.23294456680E+03 -0.10039825566E+03  0.99270361502E+03  0.12699999809E+01 0.  1.
</event>
<event>
 5   0  0.1372748E-06  0.3894667E+04  0.7818609E-02  0.8026139E-01
       -2   -1    0    0    0  501  0.00000000000E+00  0.00000000000E+00  0.17089756052E+04  0.17089756052E+04  0.25500000920E-02 0. -1.
        2   -1    0    0  501    0  0.00000000000E+00  0.00000000000E+00 -0.22189360771E+04  0.22189360771E+04  0.25500000920E-02 0.  1.
    10030    2    1    2    0    0  0.00000000000E+00  0.00000000000E+00 -0.50996047195E+03  0.39279116823E+04  0.38946669307E+04 0.  0.
        1    1    3    3  502    0  0.94974808598E+03 -0.18953184985E+03  0.14488677445E+04  0.17427453888E+04  0.50400001928E-02 0. -1.
       -1    1    3    3    0  502 -0.94974808598E+03  0.18953184985E+03 -0.19588282165E+04  0.21851662936E+04  0.50400001928E-02 0.  1.
</event>
<event>
 5   0  0.4795023E-07  0.3626746E+04  0.7818609E-02  0.8084392E-01
       -1   -1    0    0    0  501  0.00000000000E+00  0.00000000000E+00  0.14362894158E+04  0.14362894158E+04  0.50400001928E-02 0.  1.
        1   -1    0    0  501    0  0.00000000000E+00  0.00000000000E+00 -0.22894563545E+04  0.22894563545E+04  0.50400001928E-02 0. -1.
    10030    2    1    2    0    0  0.00000000000E+00  0.00000000000E+00 -0.85316693877E+03  0.37257457703E+04  0.36267461614E+04 0.  0.
        3    1    3    3  502    0  0.11367231847E+04  0.79909445500E+03  0.77039635373E+03  0.15887737720E+04  0.10100000352E+00 0.  1.
       -3    1    3    3    0  502 -0.11367231847E+04 -0.79909445500E+03 -0.16235632925E+04  0.21369719983E+04  0.10100000352E+00 0. -1.
</event>
<event>
 5   0  0.1372748E-06  0.3815032E+04  0.7818609E-02  0.8042937E-01
       -2   -1    0    0    0  501  0.00000000000E+00  0.00000000000E+00  0.19654987111E+04  0.19654987111E+04  0.25500000920E-02 0. -1.
        2   -1    0    0  501    0  0.00000000000E+00  0.00000000000E+00 -0.18512433446E+04  0.18512433446E+04  0.25500000920E-02 0.  1.
    10030    2    1    2    0    0  0.00000000000E+00  0.00000000000E+00  0.11425536654E+03  0.38167420557E+04  0.38150315373E+04 0.  0.
        1    1    3    3  502    0  0.94228297355E+02  0.12860147685E+03  0.19588216309E+04  0.19652988306E+04  0.50400001928E-02 0. -1.
       -1    1    3    3    0  502 -0.94228297355E+02 -0.12860147685E+03 -0.18445662644E+04  0.18514432250E+04  0.50400001928E-02 0.  1.
</event>
<event>
 5   0  0.1079205E-06  0.3893710E+04  0.7818609E-02  0.8026339E-01
       -1   -1    0    0    0  501  0.00000000000E+00  0.00000000000E+00  0.25990436549E+04  0.25990436549E+04  0.50400001928E-02 0. -1.
        1   -1    0    0  501    0  0.00000000000E+00  0.00000000000E+00 -0.14583228391E+04  0.14583228391E+04  0.50400001928E-02 0.  1.
    10030    2    1    2    0    0  0.00000000000E+00  0.00000000000E+00  0.11407208159E+04  0.40573664940E+04  0.38937101699E+04 0.  0.
        4    1    3    3  502    0 -0.59763612095E+03 -0.18348267865E+04  0.83904448435E+03  0.21042232603E+04  0.12699999809E+01 0. -1.
       -4    1    3    3    0  502  0.59763612095E+03  0.18348267865E+04  0.30167633151E+03  0.19531432337E+04  0.12699999809E+01 0.  1.
</event>
<event>
 5   0  0.1341932E-06  0.2374321E+04  0.7818609E-02  0.8449181E-01
       -2   -1    0    0    0  501  0.00000000000E+00  0.00000000000E+00  0.92472343858E+03  0.92472343858E+03  0.25500000920E-02 0.  1.
        2   -1    0    0  501    0  0.00000000000E+00  0.00000000000E+00 -0.15240768664E+04  0.15240768664E+04  0.25500000920E-02 0. -1.
    10030    2    1    2    0    0  0.00000000000E+00  0.00000000000E+00 -0.59935342781E+03  0.24488003050E+04  0.23743206191E+04 0.  0.
        2    1    3    3  502    0  0.11465977383E+04  0.18009584903E+03 -0.42394707608E+02  0.11614293777E+04  0.25500000920E-02 0.  1.
       -2    1    3    3    0  502 -0.11465977383E+04 -0.18009584903E+03 -0.55695872020E+03  0.12873709272E+04  0.25500000920E-02 0. -1.
</event>
<event>
 5   0  0.1341932E-06  0.3716111E+04  0.7818609E-02  0.8064401E-01
        2   -1    0    0  501    0  0.00000000000E+00  0.00000000000E+00  0.31117024492E+04  0.31117024492E+04  0.25500000920E-02 0. -1.
       -2   -1    0    0    0  501  0.00000000000E+00  0.00000000000E+00 -0.11094794988E+04  0.11094794988E+04  0.25500000920E-02 0.  1.
    10030    2    1    2    0    0  0.00000000000E+00  0.00000000000E+00  0.20022229504E+04  0.42211819479E+04  0.37161109099E+04 0.  0.
        2    1    3    3  502    0  0.86676849164E+03  0.29278870615E+03  0.28381189076E+04  0.29819342343E+04  0.25500000920E-02 0. -1.
       -2    1    3    3    0  502 -0.86676849164E+03 -0.29278870615E+03 -0.83589595711E+03  0.12392477136E+04  0.25500000920E-02 0.  1.
</event>
<event>
 5   0  0.8030324E-07  0.3389091E+04  0.7818609E-02  0.8140589E-01
       -1   -1    0    0    0  501  0.00000000000E+00  0.00000000000E+00  0.18203470315E+04  0.18203470315E+04  0.50400001928E-02 0. -1.
        1   -1    0    0  501    0  0.00000000000E+00  0.00000000000E+00 -0.15774377346E+04  0.15774377346E+04  0.50400001928E-02 0.  1.
    10030    2    1    2    0    0  0.00000000000E+00  0.00000000000E+00  0.24290929683E+03  0.33977847661E+04  0.33890907911E+04 0.  0.
        1    1    3    3  502    0 -0.44322384365E+03  0.54811330425E+03 -0.14234748766E+04  0.15884446148E+04  0.50400001928E-02 0.  1.
       -1    1    3    3    0  502  0.44322384365E+03 -0.54811330425E+03  0.16663841734E+04  0.18093401513E+04  0.50400001928E-02 0. -1.
</event>
<event>
 5   0  0.4255250E-07  0.3715338E+04  0.7818609E-02  0.8064571E-01
       -1   -1    0    0    0  501  0.00000000000E+00  0.00000000000E+00  0.17920107656E+04  0.17920107657E+04  0.50400001928E-02 0.  1.
        1   -1    0    0  501    0  0.00000000000E+00  0.00000000000E+00 -0.19257333803E+04  0.19257333803E+04  0.50400001928E-02 0. -1.
    10030    2    1    2    0    0  0.00000000000E+00  0.00000000000E+00 -0.13372261461E+03  0.37177441459E+04  0.37153384498E+04 0.  0.
        2    1    3    3  502    0 -0.35765574585E+03 -0.16971577761E+04 -0.73262872174E+03  0.18828188955E+04  0.25500000920E-02 0. -1.
       -2    1    3    3    0  502  0.35765574585E+03  0.16971577761E+04  0.59890610712E+03  0.18349252504E+04  0.25500000920E-02 0.  1.
</event>
<event>
 5   0  0.1337854E-06  0.3730709E+04  0.7818609E-02  0.8061190E-01
        2   -1    0    0  501    0  0.00000000000E+00  0.00000000000E+00  0.25775108058E+04  0.25775108058E+04  0.25500000920E-02 0. -1.
       -2   -1    0    0    0  501  0.00000000000E+00  0.00000000000E+00 -0.13499643119E+04  0.13499643119E+04  0.25500000920E-02 0.  1.
    10030    2    1    2    0    0  0.00000000000E+00  0.00000000000E+00  0.12275464939E+04  0.39274751177E+04  0.37307091022E+04 0.  0.
        3    1    3    3  502    0  0.27612785288E+03 -0.16362955596E+04 -0.28312228129E+03  0.16834096311E+04  0.10100000352E+00 0.  1.
       -3    1    3    3    0  502 -0.27612785288E+03  0.16362955596E+04  0.15106687752E+04  0.22440654866E+04  0.10100000352E+00 0. -1.
</event>
<event>
 5   0  0.4255250E-07  0.3754445E+04  0.7818609E-02  0.8056002E-01
       -1   -1    0    0    0  501  0.00000000000E+00  0.00000000000E+00  0.13044762381E+04  0.13044762381E+04  0.50400001928E-02 0.  1.
        1   -1    0    0  501    0  0.00000000000E+00  0.00000000000E+00 -0.27014406826E+04  0.27014406826E+04  0.50400001928E-02 0. -1.
    10030    2    1    2    0    0  0.00000000000E+00  0.00000000000E+00 -0.13969644445E+04  0.40059169207E+04  0.37544454606E+04 0.  0.
        2    1    3    3  502    0  0.11422912774E+04 -0.28636018790E+03 -0.22582932286E+04  0.25469039687E+04  0.25500000920E-02 0. -1.
       -2    1    3    3    0  502 -0.11422912774E+04  0.28636018790E+03  0.86132878417E+03  0.14590129520E+04  0.25500000920E-02 0.  1.
</event>
<event>
 5   0  0.4795023E-07  0.2657780E+04  0.7818609E-02  0.8348835E-01
       -1   -1    0    0    0  501  0.00000000000E+00  0.00000000000E+00  0.12365624739E+04  0.12365624739E+04  0.50400001928E-02 0. -1.
        1   -1    0    0  501    0  0.00000000000E+00  0.00000000000E+00 -0.14281111446E+04  0.14281111446E+04  0.50400001928E-02 0.  1.
    10030    2    1    2    0    0  0.00000000000E+00  0.00000000000E+00 -0.19154867066E+03  0.26646736185E+04  0.26577800135E+04 0.  0.
        3    1    3    3  502    0  0.86805774716E+03  0.23385600508E+03 -0.10769524258E+04  0.14028682836E+04  0.10100000352E+00 0.  1.
       -3    1    3    3    0  502 -0.86805774716E+03 -0.23385600508E+03  0.88540375513E+03  0.12618053350E+04  0.10100000352E+00 0. -1.
</event>
<event>
 5   0  0.1551642E-06  0.1934553E+04  0.7818609E-02  0.8637846E-01
        2   -1    0    0  501    0  0.00000000000E+00  0.00000000000E+00  0.13376103671E+04  0.13376103671E+04  0.25500000920E-02 0. -1.
       -2   -1    0    0    0  501  0.00000000000E+00  0.00000000000E+00 -0.69947429869E+03  0.69947429869E+03  0.25500000920E-02 0.  1.
    10030    2    1    2    0    0  0.00000000000E+00  0.00000000000E+00  0.63813606841E+03  0.20370846658E+04  0.19345532543E+04 0.  0.
        1    1    3    3  502    0  0.31994050555E+03 -0.68115711865E+03 -0.32082955504E+03  0.81808835146E+03  0.50400001928E-02 0.  1.
       -1    1    3    3    0  502 -0.31994050555E+03  0.68115711865E+03  0.95896562344E+03  0.12189963143E+04  0.50400001928E-02 0. -1.
</event>
<event>
 5   0  0.1341932E-06  0.3826225E+04  0.7818609E-02  0.8040550E-01
       -2   -1    0    0    0  501  0.00000000000E+00  0.00000000000E+00  0.12980398948E+04  0.12980398948E+04  0.25500000920E-02 0. -1.
        2   -1    0    0  501    0  0.00000000000E+00  0.00000000000E+00 -0.28196360968E+04  0.28196360968E+04  0.25500000920E-02 0.  1.
    10030    2    1    2    0    0  0.00000000000E+00  0.00000000000E+00 -0.15215962020E+04  0.41176759916E+04  0.38262253684E+04 0.  0.
        2    1    3    3  502    0  0.15638505880E+04  0.10956552924E+04 -0.88772690600E+03  0.21057417318E+04  0.25500000920E-02 0. -1.
       -2    1    3    3    0  502 -0.15638505880E+04 -0.10956552924E+04 -0.63386929600E+03  0.20119342598E+04  0.25500000920E-02 0.  1.
</event>
<event>
 5   0  0.1341932E-06  0.3806624E+04  0.7818609E-02  0.8044735E-01
        2   -1    0    0  501    0  0.00000000000E+00  0.00000000000E+00  0.32086211827E+04  0.32086211827E+04  0.25500000920E-02 0. -1.
       -2   -1    0    0    0  501  0.00000000000E+00  0.00000000000E+00 -0.11290195906E+04  0.11290195906E+04  0.25500000920E-02 0.  1.
    10030    2    1    2    0    0  0.00000000000E+00  0.00000000000E+00  0.20796015921E+04  0.43376407733E+04  0.38066237923E+04 0.  0.
        2    1    3    3  502    0  0.53291203017E+02  0.15329226051E+04 -0.24430012464E+03  0.15531819650E+04  0.25500000920E-02 0.  1.
       -2    1    3    3    0  502 -0.53291203017E+02 -0.15329226051E+04  0.23239017168E+04  0.27844588082E+04  0.25500000920E-02 0. -1.
</event>
<event>
 5   0  0.5284458E-07  0.3538767E+04  0.7818609E-02  0.8104664E-01
        1   -1    0    0  501    0  0.00000000000E+00  0.00000000000E+00  0.16815683340E+04  0.16815683340E+04  0.50400001928E-02 0.  1.
       -1   -1    0    0    0  501  0.00000000000E+00  0.00000000000E+00 -0.18617842051E+04  0.18617842051E+04  0.50400001928E-02 0. -1.
    10030    2    1    2    0    0  0.00000000000E+00  0.00000000000E+00 -0.18021587109E+03  0.35433525391E+04  0.35387666575E+04 0.  0.
        5    1    3    3  502    0 -0.15229045339E+04 -0.85710059929E+03  0.18744366110E+03  0.17575599201E+04  0.46999998093E+01 0.  1.
       -5    1    3    3    0  502  0.15229045339E+04  0.85710059929E+03 -0.36765953220E+03  0.17857926190E+04  0.46999998093E+01 0. -1.
</event>
<event>
 5   0  0.1184616E-06  0.3018373E+04  0.7818609E-02  0.8238504E-01
       -2   -1    0    0    0  501  0.00000000000E+00  0.00000000000E+00  0.16264259198E+04  0.16264259198E+04  0.25500000920E-02 0.  1.
        2   -1    0    0  501    0  0.00000000000E+00  0.00000000000E+00 -0.14003986358E+04  0.14003986358E+04  0.25500000920E-02 0. -1.
    10030    2    1    2    0    0  0.00000000000E+00  0.00000000000E+00  0.22602728394E+03  0.30268245556E+04  0.30183734953E+04 0.  0.
        5    1    3    3  502    0 -0.10098774211E+04  0.93760671644E+03 -0.50406591358E+03  0.14673320332E+04  0.46999998093E+01 0. -1.
       -5    1    3    3    0  502  0.10098774211E+04 -0.93760671644E+03  0.73009319752E+03  0.15594925224E+04  0.46999998093E+01 0.  1.
</event>
<event>
 5   0  0.1079205E-06  0.3849159E+04  0.7818609E-02  0.8035687E-01
       -1   -1    0    0    0  501  0.00000000000E+00  0.00000000000E+00  0.16872832924E+04  0.16872832924E+04  0.50400001928E-02 0. -1.
        1   -1    0    0  501    0  0.00000000000E+00  0.00000000000E+00 -0.21952488705E+04  0.21952488705E+04  0.50400001928E-02 0.  1.
    10030    2    1    2    0    0  0.00000000000E+00  0.00000000000E+00 -0.50796557807E+03  0.38825321629E+04  0.38491592546E+04 0.  0.
        4    1    3    3  502    0 -0.91380166834E+03  0.16825070117E+04 -0.45097531497E+03  0.19670393186E+04  0.12699999809E+01 0.  1.
       -4    1    3    3    0  502  0.91380166834E+03 -0.16825070117E+04 -0.56990263102E+02  0.19154928443E+04  0.12699999809E+01 0. -1.
</event>
<event>
 5   0  0.1341932E-06  0.3630256E+04  0.7818609E-02  0.8083596E-01
        2   -1    0    0  501    0  0.00000000000E+00  0.00000000000E+00  0.13986136448E+04  0.13986136448E+04  0.25500000920E-02 0. -1.
       -2   -1    0    0    0  501  0.00000000000E+00  0.00000000000E+00 -0.23556819979E+04  0.23556819979E+04  0.25500000920E-02 0.  1.
    10030    2    1    2    0    0  0.00000000000E+00  0.00000000000E+00 -0.95706835311E+03  0.37542956426E+04  0.36302556301E+04 0.  0.
        2    1    3    3  502    0 -0.57613040839E+02 -0.13584354600E+04  0.76506044652E+03  0.15601229594E+04  0.25500000920E-02 0. -1.
       -2    1    3    3    0  502  0.57613040839E+02  0.13584354600E+04 -0.17221287996E+04  0.21941726833E+04  0.25500000920E-02 0.  1.
</event>
<event>
 5   0  0.4255250E-07  0.3889189E+04  0.7818609E-02  0.8027281E-01
       -3   -1    0    0    0  501  0.00000000000E+00  0.00000000000E+00  0.21994406971E+04  0.21994406994E+04  0.10100000352E+00 0.  1.
        3   -1    0    0  501    0  0.00000000000E+00  0.00000000000E+00 -0.17192773006E+04  0.17192773035E+04  0.10100000352E+00 0. -1.
    10030    2    1    2    0    0  0.00000000000E+00  0.00000000000E+00  0.48016339652E+03  0.39187180029E+04  0.38891893627E+04 0.  0.
        5    1    3    3  502    0  0.71476025243E+03 -0.55336785365E+03 -0.14947129132E+04  0.17467933429E+04  0.46999998093E+01 0. -1.
       -5    1    3    3    0  502 -0.71476025243E+03  0.55336785365E+03  0.19748763098E+04  0.21719246600E+04  0.46999998093E+01 0.  1.
</event>
<event>
 5   0  0.4255250E-07  0.2635146E+04  0.7818609E-02  0.8356360E-01
        1   -1    0    0  501    0  0.00000000000E+00  0.00000000000E+00  0.15459966573E+04  0.15459966573E+04  0.50400001928E-02 0.  1.
       -1   -1    0    0    0  501  0.00000000000E+00  0.00000000000E+00 -0.11228994196E+04  0.11228994196E+04  0.50400001928E-02 0. -1.
    10030    2    1    2    0    0  0.00000000000E+00  0.00000000000E+00  0.42309723772E+03  0.26688960769E+04  0.26351461054E+04 0.  0.
        2    1    3    3  502    0 -0.10989673935E+04 -0.48353793367E+02 -0.52295084674E+03  0.12180086245E+04  0.25500000920E-02 0. -1.
       -2    1    3    3    0  502  0.10989673935E+04  0.48353793367E+02  0.94604808447E+03  0.14508874524E+04  0.25500000920E-02 0.  1.
</event>
<event>
 5   0  0.1341932E-06  0.3800002E+04  0.7818609E-02  0.8046154E-01
       -2   -1    0    0    0  501  0.00000000000E+00  0.00000000000E+00  0.13602243506E+04  0.13602243506E+04  0.25500000920E-02 0.  1.
        2   -1    0    0  501    0  0.00000000000E+00  0.00000000000E+00 -0.26539772960E+04  0.26539772960E+04  0.25500000920E-02 0. -1.
    10030    2    1    2    0    0  0.00000000000E+00  0.00000000000E+00 -0.12937529454E+04  0.40142016466E+04  0.38000023916E+04 0.  0.
        2    1    3    3  502    0  0.16815589481E+04  0.87767196598E+03 -0.76286535404E+03  0.20444833392E+04  0.25500000920E-02 0.  1.
       -2    1    3    3    0  502 -0.16815589481E+04 -0.87767196598E+03 -0.53088759134E+03  0.19697183074E+04  0.25500000920E-02 0. -1.
</event>
<event>
 5   0  0.1341932E-06  0.3599157E+04  0.7818609E-02  0.8090685E-01
        2   -1    0    0  501    0  0.00000000000E+00  0.00000000000E+00  0.26453232246E+04  0.26453232246E+04  0.25500000920E-02 0.  1.
       -2   -1    0    0    0  501  0.00000000000E+00  0.00000000000E+00 -0.12242292396E+04  0.12242292396E+04  0.25500000920E-02 0. -1.
    10030    2    1    2    0    0  0.00000000000E+00  0.00000000000E+00  0.14210939850E+04  0.38695524641E+04  0.35991565899E+04 0.  0.
        2    1    3    3  502    0  0.15413385157E+04  0.38456747503E+03 -0.19847032981E+03  0.16009394225E+04  0.25500000920E-02 0. -1.
       -2    1    3    3    0  502 -0.15413385157E+04 -0.38456747503E+03  0.16195643148E+04  0.22686130416E+04  0.25500000920E-02 0.  1.
</event>
<event>
 5   0  0.1079205E-06  0.2092315E+04  0.7818609E-02  0.8564636E-01
       -1   -1    0    0    0  501  0.00000000000E+00  0.00000000000E+00  0.72222675628E+03  0.72222675630E+03  0.50400001928E-02 0. -1.
        1   -1    0    0  501    0  0.00000000000E+00  0.00000000000E+00 -0.15153766128E+04  0.15153766128E+04  0.50400001928E-02 0.  1.
    10030    2    1    2    0    0  0.00000000000E+00  0.00000000000E+00 -0.79314985647E+03  0.22376033691E+04  0.20923150199E+04 0.  0.
        4    1    3    3  502    0 -0.10060200561E+04  0.10914737799E+03 -0.68043882122E+03  0.12194212175E+04  0.12699999809E+01 0.  1.
       -4    1    3    3    0  502  0.10060200561E+04 -0.10914737799E+03 -0.11271103526E+03  0.10181821516E+04  0.12699999809E+01 0. -1.
</event>
<event>
 5   0  0.1214844E-06  0.3416314E+04  0.7818609E-02  0.8133914E-01
       -2   -1    0    0    0  501  0.00000000000E+00  0.00000000000E+00  0.14791211025E+04  0.14791211025E+04  0.25500000920E-02 0. -1.
        2   -1    0    0  501    0  0.00000000000E+00  0.00000000000E+00 -0.19726582712E+04  0.19726582712E+04  0.25500000920E-02 0.  1.
    10030    2    1    2    0    0  0.00000000000E+00  0.00000000000E+00 -0.49353716872E+03  0.34517793738E+04  0.34163140822E+04 0.  0.
        4    1    3    3  502    0  0.10303455045E+04  0.26766302677E+03  0.11029673448E+04  0.15329037579E+04  0.12699999809E+01 0. -1.
       -4    1    3    3    0  502 -0.10303455045E+04 -0.26766302677E+03 -0.15965045135E+04  0.19188756158E+04  0.12699999809E+01 0.  1.
</event>
<event>
 5   0  0.4255250E-07  0.3773047E+04  0.7818609E-02  0.8051964E-01
       -3   -1    0    0    0  501  0.00000000000E+00  0.00000000000E+00  0.18834288449E+04  0.18834288476E+04  0.10100000352E+00 0.  1.
        3   -1    0    0  501    0  0.00000000000E+00  0.00000000000E+00 -0.18896235922E+04  0.18896235949E+04  0.10100000352E+00 0. -1.
    10030    2    1    2    0    0  0.00000000000E+00  0.00000000000E+00 -0.61947472664E+01  0.37730524425E+04  0.37730473571E+04 0.  0.
        2    1    3    3  502    0 -0.11985150123E+04 -0.54174883117E+03  0.13493250786E+04  0.18843057604E+04  0.25500000920E-02 0.  1.
       -2    1    3    3    0  502  0.11985150123E+04  0.54174883117E+03 -0.13555198259E+04  0.18887466821E+04  0.25500000920E-02 0. -1.
</event>
<event>
 5   0  0.1341932E-06  0.3803367E+04  0.7818609E-02  0.8045433E-01
       -2   -1    0    0    0  501  0.00000000000E+00  0.00000000000E+00  0.21130376457E+04  0.21130376457E+04  0.25500000920E-02 0.  1.
        2   -1    0    0  501    0  0.00000000000E+00  0.00000000000E+00 -0.17114698932E+04  0.17114698932E+04  0.25500000920E-02 0. -1.
    10030    2    1    2    0    0  0.00000000000E+00  0.00000000000E+00  0.40156775258E+03  0.38245075389E+04  0.38033670945E+04 0.  0.
        2    1    3    3  502    0 -0.13046176998E+04 -0.70218693766E+02 -0.11887225091E+04  0.17663576114E+04  0.25500000920E-02 0. -1.
       -2    1    3    3    0  502  0.13046176998E+04  0.70218693766E+02  0.15902902617E+04  0.20581499275E+04  0.25500000920E-02 0.  1.
</event>
<event>
 5   0  0.4795023E-07  0.3837929E+04  0.7818609E-02  0.8038064E-01
       -1   -1    0    0    0  501  0.00000000000E+00  0.00000000000E+00  0.16077116261E+04  0.16077116261E+04  0.50400001928E-02 0.  1.
        1   -1    0    0  501    0  0.00000000000E+00  0.00000000000E+00 -0.22904762677E+04  0.22904762677E+04  0.50400001928E-02 0. -1.
    10030    2    1    2    0    0  0.00000000000E+00  0.00000000000E+00 -0.68276464161E+03  0.38981878938E+04  0.38379292984E+04 0.  0.
        3    1    3    3  502    0 -0.38588302425E+03  0.15630404180E+04  0.71924680877E+03  0.17633255624E+04  0.10100000352E+00 0.  1.
       -3    1    3    3    0  502  0.38588302425E+03 -0.15630404180E+04 -0.14020114504E+04  0.21348623314E+04  0.10100000352E+00 0. -1.
</event>
<event>
 5   0  0.1341932E-06  0.1963638E+04  0.7818609E-02  0.8623812E-01
       -2   -1    0    0    0  501  0.00000000000E+00  0.00000000000E+00  0.85667233699E+03  0.85667233700E+03  0.25500000920E-02 0. -1.
        2   -1    0    0  501    0  0.00000000000E+00  0.00000000000E+00 -0.11252480879E+04  0.11252480879E+04  0.25500000920E-02 0.  1.
    10030    2    1    2    0    0  0.00000000000E+00  0.00000000000E+00 -0.26857575093E+03  0.19819204249E+04  0.19636383671E+04 0.  0.
        2    1    3    3  502    0  0.47460841259E+03  0.47977683138E+03  0.58546428101E+03  0.89342452260E+03  0.25500000920E-02 0. -1.
       -2    1    3    3    0  502 -0.47460841259E+03 -0.47977683138E+03 -0.85404003194E+03  0.10884959023E+04  0.25500000920E-02 0.  1.
</event>
<event>
 5   0  0.1341932E-06  0.3781458E+04  0.7818609E-02  0.8050146E-01
        2   -1    0    0  501    0  0.00000000000E+00  0.00000000000E+00  0.12620025727E+04  0.12620025727E+04  0.25500000920E-02 0.  1.
       -2   -1    0    0    0  501  0.00000000000E+00  0.00000000000E+00 -0.28326847381E+04  0.28326847381E+04  0.25500000920E-02 0. -1.
    10030    2    1    2    0    0  0.00000000000E+00  0.00000000000E+00 -0.15706821654E+04  0.40946873108E+04  0.37814576169E+04 0.  0.
        2    1    3    3  502    0 -0.97317257270E+03 -0.20577515285E+03 -0.25264636253E+04  0.27152213022E+04  0.25500000920E-02 0. -1.
       -2    1    3    3    0  502  0.97317257270E+03  0.20577515285E+03  0.95578145992E+03  0.13794660086E+04  0.25500000920E-02 0.  1.
</event>
<event>
 5   0  0.5284458E-07  0.4502087E+04  0.7818609E-02  0.7910272E-01
       -1   -1    0    0    0  501  0.00000000000E+00  0.00000000000E+00  0.22335744753E+04  0.22335744753E+04  0.50400001928E-02 0.  1.
        1   -1    0    0  501    0  0.00000000000E+00  0.00000000000E+00 -0.22686491897E+04  0.22686491898E+04  0.50400001928E-02 0. -1.
    10030    2    1    2    0    0  0.00000000000E+00  0.00000000000E+00 -0.35074714418E+02  0.45022236651E+04  0.45020870377E+04 0.  0.
        5    1    3    3  502    0  0.11553087433E+04 -0.99987706232E+03  0.16355955064E+04  0.22382330492E+04  0.46999998093E+01 0.  1.
       -5    1    3    3    0  502 -0.11553087433E+04  0.99987706232E+03 -0.16706702208E+04  0.22639906159E+04  0.46999998093E+01 0. -1.
</event>
<event>
 5   0  0.4795023E-07  0.3298281E+04  0.7818609E-02  0.8163333E-01
       -1   -1    0    0    0  501  0.00000000000E+00  0.00000000000E+00  0.10809911195E+04  0.10809911195E+04  0.50400001928E-02 0. -1.
        1   -1    0    0  501    0  0.00000000000E+00  0.00000000000E+00 -0.25158984989E+04  0.25158984989E+04  0.50400001928E-02 0.  1.
    10030    2    1    2    0    0  0.00000000000E+00  0.00000000000E+00 -0.14349073794E+04  0.35968896184E+04  0.32982807248E+04 0.  0.
        3    1    3    3  502    0  0.11987851945E+04 -0.77247666385E+03  0.18568933111E+03  0.14381539127E+04  0.10100000352E+00 0. -1.
       -3    1    3    3    0  502 -0.11987851945E+04  0.77247666385E+03 -0.16205967105E+04  0.21587357057E+04  0.10100000352E+00 0.  1.
</event>
<event>
 5   0  0.5284458E-07  0.3746791E+04  0.7818609E-02  0.8057671E-01
        1   -1    0    0  501    0  0.00000000000E+00  0.00000000000E+00  0.18045540245E+04  0.18045540245E+04  0.50400001928E-02 0.  1.
       -1   -1    0    0    0  501  0.00000000000E+00  0.00000000000E+00 -0.19448631387E+04  0.19448631387E+04  0.50400001928E-02 0. -1.
    10030    2    1    2    0    0  0.00000000000E+00  0.00000000000E+00 -0.14030911419E+03  0.37494171633E+04  0.37467909492E+04 0.  0.
        5    1    3    3  502    0  0.89306644566E+03 -0.53917845576E+03 -0.16273003188E+04  0.19329794363E+04  0.46999998093E+01 0. -1.
       -5    1    3    3    0  502 -0.89306644566E+03  0.53917845576E+03  0.14869912046E+04  0.18164377270E+04  0.46999998093E+01 0.  1.
</event>
<event>
 5   0  0.1079205E-06  0.3980485E+04  0.7818609E-02  0.8008495E-01
       -1   -1    0    0    0  501  0.00000000000E+00  0.00000000000E+00  0.20992293543E+04  0.20992293543E+04  0.50400001928E-02 0. -1.
        1   -1    0    0  501    0  0.00000000000E+00  0.00000000000E+00 -0.18869141097E+04  0.18869141098E+04  0.50400001928E-02 0.  1.
    10030    2    1    2    0    0  0.00000000000E+00  0.00000000000E+00  0.21231524453E+03  0.39861434640E+04  0.39804851404E+04 0.  0.
        4    1    3    3  502    0  0.73609129769E+03  0.26345778868E+03  0.19390116523E+04  0.20906956272E+04  0.12699999809E+01 0. -1.
       -4    1    3    3    0  502 -0.73609129769E+03 -0.26345778868E+03 -0.17266964077E+04  0.18954478369E+04  0.12699999809E+01 0.  1.
</event>
<event>
 5   0  0.1079205E-06  0.1931773E+04  0.7818609E-02  0.8639201E-01
       -1   -1    0    0    0  501  0.00000000000E+00  0.00000000000E+00  0.73395041480E+03  0.73395041482E+03  0.50400001928E-02 0.  1.
        1   -1    0    0  501    0  0.00000000000E+00  0.00000000000E+00 -0.12711169846E+04  0.12711169846E+04  0.50400001928E-02 0. -1.
    10030    2    1    2    0    0  0.00000000000E+00  0.00000000000E+00 -0.53716656976E+03  0.20050673994E+04  0.19317731110E+04 0.  0.
        4    1    3    3  502    0  0.89664658291E+03  0.18132705194E+03  0.53146139500E+02  0.91634094062E+03  0.12699999809E+01 0.  1.
       -4    1    3    3    0  502 -0.89664658291E+03 -0.18132705194E+03 -0.59031270926E+03  0.10887264588E+04  0.12699999809E+01 0. -1.
</event>
<event>
 5   0  0.1372748E-06  0.2621113E+04  0.7818609E-02  0.8361065E-01
       -2   -1    0    0    0  501  0.00000000000E+00  0.00000000000E+00  0.12679407785E+04  0.12679407785E+04  0.25500000920E-02 0. -1.
        2   -1    0    0  501    0  0.00000000000E+00  0.00000000000E+00 -0.13546041611E+04  0.13546041611E+04  0.25500000920E-02 0.  1.
    10030    2    1    2    0    0  0.00000000000E+00  0.00000000000E+00 -0.86663382567E+02  0.26225449396E+04  0.26211126298E+04 0.  0.
        1    1    3    3  502    0 -0.64940687207E+03 -0.70288729047E+03 -0.93924158087E+03  0.13408782853E+04  0.50400001928E-02 0.  1.
       -1    1    3    3    0  502  0.64940687207E+03  0.70288729047E+03  0.85257819830E+03  0.12816666543E+04  0.50400001928E-02 0. -1.
</event>
<event>
 5   0  0.1337854E-06  0.3927313E+04  0.7818609E-02  0.8019373E-01
        2   -1    0    0  501    0  0.00000000000E+00  0.00000000000E+00  0.23740668048E+04  0.23740668048E+04  0.25500000920E-02 0. -1.
       -2   -1    0    0    0  501  0.00000000000E+00  0.00000000000E+00 -0.16241945313E+04  0.16241945313E+04  0.25500000920E-02 0.  1.
    10030    2    1    2    0    0  0.00000000000E+00  0.00000000000E+00  0.74987227348E+03  0.39982613362E+04  0.39273127308E+04 0.  0.
        3    1    3    3  502    0 -0.54887549660E+03  0.18825222722E+04  0.48069689401E+03  0.20189660547E+04  0.10100000352E+00 0. -1.
       -3    1    3    3    0  502  0.54887549660E+03 -0.18825222722E+04  0.26917537947E+03  0.19792952814E+04  0.10100000352E+00 0.  1.
</event>
<event>
 5   0  0.1341932E-06  0.3728348E+04  0.7818609E-02  0.8061709E-01
       -2   -1    0    0    0  501  0.00000000000E+00  0.00000000000E+00  0.11520079530E+04  0.11520079530E+04  0.25500000920E-02 0. -1.
        2   -1    0    0  501    0  0.00000000000E+00  0.00000000000E+00 -0.30165971100E+04  0.30165971100E+04  0.25500000920E-02 0.  1.
    10030    2    1    2    0    0  0.00000000000E+00  0.00000000000E+00 -0.18645891569E+04  0.41686050630E+04  0.37283475491E+04 0.  0.
        2    1    3    3  502    0  0.31968896703E+03  0.12472222869E+04  0.57499661495E+03  0.14101012644E+04  0.25500000920E-02 0. -1.
       -2    1    3    3    0  502 -0.31968896703E+03 -0.12472222869E+04 -0.24395857719E+04  0.27585037986E+04  0.25500000920E-02 0.  1.
</event>
<event>
 5   0  0.1214844E-06  0.3567521E+04  0.7818609E-02  0.8097972E-01
       -2   -1    0    0    0  501  0.00000000000E+00  0.00000000000E+00  0.15689372142E+04  0.15689372142E+04  0.25500000920E-02 0. -1.
        2   -1    0    0  501    0  0.00000000000E+00  0.00000000000E+00 -0.20279977991E+04  0.20279977991E+04  0.25500000920E-02 0.  1.
    10030    2    1    2    0    0  0.00000000000E+00  0.00000000000E+00 -0.45906058486E+03  0.35969350133E+04  0.35675208296E+04 0.  0.
        4    1    3    3  502    0 -0.19956763116E+03 -0.13314484143E+04  0.95025313736E+03  0.16478970712E+04  0.12699999809E+01 0. -1.
       -4    1    3    3    0  502  0.19956763116E+03  0.13314484143E+04 -0.14093137222E+04  0.19490379421E+04  0.12699999809E+01 0.  1.
</event>
<event>
 5   0  0.8030324E-07  0.3920021E+04  0.7818609E-02  0.8020878E-01
        1   -1    0    0  501    0  0.00000000000E+00  0.00000000000E+00  0.26904138650E+04  0.26904138650E+04  0.50400001928E-02 0.  1.
       -1   -1    0    0    0  501  0.00000000000E+00  0.00000000000E+00 -0.14278994111E+04  0.14278994111E+04  0.50400001928E-02 0. -1.
    10030    2    1    2    0    0  0.00000000000E+00  0.00000000000E+00  0.12625144539E+04  0.41183132761E+04  0.39200205986E+04 0.  0.
        1    1    3    3  502    0 -0.18112762608E+04  0.61775966051E+03  0.10761046734E+04  0.21955295396E+04  0.50400001928E-02 0.  1.
       -1    1    3    3    0  502  0.18112762608E+04 -0.61775966051E+03  0.18640978055E+03  0.19227837365E+04  0.50400001928E-02 0. -1.
</event>
<event>
 5   0  0.1184616E-06  0.3706054E+04  0.7818609E-02  0.8066621E-01
        2   -1    0    0  501    0  0.00000000000E+00  0.00000000000E+00  0.14646856569E+04  0.14646856569E+04  0.25500000920E-02 0.  1.
       -2   -1    0    0    0  501  0.00000000000E+00  0.00000000000E+00 -0.23443320510E+04  0.23443320510E+04  0.25500000920E-02 0. -1.
    10030    2    1    2    0    0  0.00000000000E+00  0.00000000000E+00 -0.87964639414E+03  0.38090177079E+04  0.37060542522E+04 0.  0.
        5    1    3    3  502    0  0.14683745792E+04 -0.63550027286E+03 -0.14005128591E+04  0.21263684676E+04  0.46999998093E+01 0. -1.
       -5    1    3    3    0  502 -0.14683745792E+04  0.63550027286E+03  0.52086646495E+03  0.16826492403E+04  0.46999998093E+01 0.  1.
</event>
<event>
 5   0  0.1337854E-06  0.3650201E+04  0.7818609E-02  0.8079088E-01
        2   -1    0    0  501    0  0.00000000000E+00  0.00000000000E+00  0.25956801474E+04  0.25956801474E+04  0.25500000920E-02 0. -1.
       -2   -1    0    0    0  501  0.00000000000E+00  0.00000000000E+00 -0.12832828475E+04  0.12832828475E+04  0.25500000920E-02 0.  1.
    10030    2    1    2    0    0  0.00000000000E+00  0.00000000000E+00  0.13123972999E+04  0.38789629949E+04  0.36502009867E+04 0.  0.
        3    1    3    3  502    0  0.70464104742E+03  0.15771167295E+04  0.12823415581E+04  0.21513289070E+04  0.10100000352E+00 0. -1.
       -3    1    3    3    0  502 -0.70464104742E+03 -0.15771167295E+04  0.30055741853E+02  0.17276340880E+04  0.10100000352E+00 0.  1.
</event>
<event>
 5   0  0.8030324E-07  0.3780333E+04  0.7818609E-02  0.8050388E-01
        1   -1    0    0  501    0  0.00000000000E+00  0.00000000000E+00  0.11436756442E+04  0.11436756442E+04  0.50400001928E-02 0. -1.
       -1   -1    0    0    0  501  0.00000000000E+00  0.00000000000E+00 -0.31239016216E+04  0.31239016216E+04  0.50400001928E-02 0.  1.
    10030    2    1    2    0    0  0.00000000000E+00  0.00000000000E+00 -0.19802259775E+04  0.42675772658E+04  0.37803334242E+04 0.  0.
        1    1    3    3  502    0  0.45219256597E+03  0.53889074581E+03 -0.29706133713E+04  0.30527733546E+04  0.50400001928E-02 0.  1.
       -1    1    3    3    0  502 -0.45219256597E+03 -0.53889074581E+03  0.99038739389E+03  0.12148039112E+04  0.50400001928E-02 0. -1.
</event>
<event>
 5   0  0.5284458E-07  0.1914468E+04  0.7818609E-02  0.8647688E-01
       -1   -1    0    0    0  501  0.00000000000E+00  0.00000000000E+00  0.40093902386E+03  0.40093902389E+03  0.50400001928E-02 0. -1.
        1   -1    0    0  501    0  0.00000000000E+00  0.00000000000E+00 -0.22853777013E+04  0.22853777013E+04  0.50400001928E-02 0.  1.
    10030    2    1    2    0    0  0.00000000000E+00  0.00000000000E+00 -0.18844386774E+04  0.26863167252E+04  0.19144681818E+04 0.  0.
        5    1    3    3  502    0 -0.25363592229E+03  0.74111653053E+03 -0.17023553781E+03  0.80161531999E+03  0.46999998093E+01 0. -1.
       -5    1    3    3    0  502  0.25363592229E+03 -0.74111653053E+03 -0.17142031396E+04  0.18847014052E+04  0.46999998093E+01 0.  1.
</event>
<event>
 5   0  0.1214844E-06  0.2633916E+04  0.7818609E-02  0.8356771E-01
       -2   -1    0    0    0  501  0.00000000000E+00  0.00000000000E+00  0.16784031798E+04  0.16784031798E+04  0.25500000920E-02 0. -1.
        2   -1    0    0  501    0  0.00000000000E+00  0.00000000000E+00 -0.10333502187E+04  0.10333502187E+04  0.25500000920E-02 0.  1.
    10030    2    1    2    0    0  0.00000000000E+00  0.00000000000E+00  0.64505296108E+03  0.27117533984E+04  0.26339159386E+04 0.  0.
        4    1    3    3  502    0  0.10860456705E+04  0.11015325958E+03  0.10810120019E+04  0.15362999382E+04  0.12699999809E+01 0. -1.
       -4    1    3    3    0  502 -0.10860456705E+04 -0.11015325958E+03 -0.43595904083E+03  0.11754534602E+04  0.12699999809E+01 0.  1.
</event>
<event>
 5   0  0.1337854E-06  0.3762044E+04  0.7818609E-02  0.8054350E-01
        2   -1    0    0  501    0  0.00000000000E+00  0.00000000000E+00  0.18808494453E+04  0.18808494453E+04  0.25500000920E-02 0. -1.
       -2   -1    0    0    0  501  0.00000000000E+00  0.00000000000E+00 -0.18811941723E+04  0.18811941723E+04  0.25500000920E-02 0.  1.
    10030    2    1    2    0    0  0.00000000000E+00  0.00000000000E+00 -0.34472698035E+00  0.37620436176E+04  0.37620436018E+04 0.  0.
        3    1    3    3  502    0 -0.22689818417E+02  0.13329245287E+04  0.13268696076E+04  0.18809002081E+04  0.10100000352E+00 0. -1.
       -3    1    3    3    0  502  0.22689818417E+02 -0.13329245287E+04 -0.13272143345E+04  0.18811434095E+04  0.10100000352E+00 0.  1.
</event>
<event>
 5   0  0.1341932E-06  0.3677148E+04  0.7818609E-02  0.8073045E-01
       -2   -1    0    0    0  501  0.00000000000E+00  0.00000000000E+00  0.10181948018E+04  0.10181948018E+04  0.25500000920E-02 0.  1.
        2   -1    0    0  501    0  0.00000000000E+00  0.00000000000E+00 -0.33199491846E+04  0.33199491846E+04  0.25500000920E-02 0. -1.
    10030    2    1    2    0    0  0.00000000000E+00  0.00000000000E+00 -0.23017543829E+04  0.43381439864E+04  0.36771483527E+04 0.  0.
        2    1    3    3  502    0  0.99739864916E+03 -0.13199206168E+04 -0.20459643552E+03  0.16669895625E+04  0.25500000920E-02 0.  1.
       -2    1    3    3    0  502 -0.99739864916E+03  0.13199206168E+04 -0.20971579474E+04  0.26711544239E+04  0.25500000920E-02 0. -1.
</event>
<event>
 5   0  0.1341932E-06  0.3804724E+04  0.7818609E-02  0.8045142E-01
        2   -1    0    0  501    0  0.00000000000E+00  0.00000000000E+00  0.27916711482E+04  0.27916711482E+04  0.25500000920E-02 0.  1.
       -2   -1    0    0    0  501  0.00000000000E+00  0.00000000000E+00 -0.12963495207E+04  0.12963495207E+04  0.25500000920E-02 0. -1.
    10030    2    1    2    0    0  0.00000000000E+00  0.00000000000E+00  0.14953216275E+04  0.40880206689E+04  0.38047241976E+04 0.  0.
        2    1    3    3  502    0  0.59827386710E+03  0.14773566912E+04 -0.36815718200E+03  0.16358649467E+04  0.25500000920E-02 0. -1.
       -2    1    3    3    0  502 -0.59827386710E+03 -0.14773566912E+04  0.18634788095E+04  0.24521557223E+04  0.25500000920E-02 0.  1.
</event>
<event>
 5   0  0.1214844E-06  0.3450909E+04  0.7818609E-02  0.8125523E-01
       -2   -1    0    0    0  501  0.00000000000E+00  0.00000000000E+00  0.19439926031E+04  0.19439926031E+04  0.25500000920E-02 0. -1.
        2   -1    0    0  501    0  0.00000000000E+00  0.00000000000E+00 -0.15314835912E+04  0.15314835912E+04  0.25500000920E-02 0.  1.
    10030    2    1    2    0    0  0.00000000000E+00  0.00000000000E+00  0.41250901195E+03  0.34754761943E+04  0.34509087342E+04 0.  0.
        4    1    3    3  502    0  0.95506786156E+03 -0.84796311030E+03  0.13746841972E+04  0.18764206116E+04  0.12699999809E+01 0.  1.
       -4    1    3    3    0  502 -0.95506786156E+03  0.84796311030E+03 -0.96217518524E+03  0.15990555827E+04  0.12699999809E+01 0. -1.
</event>
<event>
 5   0  0.1184616E-06  0.3667277E+04  0.7818609E-02  0.8075252E-01
       -2   -1    0    0    0  501  0.00000000000E+00  0.00000000000E+00  0.12265397687E+04  0.12265397687E+04  0.25500000920E-02 0. -1.
        2   -1    0    0  501    0  0.00000000000E+00  0.00000000000E+00 -0.27412326792E+04  0.27412326792E+04  0.25500000920E-02 0.  1.
    10030    2    1    2    0    0  0.00000000000E+00  0.00000000000E+00 -0.15146929105E+04  0.39677724479E+04  0.36672774077E+04 0.  0.
        5    1    3    3  502    0  0.53779451015E+03 -0.16815725523E+04 -0.22148633862E+03  0.17793221945E+04  0.46999998093E+01 0.  1.
       -5    1    3    3    0  502 -0.53779451015E+03  0.16815725523E+04 -0.12932065718E+04  0.21884502533E+04  0.46999998093E+01 0. -1.
</event>
<event>
 5   0  0.1184616E-06  0.3763410E+04  0.7818609E-02  0.8054053E-01
        2   -1    0    0  501    0  0.00000000000E+00  0.00000000000E+00  0.25415753675E+04  0.25415753675E+04  0.25500000920E-02 0.  1.
       -2   -1    0    0    0  501  0.00000000000E+00  0.00000000000E+00 -0.13931569928E+04  0.13931569928E+04  0.25500000920E-02 0. -1.
    10030    2    1    2    0    0  0.00000000000E+00  0.00000000000E+00  0.11484183747E+04  0.39347323603E+04  0.37634098878E+04 0.  0.
        5    1    3    3  502    0 -0.21925557994E+03  0.12775891506E+04 -0.85188000004E+03  0.15511378635E+04  0.46999998093E+01 0. -1.
       -5    1    3    3    0  502  0.21925557994E+03 -0.12775891506E+04  0.20002983747E+04  0.23835944968E+04  0.46999998093E+01 0.  1.
</event>
<event>
 5   0  0.1337854E-06  0.3834909E+04  0.7818609E-02  0.8038705E-01
       -2   -1    0    0    0  501  0.00000000000E+00  0.00000000000E+00  0.12017372119E+04  0.12017372119E+04  0.25500000920E-02 0.  1.
        2   -1    0    0  501    0  0.00000000000E+00  0.00000000000E+00 -0.30594302598E+04  0.30594302598E+04  0.25500000920E-02 0. -1.
    10030    2    1    2    0    0  0.00000000000E+00  0.00000000000E+00 -0.18576930480E+04  0.42611674717E+04  0.38349087031E+04 0.  0.
        3    1    3    3  502    0 -0.14995114350E+04  0.66724695156E+03 -0.20304452179E+04  0.26108352746E+04  0.10100000352E+00 0. -1.
       -3    1    3    3    0  502  0.14995114350E+04 -0.66724695156E+03  0.17275216994E+03  0.16503321970E+04  0.10100000352E+00 0.  1.
</event>
<event>
 5   0  0.4795023E-07  0.2725635E+04  0.7818609E-02  0.8326735E-01
       -1   -1    0    0    0  501  0.00000000000E+00  0.00000000000E+00  0.18109700601E+04  0.18109700601E+04  0.50400001928E-02 0. -1.
        1   -1    0    0  501    0  0.00000000000E+00  0.00000000000E+00 -0.10255674266E+04  0.10255674266E+04  0.50400001928E-02 0.  1.
    10030    2    1    2    0    0  0.00000000000E+00  0.00000000000E+00  0.78540263352E+03  0.28365374867E+04  0.27256352684E+04 0.  0.
        3    1    3    3  502    0  0.13146835022E+04  0.34842900859E+03  0.30271689874E+03  0.13933531555E+04  0.10100000352E+00 0. -1.
       -3    1    3    3    0  502 -0.13146835022E+04 -0.34842900859E+03  0.48268573478E+03  0.14431843312E+04  0.10100000352E+00 0.  1.
</event>
<event>
 5   0  0.4795023E-07  0.3729639E+04  0.7818609E-02  0.8061425E-01
        1   -1    0    0  501    0  0.00000000000E+00  0.00000000000E+00  0.18882008917E+04  0.18882008917E+04  0.50400001928E-02 0. -1.
       -1   -1    0    0    0  501  0.00000000000E+00  0.00000000000E+00 -0.18417274592E+04  0.18417274592E+04  0.50400001928E-02 0.  1.
    10030    2    1    2    0    0  0.00000000000E+00  0.00000000000E+00  0.46473432485E+02  0.37299283509E+04  0.37296388194E+04 0.  0.
        3    1    3    3  502    0  0.37907985196E+03 -0.16377434388E+04 -0.78407208056E+03  0.18549054271E+04  0.10100000352E+00 0.  1.
       -3    1    3    3    0  502 -0.37907985196E+03  0.16377434388E+04  0.83054551305E+03  0.18750229239E+04  0.10100000352E+00 0. -1.
</event>
<event>
 5   0  0.1341932E-06  0.4022172E+04  0.7818609E-02  0.8000089E-01
       -2   -1    0    0    0  501  0.00000000000E+00  0.00000000000E+00  0.13155220406E+04  0.13155220406E+04  0.25500000920E-02 0.  1.
        2   -1    0    0  501    0  0.00000000000E+00  0.00000000000E+00 -0.30744199452E+04  0.30744199452E+04  0.25500000920E-02 0. -1.
    10030    2    1    2    0    0  0.00000000000E+00  0.00000000000E+00 -0.17588979046E+04  0.43899419858E+04  0.40221721495E+04 0.  0.
        2    1    3    3  502    0  0.28478694288E+03 -0.18932256886E+04 -0.15514224680E+04  0.24642075369E+04  0.25500000920E-02 0. -1.
       -2    1    3    3    0  502 -0.28478694288E+03  0.18932256886E+04 -0.20747543661E+03  0.19257344489E+04  0.25500000920E-02 0.  1.
</event>
<event>
 5   0  0.1214844E-06  0.3647245E+04  0.7818609E-02  0.8079755E-01
        2   -1    0    0  501    0  0.00000000000E+00  0.00000000000E+00  0.21548183463E+04  0.21548183463E+04  0.25500000920E-02 0. -1.
       -2   -1    0    0    0  501  0.00000000000E+00  0.00000000000E+00 -0.15433314692E+04  0.15433314692E+04  0.25500000920E-02 0.  1.
    10030    2    1    2    0    0  0.00000000000E+00  0.00000000000E+00  0.61148687702E+03  0.36981498155E+04  0.36472449681E+04 0.  0.
        4    1    3    3  502    0  0.98456962018E+03  0.10292113441E+04  0.14604727318E+04  0.20400087110E+04  0.12699999809E+01 0. -1.
       -4    1    3    3    0  502 -0.98456962018E+03 -0.10292113441E+04 -0.84898585481E+03  0.16581411045E+04  0.12699999809E+01 0.  1.
</event>
<event>
 5   0  0.1214844E-06  0.3811672E+04  0.7818609E-02  0.8043655E-01
        2   -1    0    0  501    0  0.00000000000E+00  0.00000000000E+00  0.10932399639E+04  0.10932399639E+04  0.25500000920E-02 0.  1.
       -2   -1    0    0    0  501  0.00000000000E+00  0.00000000000E+00 -0.33224275053E+04  0.33224275053E+04  0.25500000920E-02 0. -1.
    10030    2    1    2    0    0  0.00000000000E+00  0.00000000000E+00 -0.22291875413E+04  0.44156674692E+04  0.38116718253E+04 0.  0.
        4    1    3    3  502    0 -0.87303950092E+03  0.11544414321E+04 -0.25509321700E+04  0.29329489493E+04  0.12699999809E+01 0. -1.
       -4    1    3    3    0  502  0.87303950092E+03 -0.11544414321E+04  0.32174462866E+03  0.14827185199E+04  0.12699999809E+01 0.  1.
</event>
<event>
 5   0  0.1079205E-06  0.2704115E+04  0.7818609E-02  0.8333671E-01
        1   -1    0    0  501    0  0.00000000000E+00  0.00000000000E+00  0.18689905070E+04  0.18689905070E+04  0.50400001928E-02 0. -1.
       -1   -1    0    0    0  501  0.00000000000E+00  0.00000000000E+00 -0.97809991488E+03  0.97809991489E+03  0.50400001928E-02 0.  1.
    10030    2    1    2    0    0  0.00000000000E+00  0.00000000000E+00  0.89089059208E+03  0.28470904219E+04  0.27041149796E+04 0.  0.
        4    1    3    3  502    0  0.17691367437E+03 -0.88466915317E+03 -0.61483515800E+03  0.10917700505E+04  0.12699999809E+01 0.  1.
       -4    1    3    3    0  502 -0.17691367437E+03  0.88466915317E+03  0.15057257501E+04  0.17553203714E+04  0.12699999809E+01 0. -1.
</event>
<event>
 5   0  0.4795023E-07  0.2141514E+04  0.7818609E-02  0.8543173E-01
       -1   -1    0    0    0  501  0.00000000000E+00  0.00000000000E+00  0.11075573662E+04  0.11075573663E+04  0.50400001928E-02 0.  1.
        1   -1    0    0  501    0  0.00000000000E+00  0.00000000000E+00 -0.10351795587E+04  0.10351795587E+04  0.50400001928E-02 0. -1.
    10030    2    1    2    0    0  0.00000000000E+00  0.00000000000E+00  0.72377807517E+02  0.21427369250E+04  0.21415141799E+04 0.  0.
        3    1    3    3  502    0  0.95175220934E+03 -0.48994292681E+03  0.10789454344E+02  0.10705105147E+04  0.10100000352E+00 0. -1.
       -3    1    3    3    0  502 -0.95175220934E+03  0.48994292681E+03  0.61588353174E+02  0.10722264103E+04  0.10100000352E+00 0.  1.
</event>
<event>
 5   0  0.4795023E-07  0.3791158E+04  0.7818609E-02  0.8048055E-01
        1   -1    0    0  501    0  0.00000000000E+00  0.00000000000E+00  0.12598049872E+04  0.12598049872E+04  0.50400001928E-02 0.  1.
       -1   -1    0    0    0  501  0.00000000000E+00  0.00000000000E+00 -0.28522029163E+04  0.28522029163E+04  0.50400001928E-02 0. -1.
    10030    2    1    2    0    0  0.00000000000E+00  0.00000000000E+00 -0.15923979291E+04  0.41120079034E+04  0.37911578486E+04 0.  0.
        3    1    3    3  502    0 -0.90650104154E+03 -0.45895488803E+03  0.93949412015E+03  0.13838471518E+04  0.10100000352E+00 0.  1.
       -3    1    3    3    0  502  0.90650104154E+03  0.45895488803E+03 -0.25318920492E+04  0.27281607516E+04  0.10100000352E+00 0. -1.
</event>
<event>
 5   0  0.4795023E-07  0.3718498E+04  0.7818609E-02  0.8063875E-01
        1   -1    0    0  501    0  0.00000000000E+00  0.00000000000E+00  0.26831576663E+04  0.26831576663E+04  0.50400001928E-02 0.  1.
       -1   -1    0    0    0  501  0.00000000000E+00  0.00000000000E+00 -0.12883350011E+04  0.12883350011E+04  0.50400001928E-02 0. -1.
    10030    2    1    2    0    0  0.00000000000E+00  0.00000000000E+00  0.13948226652E+04  0.39714926675E+04  0.37184975112E+04 0.  0.
        3    1    3    3  502    0 -0.10457337689E+04 -0.21525252705E+03 -0.92829144591E+03  0.14147854200E+04  0.10100000352E+00 0. -1.
       -3    1    3    3    0  502  0.10457337689E+04  0.21525252705E+03  0.23231141111E+04  0.25567072475E+04  0.10100000352E+00 0.  1.
</event>
<event>
 5   0  0.4936505E-07  0.2032641E+04  0.7818609E-02  0.8591510E-01
        1   -1    0    0  501    0  0.00000000000E+00  0.00000000000E+00  0.10380594638E+04  0.10380594638E+04  0.50400001928E-02 0. -1.
       -1   -1    0    0    0  501  0.00000000000E+00  0.00000000000E+00 -0.99503675695E+03  0.99503675696E+03  0.50400001928E-02 0.  1.
    10030    2    1    2    0    0  0.00000000000E+00  0.00000000000E+00  0.43022706845E+02  0.20330962208E+04  0.20326409643E+04 0.  0.
        2    1    3    3  502    0 -0.21856684277E+03  0.68376429679E+03  0.74111827932E+03  0.10317758392E+04  0.25500000920E-02 0. -1.
       -2    1    3    3    0  502  0.21856684277E+03 -0.68376429679E+03 -0.69809557248E+03  0.10013203816E+04  0.25500000920E-02 0.  1.
</event>
<event>
 5   0  0.1337854E-06  0.3768855E+04  0.7818609E-02  0.8052872E-01
        2   -1    0    0  501    0  0.00000000000E+00  0.00000000000E+00  0.17715269704E+04  0.17715269704E+04  0.25500000920E-02 0. -1.
       -2   -1    0    0    0  501  0.00000000000E+00  0.00000000000E+00 -0.20045227706E+04  0.20045227706E+04  0.25500000920E-02 0.  1.
    10030    2    1    2    0    0  0.00000000000E+00  0.00000000000E+00 -0.23299580022E+03  0.37760497409E+04  0.37688545479E+04 0.  0.
        3    1    3    3  502    0 -0.10162558297E+03 -0.10079563030E+04 -0.17084815119E+04  0.19862559641E+04  0.10100000352E+00 0.  1.
       -3    1    3    3    0  502  0.10162558297E+03  0.10079563030E+04  0.14754857117E+04  0.17897937769E+04  0.10100000352E+00 0. -1.
</event>
<event>
 5   0  0.5284458E-07  0.3728674E+04  0.7818609E-02  0.8061637E-01
       -1   -1    0    0    0  501  0.00000000000E+00  0.00000000000E+00  0.12002742849E+04  0.12002742849E+04  0.50400001928E-02 0.  1.
        1   -1    0    0  501    0  0.00000000000E+00  0.00000000000E+00 -0.28957981203E+04  0.28957981203E+04  0.50400001928E-02 0. -1.
    10030    2    1    2    0    0  0.00000000000E+00  0.00000000000E+00 -0.16955238354E+04  0.40960724052E+04  0.37286737686E+04 0.  0.
        5    1    3    3  502    0 -0.58476001871E+03  0.10344064312E+04 -0.24259032066E+04  0.27012903217E+04  0.46999998093E+01 0. -1.
       -5    1    3    3    0  502  0.58476001871E+03 -0.10344064312E+04  0.73037937125E+03  0.13947820835E+04  0.46999998093E+01 0.  1.
</event>
<event>
 5   0  0.4255250E-07  0.3572019E+04  0.7818609E-02  0.8096931E-01
        1   -1    0    0  501    0  0.00000000000E+00  0.00000000000E+00  0.25117242368E+04  0.25117242368E+04  0.50400001928E-02 0.  1.
       -1   -1    0    0    0  501  0.00000000000E+00  0.00000000000E+00 -0.12699760594E+04  0.12699760594E+04  0.50400001928E-02 0. -1.
    10030    2    1    2    0    0  0.00000000000E+00  0.00000000000E+00  0.12417481774E+04  0.37817002962E+04  0.35720188401E+04 0.  0.
        2    1    3    3  502    0 -0.17585185353E+04 -0.28062524968E+03  0.47613110445E+03  0.18433227602E+04  0.25500000920E-02 0. -1.
       -2    1    3    3    0  502  0.17585185353E+04  0.28062524968E+03  0.76561707294E+03  0.19383775360E+04  0.25500000920E-02 0.  1.
</event>
<event>
 5   0  0.1184616E-06  0.1973996E+04  0.7818609E-02  0.8618876E-01
       -2   -1    0    0    0  501  0.00000000000E+00  0.00000000000E+00  0.47954005435E+03  0.47954005436E+03  0.25500000920E-02 0. -1.
        2   -1    0    0  501    0  0.00000000000E+00  0.00000000000E+00 -0.20314578957E+04  0.20314578957E+04  0.25500000920E-02 0.  1.
    10030    2    1    2    0    0  0.00000000000E+00  0.00000000000E+00 -0.15519178414E+04  0.25109979501E+04  0.19739963827E+04 0.  0.
        5    1    3    3  502    0  0.46533613991E+03  0.28597024778E+03 -0.18216843215E+04  0.19018077093E+04  0.46999998093E+01 0.  1.
       -5    1    3    3    0  502 -0.46533613991E+03 -0.28597024778E+03  0.26976648014E+03  0.60919024084E+03  0.46999998093E+01 0. -1.
</event>
<event>
 5   0  0.1337854E-06  0.3710092E+04  0.7818609E-02  0.8065729E-01
        2   -1    0    0  501    0  0.00000000000E+00  0.00000000000E+00  0.28823546885E+04  0.28823546885E+04  0.25500000920E-02 0. -1.
       -2   -1    0    0    0  501  0.00000000000E+00  0.00000000000E+00 -0.11938834026E+04  0.11938834026E+04  0.25500000920E-02 0.  1.
    10030    2    1    2    0    0  0.00000000000E+00  0.00000000000E+00  0.16884712859E+04  0.40762380911E+04  0.37100918711E+04 0.  0.
        3    1    3    3  502    0  0.93362305614E+03 -0.11146824386E+04 -0.42141740915E+03  0.15138565298E+04  0.10100000352E+00 0.  1.
       -3    1    3    3    0  502 -0.93362305614E+03  0.11146824386E+04  0.21098886950E+04  0.25623815613E+04  0.10100000352E+00 0. -1.
</event>
<event>
 5   0  0.4795023E-07  0.1871144E+04  0.7818609E-02  0.8669355E-01
        1   -1    0    0  501    0  0.00000000000E+00  0.00000000000E+00  0.90442394679E+03  0.90442394681E+03  0.50400001928E-02 0.  1.
       -1   -1    0    0    0  501  0.00000000000E+00  0.00000000000E+00 -0.96779290838E+03  0.96779290840E+03  0.50400001928E-02 0. -1.
    10030    2    1    2    0    0  0.00000000000E+00  0.00000000000E+00 -0.63368961590E+02  0.18722168552E+04  0.18711441226E+04 0.  0.
        3    1    3    3  502    0  0.75172554683E+03  0.25442799262E+03  0.46404902502E+03  0.91932932565E+03  0.10100000352E+00 0.  1.
       -3    1    3    3    0  502 -0.75172554683E+03 -0.25442799262E+03 -0.52741798661E+03  0.95288752955E+03  0.10100000352E+00 0. -1.
</event>
<event>
 5   0  0.1214844E-06  0.2702240E+04  0.7818609E-02  0.8334279E-01
       -2   -1    0    0    0  501  0.00000000000E+00  0.00000000000E+00  0.99408725071E+03  0.99408725071E+03  0.25500000920E-02 0.  1.
        2   -1    0    0  501    0  0.00000000000E+00  0.00000000000E+00 -0.18363829844E+04  0.18363829844E+04  0.25500000920E-02 0. -1.
    10030    2    1    2    0    0  0.00000000000E+00  0.00000000000E+00 -0.84229573366E+03  0.28304702351E+04  0.27022397467E+04 0.  0.
        4    1    3    3  502    0 -0.11914286008E+04  0.63164840813E+03 -0.33325237628E+03  0.13890790408E+04  0.12699999809E+01 0.  1.
       -4    1    3    3    0  502  0.11914286008E+04 -0.63164840813E+03 -0.50904335739E+03  0.14413911943E+04  0.12699999809E+01 0. -1.
</event>
<event>
 5   0  0.1372748E-06  0.3787822E+04  0.7818609E-02  0.8048773E-01
       -2   -1    0    0    0  501  0.00000000000E+00  0.00000000000E+00  0.17736711622E+04  0.17736711622E+04  0.25500000920E-02 0. -1.
        2   -1    0    0  501    0  0.00000000000E+00  0.00000000000E+00 -0.20223021012E+04  0.20223021012E+04  0.25500000920E-02 0.  1.
    10030    2    1    2    0    0  0.00000000000E+00  0.00000000000E+00 -0.24863093896E+03  0.37959732634E+04  0.37878220223E+04 0.  0.
        1    1    3    3  502    0 -0.14928117013E+04 -0.38431244810E+03 -0.12270087707E+04  0.19702115005E+04  0.50400001928E-02 0.  1.
       -1    1    3    3    0  502  0.14928117013E+04  0.38431244810E+03  0.97837783178E+03  0.18257617629E+04  0.50400001928E-02 0. -1.
</event>
<event>
 5   0  0.1337854E-06  0.2445008E+04  0.7818609E-02  0.8422843E-01
        2   -1    0    0  501    0  0.00000000000E+00  0.00000000000E+00  0.18004090441E+04  0.18004090441E+04  0.25500000920E-02 0.  1.
       -2   -1    0    0    0  501  0.00000000000E+00  0.00000000000E+00 -0.83009802160E+03  0.83009802160E+03  0.25500000920E-02 0. -1.
    10030    2    1    2    0    0  0.00000000000E+00  0.00000000000E+00  0.97031102248E+03  0.26305070657E+04  0.24450079636E+04 0.  0.
        3    1    3    3  502    0 -0.10268938438E+04 -0.37575239625E+03 -0.10295710744E+03  0.10983173521E+04  0.10100000352E+00 0. -1.
       -3    1    3    3    0  502  0.10268938438E+04  0.37575239625E+03  0.10732681299E+04  0.15321897136E+04  0.10100000352E+00 0.  1.
</event>
<event>
 5   0  0.4255250E-07  0.3696967E+04  0.7818609E-02  0.8068634E-01
        1   -1    0    0  501    0  0.00000000000E+00  0.00000000000E+00  0.25318017229E+04  0.25318017229E+04  0.50400001928E-02 0. -1.
       -1   -1    0    0    0  501  0.00000000000E+00  0.00000000000E+00 -0.13495885313E+04  0.13495885313E+04  0.50400001928E-02 0.  1.
    10030    2    1    2    0    0  0.00000000000E+00  0.00000000000E+00  0.11822131916E+04  0.38813902541E+04  0.36969666315E+04 0.  0.
        2    1    3    3  502    0 -0.13221732482E+04  0.11523310182E+04  0.12040828073E+04  0.21273984771E+04  0.25500000920E-02 0. -1.
       -2    1    3    3    0  502  0.13221732482E+04 -0.11523310182E+04 -0.21869615684E+02  0.17539917770E+04  0.25500000920E-02 0.  1.
</event>
<event>
 5   0  0.4795023E-07  0.2804259E+04  0.7818609E-02  0.8301947E-01
        1   -1    0    0  501    0  0.00000000000E+00  0.00000000000E+00  0.21690748285E+04  0.21690748285E+04  0.50400001928E-02 0.  1.
       -1   -1    0    0    0  501  0.00000000000E+00  0.00000000000E+00 -0.90636227847E+03  0.90636227848E+03  0.50400001928E-02 0. -1.
    10030    2    1    2    0    0  0.00000000000E+00  0.00000000000E+00  0.12627125501E+04  0.30754371070E+04  0.28042593345E+04 0.  0.
        3    1    3    3  502    0 -0.17819640994E+03  0.11168594791E+04  0.15402560652E+04  0.19108945060E+04  0.10100000352E+00 0.  1.
       -3    1    3    3    0  502  0.17819640994E+03 -0.11168594791E+04 -0.27754351513E+03  0.11645426010E+04  0.10100000352E+00 0. -1.
</event>
<event>
 5   0  0.1341932E-06  0.3877149E+04  0.7818609E-02  0.8029799E-01
       -2   -1    0    0    0  501  0.00000000000E+00  0.00000000000E+00  0.19208569550E+04  0.19208569550E+04  0.25500000920E-02 0. -1.
        2   -1    0    0  501    0  0.00000000000E+00  0.00000000000E+00 -0.19564550259E+04  0.19564550259E+04  0.25500000920E-02 0.  1.
    10030    2    1    2    0    0  0.00000000000E+00  0.00000000000E+00 -0.35598070902E+02  0.38773119808E+04  0.38771485623E+04 0.  0.
        2    1    3    3  502    0  0.45195381453E+03  0.10846590733E+04  0.15241228485E+04  0.19244994189E+04  0.25500000920E-02 0. -1.
       -2    1    3    3    0  502 -0.45195381453E+03 -0.10846590733E+04 -0.15597209194E+04  0.19528125620E+04  0.25500000920E-02 0.  1.
</event>
<event>
 5   0  0.1308042E-06  0.1953791E+04  0.7818609E-02  0.8628535E-01
       -2   -1    0    0    0  501  0.00000000000E+00  0.00000000000E+00  0.53878540198E+03  0.53878540198E+03  0.25500000920E-02 0. -1.
        2   -1    0    0  501    0  0.00000000000E+00  0.00000000000E+00 -0.17712529875E+04  0.17712529875E+04  0.25500000920E-02 0.  1.
    10030    2    1    2    0    0  0.00000000000E+00  0.00000000000E+00 -0.12324675855E+04  0.23100383894E+04  0.19537914452E+04 0.  0.
        4    1    3    3  502    0  0.69570239022E+03  0.65763219975E+03 -0.38623455674E+03  0.10323084188E+04  0.12699999809E+01 0. -1.
       -4    1    3    3    0  502 -0.69570239022E+03 -0.65763219975E+03 -0.84623302875E+03  0.12777299706E+04  0.12699999809E+01 0.  1.
</event>
<event>
 5   0  0.6021225E-07  0.2146075E+04  0.7818609E-02  0.8541214E-01
       -1   -1    0    0    0  501  0.00000000000E+00  0.00000000000E+00  0.10322022227E+04  0.10322022227E+04  0.50400001928E-02 0. -1.
        1   -1    0    0  501    0  0.00000000000E+00  0.00000000000E+00 -0.11154883118E+04  0.11154883118E+04  0.50400001928E-02 0.  1.
    10030    2    1    2    0    0  0.00000000000E+00  0.00000000000E+00 -0.83286089098E+02  0.21476905345E+04  0.21460750358E+04 0.  0.
        2    1    3    3  502    0  0.66251399344E+03 -0.40873913132E+03 -0.78072254026E+03  0.11025063056E+04  0.25500000920E-02 0.  1.
       -2    1    3    3    0  502 -0.66251399344E+03  0.40873913132E+03  0.69743645117E+03  0.10451842289E+04  0.25500000920E-02 0. -1.
</event>
<event>
 5   0  0.4255250E-07  0.3643266E+04  0.7818609E-02  0.8080652E-01
       -1   -1    0    0    0  501  0.00000000000E+00  0.00000000000E+00  0.13262781951E+04  0.13262781951E+04  0.50400001928E-02 0. -1.
        1   -1    0    0  501    0  0.00000000000E+00  0.00000000000E+00 -0.25019985363E+04  0.25019985363E+04  0.50400001928E-02 0.  1.
    10030    2    1    2    0    0  0.00000000000E+00  0.00000000000E+00 -0.11757203412E+04  0.38282767314E+04  0.36432656246E+04 0.  0.
        2    1    3    3  502    0 -0.85952705121E+03 -0.26761151263E+03 -0.22519292682E+04  0.24251985696E+04  0.25500000920E-02 0.  1.
       -2    1    3    3    0  502  0.85952705121E+03  0.26761151263E+03  0.10762089270E+04  0.14030781617E+04  0.25500000920E-02 0. -1.
</event>
<event>
 5   0  0.1341932E-06  0.4077068E+04  0.7818609E-02  0.7989177E-01
       -2   -1    0    0    0  501  0.00000000000E+00  0.00000000000E+00  0.16800923127E+04  0.16800923127E+04  0.25500000920E-02 0. -1.
        2   -1    0    0  501    0  0.00000000000E+00  0.00000000000E+00 -0.24734485052E+04  0.24734485052E+04  0.25500000920E-02 0.  1.
    10030    2    1    2    0    0  0.00000000000E+00  0.00000000000E+00 -0.79335619243E+03  0.41535408179E+04  0.40770684662E+04 0.  0.
        2    1    3    3  502    0  0.13503786928E+04  0.83154864552E+03  0.90821604251E+03  0.18275262361E+04  0.25500000920E-02 0. -1.
       -2    1    3    3    0  502 -0.13503786928E+04 -0.83154864552E+03 -0.17015722349E+04  0.23260145818E+04  0.25500000920E-02 0.  1.
</event>
<event>
 5   0  0.1337854E-06  0.2060149E+04  0.7818609E-02  0.8579004E-01
        2   -1    0    0  501    0  0.00000000000E+00  0.00000000000E+00  0.12558177162E+04  0.12558177162E+04  0.25500000920E-02 0.  1.
       -2   -1    0    0    0  501  0.00000000000E+00  0.00000000000E+00 -0.84491052572E+03  0.84491052572E+03  0.25500000920E-02 0. -1.
    10030    2    1    2    0    0  0.00000000000E+00  0.00000000000E+00  0.41090719045E+03  0.21007282419E+04  0.20601491274E+04 0.  0.
        3    1    3    3  502    0  0.27614739396E+03 -0.82798941047E+03 -0.35234009852E+03  0.94125841418E+03  0.10100000352E+00 0. -1.
       -3    1    3    3    0  502 -0.27614739396E+03  0.82798941047E+03  0.76324728897E+03  0.11594698277E+04  0.10100000352E+00 0.  1.
</event>
<event>
 5   0  0.1341932E-06  0.3652045E+04  0.7818609E-02  0.8078673E-01
        2   -1    0    0  501    0  0.00000000000E+00  0.00000000000E+00  0.17085004005E+04  0.17085004005E+04  0.25500000920E-02 0. -1.
       -2   -1    0    0    0  501  0.00000000000E+00  0.00000000000E+00 -0.19516281899E+04  0.19516281899E+04  0.25500000920E-02 0.  1.
    10030    2    1    2    0    0  0.00000000000E+00  0.00000000000E+00 -0.24312778939E+03  0.36601285904E+04  0.36520446569E+04 0.  0.
        2    1    3    3  502    0 -0.45229954260E+03  0.42533285463E+03  0.15994660183E+04  0.17157431210E+04  0.25500000920E-02 0. -1.
       -2    1    3    3    0  502  0.45229954260E+03 -0.42533285463E+03 -0.18425938077E+04  0.19443854694E+04  0.25500000920E-02 0.  1.
</event>
<event>
 5   0  0.5284458E-07  0.3733997E+04  0.7818609E-02  0.8060469E-01
       -1   -1    0    0    0  501  0.00000000000E+00  0.00000000000E+00  0.18609561241E+04  0.18609561241E+04  0.50400001928E-02 0.  1.
        1   -1    0    0  501    0  0.00000000000E+00  0.00000000000E+00 -0.18730605471E+04  0.18730605471E+04  0.50400001928E-02 0. -1.
    10030    2    1    2    0    0  0.00000000000E+00  0.00000000000E+00 -0.12104422954E+02  0.37340166712E+04  0.37339970519E+04 0.  0.
        5    1    3    3  502    0 -0.16341122456E+04  0.84201569761E+03 -0.33216454982E+03  0.18680654818E+04  0.46999998093E+01 0. -1.
       -5    1    3    3    0  502  0.16341122456E+04 -0.84201569761E+03  0.32006012687E+03  0.18659511894E+04  0.46999998093E+01 0.  1.
</event>
<event>
 5   0  0.1184616E-06  0.2407711E+04  0.7818609E-02  0.8436622E-01
       -2   -1    0    0    0  501  0.00000000000E+00  0.00000000000E+00  0.23190121459E+04  0.23190121459E+04  0.25500000920E-02 0.  1.
        2   -1    0    0  501    0  0.00000000000E+00  0.00000000000E+00 -0.62495083718E+03  0.62495083719E+03  0.25500000920E-02 0. -1.
    10030    2    1    2    0    0  0.00000000000E+00  0.00000000000E+00  0.16940613088E+04  0.29439629831E+04  0.24077114296E+04 0.  0.
        5    1    3    3  502    0 -0.16075655111E+03 -0.67833220026E+02  0.23034581847E+04  0.23100618419E+04  0.46999998093E+01 0.  1.
       -5    1    3    3    0  502  0.16075655111E+03  0.67833220026E+02 -0.60939687596E+03  0.63390114126E+03  0.46999998093E+01 0. -1.
</event>
<event>
 5   0  0.4255250E-07  0.3398159E+04  0.7818609E-02  0.8138358E-01
       -1   -1    0    0    0  501  0.00000000000E+00  0.00000000000E+00  0.12881471363E+04  0.12881471363E+04  0.50400001928E-02 0. -1.
        1   -1    0    0  501    0  0.00000000000E+00  0.00000000000E+00 -0.22411033992E+04  0.22411033992E+04  0.50400001928E-02 0.  1.
    10030    2    1    2    0    0  0.00000000000E+00  0.00000000000E+00 -0.95295626291E+03  0.35292505355E+04  0.33981588696E+04 0.  0.
        2    1    3    3  502    0 -0.14750865629E+04 -0.37420107497E+03  0.30829335727E+03  0.15527239313E+04  0.25500000920E-02 0. -1.
       -2    1    3    3    0  502  0.14750865629E+04  0.37420107497E+03 -0.12612496202E+04  0.19765266042E+04  0.25500000920E-02 0.  1.
</event>
<event>
 5   0  0.1184616E-06  0.3793205E+04  0.7818609E-02  0.8047615E-01
        2   -1    0    0  501    0  0.00000000000E+00  0.00000000000E+00  0.15993246217E+04  0.15993246217E+04  0.25500000920E-02 0. -1.
       -2   -1    0    0    0  501  0.00000000000E+00  0.00000000000E+00 -0.22491375633E+04  0.22491375633E+04  0.25500000920E-02 0.  1.
    10030    2    1    2    0    0  0.00000000000E+00  0.00000000000E+00 -0.64981294160E+03  0.38484621849E+04  0.37932050208E+04 0.  0.
        5    1    3    3  502    0  0.11605295825E+04  0.77010107998E+03  0.98116708478E+03  0.17037005381E+04  0.46999998093E+01 0. -1.
       -5    1    3    3    0  502 -0.11605295825E+04 -0.77010107998E+03 -0.16309800264E+04  0.21447616468E+04  0.46999998093E+01 0.  1.
</event>
<event>
 5   0  0.4795023E-07  0.3838722E+04  0.7818609E-02  0.8037896E-01
       -1   -1    0    0    0  501  0.00000000000E+00  0.00000000000E+00  0.22365681101E+04  0.22365681101E+04  0.50400001928E-02 0.  1.
        1   -1    0    0  501    0  0.00000000000E+00  0.00000000000E+00 -0.16471427048E+04  0.16471427048E+04  0.50400001928E-02 0. -1.
    10030    2    1    2    0    0  0.00000000000E+00  0.00000000000E+00  0.58942540528E+03  0.38837108149E+04  0.38387221032E+04 0.  0.
        3    1    3    3  502    0 -0.86949334951E+03  0.86169393384E+03  0.17903519208E+04  0.21688464978E+04  0.10100000352E+00 0.  1.
       -3    1    3    3    0  502  0.86949334951E+03 -0.86169393384E+03 -0.12009265155E+04  0.17148643172E+04  0.10100000352E+00 0. -1.
</event>
<event>
 5   0  0.1337854E-06  0.3830253E+04  0.7818609E-02  0.8039694E-01
       -2   -1    0    0    0  501  0.00000000000E+00  0.00000000000E+00  0.18689761244E+04  0.18689761244E+04  0.25500000920E-02 0.  1.
        2   -1    0    0  501    0  0.00000000000E+00  0.00000000000E+00 -0.19624163771E+04  0.19624163771E+04  0.25500000920E-02 0. -1.
    10030    2    1    2    0    0  0.00000000000E+00  0.00000000000E+00 -0.93440252651E+02  0.38313925015E+04  0.38302529185E+04 0.  0.
        3    1    3    3  502    0 -0.12360986553E+04 -0.13779720092E+03  0.14100034352E+04  0.18801695806E+04  0.10100000352E+00 0.  1.
       -3    1    3    3    0  502  0.12360986553E+04  0.13779720092E+03 -0.15034436879E+04  0.19512229209E+04  0.10100000352E+00 0. -1.
</event>
<event>
 5   0  0.1372748E-06  0.3900277E+04  0.7818609E-02  0.8024972E-01
       -2   -1    0    0    0  501  0.00000000000E+00  0.00000000000E+00  0.14399038268E+04  0.14399038268E+04  0.25500000920E-02 0. -1.
        2   -1    0    0  501    0  0.00000000000E+00  0.00000000000E+00 -0.26411762178E+04  0.26411762178E+04  0.25500000920E-02 0.  1.
    10030    2    1    2    0    0  0.00000000000E+00  0.00000000000E+00 -0.12012723910E+04  0.40810800446E+04  0.39002767816E+04 0.  0.
        1    1    3    3  502    0  0.14283460780E+04 -0.10792560015E+04 -0.14098383690E+04  0.22787299669E+04  0.50400001928E-02 0.  1.
       -1    1    3    3    0  502 -0.14283460780E+04  0.10792560015E+04  0.20856597805E+03  0.18023500777E+04  0.50400001928E-02 0. -1.
</event>
<event>
 5   0  0.1337854E-06  0.3866319E+04  0.7818609E-02  0.8032071E-01
        2   -1    0    0  501    0  0.00000000000E+00  0.00000000000E+00  0.13679953380E+04  0.13679953380E+04  0.25500000920E-02 0.  1.
       -2   -1    0    0    0  501  0.00000000000E+00  0.00000000000E+00 -0.27318116780E+04  0.27318116780E+04  0.25500000920E-02 0. -1.
    10030    2    1    2    0    0  0.00000000000E+00  0.00000000000E+00 -0.13638163399E+04  0.40998070160E+04  0.38663189935E+04 0.  0.
        3    1    3    3  502    0 -0.82985847324E+03  0.77801089326E+02  0.11676713072E+04  0.14346338860E+04  0.10100000352E+00 0.  1.
       -3    1    3    3    0  502  0.82985847324E+03 -0.77801089326E+02 -0.25314876471E+04  0.26651731300E+04  0.10100000352E+00 0. -1.
</event>
<event>
 5   0  0.4255250E-07  0.2073259E+04  0.7818609E-02  0.8573115E-01
       -1   -1    0    0    0  501  0.00000000000E+00  0.00000000000E+00  0.10310996740E+04  0.10310996740E+04  0.50400001928E-02 0.  1.
        1   -1    0    0  501    0  0.00000000000E+00  0.00000000000E+00 -0.10421889162E+04  0.10421889162E+04  0.50400001928E-02 0. -1.
    10030    2    1    2    0    0  0.00000000000E+00  0.00000000000E+00 -0.11089242254E+02  0.20732885902E+04  0.20732589339E+04 0.  0.
        2    1    3    3  502    0 -0.49668296699E+03 -0.87882618712E+03  0.23019422734E+03  0.10353834165E+04  0.25500000920E-02 0.  1.
       -2    1    3    3    0  502  0.49668296699E+03  0.87882618712E+03 -0.24128346960E+03  0.10379051737E+04  0.25500000920E-02 0. -1.
</event>
<event>
 5   0  0.1214844E-06  0.3614173E+04  0.7818609E-02  0.8087253E-01
       -2   -1    0    0    0  501  0.00000000000E+00  0.00000000000E+00  0.14203492878E+04  0.14203492878E+04  0.25500000920E-02 0. -1.
        2   -1    0    0  501    0  0.00000000000E+00  0.00000000000E+00 -0.22991259333E+04  0.22991259333E+04  0.25500000920E-02 0.  1.
    10030    2    1    2    0    0  0.00000000000E+00  0.00000000000E+00 -0.87877664553E+03  0.37194752211E+04  0.36141731458E+04 0.  0.
        4    1    3    3  502    0 -0.17312841395E+04  0.28068294779E+03  0.85312625009E+01  0.17539105120E+04  0.12699999809E+01 0. -1.
       -4    1    3    3    0  502  0.17312841395E+04 -0.28068294779E+03 -0.88730790803E+03  0.19655647091E+04  0.12699999809E+01 0.  1.
</event>
<event>
 5   0  0.4255250E-07  0.2634226E+04  0.7818609E-02  0.8356668E-01
        4   -1    0    0  501    0  0.00000000000E+00  0.00000000000E+00  0.11064251767E+04  0.11064259056E+04  0.12699999809E+01 0. -1.
       -4   -1    0    0    0  501  0.00000000000E+00  0.00000000000E+00 -0.15679189175E+04  0.15679194319E+04  0.12699999809E+01 0.  1.
    10030    2    1    2    0    0  0.00000000000E+00  0.00000000000E+00 -0.46149374084E+03  0.26743453374E+04  0.26342259795E+04 0.  0.
        3    1    3    3  502    0  0.60956533370E+03  0.11525713703E+04 -0.41369162003E+02  0.13044930346E+04  0.10100000352E+00 0. -1.
       -3    1    3    3    0  502 -0.60956533370E+03 -0.11525713703E+04 -0.42012457884E+03  0.13698523028E+04  0.10100000352E+00 0.  1.
</event>
<event>
 5   0  0.4255250E-07  0.2027979E+04  0.7818609E-02  0.8593650E-01
       -1   -1    0    0    0  501  0.00000000000E+00  0.00000000000E+00  0.46593998328E+03  0.46593998331E+03  0.50400001928E-02 0.  1.
        1   -1    0    0  501    0  0.00000000000E+00  0.00000000000E+00 -0.22066687437E+04  0.22066687437E+04  0.50400001928E-02 0. -1.
    10030    2    1    2    0    0  0.00000000000E+00  0.00000000000E+00 -0.17407287604E+04  0.26726087270E+04  0.20279794847E+04 0.  0.
        2    1    3    3  502    0  0.92819942595E+03 -0.18582079086E+03 -0.13493357107E+04  0.16482689103E+04  0.25500000920E-02 0. -1.
       -2    1    3    3    0  502 -0.92819942595E+03  0.18582079086E+03 -0.39139304973E+03  0.10243398167E+04  0.25500000920E-02 0.  1.
</event>
<event>
 5   0  0.5284458E-07  0.3465736E+04  0.7818609E-02  0.8121958E-01
        1   -1    0    0  501    0  0.00000000000E+00  0.00000000000E+00  0.16084643727E+04  0.16084643727E+04  0.50400001928E-02 0. -1.
       -1   -1    0    0    0  501  0.00000000000E+00  0.00000000000E+00 -0.18668933771E+04  0.18668933771E+04  0.50400001928E-02 0.  1.
    10030    2    1    2    0    0  0.00000000000E+00  0.00000000000E+00 -0.25842900435E+03  0.34753577498E+04  0.34657359881E+04 0.  0.
        5    1    3    3  502    0 -0.11407833787E+04 -0.38364005515E+03 -0.13793684568E+04  0.18306408273E+04  0.46999998093E+01 0.  1.
       -5    1    3    3    0  502  0.11407833787E+04  0.38364005515E+03  0.11209394524E+04  0.16447169225E+04  0.46999998093E+01 0. -1.
</event>
<event>
 5   0  0.1184616E-06  0.3607104E+04  0.7818609E-02  0.8088866E-01
       -2   -1    0    0    0  501  0.00000000000E+00  0.00000000000E+00  0.17883444729E+04  0.17883444729E+04  0.25500000920E-02 0. -1.
        2   -1    0    0  501    0  0.00000000000E+00  0.00000000000E+00 -0.18188892186E+04  0.18188892186E+04  0.25500000920E-02 0.  1.
    10030    2    1    2    0    0  0.00000000000E+00  0.00000000000E+00 -0.30544745700E+02  0.36072336914E+04  0.36071043682E+04 0.  0.
        5    1    3    3  502    0 -0.67343520339E+03 -0.21450555268E+03 -0.16746241168E+04  0.18176676340E+04  0.46999998093E+01 0.  1.
       -5    1    3    3    0  502  0.67343520339E+03  0.21450555268E+03  0.16440793711E+04  0.17895660574E+04  0.46999998093E+01 0. -1.
</event>
<event>
 5   0  0.4795023E-07  0.1922345E+04  0.7818609E-02  0.8643813E-01
       -1   -1    0    0    0  501  0.00000000000E+00  0.00000000000E+00  0.56794445739E+03  0.56794445742E+03  0.50400001928E-02 0. -1.
        1   -1    0    0  501    0  0.00000000000E+00  0.00000000000E+00 -0.16266609197E+04  0.16266609197E+04  0.50400001928E-02 0.  1.
    10030    2    1    2    0    0  0.00000000000E+00  0.00000000000E+00 -0.10587164623E+04  0.21946053771E+04  0.19223454980E+04 0.  0.
        3    1    3    3  502    0  0.62811749365E+03 -0.66088499661E+03 -0.87666961704E+03  0.12648518460E+04  0.10100000352E+00 0.  1.
       -3    1    3    3    0  502 -0.62811749365E+03  0.66088499661E+03 -0.18204684522E+03  0.92975353112E+03  0.10100000352E+00 0. -1.
</event>
<event>
 5   0  0.8030324E-07  0.1942139E+04  0.7818609E-02  0.8634161E-01
       -1   -1    0    0    0  501  0.00000000000E+00  0.00000000000E+00  0.54386480734E+03  0.54386480737E+03  0.50400001928E-02 0. -1.
        1   -1    0    0  501    0  0.00000000000E+00  0.00000000000E+00 -0.17338418800E+04  0.17338418800E+04  0.50400001928E-02 0.  1.
    10030    2    1    2    0    0  0.00000000000E+00  0.00000000000E+00 -0.11899770726E+04  0.22777066874E+04  0.19421385945E+04 0.  0.
        1    1    3    3  502    0 -0.56089099557E+03 -0.63293434733E+03 -0.11547033178E+04  0.14312736807E+04  0.50400001928E-02 0. -1.
       -1    1    3    3    0  502  0.56089099557E+03  0.63293434733E+03 -0.35273754849E+02  0.84643300665E+03  0.50400001928E-02 0.  1.
</event>
<event>
 5   0  0.4255250E-07  0.2689165E+04  0.7818609E-02  0.8338529E-01
       -1   -1    0    0    0  501  0.00000000000E+00  0.00000000000E+00  0.99113705674E+03  0.99113705676E+03  0.50400001928E-02 0.  1.
        1   -1    0    0  501    0  0.00000000000E+00  0.00000000000E+00 -0.18240685995E+04  0.18240685995E+04  0.50400001928E-02 0. -1.
    10030    2    1    2    0    0  0.00000000000E+00  0.00000000000E+00 -0.83293154271E+03  0.28152056562E+04  0.26891649135E+04 0.  0.
        2    1    3    3  502    0 -0.35730847664E+03  0.40546701590E+03  0.87243004851E+03  0.10262587578E+04  0.25500000920E-02 0.  1.
       -2    1    3    3    0  502  0.35730847664E+03 -0.40546701590E+03 -0.17053615912E+04  0.17889468984E+04  0.25500000920E-02 0. -1.
</event>
<event>
 5   0  0.1341932E-06  0.1874901E+04  0.7818609E-02  0.8667452E-01
        2   -1    0    0  501    0  0.00000000000E+00  0.00000000000E+00  0.65136788751E+03  0.65136788752E+03  0.25500000920E-02 0. -1.
       -2   -1    0    0    0  501  0.00000000000E+00  0.00000000000E+00 -0.13491814762E+04  0.13491814762E+04  0.25500000920E-02 0.  1.
    10030    2    1    2    0    0  0.00000000000E+00  0.00000000000E+00 -0.69781358869E+03  0.20005493637E+04  0.18749010513E+04 0.  0.
        2    1    3    3  502    0  0.74963991269E+03  0.52418603377E+03 -0.13001895173E+03  0.92392419847E+03  0.25500000920E-02 0. -1.
       -2    1    3    3    0  502 -0.74963991269E+03 -0.52418603377E+03 -0.56779463696E+03  0.10766251653E+04  0.25500000920E-02 0.  1.
</event>
<event>
 5   0  0.1337854E-06  0.2598893E+04  0.7818609E-02  0.8368577E-01
       -2   -1    0    0    0  501  0.00000000000E+00  0.00000000000E+00  0.11401592881E+04  0.11401592881E+04  0.25500000920E-02 0.  1.
        2   -1    0    0  501    0  0.00000000000E+00  0.00000000000E+00 -0.14809874295E+04  0.14809874295E+04  0.25500000920E-02 0. -1.
    10030    2    1    2    0    0  0.00000000000E+00  0.00000000000E+00 -0.34082814139E+03  0.26211467175E+04  0.25988932823E+04 0.  0.
        3    1    3    3  502    0  0.55313746707E+03 -0.31268878830E+03  0.97279347193E+03  0.11619218928E+04  0.10100000352E+00 0.  1.
       -3    1    3    3    0  502 -0.55313746707E+03  0.31268878830E+03 -0.13136216133E+04  0.14592248247E+04  0.10100000352E+00 0. -1.
</event>
<event>
 5   0  0.1214844E-06  0.3808452E+04  0.7818609E-02  0.8044344E-01
       -2   -1    0    0    0  501  0.00000000000E+00  0.00000000000E+00  0.12777829914E+04  0.12777829914E+04  0.25500000920E-02 0. -1.
        2   -1    0    0  501    0  0.00000000000E+00  0.00000000000E+00 -0.28377872466E+04  0.28377872466E+04  0.25500000920E-02 0.  1.
    10030    2    1    2    0    0  0.00000000000E+00  0.00000000000E+00 -0.15600042553E+04  0.41155702380E+04  0.38084517993E+04 0.  0.
        4    1    3    3  502    0 -0.80775893912E+03  0.17065904638E+04 -0.10472269292E+04  0.21590765084E+04  0.12699999809E+01 0.  1.
       -4    1    3    3    0  502  0.80775893912E+03 -0.17065904638E+04 -0.51277732603E+03  0.19564937296E+04  0.12699999809E+01 0. -1.
</event>
<event>
 5   0  0.1372748E-06  0.4035671E+04  0.7818609E-02  0.7997389E-01
       -2   -1    0    0    0  501  0.00000000000E+00  0.00000000000E+00  0.18503962875E+04  0.18503962875E+04  0.25500000920E-02 0.  1.
        2   -1    0    0  501    0  0.00000000000E+00  0.00000000000E+00 -0.22004260564E+04  0.22004260564E+04  0.25500000920E-02 0. -1.
    10030    2    1    2    0    0  0.00000000000E+00  0.00000000000E+00 -0.35002976887E+03  0.40508223438E+04  0.40356710498E+04 0.  0.
        1    1    3    3  502    0 -0.10278426755E+04 -0.95683457842E+03  0.12794480979E+04  0.18997316683E+04  0.50400001928E-02 0.  1.
       -1    1    3    3    0  502  0.10278426755E+04  0.95683457842E+03 -0.16294778668E+04  0.21510906756E+04  0.50400001928E-02 0. -1.
</event>
<event>
 5   0  0.1184616E-06  0.3893226E+04  0.7818609E-02  0.8026439E-01
        2   -1    0    0  501    0  0.00000000000E+00  0.00000000000E+00  0.16040107778E+04  0.16040107778E+04  0.25500000920E-02 0. -1.
       -2   -1    0    0    0  501  0.00000000000E+00  0.00000000000E+00 -0.23623924770E+04  0.23623924770E+04  0.25500000920E-02 0.  1.
    10030    2    1    2    0    0  0.00000000000E+00  0.00000000000E+00 -0.75838169914E+03  0.39664032548E+04  0.38932264227E+04 0.  0.
        5    1    3    3  502    0 -0.10677998687E+04  0.76553046702E+02  0.12771670607E+04  0.16665037413E+04  0.46999998093E+01 0. -1.
       -5    1    3    3    0  502  0.10677998687E+04 -0.76553046702E+02 -0.20355487599E+04  0.22998995136E+04  0.46999998093E+01 0.  1.
</event>
<event>
 5   0  0.8030324E-07  0.3856075E+04  0.7818609E-02  0.8034227E-01
        1   -1    0    0  501    0  0.00000000000E+00  0.00000000000E+00  0.15103832423E+04  0.15103832424E+04  0.50400001928E-02 0. -1.
       -1   -1    0    0    0  501  0.00000000000E+00  0.00000000000E+00 -0.24611818486E+04  0.24611818486E+04  0.50400001928E-02 0.  1.
    10030    2    1    2    0    0  0.00000000000E+00  0.00000000000E+00 -0.95079860623E+03  0.39715650909E+04  0.38560745950E+04 0.  0.
        1    1    3    3  502    0 -0.45953345671E+03  0.15959684008E+04  0.53323794092E+03  0.17443132849E+04  0.50400001928E-02 0. -1.
       -1    1    3    3    0  502  0.45953345671E+03 -0.15959684008E+04 -0.14840365471E+04  0.22272518060E+04  0.50400001928E-02 0.  1.
</event>
<event>
 5   0  0.4255250E-07  0.1937872E+04  0.7818609E-02  0.8636232E-01
        1   -1    0    0  501    0  0.00000000000E+00  0.00000000000E+00  0.24204280389E+04  0.24204280389E+04  0.50400001928E-02 0.  1.
       -1   -1    0    0    0  501  0.00000000000E+00  0.00000000000E+00 -0.38788041168E+03  0.38788041172E+03  0.50400001928E-02 0. -1.
    10030    2    1    2    0    0  0.00000000000E+00  0.00000000000E+00  0.20325476272E+04  0.28083084506E+04  0.19378716410E+04 0.  0.
        2    1    3    3  502    0  0.83842835572E+01  0.44861446248E+03  0.22608003638E+04  0.23048955545E+04  0.25500000920E-02 0.  1.
       -2    1    3    3    0  502 -0.83842835572E+01 -0.44861446248E+03 -0.22825273663E+03  0.50341289608E+03  0.25500000920E-02 0. -1.
</event>
<event>
 5   0  0.4255250E-07  0.2520813E+04  0.7818609E-02  0.8395608E-01
        1   -1    0    0  501    0  0.00000000000E+00  0.00000000000E+00  0.18675745677E+04  0.18675745677E+04  0.50400001928E-02 0.  1.
       -1   -1    0    0    0  501  0.00000000000E+00  0.00000000000E+00 -0.85063503799E+03  0.85063503800E+03  0.50400001928E-02 0. -1.
    10030    2    1    2    0    0  0.00000000000E+00  0.00000000000E+00  0.10169395297E+04  0.27182096057E+04  0.25208128557E+04 0.  0.
        2    1    3    3  502    0  0.48122821990E+02 -0.12172693176E+04  0.85715484198E+03  0.14895552426E+04  0.25500000920E-02 0.  1.
       -2    1    3    3    0  502 -0.48122821990E+02  0.12172693176E+04  0.15978468770E+03  0.12286543631E+04  0.25500000920E-02 0. -1.
</event>
<event>
 5   0  0.4255250E-07  0.2738653E+04  0.7818609E-02  0.8322571E-01
       -3   -1    0    0    0  501  0.00000000000E+00  0.00000000000E+00  0.99926372024E+03  0.99926372535E+03  0.10100000352E+00 0. -1.
        3   -1    0    0  501    0  0.00000000000E+00  0.00000000000E+00 -0.18764364073E+04  0.18764364101E+04  0.10100000352E+00 0.  1.
    10030    2    1    2    0    0  0.00000000000E+00  0.00000000000E+00 -0.87717268710E+03  0.28757001354E+04  0.27386528341E+04 0.  0.
        3    1    3    3  502    0 -0.60103650495E+03  0.96849317130E+03  0.35822242986E+03  0.11948000764E+04  0.10100000352E+00 0. -1.
       -3    1    3    3    0  502  0.60103650495E+03 -0.96849317130E+03 -0.12353951170E+04  0.16809000590E+04  0.10100000352E+00 0.  1.
</event>
<event>
 5   0  0.4255250E-07  0.3832006E+04  0.7818609E-02  0.8039321E-01
        1   -1    0    0  501    0  0.00000000000E+00  0.00000000000E+00  0.14403531929E+04  0.14403531929E+04  0.50400001928E-02 0.  1.
       -1   -1    0    0    0  501  0.00000000000E+00  0.00000000000E+00 -0.25487266587E+04  0.25487266587E+04  0.50400001928E-02 0. -1.
    10030    2    1    2    0    0  0.00000000000E+00  0.00000000000E+00 -0.11083734659E+04  0.39890798516E+04  0.38320055223E+04 0.  0.
        2    1    3    3  502    0 -0.65852946057E+03 -0.17923716403E+04 -0.71815319426E+03  0.20400983207E+04  0.25500000920E-02 0. -1.
       -2    1    3    3    0  502  0.65852946057E+03  0.17923716403E+04 -0.39022027162E+03  0.19489815309E+04  0.25500000920E-02 0.  1.
</event>
<event>
 5   0  0.1341932E-06  0.2095958E+04  0.7818609E-02  0.8563026E-01
       -2   -1    0    0    0  501  0.00000000000E+00  0.00000000000E+00  0.70358503097E+03  0.70358503097E+03  0.25500000920E-02 0.  1.
        2   -1    0    0  501    0  0.00000000000E+00  0.00000000000E+00 -0.15609481490E+04  0.15609481490E+04  0.25500000920E-02 0. -1.
    10030    2    1    2    0    0  0.00000000000E+00  0.00000000000E+00 -0.85736311802E+03  0.22645331800E+04  0.20959577780E+04 0.  0.
        2    1    3    3  502    0  0.43619729318E+03  0.21402302231E+03  0.57453939906E+03  0.75244232585E+03  0.25500000920E-02 0.  1.
       -2    1    3    3    0  502 -0.43619729318E+03 -0.21402302231E+03 -0.14319025171E+04  0.15120908541E+04  0.25500000920E-02 0. -1.
</event>
<event>
 5   0  0.1341932E-06  0.2739373E+04  0.7818609E-02  0.8322342E-01
        2   -1    0    0  501    0  0.00000000000E+00  0.00000000000E+00  0.16329281777E+04  0.16329281777E+04  0.25500000920E-02 0. -1.
       -2   -1    0    0    0  501  0.00000000000E+00  0.00000000000E+00 -0.11488814499E+04  0.11488814499E+04  0.25500000920E-02 0.  1.
    10030    2    1    2    0    0  0.00000000000E+00  0.00000000000E+00  0.48404672777E+03  0.27818096276E+04  0.27393728423E+04 0.  0.
        2    1    3    3  502    0 -0.12876071917E+04  0.22773415092E+03  0.65607219222E+03  0.14629510741E+04  0.25500000920E-02 0. -1.
       -2    1    3    3    0  502  0.12876071917E+04 -0.22773415092E+03 -0.17202546445E+03  0.13188585535E+04  0.25500000920E-02 0.  1.
</event>
<event>
 5   0  0.1337854E-06  0.2357243E+04  0.7818609E-02  0.8455687E-01
        2   -1    0    0  501    0  0.00000000000E+00  0.00000000000E+00  0.17937460950E+04  0.17937460950E+04  0.25500000920E-02 0.  1.
       -2   -1    0    0    0  501  0.00000000000E+00  0.00000000000E+00 -0.77443974941E+03  0.77443974941E+03  0.25500000920E-02 0. -1.
    10030    2    1    2    0    0  0.00000000000E+00  0.00000000000E+00  0.10193063456E+04  0.25681858445E+04  0.23572426912E+04 0.  0.
        3    1    3    3  502    0  0.24775221559E+03  0.76674011645E+03  0.14467874546E+04  0.16560391045E+04  0.10100000352E+00 0.  1.
       -3    1    3    3    0  502 -0.24775221559E+03 -0.76674011645E+03 -0.42748110899E+03  0.91214673998E+03  0.10100000352E+00 0. -1.
</event>
<event>
 5   0  0.4795023E-07  0.3764159E+04  0.7818609E-02  0.8053890E-01
        1   -1    0    0  501    0  0.00000000000E+00  0.00000000000E+00  0.14900198533E+04  0.14900198533E+04  0.50400001928E-02 0. -1.
       -1   -1    0    0    0  501  0.00000000000E+00  0.00000000000E+00 -0.23772992435E+04  0.23772992435E+04  0.50400001928E-02 0.  1.
    10030    2    1    2    0    0  0.00000000000E+00  0.00000000000E+00 -0.88727939013E+03  0.38673190968E+04  0.37641589074E+04 0.  0.
        3    1    3    3  502    0 -0.65616457459E+03 -0.11506668492E+04 -0.18173074862E+04  0.22488202811E+04  0.10100000352E+00 0.  1.
       -3    1    3    3    0  502  0.65616457459E+03  0.11506668492E+04  0.93002809611E+03  0.16184988157E+04  0.10100000352E+00 0. -1.
</event>
<event>
 5   0  0.4255250E-07  0.3829082E+04  0.7818609E-02  0.8039943E-01
       -1   -1    0    0    0  501  0.00000000000E+00  0.00000000000E+00  0.17623401537E+04  0.17623401537E+04  0.50400001928E-02 0. -1.
        1   -1    0    0  501    0  0.00000000000E+00  0.00000000000E+00 -0.20798863093E+04  0.20798863093E+04  0.50400001928E-02 0.  1.
    10030    2    1    2    0    0  0.00000000000E+00  0.00000000000E+00 -0.31754615559E+03  0.38422264630E+04  0.38290819568E+04 0.  0.
        2    1    3    3  502    0  0.11574196475E+04  0.83113206442E+03  0.11243135980E+04  0.18150707467E+04  0.25500000920E-02 0. -1.
       -2    1    3    3    0  502 -0.11574196475E+04 -0.83113206442E+03 -0.14418597536E+04  0.20271557163E+04  0.25500000920E-02 0.  1.
</event>
<event>
 5   0  0.4255250E-07  0.3874970E+04  0.7818609E-02  0.8030255E-01
        1   -1    0    0  501    0  0.00000000000E+00  0.00000000000E+00  0.12953464965E+04  0.12953464965E+04  0.50400001928E-02 0. -1.
       -1   -1    0    0    0  501  0.00000000000E+00  0.00000000000E+00 -0.28979483636E+04  0.28979483636E+04  0.50400001928E-02 0.  1.
    10030    2    1    2    0    0  0.00000000000E+00  0.00000000000E+00 -0.16026018671E+04  0.41932948602E+04  0.38749695534E+04 0.  0.
        2    1    3    3  502    0 -0.13733245919E+04 -0.60079939222E+03  0.52708588091E+03  0.15889618845E+04  0.25500000920E-02 0. -1.
       -2    1    3    3    0  502  0.13733245919E+04  0.60079939222E+03 -0.21296877480E+04  0.26043329757E+04  0.25500000920E-02 0.  1.
</event>
<event>
 5   0  0.1337854E-06  0.3554244E+04  0.7818609E-02  0.8101054E-01
        2   -1    0    0  501    0  0.00000000000E+00  0.00000000000E+00  0.20411249490E+04  0.20411249490E+04  0.25500000920E-02 0. -1.
       -2   -1    0    0    0  501  0.00000000000E+00  0.00000000000E+00 -0.15472652983E+04  0.15472652983E+04  0.25500000920E-02 0.  1.
    10030    2    1    2    0    0  0.00000000000E+00  0.00000000000E+00  0.49385965067E+03  0.35883902473E+04  0.35542435499E+04 0.  0.
        3    1    3    3  502    0 -0.26602516844E+03 -0.24038588777E+03 -0.15103690596E+04  0.15523432197E+04  0.10100000352E+00 0.  1.
       -3    1    3    3    0  502  0.26602516844E+03  0.24038588777E+03  0.20042287103E+04  0.20360470276E+04  0.10100000352E+00 0. -1.
</event>
<event>
 5   0  0.1341932E-06  0.2169071E+04  0.7818609E-02  0.8531413E-01
        2   -1    0    0  501    0  0.00000000000E+00  0.00000000000E+00  0.18718611957E+04  0.18718611957E+04  0.25500000920E-02 0.  1.
       -2   -1    0    0    0  501  0.00000000000E+00  0.00000000000E+00 -0.62836793201E+03  0.62836793202E+03  0.25500000920E-02 0. -1.
    10030    2    1    2    0    0  0.00000000000E+00  0.00000000000E+00  0.12434932637E+04  0.25002291278E+04  0.21690712746E+04 0.  0.
        2    1    3    3  502    0  0.48791371473E+03  0.96744737235E+03  0.67585276303E+03  0.12770243414E+04  0.25500000920E-02 0.  1.
       -2    1    3    3    0  502 -0.48791371473E+03 -0.96744737235E+03  0.56764050070E+03  0.12232047863E+04  0.25500000920E-02 0. -1.
</event>
<event>
 5   0  0.1341932E-06  0.3742734E+04  0.7818609E-02  0.8058557E-01
       -2   -1    0    0    0  501  0.00000000000E+00  0.00000000000E+00  0.23730942926E+04  0.23730942926E+04  0.25500000920E-02 0.  1.
        2   -1    0    0  501    0  0.00000000000E+00  0.00000000000E+00 -0.14757162786E+04  0.14757162786E+04  0.25500000920E-02 0. -1.
    10030    2    1    2    0    0  0.00000000000E+00  0.00000000000E+00  0.89737801407E+03  0.38488105712E+04  0.37427336952E+04 0.  0.
        2    1    3    3  502    0  0.11967849018E+04 -0.76726096764E+03  0.17001565597E+04  0.22161939944E+04  0.25500000920E-02 0.  1.
       -2    1    3    3    0  502 -0.11967849018E+04  0.76726096764E+03 -0.80277854561E+03  0.16326165768E+04  0.25500000920E-02 0. -1.
</event>
<event>
 5   0  0.1079205E-06  0.3696678E+04  0.7818609E-02  0.8068698E-01
       -1   -1    0    0    0  501  0.00000000000E+00  0.00000000000E+00  0.23052254572E+04  0.23052254572E+04  0.50400001928E-02 0.  1.
        1   -1    0    0  501    0  0.00000000000E+00  0.00000000000E+00 -0.14820056841E+04  0.14820056841E+04  0.50400001928E-02 0. -1.
    10030    2    1    2    0    0  0.00000000000E+00  0.00000000000E+00  0.82321977312E+03  0.37872311413E+04  0.36966780930E+04 0.  0.
        4    1    3    3  502    0  0.75909789685E+03  0.11403998892E+04 -0.85959664845E+03  0.16172969843E+04  0.12699999809E+01 0. -1.
       -4    1    3    3    0  502 -0.75909789685E+03 -0.11403998892E+04  0.16828164216E+04  0.21699341571E+04  0.12699999809E+01 0.  1.
</event>
<event>
 5   0  0.1372748E-06  0.3841049E+04  0.7818609E-02  0.8037403E-01
       -2   -1    0    0    0  501  0.00000000000E+00  0.00000000000E+00  0.28180636625E+04  0.28180636625E+04  0.25500000920E-02 0. -1.
        2   -1    0    0  501    0  0.00000000000E+00  0.00000000000E+00 -0.13088471835E+04  0.13088471835E+04  0.25500000920E-02 0.  1.
    10030    2    1    2    0    0  0.00000000000E+00  0.00000000000E+00  0.15092164790E+04  0.41269108460E+04  0.38410491731E+04 0.  0.
        1    1    3    3  502    0  0.55462277490E+03  0.27569438311E+03  0.27078134229E+04  0.27777450114E+04  0.50400001928E-02 0. -1.
       -1    1    3    3    0  502 -0.55462277490E+03 -0.27569438311E+03 -0.11985969439E+04  0.13491658346E+04  0.50400001928E-02 0.  1.
</event>
<event>
 5   0  0.1337854E-06  0.3791848E+04  0.7818609E-02  0.8047907E-01
       -2   -1    0    0    0  501  0.00000000000E+00  0.00000000000E+00  0.16148584821E+04  0.16148584821E+04  0.25500000920E-02 0.  1.
        2   -1    0    0  501    0  0.00000000000E+00  0.00000000000E+00 -0.22259087986E+04  0.22259087986E+04  0.25500000920E-02 0. -1.
    10030    2    1    2    0    0  0.00000000000E+00  0.00000000000E+00 -0.61105031646E+03  0.38407672808E+04  0.37918479421E+04 0.  0.
        3    1    3    3  502    0 -0.27997356908E+03  0.13975612852E+04  0.96078969005E+03  0.17189181435E+04  0.10100000352E+00 0. -1.
       -3    1    3    3    0  502  0.27997356908E+03 -0.13975612852E+04 -0.15718400065E+04  0.21218491373E+04  0.10100000352E+00 0.  1.
</event>
<event>
 5   0  0.4255250E-07  0.3923926E+04  0.7818609E-02  0.8020071E-01
       -1   -1    0    0    0  501  0.00000000000E+00  0.00000000000E+00  0.24661099259E+04  0.24661099259E+04  0.50400001928E-02 0.  1.
        1   -1    0    0  501    0  0.00000000000E+00  0.00000000000E+00 -0.15608788859E+04  0.15608788859E+04  0.50400001928E-02 0. -1.
    10030    2    1    2    0    0  0.00000000000E+00  0.00000000000E+00  0.90523103999E+03  0.40269888119E+04  0.39239260512E+04 0.  0.
        2    1    3    3  502    0  0.16350403426E+04 -0.40050279442E+03 -0.58159278192E+03  0.17810136367E+04  0.25500000920E-02 0. -1.
       -2    1    3    3    0  502 -0.16350403426E+04  0.40050279442E+03  0.14868238219E+04  0.22459751752E+04  0.25500000920E-02 0.  1.
</event>
<event>
 5   0  0.1337854E-06  0.3629432E+04  0.7818609E-02  0.8083783E-01
       -2   -1    0    0    0  501  0.00000000000E+00  0.00000000000E+00  0.15737852301E+04  0.15737852301E+04  0.25500000920E-02 0. -1.
        2   -1    0    0  501    0  0.00000000000E+00  0.00000000000E+00 -0.20925305574E+04  0.20925305574E+04  0.25500000920E-02 0.  1.
    10030    2    1    2    0    0  0.00000000000E+00  0.00000000000E+00 -0.51874532726E+03  0.36663157875E+04  0.36294317378E+04 0.  0.
        3    1    3    3  502    0  0.47867427818E+03 -0.16307061846E+03 -0.20199188368E+04  0.20822567586E+04  0.10100000352E+00 0.  1.
       -3    1    3    3    0  502 -0.47867427818E+03  0.16307061846E+03  0.15011735095E+04  0.15840590289E+04  0.10100000352E+00 0. -1.
</event>
<event>
 5   0  0.1341932E-06  0.3875266E+04  0.7818609E-02  0.8030193E-01
       -2   -1    0    0    0  501  0.00000000000E+00  0.00000000000E+00  0.14085295530E+04  0.14085295530E+04  0.25500000920E-02 0.  1.
        2   -1    0    0  501    0  0.00000000000E+00  0.00000000000E+00 -0.26654900895E+04  0.26654900895E+04  0.25500000920E-02 0. -1.
    10030    2    1    2    0    0  0.00000000000E+00  0.00000000000E+00 -0.12569605365E+04  0.40740196425E+04  0.38752659596E+04 0.  0.
        2    1    3    3  502    0  0.42892821307E+03  0.47783260101E+03 -0.25503878722E+04  0.26299775104E+04  0.25500000920E-02 0. -1.
       -2    1    3    3    0  502 -0.42892821307E+03 -0.47783260101E+03  0.12934273357E+04  0.14440421321E+04  0.25500000920E-02 0.  1.
</event>
<event>
 5   0  0.1184616E-06  0.3765617E+04  0.7818609E-02  0.8053574E-01
        2   -1    0    0  501    0  0.00000000000E+00  0.00000000000E+00  0.25174485012E+04  0.25174485012E+04  0.25500000920E-02 0.  1.
       -2   -1    0    0    0  501  0.00000000000E+00  0.00000000000E+00 -0.14081587808E+04  0.14081587808E+04  0.25500000920E-02 0. -1.
    10030    2    1    2    0    0  0.00000000000E+00  0.00000000000E+00  0.11092897203E+04  0.39256072820E+04  0.37656166625E+04 0.  0.
        5    1    3    3  502    0  0.17481142837E+04 -0.76205135717E+02  0.12793304788E+04  0.21675837551E+04  0.46999998093E+01 0.  1.
       -5    1    3    3    0  502 -0.17481142837E+04  0.76205135717E+02 -0.17004075851E+03  0.17580235269E+04  0.46999998093E+01 0. -1.
</event>
<event>
 5   0  0.4255250E-07  0.3787860E+04  0.7818609E-02  0.8048765E-01
       -3   -1    0    0    0  501  0.00000000000E+00  0.00000000000E+00  0.20645646728E+04  0.20645646753E+04  0.10100000352E+00 0.  1.
        3   -1    0    0  501    0  0.00000000000E+00  0.00000000000E+00 -0.17373976960E+04  0.17373976989E+04  0.10100000352E+00 0. -1.
    10030    2    1    2    0    0  0.00000000000E+00  0.00000000000E+00  0.32716697683E+03  0.38019623741E+04  0.37878595095E+04 0.  0.
        5    1    3    3  502    0 -0.26614881797E+03 -0.52262434622E+02 -0.17177968137E+04  0.17390843966E+04  0.46999998093E+01 0. -1.
       -5    1    3    3    0  502  0.26614881797E+03  0.52262434622E+02  0.20449637906E+04  0.20628779775E+04  0.46999998093E+01 0.  1.
</event>
<event>
 5   0  0.1533659E-06  0.1943799E+04  0.7818609E-02  0.8633357E-01
       -2   -1    0    0    0  501  0.00000000000E+00  0.00000000000E+00  0.38432461694E+03  0.38432461694E+03  0.25500000920E-02 0. -1.
        2   -1    0    0  501    0  0.00000000000E+00  0.00000000000E+00 -0.24577877303E+04  0.24577877303E+04  0.25500000920E-02 0.  1.
    10030    2    1    2    0    0  0.00000000000E+00  0.00000000000E+00 -0.20734631134E+04  0.28421123473E+04  0.19437986809E+04 0.  0.
        1    1    3    3  502    0  0.68874919798E+03  0.28459512360E+03 -0.19489244569E+04  0.20865465202E+04  0.50400001928E-02 0.  1.
       -1    1    3    3    0  502 -0.68874919798E+03 -0.28459512360E+03 -0.12453865648E+03  0.75556582710E+03  0.50400001928E-02 0. -1.
</event>
<event>
 5   0  0.4255250E-07  0.3802621E+04  0.7818609E-02  0.8045593E-01
       -1   -1    0    0    0  501  0.00000000000E+00  0.00000000000E+00  0.15982612604E+04  0.15982612604E+04  0.50400001928E-02 0.  1.
        1   -1    0    0  501    0  0.00000000000E+00  0.00000000000E+00 -0.22618211575E+04  0.22618211575E+04  0.50400001928E-02 0. -1.
    10030    2    1    2    0    0  0.00000000000E+00  0.00000000000E+00 -0.66355989710E+03  0.38600824180E+04  0.38026207458E+04 0.  0.
        2    1    3    3  502    0  0.47481078274E+03  0.17806596657E+04  0.14303494218E+03  0.18484190865E+04  0.25500000920E-02 0.  1.
       -2    1    3    3    0  502 -0.47481078274E+03 -0.17806596657E+04 -0.80659483928E+03  0.20116633315E+04  0.25500000920E-02 0. -1.
</event>
<event>
 5   0  0.1341932E-06  0.2548012E+04  0.7818609E-02  0.8386078E-01
       -2   -1    0    0    0  501  0.00000000000E+00  0.00000000000E+00  0.58545503679E+03  0.58545503679E+03  0.25500000920E-02 0. -1.
        2   -1    0    0  501    0  0.00000000000E+00  0.00000000000E+00 -0.27723594318E+04  0.27723594318E+04  0.25500000920E-02 0.  1.
    10030    2    1    2    0    0  0.00000000000E+00  0.00000000000E+00 -0.21869043950E+04  0.33578144686E+04  0.25480123965E+04 0.  0.
        2    1    3    3  502    0 -0.97152558969E+02  0.10806913073E+04 -0.21360865775E+03  0.11058756621E+04  0.25500000920E-02 0. -1.
       -2    1    3    3    0  502  0.97152558969E+02 -0.10806913073E+04 -0.19732957373E+04  0.22519388065E+04  0.25500000920E-02 0.  1.
</event>
<event>
 5   0  0.4795023E-07  0.3813529E+04  0.7818609E-02  0.8043258E-01
        1   -1    0    0  501    0  0.00000000000E+00  0.00000000000E+00  0.15025007953E+04  0.15025007953E+04  0.50400001928E-02 0.  1.
       -1   -1    0    0    0  501  0.00000000000E+00  0.00000000000E+00 -0.24197993517E+04  0.24197993517E+04  0.50400001928E-02 0. -1.
    10030    2    1    2    0    0  0.00000000000E+00  0.00000000000E+00 -0.91729855643E+03  0.39223001470E+04  0.38135287859E+04 0.  0.
        3    1    3    3  502    0 -0.73008992781E+03 -0.16826377754E+04 -0.99451764608E+03  0.20864722727E+04  0.10100000352E+00 0. -1.
       -3    1    3    3    0  502  0.73008992781E+03  0.16826377754E+04  0.77219089651E+02  0.18358278743E+04  0.10100000352E+00 0.  1.
</event>
<event>
 5   0  0.1856859E-06  0.1896730E+04  0.7818609E-02  0.8656486E-01
       -2   -1    0    0    0  501  0.00000000000E+00  0.00000000000E+00  0.84438036325E+03  0.84438036325E+03  0.25500000920E-02 0.  1.
        2   -1    0    0  501    0  0.00000000000E+00  0.00000000000E+00 -0.10651557204E+04  0.10651557204E+04  0.25500000920E-02 0. -1.
    10030    2    1    2    0    0  0.00000000000E+00  0.00000000000E+00 -0.22077535719E+03  0.19095360837E+04  0.18967304227E+04 0.  0.
        4    1    3    3  502    0  0.44310770144E+03  0.54936848825E+03 -0.74810316355E+03  0.10284989680E+04  0.12699999809E+01 0. -1.
       -4    1    3    3    0  502 -0.44310770144E+03 -0.54936848825E+03  0.52732780636E+03  0.88103711569E+03  0.12699999809E+01 0.  1.
</event>
<event>
 5   0  0.1079205E-06  0.3762428E+04  0.7818609E-02  0.8054266E-01
       -1   -1    0    0    0  501  0.00000000000E+00  0.00000000000E+00  0.19254064433E+04  0.19254064434E+04  0.50400001928E-02 0. -1.
        1   -1    0    0  501    0  0.00000000000E+00  0.00000000000E+00 -0.18380360080E+04  0.18380360080E+04  0.50400001928E-02 0.  1.
    10030    2    1    2    0    0  0.00000000000E+00  0.00000000000E+00  0.87370435322E+02  0.37634424514E+04  0.37624281378E+04 0.  0.
        4    1    3    3  502    0  0.11841292992E+04  0.47397793952E+03  0.14268622154E+04  0.19138324584E+04  0.12699999809E+01 0. -1.
       -4    1    3    3    0  502 -0.11841292992E+04 -0.47397793952E+03 -0.13394917801E+04  0.18496099930E+04  0.12699999809E+01 0.  1.
</event>
<event>
 5   0  0.1184616E-06  0.2377556E+04  0.7818609E-02  0.8447954E-01
        2   -1    0    0  501    0  0.00000000000E+00  0.00000000000E+00  0.10451501781E+04  0.10451501781E+04  0.25500000920E-02 0. -1.
       -2   -1    0    0    0  501  0.00000000000E+00  0.00000000000E+00 -0.13521437680E+04  0.13521437680E+04  0.25500000920E-02 0.  1.
    10030    2    1    2    0    0  0.00000000000E+00  0.00000000000E+00 -0.30699358983E+03  0.23972939461E+04  0.23775561402E+04 0.  0.
        5    1    3    3  502    0 -0.86197872570E+03 -0.60146691313E+03 -0.71344609467E+03  0.12703531758E+04  0.46999998093E+01 0.  1.
       -5    1    3    3    0  502  0.86197872570E+03  0.60146691313E+03  0.40645250484E+03  0.11269407703E+04  0.46999998093E+01 0. -1.
</event>
<event>
 5   0  0.1079205E-06  0.3776907E+04  0.7818609E-02  0.8051129E-01
       -1   -1    0    0    0  501  0.00000000000E+00  0.00000000000E+00  0.27340663198E+04  0.27340663198E+04  0.50400001928E-02 0. -1.
        1   -1    0    0  501    0  0.00000000000E+00  0.00000000000E+00 -0.13043780564E+04  0.13043780565E+04  0.50400001928E-02 0.  1.
    10030    2    1    2    0    0  0.00000000000E+00  0.00000000000E+00  0.14296882634E+04  0.40384443763E+04  0.37769067304E+04 0.  0.
        4    1    3    3  502    0 -0.10288179084E+04  0.14119302223E+04 -0.51919144076E+02  0.17477729978E+04  0.12699999809E+01 0.  1.
       -4    1    3    3    0  502  0.10288179084E+04 -0.14119302223E+04  0.14816074075E+04  0.22906713785E+04  0.12699999809E+01 0. -1.
</event>
<event>
 5   0  0.1372748E-06  0.3671278E+04  0.7818609E-02  0.8074357E-01
        2   -1    0    0  501    0  0.00000000000E+00  0.00000000000E+00  0.24987794665E+04  0.24987794665E+04  0.25500000920E-02 0. -1.
       -2   -1    0    0    0  501  0.00000000000E+00  0.00000000000E+00 -0.13484867035E+04  0.13484867035E+04  0.25500000920E-02 0.  1.
    10030    2    1    2    0    0  0.00000000000E+00  0.00000000000E+00  0.11502927630E+04  0.38472661701E+04  0.36712781892E+04 0.  0.
        1    1    3    3  502    0  0.20125972786E+03  0.12053187564E+04 -0.86028636705E+03  0.14944535509E+04  0.50400001928E-02 0.  1.
       -1    1    3    3    0  502 -0.20125972786E+03 -0.12053187564E+04  0.20105791301E+04  0.23528126191E+04  0.50400001928E-02 0. -1.
</event>
<event>
 5   0  0.4255250E-07  0.3264308E+04  0.7818609E-02  0.8172037E-01
       -3   -1    0    0    0  501  0.00000000000E+00  0.00000000000E+00  0.11000132603E+04  0.11000132650E+04  0.10100000352E+00 0.  1.
        3   -1    0    0  501    0  0.00000000000E+00  0.00000000000E+00 -0.24217219256E+04  0.24217219277E+04  0.10100000352E+00 0. -1.
    10030    2    1    2    0    0  0.00000000000E+00  0.00000000000E+00 -0.13217086652E+04  0.35217351926E+04  0.32643077323E+04 0.  0.
        3    1    3    3  502    0 -0.11079846073E+04 -0.67572646143E+03 -0.17287036182E+04  0.21616318721E+04  0.10100000352E+00 0. -1.
       -3    1    3    3    0  502  0.11079846073E+04  0.67572646143E+03  0.40699495294E+03  0.13601033206E+04  0.10100000352E+00 0.  1.
</event>
<event>
 5   0  0.1372748E-06  0.3785350E+04  0.7818609E-02  0.8049306E-01
        2   -1    0    0  501    0  0.00000000000E+00  0.00000000000E+00  0.29157885136E+04  0.29157885136E+04  0.25500000920E-02 0.  1.
       -2   -1    0    0    0  501  0.00000000000E+00  0.00000000000E+00 -0.12285591481E+04  0.12285591481E+04  0.25500000920E-02 0. -1.
    10030    2    1    2    0    0  0.00000000000E+00  0.00000000000E+00  0.16872293655E+04  0.41443476616E+04  0.37853499982E+04 0.  0.
        1    1    3    3  502    0 -0.16763231120E+04 -0.56312587198E+03  0.15821633044E+04  0.23728486352E+04  0.50400001928E-02 0. -1.
       -1    1    3    3    0  502  0.16763231120E+04  0.56312587198E+03  0.10506606106E+03  0.17714990265E+04  0.50400001928E-02 0.  1.
</event>
<event>
 5   0  0.5284458E-07  0.3715088E+04  0.7818609E-02  0.8064626E-01
        1   -1    0    0  501    0  0.00000000000E+00  0.00000000000E+00  0.13601151339E+04  0.13601151339E+04  0.50400001928E-02 0. -1.
       -1   -1    0    0    0  501  0.00000000000E+00  0.00000000000E+00 -0.25368949939E+04  0.25368949939E+04  0.50400001928E-02 0.  1.
    10030    2    1    2    0    0  0.00000000000E+00  0.00000000000E+00 -0.11767798600E+04  0.38970101279E+04  0.37150877645E+04 0.  0.
        5    1    3    3  502    0  0.29294800536E+03 -0.17117384028E+04 -0.12798983455E+04  0.21573198090E+04  0.46999998093E+01 0.  1.
       -5    1    3    3    0  502 -0.29294800536E+03  0.17117384028E+04  0.10311848550E+03  0.17396903189E+04  0.46999998093E+01 0. -1.
</event>
<event>
 5   0  0.1214844E-06  0.2801541E+04  0.7818609E-02  0.8302790E-01
       -2   -1    0    0    0  501  0.00000000000E+00  0.00000000000E+00  0.15367055057E+04  0.15367055057E+04  0.25500000920E-02 0.  1.
        2   -1    0    0  501    0  0.00000000000E+00  0.00000000000E+00 -0.12768598919E+04  0.12768598919E+04  0.25500000920E-02 0. -1.
    10030    2    1    2    0    0  0.00000000000E+00  0.00000000000E+00  0.25984561377E+03  0.28135653976E+04  0.28015407374E+04 0.  0.
        4    1    3    3  502    0  0.42140224049E+03 -0.47733044911E+03 -0.11231230698E+04  0.12910581895E+04  0.12699999809E+01 0. -1.
       -4    1    3    3    0  502 -0.42140224049E+03  0.47733044911E+03  0.13829686836E+04  0.15225072081E+04  0.12699999809E+01 0.  1.
</event>
<event>
 5   0  0.1341932E-06  0.3068872E+04  0.7818609E-02  0.8224333E-01
       -2   -1    0    0    0  501  0.00000000000E+00  0.00000000000E+00  0.12313576440E+04  0.12313576441E+04  0.25500000920E-02 0.  1.
        2   -1    0    0  501    0  0.00000000000E+00  0.00000000000E+00 -0.19121126133E+04  0.19121126133E+04  0.25500000920E-02 0. -1.
    10030    2    1    2    0    0  0.00000000000E+00  0.00000000000E+00 -0.68075496925E+03  0.31434702573E+04  0.30688724201E+04 0.  0.
        2    1    3    3  502    0  0.10161842039E+04  0.80764401430E+03  0.49778888469E+03  0.13902204731E+04  0.25500000920E-02 0.  1.
       -2    1    3    3    0  502 -0.10161842039E+04 -0.80764401430E+03 -0.11785438539E+04  0.17532497842E+04  0.25500000920E-02 0. -1.
</event>
<event>
 5   0  0.8030324E-07  0.3626082E+04  0.7818609E-02  0.8084543E-01
       -1   -1    0    0    0  501  0.00000000000E+00  0.00000000000E+00  0.23988613921E+04  0.23988613921E+04  0.50400001928E-02 0.  1.
        1   -1    0    0  501    0  0.00000000000E+00  0.00000000000E+00 -0.13702821246E+04  0.13702821246E+04  0.50400001928E-02 0. -1.
    10030    2    1    2    0    0  0.00000000000E+00  0.00000000000E+00  0.10285792675E+04  0.37691435167E+04  0.36260815683E+04 0.  0.
        1    1    3    3  502    0  0.86047281352E+03 -0.15966584097E+03 -0.11361879730E+04  0.14341651765E+04  0.50400001928E-02 0. -1.
       -1    1    3    3    0  502 -0.86047281352E+03  0.15966584097E+03  0.21647672405E+04  0.23349783402E+04  0.50400001928E-02 0.  1.
</event>
<event>
 5   0  0.1184616E-06  0.3938487E+04  0.7818609E-02  0.8017072E-01
        2   -1    0    0  501    0  0.00000000000E+00  0.00000000000E+00  0.19085375422E+04  0.19085375422E+04  0.25500000920E-02 0.  1.
       -2   -1    0    0    0  501  0.00000000000E+00  0.00000000000E+00 -0.20318799114E+04  0.20318799114E+04  0.25500000920E-02 0. -1.
    10030    2    1    2    0    0  0.00000000000E+00  0.00000000000E+00 -0.12334236921E+03  0.39404174536E+04  0.39384865581E+04 0.  0.
        5    1    3    3  502    0  0.16769118356E+04  0.25390048376E+03  0.93951829813E+03  0.19388696404E+04  0.46999998093E+01 0. -1.
       -5    1    3    3    0  502 -0.16769118356E+04 -0.25390048376E+03 -0.10628606673E+04  0.20015478131E+04  0.46999998093E+01 0.  1.
</event>
<event>
 5   0  0.4795023E-07  0.3666141E+04  0.7818609E-02  0.8075507E-01
       -1   -1    0    0    0  501  0.00000000000E+00  0.00000000000E+00  0.24000172348E+04  0.24000172348E+04  0.50400001928E-02 0. -1.
        1   -1    0    0  501    0  0.00000000000E+00  0.00000000000E+00 -0.14000512096E+04  0.14000512096E+04  0.50400001928E-02 0.  1.
    10030    2    1    2    0    0  0.00000000000E+00  0.00000000000E+00  0.99996602521E+03  0.38000684444E+04  0.36661407679E+04 0.  0.
        3    1    3    3  502    0 -0.71534024649E+03  0.15462450704E+04  0.12011267144E+04  0.20845361307E+04  0.10100000352E+00 0. -1.
       -3    1    3    3    0  502  0.71534024649E+03 -0.15462450704E+04 -0.20116068918E+03  0.17155323136E+04  0.10100000352E+00 0.  1.
</event>
<event>
 5   0  0.1214844E-06  0.3744187E+04  0.7818609E-02  0.8058239E-01
       -2   -1    0    0    0  501  0.00000000000E+00  0.00000000000E+00  0.25928715601E+04  0.25928715601E+04  0.25500000920E-02 0. -1.
        2   -1    0    0  501    0  0.00000000000E+00  0.00000000000E+00 -0.13516804525E+04  0.13516804525E+04  0.25500000920E-02 0.  1.
    10030    2    1    2    0    0  0.00000000000E+00  0.00000000000E+00  0.12411911077E+04  0.39445520126E+04  0.37441868563E+04 0.  0.
        4    1    3    3  502    0  0.94917974537E+03 -0.13805437301E+04  0.15006982525E+04  0.22492087581E+04  0.12699999809E+01 0. -1.
       -4    1    3    3    0  502 -0.94917974537E+03  0.13805437301E+04 -0.25950714482E+03  0.16953432545E+04  0.12699999809E+01 0.  1.
</event>
<event>
 5   0  0.4590737E-07  0.2091440E+04  0.7818609E-02  0.8565023E-01
        1   -1    0    0  501    0  0.00000000000E+00  0.00000000000E+00  0.19072058750E+04  0.19072058750E+04  0.50400001928E-02 0. -1.
       -1   -1    0    0    0  501  0.00000000000E+00  0.00000000000E+00 -0.57336777326E+03  0.57336777329E+03  0.50400001928E-02 0.  1.
    10030    2    1    2    0    0  0.00000000000E+00  0.00000000000E+00  0.13338381017E+04  0.24805736483E+04  0.20914400644E+04 0.  0.
        2    1    3    3  502    0  0.28793878060E+03 -0.13505294331E+03  0.18484530349E+04  0.18756136758E+04  0.25500000920E-02 0. -1.
       -2    1    3    3    0  502 -0.28793878060E+03  0.13505294331E+03 -0.51461493313E+03  0.60495997246E+03  0.25500000920E-02 0.  1.
</event>
<event>
 5   0  0.4255250E-07  0.2433703E+04  0.7818609E-02  0.8426992E-01
       -1   -1    0    0    0  501  0.00000000000E+00  0.00000000000E+00  0.55834127384E+03  0.55834127386E+03  0.50400001928E-02 0. -1.
        1   -1    0    0  501    0  0.00000000000E+00  0.00000000000E+00 -0.26520119328E+04  0.26520119328E+04  0.50400001928E-02 0.  1.
    10030    2    1    2    0    0  0.00000000000E+00  0.00000000000E+00 -0.20936706589E+04  0.32103532066E+04  0.24337031214E+04 0.  0.
        2    1    3    3  502    0 -0.93060717271E+03 -0.58507020302E+03 -0.35837092706E+03  0.11561862193E+04  0.25500000920E-02 0. -1.
       -2    1    3    3    0  502  0.93060717271E+03  0.58507020302E+03 -0.17352997319E+04  0.20541669873E+04  0.25500000920E-02 0.  1.
</event>
<event>
 5   0  0.1341932E-06  0.3776933E+04  0.7818609E-02  0.8051123E-01
       -2   -1    0    0    0  501  0.00000000000E+00  0.00000000000E+00  0.29391303069E+04  0.29391303069E+04  0.25500000920E-02 0.  1.
        2   -1    0    0  501    0  0.00000000000E+00  0.00000000000E+00 -0.12133878549E+04  0.12133878549E+04  0.25500000920E-02 0. -1.
    10030    2    1    2    0    0  0.00000000000E+00  0.00000000000E+00  0.17257424520E+04  0.41525181617E+04  0.37769326275E+04 0.  0.
        2    1    3    3  502    0  0.25538893351E+03 -0.18677496721E+04  0.73949506048E+03  0.20249852566E+04  0.25500000920E-02 0. -1.
       -2    1    3    3    0  502 -0.25538893351E+03  0.18677496721E+04  0.98624739151E+03  0.21275329051E+04  0.25500000920E-02 0.  1.
</event>
<event>
 5   0  0.8030324E-07  0.2132060E+04  0.7818609E-02  0.8547251E-01
       -1   -1    0    0    0  501  0.00000000000E+00  0.00000000000E+00  0.10227189027E+04  0.10227189027E+04  0.50400001928E-02 0. -1.
        1   -1    0    0  501    0  0.00000000000E+00  0.00000000000E+00 -0.11111753496E+04  0.11111753496E+04  0.50400001928E-02 0.  1.
    10030    2    1    2    0    0  0.00000000000E+00  0.00000000000E+00 -0.88456446934E+02  0.21338942523E+04  0.21320600688E+04 0.  0.
        1    1    3    3  502    0  0.83794091313E+03  0.38605033599E+03 -0.57876651614E+03  0.10891053742E+04  0.50400001928E-02 0. -1.
       -1    1    3    3    0  502 -0.83794091313E+03 -0.38605033599E+03  0.49031006920E+03  0.10447888781E+04  0.50400001928E-02 0.  1.
</event>
<event>
 5   0  0.1341932E-06  0.3614329E+04  0.7818609E-02  0.8087217E-01
        2   -1    0    0  501    0  0.00000000000E+00  0.00000000000E+00  0.17138704899E+04  0.17138704899E+04  0.25500000920E-02 0.  1.
       -2   -1    0    0    0  501  0.00000000000E+00  0.00000000000E+00 -0.19055370949E+04  0.19055370949E+04  0.25500000920E-02 0. -1.
    10030    2    1    2    0    0  0.00000000000E+00  0.00000000000E+00 -0.19166660496E+03  0.36194075848E+04  0.36143291463E+04 0.  0.
        2    1    3    3  502    0 -0.13296682736E+04  0.87189650774E+03 -0.95588961276E+03  0.18552482825E+04  0.25500000920E-02 0. -1.
       -2    1    3    3    0  502  0.13296682736E+04 -0.87189650774E+03  0.76422300779E+03  0.17641593023E+04  0.25500000920E-02 0.  1.
</event>
<event>
 5   0  0.1341932E-06  0.3844230E+04  0.7818609E-02  0.8036729E-01
        2   -1    0    0  501    0  0.00000000000E+00  0.00000000000E+00  0.19196526048E+04  0.19196526048E+04  0.25500000920E-02 0.  1.
       -2   -1    0    0    0  501  0.00000000000E+00  0.00000000000E+00 -0.19245809264E+04  0.19245809264E+04  0.25500000920E-02 0. -1.
    10030    2    1    2    0    0  0.00000000000E+00  0.00000000000E+00 -0.49283216131E+01  0.38442335313E+04  0.38442303722E+04 0.  0.
        2    1    3    3  502    0 -0.10448352433E+04 -0.15220818089E+04  0.53243166118E+03  0.19214310272E+04  0.25500000920E-02 0.  1.
       -2    1    3    3    0  502  0.10448352433E+04  0.15220818089E+04 -0.53735998279E+03  0.19228025041E+04  0.25500000920E-02 0. -1.
</event>
<event>
 5   0  0.4795023E-07  0.3579399E+04  0.7818609E-02  0.8095227E-01
        1   -1    0    0  501    0  0.00000000000E+00  0.00000000000E+00  0.25974450836E+04  0.25974450836E+04  0.50400001928E-02 0.  1.
       -1   -1    0    0    0  501  0.00000000000E+00  0.00000000000E+00 -0.12331442546E+04  0.12331442546E+04  0.50400001928E-02 0. -1.
    10030    2    1    2    0    0  0.00000000000E+00  0.00000000000E+00  0.13643008290E+04  0.38305893382E+04  0.35793991012E+04 0.  0.
        3    1    3    3  502    0  0.11937217459E+04 -0.13307740868E+04  0.59201895360E+03  0.18831934920E+04  0.10100000352E+00 0. -1.
       -3    1    3    3    0  502 -0.11937217459E+04  0.13307740868E+04  0.77228187542E+03  0.19473958462E+04  0.10100000352E+00 0.  1.
</event>
<event>
 5   0  0.1337854E-06  0.3622498E+04  0.7818609E-02  0.8085358E-01
       -2   -1    0    0    0  501  0.00000000000E+00  0.00000000000E+00  0.16270798038E+04  0.16270798038E+04  0.25500000920E-02 0. -1.
        2   -1    0    0  501    0  0.00000000000E+00  0.00000000000E+00 -0.20162638270E+04  0.20162638270E+04  0.25500000920E-02 0.  1.
    10030    2    1    2    0    0  0.00000000000E+00  0.00000000000E+00 -0.38918402319E+03  0.36433436308E+04  0.36224975650E+04 0.  0.
        3    1    3    3  502    0 -0.34002545022E+03 -0.17239947930E+04  0.24707833116E+03  0.17744923401E+04  0.10100000352E+00 0. -1.
       -3    1    3    3    0  502  0.34002545022E+03  0.17239947930E+04 -0.63626235435E+03  0.18688512907E+04  0.10100000352E+00 0.  1.
</event>
<event>
 5   0  0.1337854E-06  0.3864017E+04  0.7818609E-02  0.8032555E-01
        2   -1    0    0  501    0  0.00000000000E+00  0.00000000000E+00  0.29140833048E+04  0.29140833048E+04  0.25500000920E-02 0. -1.
       -2   -1    0    0    0  501  0.00000000000E+00  0.00000000000E+00 -0.12809023707E+04  0.12809023707E+04  0.25500000920E-02 0.  1.
    10030    2    1    2    0    0  0.00000000000E+00  0.00000000000E+00  0.16331809341E+04  0.41949856755E+04  0.38640166737E+04 0.  0.
        3    1    3    3  502    0  0.93239405480E+03 -0.14309910420E+04  0.17970282206E+04  0.24791943190E+04  0.10100000352E+00 0. -1.
       -3    1    3    3    0  502 -0.93239405480E+03  0.14309910420E+04 -0.16384728642E+03  0.17157913565E+04  0.10100000352E+00 0.  1.
</event>
<event>
 5   0  0.1214844E-06  0.2588152E+04  0.7818609E-02  0.8372237E-01
        2   -1    0    0  501    0  0.00000000000E+00  0.00000000000E+00  0.15394541164E+04  0.15394541164E+04  0.25500000920E-02 0.  1.
       -2   -1    0    0    0  501  0.00000000000E+00  0.00000000000E+00 -0.10878094190E+04  0.10878094190E+04  0.25500000920E-02 0. -1.
    10030    2    1    2    0    0  0.00000000000E+00  0.00000000000E+00  0.45164469748E+03  0.26272635354E+04  0.25881519955E+04 0.  0.
        4    1    3    3  502    0 -0.34766207700E+03  0.22835367450E+03  0.14697451057E+04  0.15274706574E+04  0.12699999809E+01 0.  1.
       -4    1    3    3    0  502  0.34766207700E+03 -0.22835367450E+03 -0.10181004082E+04  0.10997928780E+04  0.12699999809E+01 0. -1.
</event>
<event>
 5   0  0.1079205E-06  0.3656859E+04  0.7818609E-02  0.8077590E-01
       -1   -1    0    0    0  501  0.00000000000E+00  0.00000000000E+00  0.18133358011E+04  0.18133358011E+04  0.50400001928E-02 0.  1.
        1   -1    0    0  501    0  0.00000000000E+00  0.00000000000E+00 -0.18436492813E+04  0.18436492813E+04  0.50400001928E-02 0. -1.
    10030    2    1    2    0    0  0.00000000000E+00  0.00000000000E+00 -0.30313480236E+02  0.36569850825E+04  0.36568594431E+04 0.  0.
        4    1    3    3  502    0  0.64849141200E+03  0.14853641364E+04  0.83122090958E+03  0.18214767477E+04  0.12699999809E+01 0.  1.
       -4    1    3    3    0  502 -0.64849141200E+03 -0.14853641364E+04 -0.86153438981E+03  0.18355083347E+04  0.12699999809E+01 0. -1.
</event>
<event>
 5   0  0.8030324E-07  0.3875283E+04  0.7818609E-02  0.8030190E-01
        1   -1    0    0  501    0  0.00000000000E+00  0.00000000000E+00  0.16562773145E+04  0.16562773145E+04  0.50400001928E-02 0.  1.
       -1   -1    0    0    0  501  0.00000000000E+00  0.00000000000E+00 -0.22668025645E+04  0.22668025645E+04  0.50400001928E-02 0. -1.
    10030    2    1    2    0    0  0.00000000000E+00  0.00000000000E+00 -0.61052525000E+03  0.39230798791E+04  0.38752825260E+04 0.  0.
        1    1    3    3  502    0 -0.17810705285E+04  0.26071935126E+03  0.42070632944E+03  0.18485617716E+04  0.50400001928E-02 0.  1.
       -1    1    3    3    0  502  0.17810705285E+04 -0.26071935126E+03 -0.10312315794E+04  0.20745181075E+04  0.50400001928E-02 0. -1.
</event>
<event>
 5   0  0.1184616E-06  0.3256757E+04  0.7818609E-02  0.8173987E-01
        2   -1    0    0  501    0  0.00000000000E+00  0.00000000000E+00  0.23413530961E+04  0.23413530961E+04  0.25500000920E-02 0. -1.
       -2   -1    0    0    0  501  0.00000000000E+00  0.00000000000E+00 -0.11325144273E+04  0.11325144273E+04  0.25500000920E-02 0.  1.
    10030    2    1    2    0    0  0.00000000000E+00  0.00000000000E+00  0.12088386688E+04  0.34738675234E+04  0.32567567676E+04 0.  0.
        5    1    3    3  502    0 -0.68513712711E+03 -0.28381632902E+03  0.21507629444E+04  0.22750314118E+04  0.46999998093E+01 0. -1.
       -5    1    3    3    0  502  0.68513712711E+03  0.28381632902E+03 -0.94192427564E+03  0.11988361117E+04  0.46999998093E+01 0.  1.
</event>
<event>
 5   0  0.8030324E-07  0.2507280E+04  0.7818609E-02  0.8400397E-01
        1   -1    0    0  501    0  0.00000000000E+00  0.00000000000E+00  0.27361029834E+04  0.27361029835E+04  0.50400001928E-02 0.  1.
       -1   -1    0    0    0  501  0.00000000000E+00  0.00000000000E+00 -0.57439843151E+03  0.57439843153E+03  0.50400001928E-02 0. -1.
    10030    2    1    2    0    0  0.00000000000E+00  0.00000000000E+00  0.21617045519E+04  0.33105014150E+04  0.25072800100E+04 0.  0.
        1    1    3    3  502    0  0.29190135942E+02  0.71631977507E+03 -0.27702758473E+03  0.76857684516E+03  0.50400001928E-02 0. -1.
       -1    1    3    3    0  502 -0.29190135942E+02 -0.71631977507E+03  0.24387321367E+04  0.25419245698E+04  0.50400001928E-02 0.  1.
</event>
<event>
 5   0  0.1337854E-06  0.3100871E+04  0.7818609E-02  0.8215499E-01
       -2   -1    0    0    0  501  0.00000000000E+00  0.00000000000E+00  0.19925512424E+04  0.19925512424E+04  0.25500000920E-02 0.  1.
        2   -1    0    0  501    0  0.00000000000E+00  0.00000000000E+00 -0.12064186464E+04  0.12064186464E+04  0.25500000920E-02 0. -1.
    10030    2    1    2    0    0  0.00000000000E+00  0.00000000000E+00  0.78613259601E+03  0.31989698889E+04  0.31008714729E+04 0.  0.
        3    1    3    3  502    0  0.57269266482E+03  0.14396123301E+04  0.45313561757E+03  0.16142467120E+04  0.10100000352E+00 0. -1.
       -3    1    3    3    0  502 -0.57269266482E+03 -0.14396123301E+04  0.33299697844E+03  0.15847231768E+04  0.10100000352E+00 0.  1.
</event>
<event>
 5   0  0.1184616E-06  0.3613890E+04  0.7818609E-02  0.8087317E-01
        2   -1    0    0  501    0  0.00000000000E+00  0.00000000000E+00  0.24577214932E+04  0.24577214932E+04  0.25500000920E-02 0. -1.
       -2   -1    0    0    0  501  0.00000000000E+00  0.00000000000E+00 -0.13284866982E+04  0.13284866982E+04  0.25500000920E-02 0.  1.
    10030    2    1    2    0    0  0.00000000000E+00  0.00000000000E+00  0.11292347950E+04  0.37862081913E+04  0.36138900434E+04 0.  0.
        5    1    3    3  502    0 -0.17591024848E+04 -0.15058427899E+03  0.96754763353E+03  0.20132778472E+04  0.46999998093E+01 0.  1.
       -5    1    3    3    0  502  0.17591024848E+04  0.15058427899E+03  0.16168716147E+03  0.17729303441E+04  0.46999998093E+01 0. -1.
</event>
<event>
 5   0  0.8030324E-07  0.3260813E+04  0.7818609E-02  0.8172939E-01
       -1   -1    0    0    0  501  0.00000000000E+00  0.00000000000E+00  0.15040801528E+04  0.15040801529E+04  0.50400001928E-02 0.  1.
        1   -1    0    0  501    0  0.00000000000E+00  0.00000000000E+00 -0.17673431255E+04  0.17673431255E+04  0.50400001928E-02 0. -1.
    10030    2    1    2    0    0  0.00000000000E+00  0.00000000000E+00 -0.26326297261E+03  0.32714232783E+04  0.32608132227E+04 0.  0.
        1    1    3    3  502    0  0.15348598419E+04  0.47233197591E+03 -0.41420997094E+03  0.16584517267E+04  0.50400001928E-02 0. -1.
       -1    1    3    3    0  502 -0.15348598419E+04 -0.47233197591E+03  0.15094699833E+03  0.16129715516E+04  0.50400001928E-02 0.  1.
</event>
<event>
 5   0  0.5284458E-07  0.3580183E+04  0.7818609E-02  0.8095046E-01
       -1   -1    0    0    0  501  0.00000000000E+00  0.00000000000E+00  0.17244207823E+04  0.17244207823E+04  0.50400001928E-02 0.  1.
        1   -1    0    0  501    0  0.00000000000E+00  0.00000000000E+00 -0.18582634306E+04  0.18582634307E+04  0.50400001928E-02 0. -1.
    10030    2    1    2    0    0  0.00000000000E+00  0.00000000000E+00 -0.13384264837E+03  0.35826842129E+04  0.35801832795E+04 0.  0.
        5    1    3    3  502    0 -0.76343620436E+03  0.46579452566E+03 -0.16186839526E+04  0.18493131716E+04  0.46999998093E+01 0. -1.
       -5    1    3    3    0  502  0.76343620436E+03 -0.46579452566E+03  0.14848413042E+04  0.17333710413E+04  0.46999998093E+01 0.  1.
</event>
<event>
 5   0  0.1079205E-06  0.3388636E+04  0.7818609E-02  0.8140701E-01
       -1   -1    0    0    0  501  0.00000000000E+00  0.00000000000E+00  0.18140394376E+04  0.18140394377E+04  0.50400001928E-02 0. -1.
        1   -1    0    0  501    0  0.00000000000E+00  0.00000000000E+00 -0.15824981633E+04  0.15824981633E+04  0.50400001928E-02 0.  1.
    10030    2    1    2    0    0  0.00000000000E+00  0.00000000000E+00  0.23154127437E+03  0.33965376009E+04  0.33886363500E+04 0.  0.
        4    1    3    3  502    0 -0.11902055610E+04 -0.32884396511E+03 -0.10471003755E+04  0.16189961211E+04  0.12699999809E+01 0.  1.
       -4    1    3    3    0  502  0.11902055610E+04  0.32884396511E+03  0.12786416499E+04  0.17775414798E+04  0.12699999809E+01 0. -1.
</event>
<event>
 5   0  0.1184616E-06  0.3760505E+04  0.7818609E-02  0.8054684E-01
       -2   -1    0    0    0  501  0.00000000000E+00  0.00000000000E+00  0.13355049012E+04  0.13355049012E+04  0.25500000920E-02 0. -1.
        2   -1    0    0  501    0  0.00000000000E+00  0.00000000000E+00 -0.26472005084E+04  0.26472005084E+04  0.25500000920E-02 0.  1.
    10030    2    1    2    0    0  0.00000000000E+00  0.00000000000E+00 -0.13116956072E+04  0.39827054096E+04  0.37605048881E+04 0.  0.
        5    1    3    3  502    0 -0.11857676372E+04  0.24521868041E+03  0.86760155301E+03  0.14896078798E+04  0.46999998093E+01 0. -1.
       -5    1    3    3    0  502  0.11857676372E+04 -0.24521868041E+03 -0.21792971602E+04  0.24930975298E+04  0.46999998093E+01 0.  1.
</event>
<event>
 5   0  0.8030324E-07  0.3494060E+04  0.7818609E-02  0.8115199E-01
        1   -1    0    0  501    0  0.00000000000E+00  0.00000000000E+00  0.18687324180E+04  0.18687324180E+04  0.50400001928E-02 0.  1.
       -1   -1    0    0    0  501  0.00000000000E+00  0.00000000000E+00 -0.16332539954E+04  0.16332539954E+04  0.50400001928E-02 0. -1.
    10030    2    1    2    0    0  0.00000000000E+00  0.00000000000E+00  0.23547842264E+03  0.35019864134E+04  0.34940604963E+04 0.  0.
        1    1    3    3  502    0 -0.64508058183E+03 -0.20363693224E+03 -0.14966652840E+04  0.16424384097E+04  0.50400001928E-02 0. -1.
       -1    1    3    3    0  502  0.64508058183E+03  0.20363693224E+03  0.17321437067E+04  0.18595480036E+04  0.50400001928E-02 0.  1.
</event>
<event>
 5   0  0.4255250E-07  0.1931128E+04  0.7818609E-02  0.8639515E-01
       -1   -1    0    0    0  501  0.00000000000E+00  0.00000000000E+00  0.14356681388E+04  0.14356681388E+04  0.50400001928E-02 0.  1.
        1   -1    0    0  501    0  0.00000000000E+00  0.00000000000E+00 -0.64939371264E+03  0.64939371266E+03  0.50400001928E-02 0. -1.
    10030    2    1    2    0    0  0.00000000000E+00  0.00000000000E+00  0.78627442618E+03  0.20850618515E+04  0.19311280256E+04 0.  0.
        2    1    3    3  502    0  0.70313911182E+03 -0.62784398016E+02  0.11044103631E+04  0.13107512126E+04  0.25500000920E-02 0. -1.
       -2    1    3    3    0  502 -0.70313911182E+03  0.62784398016E+02 -0.31813593688E+03  0.77431063892E+03  0.25500000920E-02 0.  1.
</event>
<event>
 5   0  0.1341932E-06  0.2126503E+04  0.7818609E-02  0.8549657E-01
       -2   -1    0    0    0  501  0.00000000000E+00  0.00000000000E+00  0.55814826793E+03  0.55814826794E+03  0.25500000920E-02 0. -1.
        2   -1    0    0  501    0  0.00000000000E+00  0.00000000000E+00 -0.20254549645E+04  0.20254549645E+04  0.25500000920E-02 0.  1.
    10030    2    1    2    0    0  0.00000000000E+00  0.00000000000E+00 -0.14673066966E+04  0.25836032324E+04  0.21265034025E+04 0.  0.
        2    1    3    3  502    0  0.76465073302E+03  0.72366307873E+03 -0.55293460640E+03  0.11891659573E+04  0.25500000920E-02 0.  1.
       -2    1    3    3    0  502 -0.76465073302E+03 -0.72366307873E+03 -0.91437209016E+03  0.13944372751E+04  0.25500000920E-02 0. -1.
</event>
<event>
 5   0  0.1214844E-06  0.3298027E+04  0.7818609E-02  0.8163398E-01
       -2   -1    0    0    0  501  0.00000000000E+00  0.00000000000E+00  0.11864765471E+04  0.11864765471E+04  0.25500000920E-02 0.  1.
        2   -1    0    0  501    0  0.00000000000E+00  0.00000000000E+00 -0.22918655557E+04  0.22918655557E+04  0.25500000920E-02 0. -1.
    10030    2    1    2    0    0  0.00000000000E+00  0.00000000000E+00 -0.11053890086E+04  0.34783421028E+04  0.32980265196E+04 0.  0.
        4    1    3    3  502    0  0.10247064338E+04  0.21490420975E+03 -0.18963323553E+04  0.21661683013E+04  0.12699999809E+01 0. -1.
       -4    1    3    3    0  502 -0.10247064338E+04 -0.21490420975E+03  0.79094334663E+03  0.13121738015E+04  0.12699999809E+01 0.  1.
</event>
<event>
 5   0  0.1337854E-06  0.3826482E+04  0.7818609E-02  0.8040496E-01
       -2   -1    0    0    0  501  0.00000000000E+00  0.00000000000E+00  0.19712594248E+04  0.19712594248E+04  0.25500000920E-02 0. -1.
        2   -1    0    0  501    0  0.00000000000E+00  0.00000000000E+00 -0.18569305479E+04  0.18569305479E+04  0.25500000920E-02 0.  1.
    10030    2    1    2    0    0  0.00000000000E+00  0.00000000000E+00  0.11432887685E+03  0.38281899727E+04  0.38264823762E+04 0.  0.
        3    1    3    3  502    0  0.17866059570E+03  0.43200407948E+01 -0.18485618860E+04  0.18571804780E+04  0.10100000352E+00 0.  1.
       -3    1    3    3    0  502 -0.17866059570E+03 -0.43200407948E+01  0.19628907629E+04  0.19710094947E+04  0.10100000352E+00 0. -1.
</event>
<event>
 5   0  0.8030324E-07  0.3063157E+04  0.7818609E-02  0.8225923E-01
        1   -1    0    0  501    0  0.00000000000E+00  0.00000000000E+00  0.16898634847E+04  0.16898634847E+04  0.50400001928E-02 0. -1.
       -1   -1    0    0    0  501  0.00000000000E+00  0.00000000000E+00 -0.13881194218E+04  0.13881194218E+04  0.50400001928E-02 0.  1.
    10030    2    1    2    0    0  0.00000000000E+00  0.00000000000E+00  0.30174406286E+03  0.30779829065E+04  0.30631567530E+04 0.  0.
        1    1    3    3  502    0 -0.84964476201E+03  0.76972112511E+03  0.11713491703E+04  0.16390319432E+04  0.50400001928E-02 0. -1.
       -1    1    3    3    0  502  0.84964476201E+03 -0.76972112511E+03 -0.86960510742E+03  0.14389509634E+04  0.50400001928E-02 0.  1.
</event>
<event>
 5   0  0.5284458E-07  0.3800539E+04  0.7818609E-02  0.8046039E-01
        1   -1    0    0  501    0  0.00000000000E+00  0.00000000000E+00  0.18417343823E+04  0.18417343823E+04  0.50400001928E-02 0.  1.
       -1   -1    0    0    0  501  0.00000000000E+00  0.00000000000E+00 -0.19606650273E+04  0.19606650273E+04  0.50400001928E-02 0. -1.
    10030    2    1    2    0    0  0.00000000000E+00  0.00000000000E+00 -0.11893064503E+03  0.38023994097E+04  0.38005390108E+04 0.  0.
        5    1    3    3  502    0  0.84586221628E+03  0.59952772223E+03 -0.16527541246E+04  0.19510342552E+04  0.46999998093E+01 0. -1.
       -5    1    3    3    0  502 -0.84586221628E+03 -0.59952772223E+03  0.15338234796E+04  0.18513651544E+04  0.46999998093E+01 0.  1.
</event>
<event>
 5   0  0.1341932E-06  0.2177479E+04  0.7818609E-02  0.8527861E-01
        2   -1    0    0  501    0  0.00000000000E+00  0.00000000000E+00  0.14967363075E+04  0.14967363075E+04  0.25500000920E-02 0. -1.
       -2   -1    0    0    0  501  0.00000000000E+00  0.00000000000E+00 -0.79195883243E+03  0.79195883243E+03  0.25500000920E-02 0.  1.
    10030    2    1    2    0    0  0.00000000000E+00  0.00000000000E+00  0.70477747503E+03  0.22886951399E+04  0.21774788527E+04 0.  0.
        2    1    3    3  502    0  0.53541639775E+03  0.94699515766E+03  0.30677894331E+03  0.11303025558E+04  0.25500000920E-02 0.  1.
       -2    1    3    3    0  502 -0.53541639775E+03 -0.94699515766E+03  0.39799853172E+03  0.11583925841E+04  0.25500000920E-02 0. -1.
</event>
<event>
 5   0  0.1341932E-06  0.1887291E+04  0.7818609E-02  0.8661209E-01
       -2   -1    0    0    0  501  0.00000000000E+00  0.00000000000E+00  0.10552638344E+04  0.10552638344E+04  0.25500000920E-02 0.  1.
        2   -1    0    0  501    0  0.00000000000E+00  0.00000000000E+00 -0.84383318887E+03  0.84383318888E+03  0.25500000920E-02 0. -1.
    10030    2    1    2    0    0  0.00000000000E+00  0.00000000000E+00  0.21143064549E+03  0.18990970232E+04  0.18872908059E+04 0.  0.
        2    1    3    3  502    0 -0.50592013261E+03  0.47344874691E+03 -0.53888370890E+03  0.87778388471E+03  0.25500000920E-02 0. -1.
       -2    1    3    3    0  502  0.50592013261E+03 -0.47344874691E+03  0.75031435439E+03  0.10213131385E+04  0.25500000920E-02 0.  1.
</event>
<event>
 5   0  0.5284458E-07  0.1978289E+04  0.7818609E-02  0.8616839E-01
       -1   -1    0    0    0  501  0.00000000000E+00  0.00000000000E+00  0.67413825015E+03  0.67413825017E+03  0.50400001928E-02 0.  1.
        1   -1    0    0  501    0  0.00000000000E+00  0.00000000000E+00 -0.14513437939E+04  0.14513437939E+04  0.50400001928E-02 0. -1.
    10030    2    1    2    0    0  0.00000000000E+00  0.00000000000E+00 -0.77720554379E+03  0.21254820441E+04  0.19782885185E+04 0.  0.
        5    1    3    3  502    0  0.76777729817E+03  0.61904854973E+03 -0.46958457337E+03  0.10923528954E+04  0.46999998093E+01 0. -1.
       -5    1    3    3    0  502 -0.76777729817E+03 -0.61904854973E+03 -0.30762097042E+03  0.10331291487E+04  0.46999998093E+01 0.  1.
</event>
<event>
 5   0  0.4795023E-07  0.3969427E+04  0.7818609E-02  0.8010743E-01
       -1   -1    0    0    0  501  0.00000000000E+00  0.00000000000E+00  0.18580955007E+04  0.18580955007E+04  0.50400001928E-02 0.  1.
        1   -1    0    0  501    0  0.00000000000E+00  0.00000000000E+00 -0.21199600122E+04  0.21199600122E+04  0.50400001928E-02 0. -1.
    10030    2    1    2    0    0  0.00000000000E+00  0.00000000000E+00 -0.26186451156E+03  0.39780555129E+04  0.39694272435E+04 0.  0.
        3    1    3    3  502    0 -0.14722479003E+04 -0.77862461605E+03 -0.12127776897E+04  0.20602426818E+04  0.10100000352E+00 0. -1.
       -3    1    3    3    0  502  0.14722479003E+04  0.77862461605E+03  0.95091317818E+03  0.19178128312E+04  0.10100000352E+00 0.  1.
</event>
<event>
 5   0  0.1372748E-06  0.3771432E+04  0.7818609E-02  0.8052313E-01
       -2   -1    0    0    0  501  0.00000000000E+00  0.00000000000E+00  0.15040168194E+04  0.15040168194E+04  0.25500000920E-02 0. -1.
        2   -1    0    0  501    0  0.00000000000E+00  0.00000000000E+00 -0.23642854232E+04  0.23642854232E+04  0.25500000920E-02 0.  1.
    10030    2    1    2    0    0  0.00000000000E+00  0.00000000000E+00 -0.86026860376E+03  0.38683022426E+04  0.37714321112E+04 0.  0.
        1    1    3    3  502    0  0.83202359079E+03  0.61571837965E+03 -0.20468669496E+04  0.22936949858E+04  0.50400001928E-02 0.  1.
       -1    1    3    3    0  502 -0.83202359079E+03 -0.61571837965E+03  0.11865983458E+04  0.15746072568E+04  0.50400001928E-02 0. -1.
</event>
<event>
 5   0  0.1184616E-06  0.3765571E+04  0.7818609E-02  0.8053584E-01
        2   -1    0    0  501    0  0.00000000000E+00  0.00000000000E+00  0.18351152498E+04  0.18351152498E+04  0.25500000920E-02 0.  1.
       -2   -1    0    0    0  501  0.00000000000E+00  0.00000000000E+00 -0.19316945694E+04  0.19316945694E+04  0.25500000920E-02 0. -1.
    10030    2    1    2    0    0  0.00000000000E+00  0.00000000000E+00 -0.96579319584E+02  0.37668098192E+04  0.37655714904E+04 0.  0.
        5    1    3    3  502    0 -0.35823209926E+03 -0.94818164383E+03 -0.16354687464E+04  0.19240994717E+04  0.46999998093E+01 0. -1.
       -5    1    3    3    0  502  0.35823209926E+03  0.94818164383E+03  0.15388894268E+04  0.18427103475E+04  0.46999998093E+01 0.  1.
</event>
<event>
 5   0  0.4255250E-07  0.3749757E+04  0.7818609E-02  0.8057024E-01
       -1   -1    0    0    0  501  0.00000000000E+00  0.00000000000E+00  0.23812984233E+04  0.23812984233E+04  0.50400001928E-02 0.  1.
        1   -1    0    0  501    0  0.00000000000E+00  0.00000000000E+00 -0.14761566729E+04  0.14761566729E+04  0.50400001928E-02 0. -1.
    10030    2    1    2    0    0  0.00000000000E+00  0.00000000000E+00  0.90514175036E+03  0.38574550962E+04  0.37497570896E+04 0.  0.
        2    1    3    3  502    0 -0.12008986199E+04  0.65542408173E+03  0.17713544397E+04  0.22381766626E+04  0.25500000920E-02 0.  1.
       -2    1    3    3    0  502  0.12008986199E+04 -0.65542408173E+03 -0.86621268936E+03  0.16192784335E+04  0.25500000920E-02 0. -1.
</event>
<event>
 5   0  0.4255250E-07  0.3675331E+04  0.7818609E-02  0.8073451E-01
        1   -1    0    0  501    0  0.00000000000E+00  0.00000000000E+00  0.15739059800E+04  0.15739059800E+04  0.50400001928E-02 0.  1.
       -1   -1    0    0    0  501  0.00000000000E+00  0.00000000000E+00 -0.21456269164E+04  0.21456269164E+04  0.50400001928E-02 0. -1.
    10030    2    1    2    0    0  0.00000000000E+00  0.00000000000E+00 -0.57172093641E+03  0.37195328964E+04  0.36753312964E+04 0.  0.
        2    1    3    3  502    0 -0.17860528291E+03  0.13421304965E+03 -0.21318318844E+04  0.21435065135E+04  0.25500000920E-02 0. -1.
       -2    1    3    3    0  502  0.17860528291E+03 -0.13421304965E+03  0.15601109480E+04  0.15760263830E+04  0.25500000920E-02 0.  1.
</event>
<event>
 5   0  0.5284458E-07  0.1935212E+04  0.7818609E-02  0.8637525E-01
       -1   -1    0    0    0  501  0.00000000000E+00  0.00000000000E+00  0.75143181239E+03  0.75143181240E+03  0.50400001928E-02 0. -1.
        1   -1    0    0  501    0  0.00000000000E+00  0.00000000000E+00 -0.12459695348E+04  0.12459695348E+04  0.50400001928E-02 0.  1.
    10030    2    1    2    0    0  0.00000000000E+00  0.00000000000E+00 -0.49453772237E+03  0.19974013472E+04  0.19352117669E+04 0.  0.
        5    1    3    3  502    0 -0.70105336525E+03  0.44599982952E+03  0.26449503090E+03  0.87199276386E+03  0.46999998093E+01 0. -1.
       -5    1    3    3    0  502  0.70105336525E+03 -0.44599982952E+03 -0.75903275326E+03  0.11254085833E+04  0.46999998093E+01 0.  1.
</event>
<event>
 5   0  0.1337854E-06  0.2724079E+04  0.7818609E-02  0.8327234E-01
        2   -1    0    0  501    0  0.00000000000E+00  0.00000000000E+00  0.17356088918E+04  0.17356088918E+04  0.25500000920E-02 0. -1.
       -2   -1    0    0    0  501  0.00000000000E+00  0.00000000000E+00 -0.10688762108E+04  0.10688762108E+04  0.25500000920E-02 0.  1.
    10030    2    1    2    0    0  0.00000000000E+00  0.00000000000E+00  0.66673268095E+03  0.28044851026E+04  0.27240786007E+04 0.  0.
        3    1    3    3  502    0 -0.17524639431E+03  0.10980127040E+04  0.11432290637E+04  0.15947776959E+04  0.10100000352E+00 0. -1.
       -3    1    3    3    0  502  0.17524639431E+03 -0.10980127040E+04 -0.47649638277E+03  0.12097074067E+04  0.10100000352E+00 0.  1.
</event>
<event>
 5   0  0.4255250E-07  0.3189832E+04  0.7818609E-02  0.8191508E-01
        1   -1    0    0  501    0  0.00000000000E+00  0.00000000000E+00  0.13801884617E+04  0.13801884617E+04  0.50400001928E-02 0. -1.
       -1   -1    0    0    0  501  0.00000000000E+00  0.00000000000E+00 -0.18430500790E+04  0.18430500790E+04  0.50400001928E-02 0.  1.
    10030    2    1    2    0    0  0.00000000000E+00  0.00000000000E+00 -0.46286161732E+03  0.32232385407E+04  0.31898316278E+04 0.  0.
        2    1    3    3  502    0 -0.31241221690E+03  0.12148243586E+04 -0.12268142752E+04  0.17545577452E+04  0.25500000920E-02 0.  1.
       -2    1    3    3    0  502  0.31241221690E+03 -0.12148243586E+04  0.76395265786E+03  0.14686807955E+04  0.25500000920E-02 0. -1.
</event>
<event>
 5   0  0.1337854E-06  0.3739105E+04  0.7818609E-02  0.8059351E-01
        2   -1    0    0  501    0  0.00000000000E+00  0.00000000000E+00  0.20883783465E+04  0.20883783465E+04  0.25500000920E-02 0. -1.
       -2   -1    0    0    0  501  0.00000000000E+00  0.00000000000E+00 -0.16736556627E+04  0.16736556627E+04  0.25500000920E-02 0.  1.
    10030    2    1    2    0    0  0.00000000000E+00  0.00000000000E+00  0.41472268380E+03  0.37620340092E+04  0.37391048370E+04 0.  0.
        3    1    3    3  502    0 -0.19595273295E+03 -0.71973884148E+03 -0.15174454063E+04  0.16908761175E+04  0.10100000352E+00 0.  1.
       -3    1    3    3    0  502  0.19595273295E+03  0.71973884148E+03  0.19321680901E+04  0.20711578917E+04  0.10100000352E+00 0. -1.
</event>
<event>
 5   0  0.1184616E-06  0.3829649E+04  0.7818609E-02  0.8039822E-01
       -2   -1    0    0    0  501  0.00000000000E+00  0.00000000000E+00  0.18157813033E+04  0.18157813033E+04  0.25500000920E-02 0. -1.
        2   -1    0    0  501    0  0.00000000000E+00  0.00000000000E+00 -0.20192702293E+04  0.20192702293E+04  0.25500000920E-02 0.  1.
    10030    2    1    2    0    0  0.00000000000E+00  0.00000000000E+00 -0.20348892596E+03  0.38350515326E+04  0.38296491373E+04 0.  0.
        5    1    3    3  502    0  0.13355774076E+04  0.93180098713E+03 -0.11103946795E+04  0.19710450339E+04  0.46999998093E+01 0.  1.
       -5    1    3    3    0  502 -0.13355774076E+04 -0.93180098713E+03  0.90690575358E+03  0.18640064987E+04  0.46999998093E+01 0. -1.
</event>
<event>
 5   0  0.1184616E-06  0.3888890E+04  0.7818609E-02  0.8027344E-01
       -2   -1    0    0    0  501  0.00000000000E+00  0.00000000000E+00  0.25481808074E+04  0.25481808074E+04  0.25500000920E-02 0. -1.
        2   -1    0    0  501    0  0.00000000000E+00  0.00000000000E+00 -0.14837514959E+04  0.14837514959E+04  0.25500000920E-02 0.  1.
    10030    2    1    2    0    0  0.00000000000E+00  0.00000000000E+00  0.10644293115E+04  0.40319323033E+04  0.38888903738E+04 0.  0.
        5    1    3    3  502    0  0.40429479571E+03 -0.91716641614E+03  0.22596930741E+04  0.24720201042E+04  0.46999998093E+01 0. -1.
       -5    1    3    3    0  502 -0.40429479571E+03  0.91716641614E+03 -0.11952637626E+04  0.15599121991E+04  0.46999998093E+01 0.  1.
</event>
<event>
 5   0  0.1184616E-06  0.1960251E+04  0.7818609E-02  0.8625433E-01
       -2   -1    0    0    0  501  0.00000000000E+00  0.00000000000E+00  0.16937759670E+04  0.16937759670E+04  0.25500000920E-02 0. -1.
        2   -1    0    0  501    0  0.00000000000E+00  0.00000000000E+00 -0.56716248581E+03  0.56716248582E+03  0.25500000920E-02 0.  1.
    10030    2    1    2    0    0  0.00000000000E+00  0.00000000000E+00  0.11266134812E+04  0.22609384528E+04  0.19602511960E+04 0.  0.
        5    1    3    3  502    0 -0.96568871698E+03  0.72735499994E+02  0.38922876289E+03  0.10437271056E+04  0.46999998093E+01 0.  1.
       -5    1    3    3    0  502  0.96568871698E+03 -0.72735499994E+02  0.73738471827E+03  0.12172113472E+04  0.46999998093E+01 0. -1.
</event>
<event>
 5   0  0.1341932E-06  0.3710505E+04  0.7818609E-02  0.8065638E-01
        2   -1    0    0  501    0  0.00000000000E+00  0.00000000000E+00  0.27210298401E+04  0.27210298401E+04  0.25500000920E-02 0.  1.
       -2   -1    0    0    0  501  0.00000000000E+00  0.00000000000E+00 -0.12649481037E+04  0.12649481037E+04  0.25500000920E-02 0. -1.
    10030    2    1    2    0    0  0.00000000000E+00  0.00000000000E+00  0.14560817364E+04  0.39859779438E+04  0.37105048371E+04 0.  0.
        2    1    3    3  502    0 -0.14302371799E+04 -0.34223624887E+03 -0.48697199090E+03  0.15491435572E+04  0.25500000920E-02 0. -1.
       -2    1    3    3    0  502  0.14302371799E+04  0.34223624887E+03  0.19430537273E+04  0.24368343866E+04  0.25500000920E-02 0.  1.
</event>
<event>
 5   0  0.1214844E-06  0.3838477E+04  0.7818609E-02  0.8037948E-01
        2   -1    0    0  501    0  0.00000000000E+00  0.00000000000E+00  0.20607068534E+04  0.20607068534E+04  0.25500000920E-02 0. -1.
       -2   -1    0    0    0  501  0.00000000000E+00  0.00000000000E+00 -0.17874818271E+04  0.17874818271E+04  0.25500000920E-02 0.  1.
    10030    2    1    2    0    0  0.00000000000E+00  0.00000000000E+00  0.27322502631E+03  0.38481886805E+04  0.38384768080E+04 0.  0.
        4    1    3    3  502    0  0.14759314796E+03 -0.10837536855E+04 -0.14444536864E+04  0.18118371487E+04  0.12699999809E+01 0.  1.
       -4    1    3    3    0  502 -0.14759314796E+03  0.10837536855E+04  0.17176787127E+04  0.20363515318E+04  0.12699999809E+01 0. -1.
</event>
<event>
 5   0  0.1184616E-06  0.3611755E+04  0.7818609E-02  0.8087804E-01
       -2   -1    0    0    0  501  0.00000000000E+00  0.00000000000E+00  0.21657768530E+04  0.21657768530E+04  0.25500000920E-02 0.  1.
        2   -1    0    0  501    0  0.00000000000E+00  0.00000000000E+00 -0.15057848109E+04  0.15057848109E+04  0.25500000920E-02 0. -1.
    10030    2    1    2    0    0  0.00000000000E+00  0.00000000000E+00  0.65999204210E+03  0.36715616638E+04  0.36117551905E+04 0.  0.
        5    1    3    3  502    0 -0.10224327427E+04 -0.66611172599E+03 -0.10232489438E+04  0.15925244224E+04  0.46999998093E+01 0. -1.
       -5    1    3    3    0  502  0.10224327427E+04  0.66611172599E+03  0.16832409859E+04  0.20790372415E+04  0.46999998093E+01 0.  1.
</event>
<event>
 5   0  0.1184616E-06  0.2822092E+04  0.7818609E-02  0.8296442E-01
       -2   -1    0    0    0  501  0.00000000000E+00  0.00000000000E+00  0.15695639389E+04  0.15695639389E+04  0.25500000920E-02 0. -1.
        2   -1    0    0  501    0  0.00000000000E+00  0.00000000000E+00 -0.12685376304E+04  0.12685376304E+04  0.25500000920E-02 0.  1.
    10030    2    1    2    0    0  0.00000000000E+00  0.00000000000E+00  0.30102630849E+03  0.28381015693E+04  0.28220920749E+04 0.  0.
        5    1    3    3  502    0 -0.73841335375E+03 -0.10071030258E+04 -0.51011371742E+03  0.13489806819E+04  0.46999998093E+01 0.  1.
       -5    1    3    3    0  502  0.73841335375E+03  0.10071030258E+04  0.81114002591E+03  0.14891208874E+04  0.46999998093E+01 0. -1.
</event>
<event>
 5   0  0.1214844E-06  0.3833994E+04  0.7818609E-02  0.8038899E-01
        2   -1    0    0  501    0  0.00000000000E+00  0.00000000000E+00  0.23736821110E+04  0.23736821110E+04  0.25500000920E-02 0. -1.
       -2   -1    0    0    0  501  0.00000000000E+00  0.00000000000E+00 -0.15481762156E+04  0.15481762156E+04  0.25500000920E-02 0.  1.
    10030    2    1    2    0    0  0.00000000000E+00  0.00000000000E+00  0.82550589543E+03  0.39218583266E+04  0.38339943597E+04 0.  0.
        4    1    3    3  502    0  0.87464975390E+03 -0.69150051344E+03 -0.11823718366E+04  0.16251738137E+04  0.12699999809E+01 0.  1.
       -4    1    3    3    0  502 -0.87464975390E+03  0.69150051344E+03  0.20078777320E+04  0.22966845129E+04  0.12699999809E+01 0. -1.
</event>
<event>
 5   0  0.1602488E-06  0.2104875E+04  0.7818609E-02  0.8559099E-01
        2   -1    0    0  501    0  0.00000000000E+00  0.00000000000E+00  0.13029954876E+04  0.13029954876E+04  0.25500000920E-02 0.  1.
       -2   -1    0    0    0  501  0.00000000000E+00  0.00000000000E+00 -0.85005986852E+03  0.85005986852E+03  0.25500000920E-02 0. -1.
    10030    2    1    2    0    0  0.00000000000E+00  0.00000000000E+00  0.45293561907E+03  0.21530553561E+04  0.21048745073E+04 0.  0.
        1    1    3    3  502    0 -0.31013967704E+03  0.45693603097E+03  0.11428809030E+04  0.12693123785E+04  0.50400001928E-02 0.  1.
       -1    1    3    3    0  502  0.31013967704E+03 -0.45693603097E+03 -0.68994528394E+03  0.88374297764E+03  0.50400001928E-02 0. -1.
</event>
<event>
 5   0  0.4255250E-07  0.3561466E+04  0.7818609E-02  0.8099376E-01
       -1   -1    0    0    0  501  0.00000000000E+00  0.00000000000E+00  0.18492972886E+04  0.18492972886E+04  0.50400001928E-02 0.  1.
        1   -1    0    0  501    0  0.00000000000E+00  0.00000000000E+00 -0.17147112225E+04  0.17147112225E+04  0.50400001928E-02 0. -1.
    10030    2    1    2    0    0  0.00000000000E+00  0.00000000000E+00  0.13458606605E+03  0.35640085111E+04  0.35614664477E+04 0.  0.
        2    1    3    3  502    0 -0.43375285648E+03  0.14220908502E+04 -0.91347124303E+03  0.17449680910E+04  0.25500000920E-02 0. -1.
       -2    1    3    3    0  502  0.43375285648E+03 -0.14220908502E+04  0.10480573091E+04  0.18190404201E+04  0.25500000920E-02 0.  1.
</event>
<event>
 5   0  0.1337854E-06  0.2856070E+04  0.7818609E-02  0.8286069E-01
       -2   -1    0    0    0  501  0.00000000000E+00  0.00000000000E+00  0.22681603268E+04  0.22681603268E+04  0.25500000920E-02 0.  1.
        2   -1    0    0  501    0  0.00000000000E+00  0.00000000000E+00 -0.89909164804E+03  0.89909164805E+03  0.25500000920E-02 0. -1.
    10030    2    1    2    0    0  0.00000000000E+00  0.00000000000E+00  0.13690686788E+04  0.31672519749E+04  0.28560700316E+04 0.  0.
        3    1    3    3  502    0 -0.38712331038E+03  0.94680522054E+03 -0.42052063948E+03  0.11059575948E+04  0.10100000352E+00 0. -1.
       -3    1    3    3    0  502  0.38712331038E+03 -0.94680522054E+03  0.17895893183E+04  0.20612943801E+04  0.10100000352E+00 0.  1.
</event>
<event>
 5   0  0.8030324E-07  0.3952213E+04  0.7818609E-02  0.8014257E-01
       -1   -1    0    0    0  501  0.00000000000E+00  0.00000000000E+00  0.17514515183E+04  0.17514515183E+04  0.50400001928E-02 0. -1.
        1   -1    0    0  501    0  0.00000000000E+00  0.00000000000E+00 -0.22295776267E+04  0.22295776267E+04  0.50400001928E-02 0.  1.
    10030    2    1    2    0    0  0.00000000000E+00  0.00000000000E+00 -0.47812610838E+03  0.39810291451E+04  0.39522131115E+04 0.  0.
        1    1    3    3  502    0 -0.12853595787E+04 -0.61938728813E+03 -0.16162209361E+04  0.21559127936E+04  0.50400001928E-02 0.  1.
       -1    1    3    3    0  502  0.12853595787E+04  0.61938728813E+03  0.11380948277E+04  0.18251163514E+04  0.50400001928E-02 0. -1.
</event>
<event>
 5   0  0.4795023E-07  0.3660224E+04  0.7818609E-02  0.8076834E-01
        1   -1    0    0  501    0  0.00000000000E+00  0.00000000000E+00  0.94437813354E+03  0.94437813355E+03  0.50400001928E-02 0.  1.
       -1   -1    0    0    0  501  0.00000000000E+00  0.00000000000E+00 -0.35465770761E+04  0.35465770761E+04  0.50400001928E-02 0. -1.
    10030    2    1    2    0    0  0.00000000000E+00  0.00000000000E+00 -0.26021989426E+04  0.44909552097E+04  0.36602239492E+04 0.  0.
        3    1    3    3  502    0  0.13607223508E+04 -0.83606412779E+03 -0.23976638459E+04  0.28808610640E+04  0.10100000352E+00 0. -1.
       -3    1    3    3    0  502 -0.13607223508E+04  0.83606412779E+03 -0.20453509663E+03  0.16100941456E+04  0.10100000352E+00 0.  1.
</event>
<event>
 5   0  0.1214844E-06  0.2002025E+04  0.7818609E-02  0.8605675E-01
        2   -1    0    0  501    0  0.00000000000E+00  0.00000000000E+00  0.18788030325E+04  0.18788030325E+04  0.25500000920E-02 0. -1.
       -2   -1    0    0    0  501  0.00000000000E+00  0.00000000000E+00 -0.53333196041E+03  0.53333196041E+03  0.25500000920E-02 0.  1.
    10030    2    1    2    0    0  0.00000000000E+00  0.00000000000E+00  0.13454710721E+04  0.24121349929E+04  0.20020246797E+04 0.  0.
        4    1    3    3  502    0 -0.82474948843E+03  0.56148532435E+03  0.57524999602E+03  0.11516907827E+04  0.12699999809E+01 0.  1.
       -4    1    3    3    0  502  0.82474948843E+03 -0.56148532435E+03  0.77022107604E+03  0.12604442102E+04  0.12699999809E+01 0. -1.
</event>
<event>
 5   0  0.4255250E-07  0.3654900E+04  0.7818609E-02  0.8078031E-01
        1   -1    0    0  501    0  0.00000000000E+00  0.00000000000E+00  0.28947432645E+04  0.28947432645E+04  0.50400001928E-02 0.  1.
       -1   -1    0    0    0  501  0.00000000000E+00  0.00000000000E+00 -0.11536685239E+04  0.11536685239E+04  0.50400001928E-02 0. -1.
    10030    2    1    2    0    0  0.00000000000E+00  0.00000000000E+00  0.17410747406E+04  0.40484117884E+04  0.36549003757E+04 0.  0.
        2    1    3    3  502    0  0.24002295196E+03  0.43548992028E+03 -0.10772913679E+04  0.11865155623E+04  0.25500000920E-02 0. -1.
       -2    1    3    3    0  502 -0.24002295196E+03 -0.43548992028E+03  0.28183661084E+04  0.28618962262E+04  0.25500000920E-02 0.  1.
</event>
<event>
 5   0  0.1341932E-06  0.3078211E+04  0.7818609E-02  0.8221743E-01
        2   -1    0    0  501    0  0.00000000000E+00  0.00000000000E+00  0.10508643183E+04  0.10508643183E+04  0.25500000920E-02 0.  1.
       -2   -1    0    0    0  501  0.00000000000E+00  0.00000000000E+00 -0.22541880282E+04  0.22541880282E+04  0.25500000920E-02 0. -1.
    10030    2    1    2    0    0  0.00000000000E+00  0.00000000000E+00 -0.12033237099E+04  0.33050523465E+04  0.30782110165E+04 0.  0.
        2    1    3    3  502    0 -0.96671777175E+03 -0.88564302107E+03  0.26393613246E+03  0.13373739541E+04  0.25500000920E-02 0.  1.
       -2    1    3    3    0  502  0.96671777175E+03  0.88564302107E+03 -0.14672598424E+04  0.19676783924E+04  0.25500000920E-02 0. -1.
</event>
<event>
 5   0  0.1372748E-06  0.3752174E+04  0.7818609E-02  0.8056497E-01
       -2   -1    0    0    0  501  0.00000000000E+00  0.00000000000E+00  0.15644746357E+04  0.15644746357E+04  0.25500000920E-02 0. -1.
        2   -1    0    0  501    0  0.00000000000E+00  0.00000000000E+00 -0.22497668332E+04  0.22497668332E+04  0.25500000920E-02 0.  1.
    10030    2    1    2    0    0  0.00000000000E+00  0.00000000000E+00 -0.68529219752E+03  0.38142414689E+04  0.37521743812E+04 0.  0.
        1    1    3    3  502    0 -0.82316629371E+03  0.15429588233E+04  0.34783823836E+03  0.17830636886E+04  0.50400001928E-02 0. -1.
       -1    1    3    3    0  502  0.82316629371E+03 -0.15429588233E+04 -0.10331304359E+04  0.20311777803E+04  0.50400001928E-02 0.  1.
</event>
<event>
 5   0  0.1184616E-06  0.3665894E+04  0.7818609E-02  0.8075562E-01
        2   -1    0    0  501    0  0.00000000000E+00  0.00000000000E+00  0.23627204765E+04  0.23627204765E+04  0.25500000920E-02 0. -1.
       -2   -1    0    0    0  501  0.00000000000E+00  0.00000000000E+00 -0.14219601889E+04  0.14219601889E+04  0.25500000920E-02 0.  1.
    10030    2    1    2    0    0  0.00000000000E+00  0.00000000000E+00  0.94076028761E+03  0.37846806655E+04  0.36658938638E+04 0.  0.
        5    1    3    3  502    0 -0.87907701134E+03  0.37254470812E+03 -0.11449619129E+04  0.14908138125E+04  0.46999998093E+01 0.  1.
       -5    1    3    3    0  502  0.87907701134E+03 -0.37254470812E+03  0.20857222005E+04  0.22938668530E+04  0.46999998093E+01 0. -1.
</event>
<event>
 5   0  0.4255250E-07  0.3768964E+04  0.7818609E-02  0.8052848E-01
        1   -1    0    0  501    0  0.00000000000E+00  0.00000000000E+00  0.23241433817E+04  0.23241433817E+04  0.50400001928E-02 0. -1.
       -1   -1    0    0    0  501  0.00000000000E+00  0.00000000000E+00 -0.15279921397E+04  0.15279921398E+04  0.50400001928E-02 0.  1.
    10030    2    1    2    0    0  0.00000000000E+00  0.00000000000E+00  0.79615124194E+03  0.38521355215E+04  0.37689642179E+04 0.  0.
        2    1    3    3  502    0  0.17291970732E+02  0.27368542468E+03  0.23036407901E+04  0.23199059493E+04  0.25500000920E-02 0. -1.
       -2    1    3    3    0  502 -0.17291970732E+02 -0.27368542468E+03 -0.15074895481E+04  0.15322295721E+04  0.25500000920E-02 0.  1.
</event>
<event>
 5   0  0.8030324E-07  0.3701467E+04  0.7818609E-02  0.8067637E-01
        1   -1    0    0  501    0  0.00000000000E+00  0.00000000000E+00  0.26135486245E+04  0.26135486245E+04  0.50400001928E-02 0.  1.
       -1   -1    0    0    0  501  0.00000000000E+00  0.00000000000E+00 -0.13105609449E+04  0.13105609449E+04  0.50400001928E-02 0. -1.
    10030    2    1    2    0    0  0.00000000000E+00  0.00000000000E+00  0.13029876796E+04  0.39241095694E+04  0.37014671442E+04 0.  0.
        1    1    3    3  502    0  0.82509751409E+03  0.44948499572E+03 -0.10389022931E+04  0.14007643070E+04  0.50400001928E-02 0. -1.
       -1    1    3    3    0  502 -0.82509751409E+03 -0.44948499572E+03  0.23418899727E+04  0.25233452624E+04  0.50400001928E-02 0.  1.
</event>
<event>
 5   0  0.1214844E-06  0.3848626E+04  0.7818609E-02  0.8035800E-01
       -2   -1    0    0    0  501  0.00000000000E+00  0.00000000000E+00  0.19306260198E+04  0.19306260198E+04  0.25500000920E-02 0. -1.
        2   -1    0    0  501    0  0.00000000000E+00  0.00000000000E+00 -0.19180208770E+04  0.19180208770E+04  0.25500000920E-02 0.  1.
    10030    2    1    2    0    0  0.00000000000E+00  0.00000000000E+00  0.12605142836E+02  0.38486468968E+04  0.38486262544E+04 0.  0.
        4    1    3    3  502    0  0.77560560650E+02 -0.15579411644E+04  0.11331551383E+04  0.19280141319E+04  0.12699999809E+01 0. -1.
       -4    1    3    3    0  502 -0.77560560650E+02  0.15579411644E+04 -0.11205499955E+04  0.19206327649E+04  0.12699999809E+01 0.  1.
</event>
<event>
 5   0  0.1337854E-06  0.3965768E+04  0.7818609E-02  0.8011488E-01
       -2   -1    0    0    0  501  0.00000000000E+00  0.00000000000E+00  0.13348501111E+04  0.13348501111E+04  0.25500000920E-02 0.  1.
        2   -1    0    0  501    0  0.00000000000E+00  0.00000000000E+00 -0.29455215177E+04  0.29455215177E+04  0.25500000920E-02 0. -1.
    10030    2    1    2    0    0  0.00000000000E+00  0.00000000000E+00 -0.16106714066E+04  0.42803716288E+04  0.39657683871E+04 0.  0.
        3    1    3    3  502    0  0.17528552377E+04  0.27174710840E+03  0.15124623596E+03  0.17802312798E+04  0.10100000352E+00 0.  1.
       -3    1    3    3    0  502 -0.17528552377E+04 -0.27174710840E+03 -0.17619176426E+04  0.25001403490E+04  0.10100000352E+00 0. -1.
</event>
<event>
 5   0  0.4795023E-07  0.2236729E+04  0.7818609E-02  0.8503294E-01
        1   -1    0    0  501    0  0.00000000000E+00  0.00000000000E+00  0.24642925743E+04  0.24642925744E+04  0.50400001928E-02 0.  1.
       -1   -1    0    0    0  501  0.00000000000E+00  0.00000000000E+00 -0.50754489888E+03  0.50754489891E+03  0.50400001928E-02 0. -1.
    10030    2    1    2    0    0  0.00000000000E+00  0.00000000000E+00  0.19567476755E+04  0.29718374733E+04  0.22367289738E+04 0.  0.
        3    1    3    3  502    0  0.10410159658E+04  0.22832614627E+02  0.43621887853E+03  0.11289475140E+04  0.10100000352E+00 0. -1.
       -3    1    3    3    0  502 -0.10410159658E+04 -0.22832614627E+02  0.15205287969E+04  0.18428899592E+04  0.10100000352E+00 0.  1.
</event>
<event>
 5   0  0.5284458E-07  0.3821107E+04  0.7818609E-02  0.8041640E-01
        1   -1    0    0  501    0  0.00000000000E+00  0.00000000000E+00  0.11441610289E+04  0.11441610289E+04  0.50400001928E-02 0.  1.
       -1   -1    0    0    0  501  0.00000000000E+00  0.00000000000E+00 -0.31902980399E+04  0.31902980399E+04  0.50400001928E-02 0. -1.
    10030    2    1    2    0    0  0.00000000000E+00  0.00000000000E+00 -0.20461370110E+04  0.43344590688E+04  0.38211070060E+04 0.  0.
        5    1    3    3  502    0  0.54652044496E+03  0.16489769817E+01 -0.30997297617E+04  0.31475441223E+04  0.46999998093E+01 0. -1.
       -5    1    3    3    0  502 -0.54652044496E+03 -0.16489769817E+01  0.10535927507E+04  0.11869149465E+04  0.46999998093E+01 0.  1.
</event>
<event>
 5   0  0.4255250E-07  0.2708084E+04  0.7818609E-02  0.8332387E-01
        1   -1    0    0  501    0  0.00000000000E+00  0.00000000000E+00  0.24116330603E+04  0.24116330603E+04  0.50400001928E-02 0.  1.
       -1   -1    0    0    0  501  0.00000000000E+00  0.00000000000E+00 -0.76024418743E+03  0.76024418745E+03  0.50400001928E-02 0. -1.
    10030    2    1    2    0    0  0.00000000000E+00  0.00000000000E+00  0.16513888729E+04  0.31718772478E+04  0.27080842057E+04 0.  0.
        2    1    3    3  502    0  0.60092890174E+03  0.62815873504E+03  0.20416267782E+04  0.22189950073E+04  0.25500000920E-02 0.  1.
       -2    1    3    3    0  502 -0.60092890174E+03 -0.62815873504E+03 -0.39023790529E+03  0.95288224041E+03  0.25500000920E-02 0. -1.
</event>
<event>
 5   0  0.4255250E-07  0.3755115E+04  0.7818609E-02  0.8055856E-01
       -1   -1    0    0    0  501  0.00000000000E+00  0.00000000000E+00  0.14298150977E+04  0.14298150977E+04  0.50400001928E-02 0.  1.
        1   -1    0    0  501    0  0.00000000000E+00  0.00000000000E+00 -0.24655095331E+04  0.24655095331E+04  0.50400001928E-02 0. -1.
    10030    2    1    2    0    0  0.00000000000E+00  0.00000000000E+00 -0.10356944353E+04  0.38953246308E+04  0.37551153133E+04 0.  0.
        2    1    3    3  502    0 -0.21447436829E+03 -0.86889010237E+03  0.11943119552E+04  0.14924310071E+04  0.25500000920E-02 0.  1.
       -2    1    3    3    0  502  0.21447436829E+03  0.86889010237E+03 -0.22300063906E+04  0.24028936237E+04  0.25500000920E-02 0. -1.
</event>
<event>
 5   0  0.1184616E-06  0.3945184E+04  0.7818609E-02  0.8015697E-01
        2   -1    0    0  501    0  0.00000000000E+00  0.00000000000E+00  0.20752050686E+04  0.20752050686E+04  0.25500000920E-02 0. -1.
       -2   -1    0    0    0  501  0.00000000000E+00  0.00000000000E+00 -0.18750532102E+04  0.18750532102E+04  0.25500000920E-02 0.  1.
    10030    2    1    2    0    0  0.00000000000E+00  0.00000000000E+00  0.20015185839E+03  0.39502582788E+04  0.39451843687E+04 0.  0.
        5    1    3    3  502    0 -0.20968112840E+03  0.28589164239E+03 -0.18428829559E+04  0.18766832141E+04  0.46999998093E+01 0.  1.
       -5    1    3    3    0  502  0.20968112840E+03 -0.28589164239E+03  0.20430348143E+04  0.20735750648E+04  0.46999998093E+01 0. -1.
</event>
<event>
 5   0  0.5284458E-07  0.3910006E+04  0.7818609E-02  0.8022951E-01
       -1   -1    0    0    0  501  0.00000000000E+00  0.00000000000E+00  0.35058026525E+04  0.35058026525E+04  0.50400001928E-02 0.  1.
        1   -1    0    0  501    0  0.00000000000E+00  0.00000000000E+00 -0.10902032956E+04  0.10902032956E+04  0.50400001928E-02 0. -1.
    10030    2    1    2    0    0  0.00000000000E+00  0.00000000000E+00  0.24155993570E+04  0.45960059481E+04  0.39100064478E+04 0.  0.
        5    1    3    3  502    0 -0.50573144872E+02 -0.37589882479E+02 -0.10890026653E+04  0.10908343308E+04  0.46999998093E+01 0. -1.
       -5    1    3    3    0  502  0.50573144872E+02  0.37589882479E+02  0.35046020222E+04  0.35051716173E+04  0.46999998093E+01 0.  1.
</event>
<event>
 5   0  0.8030324E-07  0.3778287E+04  0.7818609E-02  0.8050830E-01
        1   -1    0    0  501    0  0.00000000000E+00  0.00000000000E+00  0.10387857270E+04  0.10387857270E+04  0.50400001928E-02 0.  1.
       -1   -1    0    0    0  501  0.00000000000E+00  0.00000000000E+00 -0.34356111142E+04  0.34356111142E+04  0.50400001928E-02 0. -1.
    10030    2    1    2    0    0  0.00000000000E+00  0.00000000000E+00 -0.23968253872E+04  0.44743968412E+04  0.37782873310E+04 0.  0.
        1    1    3    3  502    0  0.14546289013E+04 -0.21803693009E+03  0.20548726712E+03  0.14851634120E+04  0.50400001928E-02 0.  1.
       -1    1    3    3    0  502 -0.14546289013E+04  0.21803693009E+03 -0.26023126543E+04  0.29892334292E+04  0.50400001928E-02 0. -1.
</event>
<event>
 5   0  0.1341932E-06  0.3369753E+04  0.7818609E-02  0.8145370E-01
        2   -1    0    0  501    0  0.00000000000E+00  0.00000000000E+00  0.18009586402E+04  0.18009586402E+04  0.25500000920E-02 0.  1.
       -2   -1    0    0    0  501  0.00000000000E+00  0.00000000000E+00 -0.15762768376E+04  0.15762768376E+04  0.25500000920E-02 0. -1.
    10030    2    1    2    0    0  0.00000000000E+00  0.00000000000E+00  0.22468180264E+03  0.33772354778E+04  0.33697533382E+04 0.  0.
        2    1    3    3  502    0 -0.20758250807E+03 -0.15136196664E+03 -0.15565316239E+04  0.15775904535E+04  0.25500000920E-02 0. -1.
       -2    1    3    3    0  502  0.20758250807E+03  0.15136196664E+03  0.17812134266E+04  0.17996450244E+04  0.25500000920E-02 0.  1.
</event>
<event>
 5   0  0.1372748E-06  0.2473192E+04  0.7818609E-02  0.8412599E-01
       -2   -1    0    0    0  501  0.00000000000E+00  0.00000000000E+00  0.87547370471E+03  0.87547370471E+03  0.25500000920E-02 0. -1.
        2   -1    0    0  501    0  0.00000000000E+00  0.00000000000E+00 -0.17466762000E+04  0.17466762000E+04  0.25500000920E-02 0.  1.
    10030    2    1    2    0    0  0.00000000000E+00  0.00000000000E+00 -0.87120249532E+03  0.26221499047E+04  0.24731915282E+04 0.  0.
        1    1    3    3  502    0 -0.43252868024E+03  0.24663281149E+03 -0.16357040435E+04  0.17098059893E+04  0.50400001928E-02 0.  1.
       -1    1    3    3    0  502  0.43252868024E+03 -0.24663281149E+03  0.76450154818E+03  0.91234391549E+03  0.50400001928E-02 0. -1.
</event>
<event>
 5   0  0.4255250E-07  0.2566904E+04  0.7818609E-02  0.8379531E-01
        1   -1    0    0  501    0  0.00000000000E+00  0.00000000000E+00  0.17300817130E+04  0.17300817130E+04  0.50400001928E-02 0. -1.
       -1   -1    0    0    0  501  0.00000000000E+00  0.00000000000E+00 -0.95212244389E+03  0.95212244390E+03  0.50400001928E-02 0.  1.
    10030    2    1    2    0    0  0.00000000000E+00  0.00000000000E+00  0.77795926908E+03  0.26822041569E+04  0.25669044616E+04 0.  0.
        2    1    3    3  502    0 -0.12564901450E+04 -0.22990007134E+03  0.51960732156E+03  0.13789899550E+04  0.25500000920E-02 0. -1.
       -2    1    3    3    0  502  0.12564901450E+04  0.22990007134E+03  0.25835194752E+03  0.13032142019E+04  0.25500000920E-02 0.  1.
</event>
<event>
 5   0  0.5284458E-07  0.3839920E+04  0.7818609E-02  0.8037642E-01
        1   -1    0    0  501    0  0.00000000000E+00  0.00000000000E+00  0.17475957613E+04  0.17475957613E+04  0.50400001928E-02 0. -1.
       -1   -1    0    0    0  501  0.00000000000E+00  0.00000000000E+00 -0.21093247265E+04  0.21093247265E+04  0.50400001928E-02 0.  1.
    10030    2    1    2    0    0  0.00000000000E+00  0.00000000000E+00 -0.36172896517E+03  0.38569204878E+04  0.38399202863E+04 0.  0.
        5    1    3    3  502    0  0.69726484420E+03  0.50495082403E+03  0.15428541692E+04  0.17667978591E+04  0.46999998093E+01 0. -1.
       -5    1    3    3    0  502 -0.69726484420E+03 -0.50495082403E+03 -0.19045831343E+04  0.20901226287E+04  0.46999998093E+01 0.  1.
</event>
<event>
 5   0  0.1341932E-06  0.3669552E+04  0.7818609E-02  0.8074743E-01
        2   -1    0    0  501    0  0.00000000000E+00  0.00000000000E+00  0.13286892852E+04  0.13286892852E+04  0.25500000920E-02 0.  1.
       -2   -1    0    0    0  501  0.00000000000E+00  0.00000000000E+00 -0.25336274031E+04  0.25336274031E+04  0.25500000920E-02 0. -1.
    10030    2    1    2    0    0  0.00000000000E+00  0.00000000000E+00 -0.12049381179E+04  0.38623166883E+04  0.36695523341E+04 0.  0.
        2    1    3    3  502    0  0.16071530074E+04  0.18453753599E+03  0.30868991657E+03  0.16469014409E+04  0.25500000920E-02 0.  1.
       -2    1    3    3    0  502 -0.16071530074E+04 -0.18453753599E+03 -0.15136280344E+04  0.22154152473E+04  0.25500000920E-02 0. -1.
</event>
<event>
 5   0  0.1372748E-06  0.3879884E+04  0.7818609E-02  0.8029226E-01
        2   -1    0    0  501    0  0.00000000000E+00  0.00000000000E+00  0.32003849738E+04  0.32003849738E+04  0.25500000920E-02 0.  1.
       -2   -1    0    0    0  501  0.00000000000E+00  0.00000000000E+00 -0.11759129385E+04  0.11759129385E+04  0.25500000920E-02 0. -1.
    10030    2    1    2    0    0  0.00000000000E+00  0.00000000000E+00  0.20244720353E+04  0.43762979123E+04  0.38798835543E+04 0.  0.
        1    1    3    3  502    0  0.26197060255E+03 -0.58020480879E+03 -0.10547403398E+04  0.12319672890E+04  0.50400001928E-02 0. -1.
       -1    1    3    3    0  502 -0.26197060255E+03  0.58020480879E+03  0.30792123752E+04  0.31443306232E+04  0.50400001928E-02 0.  1.
</event>
<event>
 5   0  0.4795023E-07  0.3639101E+04  0.7818609E-02  0.8081593E-01
       -1   -1    0    0    0  501  0.00000000000E+00  0.00000000000E+00  0.23196266232E+04  0.23196266232E+04  0.50400001928E-02 0.  1.
        1   -1    0    0  501    0  0.00000000000E+00  0.00000000000E+00 -0.14272833589E+04  0.14272833589E+04  0.50400001928E-02 0. -1.
    10030    2    1    2    0    0  0.00000000000E+00  0.00000000000E+00  0.89234326424E+03  0.37469099821E+04  0.36391012507E+04 0.  0.
        3    1    3    3  502    0  0.99667069532E+03  0.90211575243E+03  0.17087116655E+04  0.21741345110E+04  0.10100000352E+00 0.  1.
       -3    1    3    3    0  502 -0.99667069532E+03 -0.90211575243E+03 -0.81636840130E+03  0.15727754711E+04  0.10100000352E+00 0. -1.
</event>
<event>
 5   0  0.1341932E-06  0.2938360E+04  0.7818609E-02  0.8261555E-01
       -2   -1    0    0    0  501  0.00000000000E+00  0.00000000000E+00  0.98647406390E+03  0.98647406390E+03  0.25500000920E-02 0. -1.
        2   -1    0    0  501    0  0.00000000000E+00  0.00000000000E+00 -0.21880859539E+04  0.21880859539E+04  0.25500000920E-02 0.  1.
    10030    2    1    2    0    0  0.00000000000E+00  0.00000000000E+00 -0.12016118900E+04  0.31745600178E+04  0.29383601162E+04 0.  0.
        2    1    3    3  502    0 -0.88553139429E+03  0.91343248646E+03 -0.13946979743E+04  0.18877783760E+04  0.25500000920E-02 0.  1.
       -2    1    3    3    0  502  0.88553139429E+03 -0.91343248646E+03  0.19308608428E+03  0.12867816417E+04  0.25500000920E-02 0. -1.
</event>
<event>
 5   0  0.1079205E-06  0.3891261E+04  0.7818609E-02  0.8026849E-01
       -1   -1    0    0    0  501  0.00000000000E+00  0.00000000000E+00  0.21119401678E+04  0.21119401678E+04  0.50400001928E-02 0. -1.
        1   -1    0    0  501    0  0.00000000000E+00  0.00000000000E+00 -0.17924168742E+04  0.17924168742E+04  0.50400001928E-02 0.  1.
    10030    2    1    2    0    0  0.00000000000E+00  0.00000000000E+00  0.31952329360E+03  0.39043570421E+04  0.38912605640E+04 0.  0.
        4    1    3    3  502    0 -0.38847831675E+02  0.54603253868E+03  0.20330790755E+04  0.21054863636E+04  0.12699999809E+01 0. -1.
       -4    1    3    3    0  502  0.38847831675E+02 -0.54603253868E+03 -0.17135557819E+04  0.17988706785E+04  0.12699999809E+01 0.  1.
</event>
<event>
 5   0  0.5284458E-07  0.3515836E+04  0.7818609E-02  0.8110047E-01
        1   -1    0    0  501    0  0.00000000000E+00  0.00000000000E+00  0.22676242470E+04  0.22676242470E+04  0.50400001928E-02 0.  1.
       -1   -1    0    0    0  501  0.00000000000E+00  0.00000000000E+00 -0.13627811595E+04  0.13627811595E+04  0.50400001928E-02 0. -1.
    10030    2    1    2    0    0  0.00000000000E+00  0.00000000000E+00  0.90484308748E+03  0.36304054066E+04  0.35158359466E+04 0.  0.
        5    1    3    3  502    0 -0.68290424098E+03 -0.17208824802E+03  0.21155853523E+04  0.22297300376E+04  0.46999998093E+01 0.  1.
       -5    1    3    3    0  502  0.68290424098E+03  0.17208824802E+03 -0.12107422648E+04  0.14006753690E+04  0.46999998093E+01 0. -1.
</event>
<event>
 5   0  0.1184616E-06  0.2057122E+04  0.7818609E-02  0.8580370E-01
        2   -1    0    0  501    0  0.00000000000E+00  0.00000000000E+00  0.12880821753E+04  0.12880821753E+04  0.25500000920E-02 0. -1.
       -2   -1    0    0    0  501  0.00000000000E+00  0.00000000000E+00 -0.82132802052E+03  0.82132802052E+03  0.25500000920E-02 0.  1.
    10030    2    1    2    0    0  0.00000000000E+00  0.00000000000E+00  0.46675415476E+03  0.21094101958E+04  0.20571222456E+04 0.  0.
        5    1    3    3  502    0 -0.76865812409E+03 -0.67595632645E+03  0.33675440105E+03  0.10775796414E+04  0.46999998093E+01 0. -1.
       -5    1    3    3    0  502  0.76865812409E+03  0.67595632645E+03  0.12999975372E+03  0.10318305544E+04  0.46999998093E+01 0.  1.
</event>
<event>
 5   0  0.1341932E-06  0.3842189E+04  0.7818609E-02  0.8037161E-01
        2   -1    0    0  501    0  0.00000000000E+00  0.00000000000E+00  0.20797104553E+04  0.20797104553E+04  0.25500000920E-02 0.  1.
       -2   -1    0    0    0  501  0.00000000000E+00  0.00000000000E+00 -0.17745757726E+04  0.17745757726E+04  0.25500000920E-02 0. -1.
    10030    2    1    2    0    0  0.00000000000E+00  0.00000000000E+00  0.30513468266E+03  0.38542862279E+04  0.38421888491E+04 0.  0.
        2    1    3    3  502    0 -0.13384959028E+04 -0.23128432801E+03  0.15153512438E+04  0.20350314775E+04  0.25500000920E-02 0.  1.
       -2    1    3    3    0  502  0.13384959028E+04  0.23128432801E+03 -0.12102165612E+04  0.18192547505E+04  0.25500000920E-02 0. -1.
</event>
<event>
 5   0  0.4255250E-07  0.2455612E+04  0.7818609E-02  0.8418972E-01
       -1   -1    0    0    0  501  0.00000000000E+00  0.00000000000E+00  0.10138754276E+04  0.10138754277E+04  0.50400001928E-02 0. -1.
        1   -1    0    0  501    0  0.00000000000E+00  0.00000000000E+00 -0.14868764736E+04  0.14868764736E+04  0.50400001928E-02 0.  1.
    10030    2    1    2    0    0  0.00000000000E+00  0.00000000000E+00 -0.47300104595E+03  0.25007519013E+04  0.24556119568E+04 0.  0.
        2    1    3    3  502    0  0.65788958539E+03  0.37702953265E+03 -0.12199318339E+04  0.14363856217E+04  0.25500000920E-02 0.  1.
       -2    1    3    3    0  502 -0.65788958539E+03 -0.37702953265E+03  0.74693078791E+03  0.10643662795E+04  0.25500000920E-02 0. -1.
</event>
<event>
 5   0  0.4795023E-07  0.3829022E+04  0.7818609E-02  0.8039955E-01
       -1   -1    0    0    0  501  0.00000000000E+00  0.00000000000E+00  0.17999103560E+04  0.17999103560E+04  0.50400001928E-02 0. -1.
        1   -1    0    0  501    0  0.00000000000E+00  0.00000000000E+00 -0.20364079532E+04  0.20364079532E+04  0.50400001928E-02 0.  1.
    10030    2    1    2    0    0  0.00000000000E+00  0.00000000000E+00 -0.23649759716E+03  0.38363183092E+04  0.38290216839E+04 0.  0.
        3    1    3    3  502    0 -0.75794219807E+03  0.15088440272E+04  0.78583713831E+03  0.18624249494E+04  0.10100000352E+00 0.  1.
       -3    1    3    3    0  502  0.75794219807E+03 -0.15088440272E+04 -0.10223347355E+04  0.19738933597E+04  0.10100000352E+00 0. -1.
</event>
<event>
 5   0  0.1341932E-06  0.2737576E+04  0.7818609E-02  0.8322915E-01
       -2   -1    0    0    0  501  0.00000000000E+00  0.00000000000E+00  0.99522283837E+03  0.99522283838E+03  0.25500000920E-02 0.  1.
        2   -1    0    0  501    0  0.00000000000E+00  0.00000000000E+00 -0.18825737468E+04  0.18825737468E+04  0.25500000920E-02 0. -1.
    10030    2    1    2    0    0  0.00000000000E+00  0.00000000000E+00 -0.88735090845E+03  0.28777965852E+04  0.27375758530E+04 0.  0.
        2    1    3    3  502    0  0.11358337961E+04  0.31542835101E+03  0.28763498882E+03  0.12134032075E+04  0.25500000920E-02 0. -1.
       -2    1    3    3    0  502 -0.11358337961E+04 -0.31542835101E+03 -0.11749858973E+04  0.16643933777E+04  0.25500000920E-02 0.  1.
</event>
<event>
 5   0  0.4795023E-07  0.3865446E+04  0.7818609E-02  0.8032254E-01
        1   -1    0    0  501    0  0.00000000000E+00  0.00000000000E+00  0.20755818917E+04  0.20755818917E+04  0.50400001928E-02 0.  1.
       -1   -1    0    0    0  501  0.00000000000E+00  0.00000000000E+00 -0.17996967311E+04  0.17996967311E+04  0.50400001928E-02 0. -1.
    10030    2    1    2    0    0  0.00000000000E+00  0.00000000000E+00  0.27588516056E+03  0.38752786228E+04  0.38654458711E+04 0.  0.
        3    1    3    3  502    0 -0.19789728299E+03 -0.17707946665E+04 -0.61265467217E+03  0.18842035036E+04  0.10100000352E+00 0. -1.
       -3    1    3    3    0  502  0.19789728299E+03  0.17707946665E+04  0.88853983273E+03  0.19910751192E+04  0.10100000352E+00 0.  1.
</event>
<event>
 5   0  0.1184616E-06  0.2685800E+04  0.7818609E-02  0.8339627E-01
        2   -1    0    0  501    0  0.00000000000E+00  0.00000000000E+00  0.10909536535E+04  0.10909536535E+04  0.25500000920E-02 0.  1.
       -2   -1    0    0    0  501  0.00000000000E+00  0.00000000000E+00 -0.16530307690E+04  0.16530307690E+04  0.25500000920E-02 0. -1.
    10030    2    1    2    0    0  0.00000000000E+00  0.00000000000E+00 -0.56207711556E+03  0.27439844225E+04  0.26857996625E+04 0.  0.
        5    1    3    3  502    0 -0.36184948485E+03  0.10896637674E+04 -0.99258594604E+03  0.15177454088E+04  0.46999998093E+01 0. -1.
       -5    1    3    3    0  502  0.36184948485E+03 -0.10896637674E+04  0.43050883049E+03  0.12262390137E+04  0.46999998093E+01 0.  1.
</event>
<event>
 5   0  0.5284458E-07  0.3845583E+04  0.7818609E-02  0.8036443E-01
        1   -1    0    0  501    0  0.00000000000E+00  0.00000000000E+00  0.22187000796E+04  0.22187000796E+04  0.50400001928E-02 0. -1.
       -1   -1    0    0    0  501  0.00000000000E+00  0.00000000000E+00 -0.16663479180E+04  0.16663479180E+04  0.50400001928E-02 0.  1.
    10030    2    1    2    0    0  0.00000000000E+00  0.00000000000E+00  0.55235216162E+03  0.38850479976E+04  0.38455825350E+04 0.  0.
        5    1    3    3  502    0 -0.10764784619E+03 -0.10879644099E+04  0.18741321918E+04  0.21697115426E+04  0.46999998093E+01 0. -1.
       -5    1    3    3    0  502  0.10764784619E+03  0.10879644099E+04 -0.13217800302E+04  0.17153364550E+04  0.46999998093E+01 0.  1.
</event>
<event>
 5   0  0.1341932E-06  0.3018289E+04  0.7818609E-02  0.8238528E-01
       -2   -1    0    0    0  501  0.00000000000E+00  0.00000000000E+00  0.10057481253E+04  0.10057481253E+04  0.25500000920E-02 0.  1.
        2   -1    0    0  501    0  0.00000000000E+00  0.00000000000E+00 -0.22644997906E+04  0.22644997906E+04  0.25500000920E-02 0. -1.
    10030    2    1    2    0    0  0.00000000000E+00  0.00000000000E+00 -0.12587516653E+04  0.32702479159E+04  0.30182885343E+04 0.  0.
        2    1    3    3  502    0 -0.96927919730E+03 -0.10211297551E+04 -0.40589479233E+02  0.14084941054E+04  0.25500000920E-02 0.  1.
       -2    1    3    3    0  502  0.96927919730E+03  0.10211297551E+04 -0.12181621861E+04  0.18617538104E+04  0.25500000920E-02 0. -1.
</event>
<event>
 5   0  0.4795023E-07  0.3662232E+04  0.7818609E-02  0.8076384E-01
        1   -1    0    0  501    0  0.00000000000E+00  0.00000000000E+00  0.25017458139E+04  0.25017458139E+04  0.50400001928E-02 0.  1.
       -1   -1    0    0    0  501  0.00000000000E+00  0.00000000000E+00 -0.13402582253E+04  0.13402582253E+04  0.50400001928E-02 0. -1.
    10030    2    1    2    0    0  0.00000000000E+00  0.00000000000E+00  0.11614875886E+04  0.38420040392E+04  0.36622317811E+04 0.  0.
        3    1    3    3  502    0 -0.10790311967E+04  0.14650861925E+04  0.79625295915E+03  0.19861532317E+04  0.10100000352E+00 0.  1.
       -3    1    3    3    0  502  0.10790311967E+04 -0.14650861925E+04  0.36523462940E+03  0.18558508075E+04  0.10100000352E+00 0. -1.
</event>
<event>
 5   0  0.1341932E-06  0.3780226E+04  0.7818609E-02  0.8050412E-01
        2   -1    0    0  501    0  0.00000000000E+00  0.00000000000E+00  0.22686247370E+04  0.22686247370E+04  0.25500000920E-02 0. -1.
       -2   -1    0    0    0  501  0.00000000000E+00  0.00000000000E+00 -0.15747548913E+04  0.15747548913E+04  0.25500000920E-02 0.  1.
    10030    2    1    2    0    0  0.00000000000E+00  0.00000000000E+00  0.69386984575E+03  0.38433796283E+04  0.37802263959E+04 0.  0.
        2    1    3    3  502    0  0.78025919545E+03 -0.86770271466E+03 -0.11647863439E+04  0.16487691288E+04  0.25500000920E-02 0.  1.
       -2    1    3    3    0  502 -0.78025919545E+03  0.86770271466E+03  0.18586561897E+04  0.21946104995E+04  0.25500000920E-02 0. -1.
</event>
<event>
 5   0  0.4255250E-07  0.3649934E+04  0.7818609E-02  0.8079149E-01
       -1   -1    0    0    0  501  0.00000000000E+00  0.00000000000E+00  0.20599364580E+04  0.20599364580E+04  0.50400001928E-02 0.  1.
        1   -1    0    0  501    0  0.00000000000E+00  0.00000000000E+00 -0.16167996455E+04  0.16167996455E+04  0.50400001928E-02 0. -1.
    10030    2    1    2    0    0  0.00000000000E+00  0.00000000000E+00  0.44313681243E+03  0.36767361035E+04  0.36499339912E+04 0.  0.
        2    1    3    3  502    0  0.33863805315E+03  0.63571203596E+03 -0.14675568801E+04  0.16347870565E+04  0.25500000920E-02 0. -1.
       -2    1    3    3    0  502 -0.33863805315E+03 -0.63571203596E+03  0.19106936926E+04  0.20419490470E+04  0.25500000920E-02 0.  1.
</event>
<event>
 5   0  0.4255250E-07  0.3696120E+04  0.7818609E-02  0.8068822E-01
        1   -1    0    0  501    0  0.00000000000E+00  0.00000000000E+00  0.11375015304E+04  0.11375015304E+04  0.50400001928E-02 0. -1.
       -1   -1    0    0    0  501  0.00000000000E+00  0.00000000000E+00 -0.30024793743E+04  0.30024793743E+04  0.50400001928E-02 0.  1.
    10030    2    1    2    0    0  0.00000000000E+00  0.00000000000E+00 -0.18649778439E+04  0.41399809047E+04  0.36961195237E+04 0.  0.
        2    1    3    3  502    0 -0.12186066875E+04 -0.35839755742E+03 -0.24360273008E+04  0.27473041474E+04  0.25500000920E-02 0.  1.
       -2    1    3    3    0  502  0.12186066875E+04  0.35839755742E+03  0.57104945693E+03  0.13926767573E+04  0.25500000920E-02 0. -1.
</event>
<event>
 5   0  0.1079205E-06  0.1982456E+04  0.7818609E-02  0.8614867E-01
       -1   -1    0    0    0  501  0.00000000000E+00  0.00000000000E+00  0.93737664578E+03  0.93737664579E+03  0.50400001928E-02 0. -1.
        1   -1    0    0  501    0  0.00000000000E+00  0.00000000000E+00 -0.10481735102E+04  0.10481735103E+04  0.50400001928E-02 0.  1.
    10030    2    1    2    0    0  0.00000000000E+00  0.00000000000E+00 -0.11079686447E+03  0.19855501561E+04  0.19824564250E+04 0.  0.
        4    1    3    3  502    0  0.57646450905E+03 -0.35278276846E+03  0.67082948915E+03  0.95225040211E+03  0.12699999809E+01 0. -1.
       -4    1    3    3    0  502 -0.57646450905E+03  0.35278276846E+03 -0.78162635362E+03  0.10332997539E+04  0.12699999809E+01 0.  1.
</event>
<event>
 5   0  0.8030324E-07  0.3723702E+04  0.7818609E-02  0.8062729E-01
       -1   -1    0    0    0  501  0.00000000000E+00  0.00000000000E+00  0.21424671162E+04  0.21424671162E+04  0.50400001928E-02 0. -1.
        1   -1    0    0  501    0  0.00000000000E+00  0.00000000000E+00 -0.16179890198E+04  0.16179890198E+04  0.50400001928E-02 0.  1.
    10030    2    1    2    0    0  0.00000000000E+00  0.00000000000E+00  0.52447809639E+03  0.37604561360E+04  0.37237015291E+04 0.  0.
        1    1    3    3  502    0  0.20811589536E+03  0.97294782739E+03  0.18514775898E+04  0.21018822437E+04  0.50400001928E-02 0. -1.
       -1    1    3    3    0  502 -0.20811589536E+03 -0.97294782739E+03 -0.13269994934E+04  0.16585738923E+04  0.50400001928E-02 0.  1.
</event>
<event>
 5   0  0.5284458E-07  0.2622819E+04  0.7818609E-02  0.8360491E-01
       -1   -1    0    0    0  501  0.00000000000E+00  0.00000000000E+00  0.11420306346E+04  0.11420306346E+04  0.50400001928E-02 0. -1.
        1   -1    0    0  501    0  0.00000000000E+00  0.00000000000E+00 -0.15059093993E+04  0.15059093993E+04  0.50400001928E-02 0.  1.
    10030    2    1    2    0    0  0.00000000000E+00  0.00000000000E+00 -0.36387876468E+03  0.26479400340E+04  0.26228188401E+04 0.  0.
        5    1    3    3  502    0 -0.77544896224E+03  0.88930004858E+03 -0.75978223766E+03  0.14033769302E+04  0.46999998093E+01 0. -1.
       -5    1    3    3    0  502  0.77544896224E+03 -0.88930004858E+03  0.39590347298E+03  0.12445631038E+04  0.46999998093E+01 0.  1.
</event>
<event>
 5   0  0.1184616E-06  0.3709034E+04  0.7818609E-02  0.8065963E-01
       -2   -1    0    0    0  501  0.00000000000E+00  0.00000000000E+00  0.13226788256E+04  0.13226788256E+04  0.25500000920E-02 0.  1.
        2   -1    0    0  501    0  0.00000000000E+00  0.00000000000E+00 -0.26002030031E+04  0.26002030031E+04  0.25500000920E-02 0. -1.
    10030    2    1    2    0    0  0.00000000000E+00  0.00000000000E+00 -0.12775241775E+04  0.39228818287E+04  0.37090340815E+04 0.  0.
        5    1    3    3  502    0  0.11408771758E+04 -0.11188950594E+04  0.35660647190E+03  0.16372895743E+04  0.46999998093E+01 0.  1.
       -5    1    3    3    0  502 -0.11408771758E+04  0.11188950594E+04 -0.16341306494E+04  0.22855922544E+04  0.46999998093E+01 0. -1.
</event>
<event>
 5   0  0.1372748E-06  0.2469706E+04  0.7818609E-02  0.8413858E-01
       -2   -1    0    0    0  501  0.00000000000E+00  0.00000000000E+00  0.21966894655E+04  0.21966894655E+04  0.25500000920E-02 0. -1.
        2   -1    0    0  501    0  0.00000000000E+00  0.00000000000E+00 -0.69416379798E+03  0.69416379799E+03  0.25500000920E-02 0.  1.
    10030    2    1    2    0    0  0.00000000000E+00  0.00000000000E+00  0.15025256675E+04  0.28908532634E+04  0.24697063002E+04 0.  0.
        1    1    3    3  502    0  0.84051975023E+03 -0.31606787358E+03 -0.24091858052E+03  0.92973873411E+03  0.50400001928E-02 0.  1.
       -1    1    3    3    0  502 -0.84051975023E+03  0.31606787358E+03  0.17434442480E+04  0.19611145293E+04  0.50400001928E-02 0. -1.
</event>
<event>
 5   0  0.5284458E-07  0.3275011E+04  0.7818609E-02  0.8169283E-01
       -1   -1    0    0    0  501  0.00000000000E+00  0.00000000000E+00  0.18410616677E+04  0.18410616677E+04  0.50400001928E-02 0. -1.
        1   -1    0    0  501    0  0.00000000000E+00  0.00000000000E+00 -0.14564550124E+04  0.14564550124E+04  0.50400001928E-02 0.  1.
    10030    2    1    2    0    0  0.00000000000E+00  0.00000000000E+00  0.38460665531E+03  0.32975166801E+04  0.32750105307E+04 0.  0.
        5    1    3    3  502    0  0.70813106914E+03  0.11061674727E+04 -0.79234617904E+03  0.15339135067E+04  0.46999998093E+01 0.  1.
       -5    1    3    3    0  502 -0.70813106914E+03 -0.11061674727E+04  0.11769528344E+04  0.17636031733E+04  0.46999998093E+01 0. -1.
</event>
<event>
 5   0  0.4255250E-07  0.3858902E+04  0.7818609E-02  0.8033631E-01
        1   -1    0    0  501    0  0.00000000000E+00  0.00000000000E+00  0.19418458434E+04  0.19418458434E+04  0.50400001928E-02 0. -1.
       -1   -1    0    0    0  501  0.00000000000E+00  0.00000000000E+00 -0.19171353745E+04  0.19171353745E+04  0.50400001928E-02 0.  1.
    10030    2    1    2    0    0  0.00000000000E+00  0.00000000000E+00  0.24710468959E+02  0.38589812179E+04  0.38589021020E+04 0.  0.
        2    1    3    3  502    0 -0.20284654786E+03 -0.68362889911E+03 -0.17805245623E+04  0.19180101435E+04  0.25500000920E-02 0. -1.
       -2    1    3    3    0  502  0.20284654786E+03  0.68362889911E+03  0.18052350312E+04  0.19409710744E+04  0.25500000920E-02 0.  1.
</event>
<event>
 5   0  0.1372748E-06  0.3207113E+04  0.7818609E-02  0.8186941E-01
       -2   -1    0    0    0  501  0.00000000000E+00  0.00000000000E+00  0.13684340746E+04  0.13684340746E+04  0.25500000920E-02 0. -1.
        2   -1    0    0  501    0  0.00000000000E+00  0.00000000000E+00 -0.18790768652E+04  0.18790768652E+04  0.25500000920E-02 0.  1.
    10030    2    1    2    0    0  0.00000000000E+00  0.00000000000E+00 -0.51064279067E+03  0.32475109398E+04  0.32071126024E+04 0.  0.
        1    1    3    3  502    0 -0.53687913094E+02  0.76283972763E+03 -0.16825386786E+04  0.18481729484E+04  0.50400001928E-02 0.  1.
       -1    1    3    3    0  502  0.53687913094E+02 -0.76283972763E+03  0.11718958879E+04  0.13993379914E+04  0.50400001928E-02 0. -1.
</event>
<event>
 5   0  0.1337854E-06  0.3804144E+04  0.7818609E-02  0.8045266E-01
        2   -1    0    0  501    0  0.00000000000E+00  0.00000000000E+00  0.20400880220E+04  0.20400880220E+04  0.25500000920E-02 0. -1.
       -2   -1    0    0    0  501  0.00000000000E+00  0.00000000000E+00 -0.17733929312E+04  0.17733929312E+04  0.25500000920E-02 0.  1.
    10030    2    1    2    0    0  0.00000000000E+00  0.00000000000E+00  0.26669509082E+03  0.38134809531E+04  0.38041438864E+04 0.  0.
        3    1    3    3  502    0  0.11111609104E+04 -0.50077550230E+02 -0.14133884492E+04  0.17985697786E+04  0.10100000352E+00 0.  1.
       -3    1    3    3    0  502 -0.11111609104E+04  0.50077550230E+02  0.16800835400E+04  0.20149111746E+04  0.10100000352E+00 0. -1.
</event>
<event>
 5   0  0.1372748E-06  0.2722434E+04  0.7818609E-02  0.8327762E-01
        2   -1    0    0  501    0  0.00000000000E+00  0.00000000000E+00  0.18849951830E+04  0.18849951830E+04  0.25500000920E-02 0.  1.
       -2   -1    0    0    0  501  0.00000000000E+00  0.00000000000E+00 -0.98297952529E+03  0.98297952529E+03  0.25500000920E-02 0. -1.
    10030    2    1    2    0    0  0.00000000000E+00  0.00000000000E+00  0.90201565772E+03  0.28679747083E+04  0.27224339626E+04 0.  0.
        1    1    3    3  502    0  0.75694850879E+03  0.11091930619E+04  0.68569866051E+03  0.15078006986E+04  0.50400001928E-02 0. -1.
       -1    1    3    3    0  502 -0.75694850879E+03 -0.11091930619E+04  0.21631699721E+03  0.13601740098E+04  0.50400001928E-02 0.  1.
</event>
<event>
 5   0  0.1337854E-06  0.3589160E+04  0.7818609E-02  0.8092979E-01
        2   -1    0    0  501    0  0.00000000000E+00  0.00000000000E+00  0.22502303210E+04  0.22502303210E+04  0.25500000920E-02 0.  1.
       -2   -1    0    0    0  501  0.00000000000E+00  0.00000000000E+00 -0.14311947524E+04  0.14311947524E+04  0.25500000920E-02 0. -1.
    10030    2    1    2    0    0  0.00000000000E+00  0.00000000000E+00  0.81903556857E+03  0.36814250734E+04  0.35891602511E+04 0.  0.
        3    1    3    3  502    0 -0.11049040156E+04  0.13837106486E+04  0.11038797194E+03  0.17741627765E+04  0.10100000352E+00 0. -1.
       -3    1    3    3    0  502  0.11049040156E+04 -0.13837106486E+04  0.70864759662E+03  0.19072622969E+04  0.10100000352E+00 0.  1.
</event>
<event>
 5   0  0.1341932E-06  0.2715325E+04  0.7818609E-02  0.8330050E-01
        2   -1    0    0  501    0  0.00000000000E+00  0.00000000000E+00  0.20089158115E+04  0.20089158115E+04  0.25500000920E-02 0.  1.
       -2   -1    0    0    0  501  0.00000000000E+00  0.00000000000E+00 -0.91753367860E+03  0.91753367861E+03  0.25500000920E-02 0. -1.
    10030    2    1    2    0    0  0.00000000000E+00  0.00000000000E+00  0.10913821329E+04  0.29264494901E+04  0.27153253319E+04 0.  0.
        2    1    3    3  502    0 -0.66551998216E+03  0.10098680557E+04  0.12104973410E+04  0.17111557933E+04  0.25500000920E-02 0.  1.
       -2    1    3    3    0  502  0.66551998216E+03 -0.10098680557E+04 -0.11911520806E+03  0.12152936968E+04  0.25500000920E-02 0. -1.
</event>
<event>
 5   0  0.1372748E-06  0.2501643E+04  0.7818609E-02  0.8402400E-01
        2   -1    0    0  501    0  0.00000000000E+00  0.00000000000E+00  0.10546026486E+04  0.10546026486E+04  0.25500000920E-02 0.  1.
       -2   -1    0    0    0  501  0.00000000000E+00  0.00000000000E+00 -0.14835487543E+04  0.14835487543E+04  0.25500000920E-02 0. -1.
    10030    2    1    2    0    0  0.00000000000E+00  0.00000000000E+00 -0.42894610570E+03  0.25381514029E+04  0.25016430166E+04 0.  0.
        1    1    3    3  502    0 -0.14519894970E+03 -0.87040583989E+03  0.68495466711E+03  0.11170729417E+04  0.50400001928E-02 0.  1.
       -1    1    3    3    0  502  0.14519894970E+03  0.87040583989E+03 -0.11139007728E+04  0.14210784612E+04  0.50400001928E-02 0. -1.
</event>
<event>
 5   0  0.1341932E-06  0.2821563E+04  0.7818609E-02  0.8296605E-01
        2   -1    0    0  501    0  0.00000000000E+00  0.00000000000E+00  0.19550633386E+04  0.19550633386E+04  0.25500000920E-02 0. -1.
       -2   -1    0    0    0  501  0.00000000000E+00  0.00000000000E+00 -0.10180256462E+04  0.10180256462E+04  0.25500000920E-02 0.  1.
    10030    2    1    2    0    0  0.00000000000E+00  0.00000000000E+00  0.93703769242E+03  0.29730889849E+04  0.28215631262E+04 0.  0.
        2    1    3    3  502    0  0.75677088626E+03 -0.10993049219E+04  0.95038617551E+03  0.16384161157E+04  0.25500000920E-02 0.  1.
       -2    1    3    3    0  502 -0.75677088626E+03  0.10993049219E+04 -0.13348483086E+02  0.13346728691E+04  0.25500000920E-02 0. -1.
</event>
<event>
 5   0  0.5284458E-07  0.3642503E+04  0.7818609E-02  0.8080825E-01
        1   -1    0    0  501    0  0.00000000000E+00  0.00000000000E+00  0.28713305920E+04  0.28713305920E+04  0.50400001928E-02 0.  1.
       -1   -1    0    0    0  501  0.00000000000E+00  0.00000000000E+00 -0.11551985310E+04  0.11551985310E+04  0.50400001928E-02 0. -1.
    10030    2    1    2    0    0  0.00000000000E+00  0.00000000000E+00  0.17161320609E+04  0.40265291230E+04  0.36425029208E+04 0.  0.
        5    1    3    3  502    0  0.93381152590E+03  0.14722387177E+04  0.27580383687E+03  0.17651007490E+04  0.46999998093E+01 0. -1.
       -5    1    3    3    0  502 -0.93381152590E+03 -0.14722387177E+04  0.14403282241E+04  0.22614283740E+04  0.46999998093E+01 0.  1.
</event>
<event>
 5   0  0.1184616E-06  0.3843761E+04  0.7818609E-02  0.8036829E-01
       -2   -1    0    0    0  501  0.00000000000E+00  0.00000000000E+00  0.14535342927E+04  0.14535342927E+04  0.25500000920E-02 0.  1.
        2   -1    0    0  501    0  0.00000000000E+00  0.00000000000E+00 -0.25411334102E+04  0.25411334102E+04  0.25500000920E-02 0. -1.
    10030    2    1    2    0    0  0.00000000000E+00  0.00000000000E+00 -0.10875991174E+04  0.39946677029E+04  0.38437609468E+04 0.  0.
        5    1    3    3  502    0 -0.59395170821E+03  0.95393399509E+03 -0.21641237591E+04  0.24384877349E+04  0.46999998093E+01 0. -1.
       -5    1    3    3    0  502  0.59395170821E+03 -0.95393399509E+03  0.10765246417E+04  0.15561799680E+04  0.46999998093E+01 0.  1.
</event>
<event>
 5   0  0.1337854E-06  0.3296326E+04  0.7818609E-02  0.8163831E-01
       -2   -1    0    0    0  501  0.00000000000E+00  0.00000000000E+00  0.15960661925E+04  0.15960661925E+04  0.25500000920E-02 0. -1.
        2   -1    0    0  501    0  0.00000000000E+00  0.00000000000E+00 -0.17019600590E+04  0.17019600590E+04  0.25500000920E-02 0.  1.
    10030    2    1    2    0    0  0.00000000000E+00  0.00000000000E+00 -0.10589386646E+03  0.32980262515E+04  0.32963257795E+04 0.  0.
        3    1    3    3  502    0 -0.74573152945E+03  0.20878548163E+03  0.14027036043E+04  0.16022747277E+04  0.10100000352E+00 0. -1.
       -3    1    3    3    0  502  0.74573152945E+03 -0.20878548163E+03 -0.15085974708E+04  0.16957515238E+04  0.10100000352E+00 0.  1.
</event>
<event>
 5   0  0.1341932E-06  0.3804283E+04  0.7818609E-02  0.8045236E-01
       -2   -1    0    0    0  501  0.00000000000E+00  0.00000000000E+00  0.16478950590E+04  0.16478950590E+04  0.25500000920E-02 0.  1.
        2   -1    0    0  501    0  0.00000000000E+00  0.00000000000E+00 -0.21956149030E+04  0.21956149030E+04  0.25500000920E-02 0. -1.
    10030    2    1    2    0    0  0.00000000000E+00  0.00000000000E+00 -0.54771984403E+03  0.38435099619E+04  0.38042833491E+04 0.  0.
        2    1    3    3  502    0  0.60263193155E+02 -0.51543125865E+03  0.15749934855E+04  0.16582839064E+04  0.25500000920E-02 0.  1.
       -2    1    3    3    0  502 -0.60263193155E+02  0.51543125865E+03 -0.21227133295E+04  0.21852260556E+04  0.25500000920E-02 0. -1.
</event>
<event>
 5   0  0.4795023E-07  0.3140039E+04  0.7818609E-02  0.8204835E-01
        1   -1    0    0  501    0  0.00000000000E+00  0.00000000000E+00  0.14001895232E+04  0.14001895232E+04  0.50400001928E-02 0.  1.
       -1   -1    0    0    0  501  0.00000000000E+00  0.00000000000E+00 -0.17604478444E+04  0.17604478444E+04  0.50400001928E-02 0. -1.
    10030    2    1    2    0    0  0.00000000000E+00  0.00000000000E+00 -0.36025832122E+03  0.31606373676E+04  0.31400386163E+04 0.  0.
        3    1    3    3  502    0 -0.79996795037E+03 -0.10969455292E+04  0.61353713829E+03  0.14898543707E+04  0.10100000352E+00 0.  1.
       -3    1    3    3    0  502  0.79996795037E+03  0.10969455292E+04 -0.97379545951E+03  0.16707829969E+04  0.10100000352E+00 0. -1.
</event>
<event>
 5   0  0.1337854E-06  0.3794258E+04  0.7818609E-02  0.8047388E-01
        2   -1    0    0  501    0  0.00000000000E+00  0.00000000000E+00  0.25609029765E+04  0.25609029765E+04  0.25500000920E-02 0.  1.
       -2   -1    0    0    0  501  0.00000000000E+00  0.00000000000E+00 -0.14054019769E+04  0.14054019769E+04  0.25500000920E-02 0. -1.
    10030    2    1    2    0    0  0.00000000000E+00  0.00000000000E+00  0.11555009996E+04  0.39663049535E+04  0.37942578225E+04 0.  0.
        3    1    3    3  502    0  0.13038145244E+04 -0.12559252629E+04  0.11707633483E+04  0.21559145178E+04  0.10100000352E+00 0.  1.
       -3    1    3    3    0  502 -0.13038145244E+04  0.12559252629E+04 -0.15262348701E+02  0.18103904357E+04  0.10100000352E+00 0. -1.
</event>
<event>
 5   0  0.4255250E-07  0.3647286E+04  0.7818609E-02  0.8079745E-01
        1   -1    0    0  501    0  0.00000000000E+00  0.00000000000E+00  0.19538865643E+04  0.19538865643E+04  0.50400001928E-02 0.  1.
       -1   -1    0    0    0  501  0.00000000000E+00  0.00000000000E+00 -0.17020815021E+04  0.17020815021E+04  0.50400001928E-02 0. -1.
    10030    2    1    2    0    0  0.00000000000E+00  0.00000000000E+00  0.25180506221E+03  0.36559680663E+04  0.36472862121E+04 0.  0.
        2    1    3    3  502    0 -0.61081982465E+03  0.13227327835E+04 -0.97349959451E+03  0.17522626331E+04  0.25500000920E-02 0. -1.
       -2    1    3    3    0  502  0.61081982465E+03 -0.13227327835E+04  0.12253046567E+04  0.19037054332E+04  0.25500000920E-02 0.  1.
</event>
<event>
 5   0  0.5284458E-07  0.3950054E+04  0.7818609E-02  0.8014699E-01
       -1   -1    0    0    0  501  0.00000000000E+00  0.00000000000E+00  0.13700551723E+04  0.13700551723E+04  0.50400001928E-02 0.  1.
        1   -1    0    0  501    0  0.00000000000E+00  0.00000000000E+00 -0.28471343329E+04  0.28471343329E+04  0.50400001928E-02 0. -1.
    10030    2    1    2    0    0  0.00000000000E+00  0.00000000000E+00 -0.14770791606E+04  0.42171895053E+04  0.39500537309E+04 0.  0.
        5    1    3    3  502    0 -0.34504735303E+03  0.13691273385E+04  0.73584775999E+03  0.15921876023E+04  0.46999998093E+01 0.  1.
       -5    1    3    3    0  502  0.34504735303E+03 -0.13691273385E+04 -0.22129269206E+04  0.26250019030E+04  0.46999998093E+01 0. -1.
</event>
<event>
 5   0  0.4255250E-07  0.1998034E+04  0.7818609E-02  0.8607540E-01
       -1   -1    0    0    0  501  0.00000000000E+00  0.00000000000E+00  0.89776730325E+03  0.89776730327E+03  0.50400001928E-02 0.  1.
        1   -1    0    0  501    0  0.00000000000E+00  0.00000000000E+00 -0.11116854847E+04  0.11116854847E+04  0.50400001928E-02 0. -1.
    10030    2    1    2    0    0  0.00000000000E+00  0.00000000000E+00 -0.21391818143E+03  0.20094527880E+04  0.19980339133E+04 0.  0.
        2    1    3    3  502    0 -0.61626528298E+03 -0.78372056118E+03 -0.43081831887E+02  0.99792628048E+03  0.25500000920E-02 0.  1.
       -2    1    3    3    0  502  0.61626528298E+03  0.78372056118E+03 -0.17083634954E+03  0.10115265075E+04  0.25500000920E-02 0. -1.
</event>
<event>
 5   0  0.1214844E-06  0.2367839E+04  0.7818609E-02  0.8451643E-01
        2   -1    0    0  501    0  0.00000000000E+00  0.00000000000E+00  0.15767398895E+04  0.15767398895E+04  0.25500000920E-02 0.  1.
       -2   -1    0    0    0  501  0.00000000000E+00  0.00000000000E+00 -0.88896392942E+03  0.88896392942E+03  0.25500000920E-02 0. -1.
    10030    2    1    2    0    0  0.00000000000E+00  0.00000000000E+00  0.68777596004E+03  0.24657038189E+04  0.23678385822E+04 0.  0.
        4    1    3    3  502    0 -0.80998253657E+03  0.26439133131E+02  0.12426311992E+04  0.14835446227E+04  0.12699999809E+01 0.  1.
       -4    1    3    3    0  502  0.80998253657E+03 -0.26439133131E+02 -0.55485523919E+03  0.98215919619E+03  0.12699999809E+01 0. -1.
</event>
<event>
 5   0  0.8030324E-07  0.1947730E+04  0.7818609E-02  0.8631456E-01
        1   -1    0    0  501    0  0.00000000000E+00  0.00000000000E+00  0.10211636571E+04  0.10211636571E+04  0.50400001928E-02 0. -1.
       -1   -1    0    0    0  501  0.00000000000E+00  0.00000000000E+00 -0.92875718095E+03  0.92875718096E+03  0.50400001928E-02 0.  1.
    10030    2    1    2    0    0  0.00000000000E+00  0.00000000000E+00  0.92406476183E+02  0.19499208381E+04  0.19477300424E+04 0.  0.
        1    1    3    3  502    0  0.22280903875E+03 -0.49516896473E+03  0.85555360363E+03  0.10133154198E+04  0.50400001928E-02 0. -1.
       -1    1    3    3    0  502 -0.22280903875E+03  0.49516896473E+03 -0.76314712745E+03  0.93660541827E+03  0.50400001928E-02 0.  1.
</event>
<event>
 5   0  0.4255250E-07  0.2531236E+04  0.7818609E-02  0.8391941E-01
        3   -1    0    0  501    0  0.00000000000E+00  0.00000000000E+00  0.18967666709E+04  0.18967666736E+04  0.10100000352E+00 0. -1.
       -3   -1    0    0    0  501  0.00000000000E+00  0.00000000000E+00 -0.84448417607E+03  0.84448418211E+03  0.10100000352E+00 0.  1.
    10030    2    1    2    0    0  0.00000000000E+00  0.00000000000E+00  0.10522824948E+04  0.27412508557E+04  0.25312364182E+04 0.  0.
        5    1    3    3  502    0 -0.90937934928E+03  0.44693019736E+03  0.13473789103E+04  0.16858734888E+04  0.46999998093E+01 0.  1.
       -5    1    3    3    0  502  0.90937934928E+03 -0.44693019736E+03 -0.29509641546E+03  0.10553773669E+04  0.46999998093E+01 0. -1.
</event>
<event>
 5   0  0.4255250E-07  0.3670618E+04  0.7818609E-02  0.8074505E-01
       -4   -1    0    0    0  501  0.00000000000E+00  0.00000000000E+00  0.20346890911E+04  0.20346894874E+04  0.12699999809E+01 0. -1.
        4   -1    0    0  501    0  0.00000000000E+00  0.00000000000E+00 -0.16554653168E+04  0.16554658040E+04  0.12699999809E+01 0.  1.
    10030    2    1    2    0    0  0.00000000000E+00  0.00000000000E+00  0.37922377426E+03  0.36901552914E+04  0.36706178504E+04 0.  0.
        3    1    3    3  502    0  0.12437649117E+04 -0.95039935741E+03 -0.77368907347E+03  0.17460827262E+04  0.10100000352E+00 0.  1.
       -3    1    3    3    0  502 -0.12437649117E+04  0.95039935741E+03  0.11529128477E+04  0.19440725652E+04  0.10100000352E+00 0. -1.
</event>
<event>
 5   0  0.1372748E-06  0.3787698E+04  0.7818609E-02  0.8048800E-01
        2   -1    0    0  501    0  0.00000000000E+00  0.00000000000E+00  0.20276276481E+04  0.20276276481E+04  0.25500000920E-02 0. -1.
       -2   -1    0    0    0  501  0.00000000000E+00  0.00000000000E+00 -0.17688965966E+04  0.17688965966E+04  0.25500000920E-02 0.  1.
    10030    2    1    2    0    0  0.00000000000E+00  0.00000000000E+00  0.25873105150E+03  0.37965242448E+04  0.37876977947E+04 0.  0.
        1    1    3    3  502    0 -0.24279609060E+03  0.10846618210E+04  0.16663083634E+04  0.20030039364E+04  0.50400001928E-02 0. -1.
       -1    1    3    3    0  502  0.24279609060E+03 -0.10846618210E+04 -0.14075773119E+04  0.17935203083E+04  0.50400001928E-02 0.  1.
</event>
<event>
 5   0  0.1337854E-06  0.2219098E+04  0.7818609E-02  0.8510521E-01
        2   -1    0    0  501    0  0.00000000000E+00  0.00000000000E+00  0.21967847619E+04  0.21967847619E+04  0.25500000920E-02 0.  1.
       -2   -1    0    0    0  501  0.00000000000E+00  0.00000000000E+00 -0.56040942561E+03  0.56040942562E+03  0.25500000920E-02 0. -1.
    10030    2    1    2    0    0  0.00000000000E+00  0.00000000000E+00  0.16363753363E+04  0.27571941876E+04  0.22190979128E+04 0.  0.
        3    1    3    3  502    0  0.38152856144E+03 -0.94235947768E+03  0.26602475214E+03  0.10508922910E+04  0.10100000352E+00 0. -1.
       -3    1    3    3    0  502 -0.38152856144E+03  0.94235947768E+03  0.13703505842E+04  0.17063018965E+04  0.10100000352E+00 0.  1.
</event>
<event>
 5   0  0.1337854E-06  0.3111608E+04  0.7818609E-02  0.8212559E-01
        2   -1    0    0  501    0  0.00000000000E+00  0.00000000000E+00  0.10678106446E+04  0.10678106446E+04  0.25500000920E-02 0. -1.
       -2   -1    0    0    0  501  0.00000000000E+00  0.00000000000E+00 -0.22668117247E+04  0.22668117247E+04  0.25500000920E-02 0.  1.
    10030    2    1    2    0    0  0.00000000000E+00  0.00000000000E+00 -0.11990010801E+04  0.33346223693E+04  0.31116077445E+04 0.  0.
        3    1    3    3  502    0 -0.84207202558E+03 -0.10694489136E+04  0.20797371473E+03  0.13769747098E+04  0.10100000352E+00 0. -1.
       -3    1    3    3    0  502  0.84207202558E+03  0.10694489136E+04 -0.14069747949E+04  0.19576476595E+04  0.10100000352E+00 0.  1.
</event>
<event>
 5   0  0.8030324E-07  0.3213367E+04  0.7818609E-02  0.8185296E-01
        1   -1    0    0  501    0  0.00000000000E+00  0.00000000000E+00  0.18648761280E+04  0.18648761280E+04  0.50400001928E-02 0. -1.
       -1   -1    0    0    0  501  0.00000000000E+00  0.00000000000E+00 -0.13842378201E+04  0.13842378201E+04  0.50400001928E-02 0.  1.
    10030    2    1    2    0    0  0.00000000000E+00  0.00000000000E+00  0.48063830790E+03  0.32491139481E+04  0.32133671226E+04 0.  0.
        1    1    3    3  502    0 -0.13134152585E+04 -0.88735185750E+03  0.50587959227E+03  0.16638410748E+04  0.50400001928E-02 0. -1.
       -1    1    3    3    0  502  0.13134152585E+04  0.88735185750E+03 -0.25241284367E+02  0.15852728733E+04  0.50400001928E-02 0.  1.
</event>
<event>
 5   0  0.1372748E-06  0.3737195E+04  0.7818609E-02  0.8059769E-01
       -2   -1    0    0    0  501  0.00000000000E+00  0.00000000000E+00  0.22627905755E+04  0.22627905755E+04  0.25500000920E-02 0.  1.
        2   -1    0    0  501    0  0.00000000000E+00  0.00000000000E+00 -0.15430754360E+04  0.15430754360E+04  0.25500000920E-02 0. -1.
    10030    2    1    2    0    0  0.00000000000E+00  0.00000000000E+00  0.71971513951E+03  0.38058660115E+04  0.37371949662E+04 0.  0.
        1    1    3    3  502    0  0.81944803894E+03 -0.15309197437E+04  0.10627917715E+04  0.20358626427E+04  0.50400001928E-02 0.  1.
       -1    1    3    3    0  502 -0.81944803894E+03  0.15309197437E+04 -0.34307663197E+03  0.17700033688E+04  0.50400001928E-02 0. -1.
</event>
<event>
 5   0  0.4255250E-07  0.3234550E+04  0.7818609E-02  0.8179752E-01
       -1   -1    0    0    0  501  0.00000000000E+00  0.00000000000E+00  0.17687729483E+04  0.17687729483E+04  0.50400001928E-02 0. -1.
        1   -1    0    0  501    0  0.00000000000E+00  0.00000000000E+00 -0.14787530255E+04  0.14787530255E+04  0.50400001928E-02 0.  1.
    10030    2    1    2    0    0  0.00000000000E+00  0.00000000000E+00  0.29001992282E+03  0.32475259739E+04  0.32345499525E+04 0.  0.
        2    1    3    3  502    0 -0.19188644280E+03  0.98942902853E+03  0.14149113763E+04  0.17371713825E+04  0.25500000920E-02 0. -1.
       -2    1    3    3    0  502  0.19188644280E+03 -0.98942902853E+03 -0.11248914535E+04  0.15103545913E+04  0.25500000920E-02 0.  1.
</event>
<event>
 5   0  0.4795023E-07  0.3509193E+04  0.7818609E-02  0.8111615E-01
       -1   -1    0    0    0  501  0.00000000000E+00  0.00000000000E+00  0.21777977241E+04  0.21777977241E+04  0.50400001928E-02 0.  1.
        1   -1    0    0  501    0  0.00000000000E+00  0.00000000000E+00 -0.14136338896E+04  0.14136338896E+04  0.50400001928E-02 0. -1.
    10030    2    1    2    0    0  0.00000000000E+00  0.00000000000E+00  0.76416383452E+03  0.35914316138E+04  0.35091928802E+04 0.  0.
        3    1    3    3  502    0  0.92118391606E+03 -0.12382573751E+04  0.12363576675E+04  0.19774836096E+04  0.10100000352E+00 0.  1.
       -3    1    3    3    0  502 -0.92118391606E+03  0.12382573751E+04 -0.47219383294E+03  0.16139480042E+04  0.10100000352E+00 0. -1.
</event>
<event>
 5   0  0.1341932E-06  0.3789273E+04  0.7818609E-02  0.8048461E-01
        2   -1    0    0  501    0  0.00000000000E+00  0.00000000000E+00  0.29789281841E+04  0.29789281841E+04  0.25500000920E-02 0. -1.
       -2   -1    0    0    0  501  0.00000000000E+00  0.00000000000E+00 -0.12050129522E+04  0.12050129523E+04  0.25500000920E-02 0.  1.
    10030    2    1    2    0    0  0.00000000000E+00  0.00000000000E+00  0.17739152318E+04  0.41839411363E+04  0.37892727775E+04 0.  0.
        2    1    3    3  502    0 -0.46897768691E+03  0.13088117697E+04 -0.53423874433E+03  0.14894090625E+04  0.25500000920E-02 0.  1.
       -2    1    3    3    0  502  0.46897768691E+03 -0.13088117697E+04  0.23081539762E+04  0.26945320739E+04  0.25500000920E-02 0. -1.
</event>
<event>
 5   0  0.1372748E-06  0.2052338E+04  0.7818609E-02  0.8582535E-01
        2   -1    0    0  501    0  0.00000000000E+00  0.00000000000E+00  0.16204610251E+04  0.16204610251E+04  0.25500000920E-02 0. -1.
       -2   -1    0    0    0  501  0.00000000000E+00  0.00000000000E+00 -0.64982899422E+03  0.64982899422E+03  0.25500000920E-02 0.  1.
    10030    2    1    2    0    0  0.00000000000E+00  0.00000000000E+00  0.97063203085E+03  0.22702900193E+04  0.20523377481E+04 0.  0.
        1    1    3    3  502    0 -0.57167945738E+02 -0.28014229094E+03 -0.60487736494E+03  0.66904746008E+03  0.50400001928E-02 0.  1.
       -1    1    3    3    0  502  0.57167945738E+02  0.28014229094E+03  0.15755093958E+04  0.16012425592E+04  0.50400001928E-02 0. -1.
</event>
<event>
 5   0  0.1184616E-06  0.3514772E+04  0.7818609E-02  0.8110298E-01
        2   -1    0    0  501    0  0.00000000000E+00  0.00000000000E+00  0.17616828148E+04  0.17616828148E+04  0.25500000920E-02 0.  1.
       -2   -1    0    0    0  501  0.00000000000E+00  0.00000000000E+00 -0.17530994633E+04  0.17530994633E+04  0.25500000920E-02 0. -1.
    10030    2    1    2    0    0  0.00000000000E+00  0.00000000000E+00  0.85833514988E+01  0.35147822781E+04  0.35147717975E+04 0.  0.
        5    1    3    3  502    0 -0.15740349848E+04 -0.60250562680E+03  0.50207217084E+03  0.17586067549E+04  0.46999998093E+01 0.  1.
       -5    1    3    3    0  502  0.15740349848E+04  0.60250562680E+03 -0.49348881934E+03  0.17561755232E+04  0.46999998093E+01 0. -1.
</event>
<event>
 5   0  0.4255250E-07  0.3769569E+04  0.7818609E-02  0.8052717E-01
        4   -1    0    0  501    0  0.00000000000E+00  0.00000000000E+00  0.21328434571E+04  0.21328438352E+04  0.12699999809E+01 0.  1.
       -4   -1    0    0    0  501  0.00000000000E+00  0.00000000000E+00 -0.16655752910E+04  0.16655757752E+04  0.12699999809E+01 0. -1.
    10030    2    1    2    0    0  0.00000000000E+00  0.00000000000E+00  0.46726816607E+03  0.37984196103E+04  0.37695692058E+04 0.  0.
        4    1    3    3  502    0 -0.50129653262E+03  0.14913349026E+04  0.12793790917E+04  0.20278536630E+04  0.12699999809E+01 0.  1.
       -4    1    3    3    0  502  0.50129653262E+03 -0.14913349026E+04 -0.81211092568E+03  0.17705659473E+04  0.12699999809E+01 0. -1.
</event>
<event>
 5   0  0.1214844E-06  0.3930502E+04  0.7818609E-02  0.8018715E-01
        2   -1    0    0  501    0  0.00000000000E+00  0.00000000000E+00  0.10681580742E+04  0.10681580742E+04  0.25500000920E-02 0. -1.
       -2   -1    0    0    0  501  0.00000000000E+00  0.00000000000E+00 -0.36157685173E+04  0.36157685173E+04  0.25500000920E-02 0.  1.
    10030    2    1    2    0    0  0.00000000000E+00  0.00000000000E+00 -0.25476104431E+04  0.46839265915E+04  0.39305024291E+04 0.  0.
        4    1    3    3  502    0  0.15433255620E+04  0.58194106561E+03 -0.48304657177E+00  0.16493971748E+04  0.12699999809E+01 0. -1.
       -4    1    3    3    0  502 -0.15433255620E+04 -0.58194106561E+03 -0.25471273965E+04  0.30345294167E+04  0.12699999809E+01 0.  1.
</event>
<event>
 5   0  0.1372748E-06  0.2475388E+04  0.7818609E-02  0.8411806E-01
        2   -1    0    0  501    0  0.00000000000E+00  0.00000000000E+00  0.95977624051E+03  0.95977624052E+03  0.25500000920E-02 0. -1.
       -2   -1    0    0    0  501  0.00000000000E+00  0.00000000000E+00 -0.15960872182E+04  0.15960872182E+04  0.25500000920E-02 0.  1.
    10030    2    1    2    0    0  0.00000000000E+00  0.00000000000E+00 -0.63631097764E+03  0.25558634587E+04  0.24753881229E+04 0.  0.
        1    1    3    3  502    0  0.11770519705E+04 -0.20142486743E+03  0.17788597941E+02  0.11942946674E+04  0.50400001928E-02 0. -1.
       -1    1    3    3    0  502 -0.11770519705E+04  0.20142486743E+03 -0.65409957558E+03  0.13615687912E+04  0.50400001928E-02 0.  1.
</event>
<event>
 5   0  0.4795023E-07  0.3932668E+04  0.7818609E-02  0.8018269E-01
       -1   -1    0    0    0  501  0.00000000000E+00  0.00000000000E+00  0.33641807719E+04  0.33641807719E+04  0.50400001928E-02 0. -1.
        1   -1    0    0  501    0  0.00000000000E+00  0.00000000000E+00 -0.11493046984E+04  0.11493046984E+04  0.50400001928E-02 0.  1.
    10030    2    1    2    0    0  0.00000000000E+00  0.00000000000E+00  0.22148760735E+04  0.45134854703E+04  0.39326676785E+04 0.  0.
        3    1    3    3  502    0  0.12676100173E+04  0.13466120280E+04  0.34074154737E+03  0.18805062941E+04  0.10100000352E+00 0. -1.
       -3    1    3    3    0  502 -0.12676100173E+04 -0.13466120280E+04  0.18741345261E+04  0.26329791762E+04  0.10100000352E+00 0.  1.
</event>
<event>
 5   0  0.1184616E-06  0.3857139E+04  0.7818609E-02  0.8034003E-01
        2   -1    0    0  501    0  0.00000000000E+00  0.00000000000E+00  0.17447356760E+04  0.17447356760E+04  0.25500000920E-02 0.  1.
       -2   -1    0    0    0  501  0.00000000000E+00  0.00000000000E+00 -0.21317725487E+04  0.21317725487E+04  0.25500000920E-02 0. -1.
    10030    2    1    2    0    0  0.00000000000E+00  0.00000000000E+00 -0.38703687270E+03  0.38765082247E+04  0.38571386383E+04 0.  0.
        5    1    3    3  502    0 -0.69366652382E+03  0.12048643823E+04  0.11497885755E+04  0.18041361601E+04  0.46999998093E+01 0.  1.
       -5    1    3    3    0  502  0.69366652382E+03 -0.12048643823E+04 -0.15368254482E+04  0.20723720646E+04  0.46999998093E+01 0. -1.
</event>
<event>
 5   0  0.1184616E-06  0.3781675E+04  0.7818609E-02  0.8050099E-01
        2   -1    0    0  501    0  0.00000000000E+00  0.00000000000E+00  0.18134315582E+04  0.18134315583E+04  0.25500000920E-02 0. -1.
       -2   -1    0    0    0  501  0.00000000000E+00  0.00000000000E+00 -0.19715479208E+04  0.19715479208E+04  0.25500000920E-02 0.  1.
    10030    2    1    2    0    0  0.00000000000E+00  0.00000000000E+00 -0.15811636260E+03  0.37849794791E+04  0.37816754056E+04 0.  0.
        5    1    3    3  502    0  0.62215110637E+03  0.12709756767E+04  0.11761483670E+04  0.18400538691E+04  0.46999998093E+01 0. -1.
       -5    1    3    3    0  502 -0.62215110637E+03 -0.12709756767E+04 -0.13342647296E+04  0.19449256100E+04  0.46999998093E+01 0.  1.
</event>
<event>
 5   0  0.1184616E-06  0.3142027E+04  0.7818609E-02  0.8204298E-01
        2   -1    0    0  501    0  0.00000000000E+00  0.00000000000E+00  0.97971623362E+03  0.97971623363E+03  0.25500000920E-02 0. -1.
       -2   -1    0    0    0  501  0.00000000000E+00  0.00000000000E+00 -0.25191812596E+04  0.25191812596E+04  0.25500000920E-02 0.  1.
    10030    2    1    2    0    0  0.00000000000E+00  0.00000000000E+00 -0.15394650260E+04  0.34988974933E+04  0.31420265916E+04 0.  0.
        5    1    3    3  502    0 -0.12941387254E+04 -0.85353640404E+03 -0.10530751358E+04  0.18741154621E+04  0.46999998093E+01 0.  1.
       -5    1    3    3    0  502  0.12941387254E+04  0.85353640404E+03 -0.48638989025E+03  0.16247820312E+04  0.46999998093E+01 0. -1.
</event>
<event>
 5   0  0.1214844E-06  0.3803602E+04  0.7818609E-02  0.8045382E-01
        2   -1    0    0  501    0  0.00000000000E+00  0.00000000000E+00  0.32922552209E+04  0.32922552209E+04  0.25500000920E-02 0. -1.
       -2   -1    0    0    0  501  0.00000000000E+00  0.00000000000E+00 -0.10985923310E+04  0.10985923310E+04  0.25500000920E-02 0.  1.
    10030    2    1    2    0    0  0.00000000000E+00  0.00000000000E+00  0.21936628900E+04  0.43908475519E+04  0.38036016286E+04 0.  0.
        4    1    3    3  502    0 -0.48397496049E+03 -0.17866329513E+04  0.16007545368E+04  0.24471832308E+04  0.12699999809E+01 0. -1.
       -4    1    3    3    0  502  0.48397496049E+03  0.17866329513E+04  0.59290835315E+03  0.19436643211E+04  0.12699999809E+01 0.  1.
</event>
<event>
 5   0  0.1214844E-06  0.3781280E+04  0.7818609E-02  0.8050184E-01
        2   -1    0    0  501    0  0.00000000000E+00  0.00000000000E+00  0.21116487043E+04  0.21116487043E+04  0.25500000920E-02 0. -1.
       -2   -1    0    0    0  501  0.00000000000E+00  0.00000000000E+00 -0.16927624772E+04  0.16927624772E+04  0.25500000920E-02 0.  1.
    10030    2    1    2    0    0  0.00000000000E+00  0.00000000000E+00  0.41888622703E+03  0.38044111815E+04  0.37812800434E+04 0.  0.
        4    1    3    3  502    0 -0.71415235486E+03 -0.53484097278E+02  0.19699022478E+04  0.20960416535E+04  0.12699999809E+01 0. -1.
       -4    1    3    3    0  502  0.71415235486E+03  0.53484097278E+02 -0.15510160207E+04  0.17083695280E+04  0.12699999809E+01 0.  1.
</event>
<event>
 5   0  0.1337854E-06  0.3771118E+04  0.7818609E-02  0.8052381E-01
       -2   -1    0    0    0  501  0.00000000000E+00  0.00000000000E+00  0.18448775910E+04  0.18448775910E+04  0.25500000920E-02 0.  1.
        2   -1    0    0  501    0  0.00000000000E+00  0.00000000000E+00 -0.19271376496E+04  0.19271376496E+04  0.25500000920E-02 0. -1.
    10030    2    1    2    0    0  0.00000000000E+00  0.00000000000E+00 -0.82260058586E+02  0.37720152405E+04  0.37711181707E+04 0.  0.
        3    1    3    3  502    0  0.15668610505E+04  0.58126712565E+03  0.83223747424E+03  0.18669612333E+04  0.10100000352E+00 0.  1.
       -3    1    3    3    0  502 -0.15668610505E+04 -0.58126712565E+03 -0.91449753283E+03  0.19050540073E+04  0.10100000352E+00 0. -1.
</event>
<event>
 5   0  0.1341932E-06  0.3741662E+04  0.7818609E-02  0.8058791E-01
       -2   -1    0    0    0  501  0.00000000000E+00  0.00000000000E+00  0.18349446663E+04  0.18349446663E+04  0.25500000920E-02 0.  1.
        2   -1    0    0  501    0  0.00000000000E+00  0.00000000000E+00 -0.19074194670E+04  0.19074194670E+04  0.25500000920E-02 0. -1.
    10030    2    1    2    0    0  0.00000000000E+00  0.00000000000E+00 -0.72474800715E+02  0.37423641333E+04  0.37416622923E+04 0.  0.
        2    1    3    3  502    0 -0.30374043656E+03 -0.10383781084E+04 -0.15628008052E+04  0.19007455657E+04  0.25500000920E-02 0. -1.
       -2    1    3    3    0  502  0.30374043656E+03  0.10383781084E+04  0.14903260045E+04  0.18416185676E+04  0.25500000920E-02 0.  1.
</event>
<event>
 5   0  0.5284458E-07  0.3764622E+04  0.7818609E-02  0.8053790E-01
        1   -1    0    0  501    0  0.00000000000E+00  0.00000000000E+00  0.12299465190E+04  0.12299465190E+04  0.50400001928E-02 0.  1.
       -1   -1    0    0    0  501  0.00000000000E+00  0.00000000000E+00 -0.28806897723E+04  0.28806897723E+04  0.50400001928E-02 0. -1.
    10030    2    1    2    0    0  0.00000000000E+00  0.00000000000E+00 -0.16507432534E+04  0.41106362913E+04  0.37646218178E+04 0.  0.
        5    1    3    3  502    0 -0.13873582947E+03 -0.13904313242E+04 -0.22024479067E+04  0.26083224052E+04  0.46999998093E+01 0. -1.
       -5    1    3    3    0  502  0.13873582947E+03  0.13904313242E+04  0.55170465333E+03  0.15023138861E+04  0.46999998093E+01 0.  1.
</event>
<event>
 5   0  0.1184616E-06  0.3215222E+04  0.7818609E-02  0.8184809E-01
       -2   -1    0    0    0  501  0.00000000000E+00  0.00000000000E+00  0.30884977426E+04  0.30884977426E+04  0.25500000920E-02 0. -1.
        2   -1    0    0  501    0  0.00000000000E+00  0.00000000000E+00 -0.83678640283E+03  0.83678640283E+03  0.25500000920E-02 0.  1.
    10030    2    1    2    0    0  0.00000000000E+00  0.00000000000E+00  0.22517113397E+04  0.39252841454E+04  0.32152218686E+04 0.  0.
        5    1    3    3  502    0 -0.96127389363E+02  0.34789035556E+03  0.30383857968E+04  0.30597513812E+04  0.46999998093E+01 0. -1.
       -5    1    3    3    0  502  0.96127389363E+02 -0.34789035556E+03 -0.78667445708E+03  0.86553276419E+03  0.46999998093E+01 0.  1.
</event>
<event>
 5   0  0.1341932E-06  0.2403773E+04  0.7818609E-02  0.8438092E-01
        2   -1    0    0  501    0  0.00000000000E+00  0.00000000000E+00  0.22739820582E+04  0.22739820582E+04  0.25500000920E-02 0. -1.
       -2   -1    0    0    0  501  0.00000000000E+00  0.00000000000E+00 -0.63524299163E+03  0.63524299164E+03  0.25500000920E-02 0.  1.
    10030    2    1    2    0    0  0.00000000000E+00  0.00000000000E+00  0.16387390666E+04  0.29092250499E+04  0.24037730056E+04 0.  0.
        2    1    3    3  502    0 -0.43858965437E+03  0.57400039685E+03  0.19819222939E+04  0.21094675441E+04  0.25500000920E-02 0. -1.
       -2    1    3    3    0  502  0.43858965437E+03 -0.57400039685E+03 -0.34318322732E+03  0.79975750576E+03  0.25500000920E-02 0.  1.
</event>
<event>
 5   0  0.4795023E-07  0.2128133E+04  0.7818609E-02  0.8548951E-01
        1   -1    0    0  501    0  0.00000000000E+00  0.00000000000E+00  0.17163215227E+04  0.17163215227E+04  0.50400001928E-02 0.  1.
       -1   -1    0    0    0  501  0.00000000000E+00  0.00000000000E+00 -0.65968869429E+03  0.65968869431E+03  0.50400001928E-02 0. -1.
    10030    2    1    2    0    0  0.00000000000E+00  0.00000000000E+00  0.10566328284E+04  0.23760102170E+04  0.21281333645E+04 0.  0.
        3    1    3    3  502    0  0.62337989914E+03 -0.49658449612E+02 -0.43287130539E+03  0.76055639995E+03  0.10100000352E+00 0. -1.
       -3    1    3    3    0  502 -0.62337989914E+03  0.49658449612E+02  0.14895041338E+04  0.16154538170E+04  0.10100000352E+00 0.  1.
</event>
<event>
 5   0  0.1184616E-06  0.3763031E+04  0.7818609E-02  0.8054135E-01
        2   -1    0    0  501    0  0.00000000000E+00  0.00000000000E+00  0.19974825432E+04  0.19974825432E+04  0.25500000920E-02 0.  1.
       -2   -1    0    0    0  501  0.00000000000E+00  0.00000000000E+00 -0.17722807224E+04  0.17722807224E+04  0.25500000920E-02 0. -1.
    10030    2    1    2    0    0  0.00000000000E+00  0.00000000000E+00  0.22520182077E+03  0.37697632656E+04  0.37630305896E+04 0.  0.
        5    1    3    3  502    0  0.45205761133E+03 -0.13665282715E+04 -0.11013105155E+04  0.18123637997E+04  0.46999998093E+01 0. -1.
       -5    1    3    3    0  502 -0.45205761133E+03  0.13665282715E+04  0.13265123363E+04  0.19573994659E+04  0.46999998093E+01 0.  1.
</event>
<event>
 5   0  0.1184616E-06  0.3498298E+04  0.7818609E-02  0.8114193E-01
        2   -1    0    0  501    0  0.00000000000E+00  0.00000000000E+00  0.18493288951E+04  0.18493288951E+04  0.25500000920E-02 0. -1.
       -2   -1    0    0    0  501  0.00000000000E+00  0.00000000000E+00 -0.16543961753E+04  0.16543961753E+04  0.25500000920E-02 0.  1.
    10030    2    1    2    0    0  0.00000000000E+00  0.00000000000E+00  0.19493271980E+03  0.35037250704E+04  0.34982982439E+04 0.  0.
        5    1    3    3  502    0  0.84441630957E+03 -0.15198771071E+04 -0.93709910188E+02  0.17412262810E+04  0.46999998093E+01 0.  1.
       -5    1    3    3    0  502 -0.84441630957E+03  0.15198771071E+04  0.28864262999E+03  0.17624987893E+04  0.46999998093E+01 0. -1.
</event>
<event>
 5   0  0.1337854E-06  0.3806406E+04  0.7818609E-02  0.8044782E-01
       -2   -1    0    0    0  501  0.00000000000E+00  0.00000000000E+00  0.20634510772E+04  0.20634510772E+04  0.25500000920E-02 0.  1.
        2   -1    0    0  501    0  0.00000000000E+00  0.00000000000E+00 -0.17553995708E+04  0.17553995708E+04  0.25500000920E-02 0. -1.
    10030    2    1    2    0    0  0.00000000000E+00  0.00000000000E+00  0.30805150639E+03  0.38188506479E+04  0.38064057247E+04 0.  0.
        3    1    3    3  502    0  0.11949026500E+04 -0.12575289957E+04 -0.63148337517E+03  0.18460614240E+04  0.10100000352E+00 0. -1.
       -3    1    3    3    0  502 -0.11949026500E+04  0.12575289957E+04  0.93953488156E+03  0.19727892239E+04  0.10100000352E+00 0.  1.
</event>
<event>
 5   0  0.4255250E-07  0.3766320E+04  0.7818609E-02  0.8053421E-01
        1   -1    0    0  501    0  0.00000000000E+00  0.00000000000E+00  0.21259287439E+04  0.21259287439E+04  0.50400001928E-02 0. -1.
       -1   -1    0    0    0  501  0.00000000000E+00  0.00000000000E+00 -0.16681141405E+04  0.16681141405E+04  0.50400001928E-02 0.  1.
    10030    2    1    2    0    0  0.00000000000E+00  0.00000000000E+00  0.45781460338E+03  0.37940428844E+04  0.37663201136E+04 0.  0.
        2    1    3    3  502    0  0.15919061801E+04  0.94963008999E+03  0.56351062581E+03  0.19373969184E+04  0.25500000920E-02 0. -1.
       -2    1    3    3    0  502 -0.15919061801E+04 -0.94963008999E+03 -0.10569602243E+03  0.18566459660E+04  0.25500000920E-02 0.  1.
</event>
<event>
 5   0  0.1341932E-06  0.3808193E+04  0.7818609E-02  0.8044399E-01
        2   -1    0    0  501    0  0.00000000000E+00  0.00000000000E+00  0.15026957638E+04  0.15026957638E+04  0.25500000920E-02 0.  1.
       -2   -1    0    0    0  501  0.00000000000E+00  0.00000000000E+00 -0.24127201116E+04  0.24127201116E+04  0.25500000920E-02 0. -1.
    10030    2    1    2    0    0  0.00000000000E+00  0.00000000000E+00 -0.91002434781E+03  0.39154158753E+04  0.38081934251E+04 0.  0.
        2    1    3    3  502    0 -0.80919596351E+02  0.16627770698E+03  0.14934414084E+04  0.15048466690E+04  0.25500000920E-02 0.  1.
       -2    1    3    3    0  502  0.80919596351E+02 -0.16627770698E+03 -0.24034657562E+04  0.24105692063E+04  0.25500000920E-02 0. -1.
</event>
<event>
 5   0  0.1372748E-06  0.3575181E+04  0.7818609E-02  0.8096200E-01
       -2   -1    0    0    0  501  0.00000000000E+00  0.00000000000E+00  0.10245459875E+04  0.10245459875E+04  0.25500000920E-02 0. -1.
        2   -1    0    0  501    0  0.00000000000E+00  0.00000000000E+00 -0.31189231819E+04  0.31189231819E+04  0.25500000920E-02 0.  1.
    10030    2    1    2    0    0  0.00000000000E+00  0.00000000000E+00 -0.20943771944E+04  0.41434691694E+04  0.35751812438E+04 0.  0.
        1    1    3    3  502    0  0.12222057178E+03  0.40630490843E+03 -0.30597203431E+04  0.30889982397E+04  0.50400001928E-02 0.  1.
       -1    1    3    3    0  502 -0.12222057178E+03 -0.40630490843E+03  0.96534314874E+03  0.10544709297E+04  0.50400001928E-02 0. -1.
</event>
<event>
 5   0  0.4255250E-07  0.3831239E+04  0.7818609E-02  0.8039484E-01
        1   -1    0    0  501    0  0.00000000000E+00  0.00000000000E+00  0.14561937009E+04  0.14561937009E+04  0.50400001928E-02 0.  1.
       -1   -1    0    0    0  501  0.00000000000E+00  0.00000000000E+00 -0.25199936007E+04  0.25199936007E+04  0.50400001928E-02 0. -1.
    10030    2    1    2    0    0  0.00000000000E+00  0.00000000000E+00 -0.10637998998E+04  0.39761873016E+04  0.38312393857E+04 0.  0.
        2    1    3    3  502    0  0.11414425924E+04  0.11377922276E+04  0.54271425866E+03  0.17005884604E+04  0.25500000920E-02 0.  1.
       -2    1    3    3    0  502 -0.11414425924E+04 -0.11377922276E+04 -0.16065141584E+04  0.22755988413E+04  0.25500000920E-02 0. -1.
</event>
<event>
 5   0  0.5284458E-07  0.3793461E+04  0.7818609E-02  0.8047559E-01
       -1   -1    0    0    0  501  0.00000000000E+00  0.00000000000E+00  0.15131317089E+04  0.15131317089E+04  0.50400001928E-02 0. -1.
        1   -1    0    0  501    0  0.00000000000E+00  0.00000000000E+00 -0.23775772523E+04  0.23775772523E+04  0.50400001928E-02 0.  1.
    10030    2    1    2    0    0  0.00000000000E+00  0.00000000000E+00 -0.86444554344E+03  0.38907089612E+04  0.37934614962E+04 0.  0.
        5    1    3    3  502    0  0.52830409398E+03  0.16911716407E+04 -0.11266308377E+04  0.20996394616E+04  0.46999998093E+01 0.  1.
       -5    1    3    3    0  502 -0.52830409398E+03 -0.16911716407E+04  0.26218529424E+03  0.17910694997E+04  0.46999998093E+01 0. -1.
</event>
<event>
 5   0  0.1341932E-06  0.1980373E+04  0.7818609E-02  0.8615852E-01
        2   -1    0    0  501    0  0.00000000000E+00  0.00000000000E+00  0.84565950119E+03  0.84565950120E+03  0.25500000920E-02 0.  1.
       -2   -1    0    0    0  501  0.00000000000E+00  0.00000000000E+00 -0.11594138613E+04  0.11594138613E+04  0.25500000920E-02 0. -1.
    10030    2    1    2    0    0  0.00000000000E+00  0.00000000000E+00 -0.31375436008E+03  0.20050733625E+04  0.19803730432E+04 0.  0.
        2    1    3    3  502    0  0.10193438665E+03  0.10559463824E+03  0.83458550734E+03  0.84739236241E+03  0.25500000920E-02 0.  1.
       -2    1    3    3    0  502 -0.10193438665E+03 -0.10559463824E+03 -0.11483398674E+04  0.11576810001E+04  0.25500000920E-02 0. -1.
</event>
<event>
 5   0  0.4795023E-07  0.3672710E+04  0.7818609E-02  0.8074037E-01
       -1   -1    0    0    0  501  0.00000000000E+00  0.00000000000E+00  0.22911423807E+04  0.22911423807E+04  0.50400001928E-02 0.  1.
        1   -1    0    0  501    0  0.00000000000E+00  0.00000000000E+00 -0.14718419471E+04  0.14718419471E+04  0.50400001928E-02 0. -1.
    10030    2    1    2    0    0  0.00000000000E+00  0.00000000000E+00  0.81930043355E+03  0.37629843278E+04  0.36727098784E+04 0.  0.
        3    1    3    3  502    0 -0.30706390134E+03 -0.10439189947E+03  0.22615660892E+04  0.22847028459E+04  0.10100000352E+00 0.  1.
       -3    1    3    3    0  502  0.30706390134E+03  0.10439189947E+03 -0.14422656556E+04  0.14782814819E+04  0.10100000352E+00 0. -1.
</event>
<event>
 5   0  0.4795023E-07  0.3622221E+04  0.7818609E-02  0.8085421E-01
       -1   -1    0    0    0  501  0.00000000000E+00  0.00000000000E+00  0.13709302961E+04  0.13709302961E+04  0.50400001928E-02 0. -1.
        1   -1    0    0  501    0  0.00000000000E+00  0.00000000000E+00 -0.23926245762E+04  0.23926245762E+04  0.50400001928E-02 0.  1.
    10030    2    1    2    0    0  0.00000000000E+00  0.00000000000E+00 -0.10216942801E+04  0.37635548723E+04  0.36222211521E+04 0.  0.
        3    1    3    3  502    0  0.11952507726E+04 -0.12747826009E+04 -0.16437602999E+02  0.17475598113E+04  0.10100000352E+00 0. -1.
       -3    1    3    3    0  502 -0.11952507726E+04  0.12747826009E+04 -0.10052566771E+04  0.20159950610E+04  0.10100000352E+00 0.  1.
</event>
<event>
 5   0  0.4255250E-07  0.3368633E+04  0.7818609E-02  0.8145648E-01
        1   -1    0    0  501    0  0.00000000000E+00  0.00000000000E+00  0.21598839002E+04  0.21598839002E+04  0.50400001928E-02 0.  1.
       -1   -1    0    0    0  501  0.00000000000E+00  0.00000000000E+00 -0.13134606024E+04  0.13134606024E+04  0.50400001928E-02 0. -1.
    10030    2    1    2    0    0  0.00000000000E+00  0.00000000000E+00  0.84642329777E+03  0.34733445027E+04  0.33686331999E+04 0.  0.
        2    1    3    3  502    0 -0.89546217759E+03 -0.16513112828E+03 -0.10378028812E+04  0.13806359481E+04  0.25500000920E-02 0. -1.
       -2    1    3    3    0  502  0.89546217759E+03  0.16513112828E+03  0.18842261789E+04  0.20927085546E+04  0.25500000920E-02 0.  1.
</event>
<event>
 5   0  0.1214844E-06  0.3664306E+04  0.7818609E-02  0.8075918E-01
        2   -1    0    0  501    0  0.00000000000E+00  0.00000000000E+00  0.23137323952E+04  0.23137323952E+04  0.25500000920E-02 0. -1.
       -2   -1    0    0    0  501  0.00000000000E+00  0.00000000000E+00 -0.14508094787E+04  0.14508094787E+04  0.25500000920E-02 0.  1.
    10030    2    1    2    0    0  0.00000000000E+00  0.00000000000E+00  0.86292291651E+03  0.37645418740E+04  0.36643061500E+04 0.  0.
        4    1    3    3  502    0 -0.21804750217E+03 -0.91195396331E+03  0.20485511009E+04  0.22529465085E+04  0.12699999809E+01 0. -1.
       -4    1    3    3    0  502  0.21804750217E+03  0.91195396331E+03 -0.11856281844E+04  0.15115953655E+04  0.12699999809E+01 0.  1.
</event>
<event>
 5   0  0.1217032E-06  0.2077067E+04  0.7818609E-02  0.8571413E-01
        2   -1    0    0  501    0  0.00000000000E+00  0.00000000000E+00  0.14769604581E+04  0.14769604581E+04  0.25500000920E-02 0. -1.
       -2   -1    0    0    0  501  0.00000000000E+00  0.00000000000E+00 -0.73025079883E+03  0.73025079883E+03  0.25500000920E-02 0.  1.
    10030    2    1    2    0    0  0.00000000000E+00  0.00000000000E+00  0.74670965929E+03  0.22072112570E+04  0.20770667340E+04 0.  0.
        5    1    3    3  502    0 -0.52459009429E+03 -0.77374457227E+03  0.85408746645E+03  0.12662396774E+04  0.46999998093E+01 0. -1.
       -5    1    3    3    0  502  0.52459009429E+03  0.77374457227E+03 -0.10737780716E+03  0.94097157960E+03  0.46999998093E+01 0.  1.
</event>
<event>
 5   0  0.1214844E-06  0.3873474E+04  0.7818609E-02  0.8030569E-01
        2   -1    0    0  501    0  0.00000000000E+00  0.00000000000E+00  0.14374808048E+04  0.14374808048E+04  0.25500000920E-02 0. -1.
       -2   -1    0    0    0  501  0.00000000000E+00  0.00000000000E+00 -0.26093919998E+04  0.26093919998E+04  0.25500000920E-02 0.  1.
    10030    2    1    2    0    0  0.00000000000E+00  0.00000000000E+00 -0.11719111950E+04  0.40468728046E+04  0.38734743638E+04 0.  0.
        4    1    3    3  502    0 -0.12382351449E+03 -0.18053266052E+04 -0.13070807068E+04  0.22322629776E+04  0.12699999809E+01 0.  1.
       -4    1    3    3    0  502  0.12382351449E+03  0.18053266052E+04  0.13516951181E+03  0.18146098270E+04  0.12699999809E+01 0. -1.
</event>
<event>
 5   0  0.1372748E-06  0.1969285E+04  0.7818609E-02  0.8621117E-01
        2   -1    0    0  501    0  0.00000000000E+00  0.00000000000E+00  0.22116474705E+04  0.22116474705E+04  0.25500000920E-02 0. -1.
       -2   -1    0    0    0  501  0.00000000000E+00  0.00000000000E+00 -0.43837028446E+03  0.43837028447E+03  0.25500000920E-02 0.  1.
    10030    2    1    2    0    0  0.00000000000E+00  0.00000000000E+00  0.17732771861E+04  0.26500177550E+04  0.19692846730E+04 0.  0.
        1    1    3    3  502    0  0.81367078580E+03  0.23012461840E+02  0.14111648718E+03  0.82613775125E+03  0.50400001928E-02 0. -1.
       -1    1    3    3    0  502 -0.81367078580E+03 -0.23012461840E+02  0.16321606989E+04  0.18238800038E+04  0.50400001928E-02 0.  1.
</event>
<event>
 5   0  0.1184616E-06  0.3729723E+04  0.7818609E-02  0.8061406E-01
       -2   -1    0    0    0  501  0.00000000000E+00  0.00000000000E+00  0.14953989947E+04  0.14953989947E+04  0.25500000920E-02 0. -1.
        2   -1    0    0  501    0  0.00000000000E+00  0.00000000000E+00 -0.23256062632E+04  0.23256062632E+04  0.25500000920E-02 0.  1.
    10030    2    1    2    0    0  0.00000000000E+00  0.00000000000E+00 -0.83020726850E+03  0.38210052578E+04  0.37297234578E+04 0.  0.
        5    1    3    3  502    0  0.51406092789E+03 -0.15851529320E+04  0.44247285079E+03  0.17241730682E+04  0.46999998093E+01 0. -1.
       -5    1    3    3    0  502 -0.51406092789E+03  0.15851529320E+04 -0.12726801193E+04  0.20968321896E+04  0.46999998093E+01 0.  1.
</event>
<event>
 5   0  0.1337854E-06  0.3829305E+04  0.7818609E-02  0.8039895E-01
        2   -1    0    0  501    0  0.00000000000E+00  0.00000000000E+00  0.17802906590E+04  0.17802906590E+04  0.25500000920E-02 0. -1.
       -2   -1    0    0    0  501  0.00000000000E+00  0.00000000000E+00 -0.20591544207E+04  0.20591544207E+04  0.25500000920E-02 0.  1.
    10030    2    1    2    0    0  0.00000000000E+00  0.00000000000E+00 -0.27886376168E+03  0.38394450797E+04  0.38293045743E+04 0.  0.
        3    1    3    3  502    0 -0.57381977124E+03  0.98838420875E+03 -0.16796380849E+04  0.20315896683E+04  0.10100000352E+00 0.  1.
       -3    1    3    3    0  502  0.57381977124E+03 -0.98838420875E+03  0.14007743232E+04  0.18078554114E+04  0.10100000352E+00 0. -1.
</event>
<event>
 5   0  0.1214844E-06  0.3753241E+04  0.7818609E-02  0.8056264E-01
       -2   -1    0    0    0  501  0.00000000000E+00  0.00000000000E+00  0.16966306740E+04  0.16966306740E+04  0.25500000920E-02 0.  1.
        2   -1    0    0  501    0  0.00000000000E+00  0.00000000000E+00 -0.20757048563E+04  0.20757048563E+04  0.25500000920E-02 0. -1.
    10030    2    1    2    0    0  0.00000000000E+00  0.00000000000E+00 -0.37907418237E+03  0.37723355303E+04  0.37532410151E+04 0.  0.
        4    1    3    3  502    0  0.11707709671E+04  0.14213345361E+04 -0.55304875464E+03  0.19226962991E+04  0.12699999809E+01 0. -1.
       -4    1    3    3    0  502 -0.11707709671E+04 -0.14213345361E+04  0.17397457228E+03  0.18496392312E+04  0.12699999809E+01 0.  1.
</event>
<event>
 5   0  0.5284458E-07  0.2424770E+04  0.7818609E-02  0.8430288E-01
        1   -1    0    0  501    0  0.00000000000E+00  0.00000000000E+00  0.22933583009E+04  0.22933583009E+04  0.50400001928E-02 0. -1.
       -1   -1    0    0    0  501  0.00000000000E+00  0.00000000000E+00 -0.64092781925E+03  0.64092781927E+03  0.50400001928E-02 0.  1.
    10030    2    1    2    0    0  0.00000000000E+00  0.00000000000E+00  0.16524304816E+04  0.29342861202E+04  0.24247697908E+04 0.  0.
        5    1    3    3  502    0  0.14498755618E+03  0.27144940642E+03 -0.59286451712E+03  0.66799445907E+03  0.46999998093E+01 0.  1.
       -5    1    3    3    0  502 -0.14498755618E+03 -0.27144940642E+03  0.22452949988E+04  0.22662916611E+04  0.46999998093E+01 0. -1.
</event>
<event>
 5   0  0.4255250E-07  0.1922947E+04  0.7818609E-02  0.8643518E-01
       -1   -1    0    0    0  501  0.00000000000E+00  0.00000000000E+00  0.11110135281E+04  0.11110135281E+04  0.50400001928E-02 0. -1.
        1   -1    0    0  501    0  0.00000000000E+00  0.00000000000E+00 -0.83206153174E+03  0.83206153175E+03  0.50400001928E-02 0.  1.
    10030    2    1    2    0    0  0.00000000000E+00  0.00000000000E+00  0.27895199632E+03  0.19430750598E+04  0.19229473399E+04 0.  0.
        2    1    3    3  502    0 -0.20819279818E+02 -0.32174860167E+03  0.10547584387E+04  0.11029374276E+04  0.25500000920E-02 0. -1.
       -2    1    3    3    0  502  0.20819279818E+02  0.32174860167E+03 -0.77580644239E+03  0.84013763226E+03  0.25500000920E-02 0.  1.
</event>
<event>
 5   0  0.4255250E-07  0.3846286E+04  0.7818609E-02  0.8036294E-01
        3   -1    0    0  501    0  0.00000000000E+00  0.00000000000E+00  0.15748571959E+04  0.15748571991E+04  0.10100000352E+00 0.  1.
       -3   -1    0    0    0  501  0.00000000000E+00  0.00000000000E+00 -0.23484540353E+04  0.23484540375E+04  0.10100000352E+00 0. -1.
    10030    2    1    2    0    0  0.00000000000E+00  0.00000000000E+00 -0.77359683944E+03  0.39233112366E+04  0.38462863894E+04 0.  0.
        5    1    3    3  502    0 -0.11553118316E+03 -0.97648518534E+03  0.12990505060E+04  0.16292406448E+04  0.46999998093E+01 0.  1.
       -5    1    3    3    0  502  0.11553118316E+03  0.97648518534E+03 -0.20726473455E+04  0.22940705918E+04  0.46999998093E+01 0. -1.
</event>
<event>
 5   0  0.1214844E-06  0.3842603E+04  0.7818609E-02  0.8037074E-01
       -2   -1    0    0    0  501  0.00000000000E+00  0.00000000000E+00  0.17050122185E+04  0.17050122185E+04  0.25500000920E-02 0.  1.
        2   -1    0    0  501    0  0.00000000000E+00  0.00000000000E+00 -0.21650277381E+04  0.21650277381E+04  0.25500000920E-02 0. -1.
    10030    2    1    2    0    0  0.00000000000E+00  0.00000000000E+00 -0.46001551954E+03  0.38700399566E+04  0.38426026320E+04 0.  0.
        4    1    3    3  502    0  0.71606279248E+03 -0.60544848576E+03 -0.19189082703E+04  0.21357725427E+04  0.12699999809E+01 0. -1.
       -4    1    3    3    0  502 -0.71606279248E+03  0.60544848576E+03  0.14588927507E+04  0.17342674138E+04  0.12699999809E+01 0.  1.
</event>
<event>
 5   0  0.4795023E-07  0.3553719E+04  0.7818609E-02  0.8101176E-01
       -1   -1    0    0    0  501  0.00000000000E+00  0.00000000000E+00  0.14301584954E+04  0.14301584954E+04  0.50400001928E-02 0.  1.
        1   -1    0    0  501    0  0.00000000000E+00  0.00000000000E+00 -0.22076077909E+04  0.22076077909E+04  0.50400001928E-02 0. -1.
    10030    2    1    2    0    0  0.00000000000E+00  0.00000000000E+00 -0.77744929546E+03  0.36377662863E+04  0.35537186364E+04 0.  0.
        3    1    3    3  502    0  0.32652995656E+03  0.17444927030E+04 -0.47649887066E+03  0.18376419095E+04  0.10100000352E+00 0.  1.
       -3    1    3    3    0  502 -0.32652995656E+03 -0.17444927030E+04 -0.30095042480E+03  0.18001243768E+04  0.10100000352E+00 0. -1.
</event>
<event>
 5   0  0.4795023E-07  0.3161507E+04  0.7818609E-02  0.8199058E-01
       -1   -1    0    0    0  501  0.00000000000E+00  0.00000000000E+00  0.15331559694E+04  0.15331559694E+04  0.50400001928E-02 0. -1.
        1   -1    0    0  501    0  0.00000000000E+00  0.00000000000E+00 -0.16298292307E+04  0.16298292307E+04  0.50400001928E-02 0.  1.
    10030    2    1    2    0    0  0.00000000000E+00  0.00000000000E+00 -0.96673261292E+02  0.31629852001E+04  0.31615074974E+04 0.  0.
        3    1    3    3  502    0  0.13903884617E+04 -0.27749972440E+02  0.70356788596E+03  0.15585114423E+04  0.10100000352E+00 0. -1.
       -3    1    3    3    0  502 -0.13903884617E+04  0.27749972440E+02 -0.80024114725E+03  0.16044737578E+04  0.10100000352E+00 0.  1.
</event>
<event>
 5   0  0.4255250E-07  0.3789149E+04  0.7818609E-02  0.8048488E-01
       -1   -1    0    0    0  501  0.00000000000E+00  0.00000000000E+00  0.13298360857E+04  0.13298360857E+04  0.50400001928E-02 0.  1.
        1   -1    0    0  501    0  0.00000000000E+00  0.00000000000E+00 -0.26991387924E+04  0.26991387924E+04  0.50400001928E-02 0. -1.
    10030    2    1    2    0    0  0.00000000000E+00  0.00000000000E+00 -0.13693027066E+04  0.40289748781E+04  0.37891488049E+04 0.  0.
        2    1    3    3  502    0 -0.10958598753E+04 -0.13153020330E+04  0.17817910302E+03  0.17212426026E+04  0.25500000920E-02 0.  1.
       -2    1    3    3    0  502  0.10958598753E+04  0.13153020330E+04 -0.15474818097E+04  0.23077322755E+04  0.25500000920E-02 0. -1.
</event>
<event>
 5   0  0.1184616E-06  0.4032795E+04  0.7818609E-02  0.7997963E-01
       -2   -1    0    0    0  501  0.00000000000E+00  0.00000000000E+00  0.16542715493E+04  0.16542715493E+04  0.25500000920E-02 0. -1.
        2   -1    0    0  501    0  0.00000000000E+00  0.00000000000E+00 -0.24577946375E+04  0.24577946375E+04  0.25500000920E-02 0.  1.
    10030    2    1    2    0    0  0.00000000000E+00  0.00000000000E+00 -0.80352308829E+03  0.41120661868E+04  0.40327954289E+04 0.  0.
        5    1    3    3  502    0 -0.16794525181E+03  0.12880466406E+04  0.11708145909E+04  0.17487420200E+04  0.46999998093E+01 0. -1.
       -5    1    3    3    0  502  0.16794525181E+03 -0.12880466406E+04 -0.19743376792E+04  0.23633241668E+04  0.46999998093E+01 0.  1.
</event>
<event>
 5   0  0.1214844E-06  0.3735759E+04  0.7818609E-02  0.8060083E-01
       -2   -1    0    0    0  501  0.00000000000E+00  0.00000000000E+00  0.15641407596E+04  0.15641407596E+04  0.25500000920E-02 0. -1.
        2   -1    0    0  501    0  0.00000000000E+00  0.00000000000E+00 -0.22306012697E+04  0.22306012697E+04  0.25500000920E-02 0.  1.
    10030    2    1    2    0    0  0.00000000000E+00  0.00000000000E+00 -0.66646051011E+03  0.37947420294E+04  0.37357592880E+04 0.  0.
        4    1    3    3  502    0  0.14304500317E+04 -0.21961006415E+03 -0.15327889099E+04  0.21080463298E+04  0.12699999809E+01 0.  1.
       -4    1    3    3    0  502 -0.14304500317E+04  0.21961006415E+03  0.86632839978E+03  0.16866956995E+04  0.12699999809E+01 0. -1.
</event>
<event>
 5   0  0.5284458E-07  0.2081766E+04  0.7818609E-02  0.8569318E-01
       -1   -1    0    0    0  501  0.00000000000E+00  0.00000000000E+00  0.76217293823E+03  0.76217293825E+03  0.50400001928E-02 0.  1.
        1   -1    0    0  501    0  0.00000000000E+00  0.00000000000E+00 -0.14215116349E+04  0.14215116349E+04  0.50400001928E-02 0. -1.
    10030    2    1    2    0    0  0.00000000000E+00  0.00000000000E+00 -0.65933869666E+03  0.21836845731E+04  0.20817662688E+04 0.  0.
        5    1    3    3  502    0 -0.25785423699E+03 -0.63534449858E+03 -0.11511204844E+04  0.13398701053E+04  0.46999998093E+01 0. -1.
       -5    1    3    3    0  502  0.25785423699E+03  0.63534449858E+03  0.49178178775E+03  0.84381446786E+03  0.46999998093E+01 0.  1.
</event>
<event>
 5   0  0.4255250E-07  0.3739717E+04  0.7818609E-02  0.8059217E-01
        1   -1    0    0  501    0  0.00000000000E+00  0.00000000000E+00  0.12343732827E+04  0.12343732827E+04  0.50400001928E-02 0. -1.
       -1   -1    0    0    0  501  0.00000000000E+00  0.00000000000E+00 -0.28325067811E+04  0.28325067811E+04  0.50400001928E-02 0.  1.
    10030    2    1    2    0    0  0.00000000000E+00  0.00000000000E+00 -0.15981334984E+04  0.40668800638E+04  0.37397169378E+04 0.  0.
        2    1    3    3  502    0  0.15289631708E+04  0.10514910985E+04 -0.54868852102E+03  0.19350506456E+04  0.25500000920E-02 0.  1.
       -2    1    3    3    0  502 -0.15289631708E+04 -0.10514910985E+04 -0.10494449773E+04  0.21318294182E+04  0.25500000920E-02 0. -1.
</event>
<event>
 5   0  0.1214844E-06  0.3700994E+04  0.7818609E-02  0.8067742E-01
        2   -1    0    0  501    0  0.00000000000E+00  0.00000000000E+00  0.19601276357E+04  0.19601276357E+04  0.25500000920E-02 0.  1.
       -2   -1    0    0    0  501  0.00000000000E+00  0.00000000000E+00 -0.17469976913E+04  0.17469976913E+04  0.25500000920E-02 0. -1.
    10030    2    1    2    0    0  0.00000000000E+00  0.00000000000E+00  0.21312994440E+03  0.37071253270E+04  0.37009936256E+04 0.  0.
        4    1    3    3  502    0  0.10093056386E+04  0.15340526412E+04 -0.12255284947E+03  0.18403902282E+04  0.12699999809E+01 0.  1.
       -4    1    3    3    0  502 -0.10093056386E+04 -0.15340526412E+04  0.33568279388E+03  0.18667350988E+04  0.12699999809E+01 0. -1.
</event>
<event>
 5   0  0.4795023E-07  0.3687871E+04  0.7818609E-02  0.8070655E-01
        1   -1    0    0  501    0  0.00000000000E+00  0.00000000000E+00  0.13081360452E+04  0.13081360452E+04  0.50400001928E-02 0.  1.
       -1   -1    0    0    0  501  0.00000000000E+00  0.00000000000E+00 -0.25991932993E+04  0.25991932993E+04  0.50400001928E-02 0. -1.
    10030    2    1    2    0    0  0.00000000000E+00  0.00000000000E+00 -0.12910572542E+04  0.39073293445E+04  0.36878711709E+04 0.  0.
        3    1    3    3  502    0  0.99465276192E+03 -0.14175907317E+04 -0.13166254627E+04  0.21754080579E+04  0.10100000352E+00 0. -1.
       -3    1    3    3    0  502 -0.99465276192E+03  0.14175907317E+04  0.25568208494E+02  0.17319212866E+04  0.10100000352E+00 0.  1.
</event>
<event>
 5   0  0.1214844E-06  0.3259534E+04  0.7818609E-02  0.8173269E-01
        2   -1    0    0  501    0  0.00000000000E+00  0.00000000000E+00  0.20405565664E+04  0.20405565664E+04  0.25500000920E-02 0.  1.
       -2   -1    0    0    0  501  0.00000000000E+00  0.00000000000E+00 -0.13016743387E+04  0.13016743387E+04  0.25500000920E-02 0. -1.
    10030    2    1    2    0    0  0.00000000000E+00  0.00000000000E+00  0.73888222772E+03  0.33422309051E+04  0.32595337820E+04 0.  0.
        4    1    3    3  502    0 -0.66427994816E+03  0.16778718432E+03 -0.11468317613E+04  0.13359060934E+04  0.12699999809E+01 0. -1.
       -4    1    3    3    0  502  0.66427994816E+03 -0.16778718432E+03  0.18857139890E+04  0.20063248117E+04  0.12699999809E+01 0.  1.
</event>
<event>
 5   0  0.4795023E-07  0.2004842E+04  0.7818609E-02  0.8604360E-01
        1   -1    0    0  501    0  0.00000000000E+00  0.00000000000E+00  0.11692604899E+04  0.11692604899E+04  0.50400001928E-02 0.  1.
       -1   -1    0    0    0  501  0.00000000000E+00  0.00000000000E+00 -0.85938723013E+03  0.85938723014E+03  0.50400001928E-02 0. -1.
    10030    2    1    2    0    0  0.00000000000E+00  0.00000000000E+00  0.30987325973E+03  0.20286477200E+04  0.20048416733E+04 0.  0.
        3    1    3    3  502    0  0.62999871000E+03  0.43097193013E+03  0.81243097119E+03  0.11147552522E+04  0.10100000352E+00 0.  1.
       -3    1    3    3    0  502 -0.62999871000E+03 -0.43097193013E+03 -0.50255771146E+03  0.91389246781E+03  0.10100000352E+00 0. -1.
</event>
<event>
 5   0  0.4795023E-07  0.4220821E+04  0.7818609E-02  0.7961423E-01
       -1   -1    0    0    0  501  0.00000000000E+00  0.00000000000E+00  0.35300286682E+04  0.35300286682E+04  0.50400001928E-02 0. -1.
        1   -1    0    0  501    0  0.00000000000E+00  0.00000000000E+00 -0.12616985276E+04  0.12616985276E+04  0.50400001928E-02 0.  1.
    10030    2    1    2    0    0  0.00000000000E+00  0.00000000000E+00  0.22683301406E+04  0.47917271958E+04  0.42208207605E+04 0.  0.
        3    1    3    3  502    0  0.14188463801E+04  0.53498055469E+03  0.28005245555E+04  0.31846926132E+04  0.10100000352E+00 0. -1.
       -3    1    3    3    0  502 -0.14188463801E+04 -0.53498055469E+03 -0.53219441489E+03  0.16070345826E+04  0.10100000352E+00 0.  1.
</event>
<event>
 5   0  0.1337854E-06  0.2695768E+04  0.7818609E-02  0.8336380E-01
       -2   -1    0    0    0  501  0.00000000000E+00  0.00000000000E+00  0.99758148374E+03  0.99758148375E+03  0.25500000920E-02 0.  1.
        2   -1    0    0  501    0  0.00000000000E+00  0.00000000000E+00 -0.18211954007E+04  0.18211954007E+04  0.25500000920E-02 0. -1.
    10030    2    1    2    0    0  0.00000000000E+00  0.00000000000E+00 -0.82361391692E+03  0.28187768844E+04  0.26957676532E+04 0.  0.
        3    1    3    3  502    0  0.39983392541E+03 -0.11504604186E+04 -0.10155301936E+04  0.15857893703E+04  0.10100000352E+00 0. -1.
       -3    1    3    3    0  502 -0.39983392541E+03  0.11504604186E+04  0.19191627666E+03  0.12329875141E+04  0.10100000352E+00 0.  1.
</event>
<event>
 5   0  0.1337854E-06  0.3839272E+04  0.7818609E-02  0.8037779E-01
       -2   -1    0    0    0  501  0.00000000000E+00  0.00000000000E+00  0.29967220988E+04  0.29967220988E+04  0.25500000920E-02 0. -1.
        2   -1    0    0  501    0  0.00000000000E+00  0.00000000000E+00 -0.12296775096E+04  0.12296775096E+04  0.25500000920E-02 0.  1.
    10030    2    1    2    0    0  0.00000000000E+00  0.00000000000E+00  0.17670445892E+04  0.42263996084E+04  0.38392716848E+04 0.  0.
        3    1    3    3  502    0 -0.66445201345E+03 -0.17968363373E+04  0.10178260619E+04  0.21693517934E+04  0.10100000352E+00 0. -1.
       -3    1    3    3    0  502  0.66445201345E+03  0.17968363373E+04  0.74921852732E+03  0.20570478150E+04  0.10100000352E+00 0.  1.
</event>
<event>
 5   0  0.1214844E-06  0.3547856E+04  0.7818609E-02  0.8102542E-01
        2   -1    0    0  501    0  0.00000000000E+00  0.00000000000E+00  0.17565838683E+04  0.17565838683E+04  0.25500000920E-02 0.  1.
       -2   -1    0    0    0  501  0.00000000000E+00  0.00000000000E+00 -0.17914429115E+04  0.17914429115E+04  0.25500000920E-02 0. -1.
    10030    2    1    2    0    0  0.00000000000E+00  0.00000000000E+00 -0.34859043160E+02  0.35480267798E+04  0.35478555322E+04 0.  0.
        4    1    3    3  502    0 -0.13996172323E+04 -0.10373302482E+04 -0.35186406228E+03  0.17772991791E+04  0.12699999809E+01 0.  1.
       -4    1    3    3    0  502  0.13996172323E+04  0.10373302482E+04  0.31700501912E+03  0.17707276007E+04  0.12699999809E+01 0. -1.
</event>
<event>
 5   0  0.1337854E-06  0.2265442E+04  0.7818609E-02  0.8491673E-01
        2   -1    0    0  501    0  0.00000000000E+00  0.00000000000E+00  0.20233891881E+04  0.20233891881E+04  0.25500000920E-02 0.  1.
       -2   -1    0    0    0  501  0.00000000000E+00  0.00000000000E+00 -0.63411271649E+03  0.63411271650E+03  0.25500000920E-02 0. -1.
    10030    2    1    2    0    0  0.00000000000E+00  0.00000000000E+00  0.13892764716E+04  0.26575019046E+04  0.22654419565E+04 0.  0.
        3    1    3    3  502    0 -0.22552715430E+03  0.59738338449E+03 -0.40286524503E+03  0.75500319287E+03  0.10100000352E+00 0. -1.
       -3    1    3    3    0  502  0.22552715430E+03 -0.59738338449E+03  0.17921417166E+04  0.19024987117E+04  0.10100000352E+00 0.  1.
</event>
<event>
 5   0  0.2126361E-06  0.1890987E+04  0.7818609E-02  0.8659356E-01
        2   -1    0    0  501    0  0.00000000000E+00  0.00000000000E+00  0.12153909992E+04  0.12153909992E+04  0.25500000920E-02 0. -1.
       -2   -1    0    0    0  501  0.00000000000E+00  0.00000000000E+00 -0.73553104124E+03  0.73553104125E+03  0.25500000920E-02 0.  1.
    10030    2    1    2    0    0  0.00000000000E+00  0.00000000000E+00  0.47985995796E+03  0.19509220405E+04  0.18909868399E+04 0.  0.
        1    1    3    3  502    0 -0.27032176842E+03  0.83141146194E+03 -0.13153607041E+03  0.88409310334E+03  0.50400001928E-02 0.  1.
       -1    1    3    3    0  502  0.27032176842E+03 -0.83141146194E+03  0.61139602837E+03  0.10668289371E+04  0.50400001928E-02 0. -1.
</event>
<event>
 5   0  0.4255250E-07  0.2025470E+04  0.7818609E-02  0.8594804E-01
       -1   -1    0    0    0  501  0.00000000000E+00  0.00000000000E+00  0.73970332217E+03  0.73970332219E+03  0.50400001928E-02 0.  1.
        1   -1    0    0  501    0  0.00000000000E+00  0.00000000000E+00 -0.13865451447E+04  0.13865451447E+04  0.50400001928E-02 0. -1.
    10030    2    1    2    0    0  0.00000000000E+00  0.00000000000E+00 -0.64684182256E+03  0.21262484669E+04  0.20254698713E+04 0.  0.
        2    1    3    3  502    0  0.87358982856E+02 -0.92233091344E+03 -0.75280324406E+03  0.11937498189E+04  0.25500000920E-02 0.  1.
       -2    1    3    3    0  502 -0.87358982856E+02  0.92233091344E+03  0.10596142151E+03  0.93249864806E+03  0.25500000920E-02 0. -1.
</event>
<event>
 5   0  0.1079205E-06  0.2152560E+04  0.7818609E-02  0.8538437E-01
        1   -1    0    0  501    0  0.00000000000E+00  0.00000000000E+00  0.25427857987E+04  0.25427857987E+04  0.50400001928E-02 0. -1.
       -1   -1    0    0    0  501  0.00000000000E+00  0.00000000000E+00 -0.45555508575E+03  0.45555508578E+03  0.50400001928E-02 0.  1.
    10030    2    1    2    0    0  0.00000000000E+00  0.00000000000E+00  0.20872307129E+04  0.29983408845E+04  0.21525603384E+04 0.  0.
        4    1    3    3  502    0 -0.60975116178E+03  0.78758241851E+03  0.16116372371E+04  0.18945866942E+04  0.12699999809E+01 0.  1.
       -4    1    3    3    0  502  0.60975116178E+03 -0.78758241851E+03  0.47559347587E+03  0.11037541902E+04  0.12699999809E+01 0. -1.
</event>
<event>
 5   0  0.1185017E-06  0.2041870E+04  0.7818609E-02  0.8587291E-01
        2   -1    0    0  501    0  0.00000000000E+00  0.00000000000E+00  0.12663826246E+04  0.12663826246E+04  0.25500000920E-02 0.  1.
       -2   -1    0    0    0  501  0.00000000000E+00  0.00000000000E+00 -0.82305962639E+03  0.82305962640E+03  0.25500000920E-02 0. -1.
    10030    2    1    2    0    0  0.00000000000E+00  0.00000000000E+00  0.44332299819E+03  0.20894422510E+04  0.20418701329E+04 0.  0.
        5    1    3    3  502    0 -0.32238196850E+03 -0.86570954112E+03 -0.22309457336E+03  0.95035594483E+03  0.46999998093E+01 0. -1.
       -5    1    3    3    0  502  0.32238196850E+03  0.86570954112E+03  0.66641757155E+03  0.11390863062E+04  0.46999998093E+01 0.  1.
</event>
<event>
 5   0  0.4795023E-07  0.4190218E+04  0.7818609E-02  0.7967236E-01
        1   -1    0    0  501    0  0.00000000000E+00  0.00000000000E+00  0.13071307515E+04  0.13071307515E+04  0.50400001928E-02 0. -1.
       -1   -1    0    0    0  501  0.00000000000E+00  0.00000000000E+00 -0.33581039487E+04  0.33581039487E+04  0.50400001928E-02 0.  1.
    10030    2    1    2    0    0  0.00000000000E+00  0.00000000000E+00 -0.20509731972E+04  0.46652347002E+04  0.41902176259E+04 0.  0.
        3    1    3    3  502    0  0.20057561466E+04 -0.16885428781E+03 -0.37828681426E+03  0.20480894547E+04  0.10100000352E+00 0. -1.
       -3    1    3    3    0  502 -0.20057561466E+04  0.16885428781E+03 -0.16726863829E+04  0.26171452455E+04  0.10100000352E+00 0.  1.
</event>
<event>
 5   0  0.8030324E-07  0.3731751E+04  0.7818609E-02  0.8060962E-01
       -1   -1    0    0    0  501  0.00000000000E+00  0.00000000000E+00  0.20064250578E+04  0.20064250578E+04  0.50400001928E-02 0. -1.
        1   -1    0    0  501    0  0.00000000000E+00  0.00000000000E+00 -0.17351718219E+04  0.17351718219E+04  0.50400001928E-02 0.  1.
    10030    2    1    2    0    0  0.00000000000E+00  0.00000000000E+00  0.27125323587E+03  0.37415968797E+04  0.37317514510E+04 0.  0.
        1    1    3    3  502    0 -0.29005231292E+03  0.12995205362E+04 -0.11749594125E+04  0.17757853443E+04  0.50400001928E-02 0.  1.
       -1    1    3    3    0  502  0.29005231292E+03 -0.12995205362E+04  0.14462126484E+04  0.19658115353E+04  0.50400001928E-02 0. -1.
</event>
<event>
 5   0  0.1214844E-06  0.3206172E+04  0.7818609E-02  0.8187189E-01
       -2   -1    0    0    0  501  0.00000000000E+00  0.00000000000E+00  0.16596637863E+04  0.16596637863E+04  0.25500000920E-02 0. -1.
        2   -1    0    0  501    0  0.00000000000E+00  0.00000000000E+00 -0.15484371024E+04  0.15484371024E+04  0.25500000920E-02 0.  1.
    10030    2    1    2    0    0  0.00000000000E+00  0.00000000000E+00  0.11122668392E+03  0.32081008886E+04  0.32061721626E+04 0.  0.
        4    1    3    3  502    0 -0.12187955563E+04  0.10397716095E+04 -0.18299308006E+01  0.16020588534E+04  0.12699999809E+01 0. -1.
       -4    1    3    3    0  502  0.12187955563E+04 -0.10397716095E+04  0.11305661472E+03  0.16060420353E+04  0.12699999809E+01 0.  1.
</event>
<event>
 5   0  0.4795023E-07  0.3649046E+04  0.7818609E-02  0.8079348E-01
        1   -1    0    0  501    0  0.00000000000E+00  0.00000000000E+00  0.15268439839E+04  0.15268439839E+04  0.50400001928E-02 0. -1.
       -1   -1    0    0    0  501  0.00000000000E+00  0.00000000000E+00 -0.21802391733E+04  0.21802391733E+04  0.50400001928E-02 0.  1.
    10030    2    1    2    0    0  0.00000000000E+00  0.00000000000E+00 -0.65339518939E+03  0.37070831573E+04  0.36490464866E+04 0.  0.
        3    1    3    3  502    0 -0.14165857418E+04  0.60146401460E+03  0.66889459108E+03  0.16780626058E+04  0.10100000352E+00 0. -1.
       -3    1    3    3    0  502  0.14165857418E+04 -0.60146401460E+03 -0.13222897805E+04  0.20290205515E+04  0.10100000352E+00 0.  1.
</event>
<event>
 5   0  0.1341932E-06  0.3322377E+04  0.7818609E-02  0.8157225E-01
       -2   -1    0    0    0  501  0.00000000000E+00  0.00000000000E+00  0.15617896902E+04  0.15617896902E+04  0.25500000920E-02 0.  1.
        2   -1    0    0  501    0  0.00000000000E+00  0.00000000000E+00 -0.17669136724E+04  0.17669136724E+04  0.25500000920E-02 0. -1.
    10030    2    1    2    0    0  0.00000000000E+00  0.00000000000E+00 -0.20512398217E+03  0.33287033627E+04  0.33223771954E+04 0.  0.
        2    1    3    3  502    0 -0.13684707139E+04  0.92354051692E+03 -0.28705488894E+03  0.16757206481E+04  0.25500000920E-02 0. -1.
       -2    1    3    3    0  502  0.13684707139E+04 -0.92354051692E+03  0.81930906775E+02  0.16529827146E+04  0.25500000920E-02 0.  1.
</event>
<event>
 5   0  0.1184616E-06  0.2538157E+04  0.7818609E-02  0.8389517E-01
        2   -1    0    0  501    0  0.00000000000E+00  0.00000000000E+00  0.11062104426E+04  0.11062104426E+04  0.25500000920E-02 0. -1.
       -2   -1    0    0    0  501  0.00000000000E+00  0.00000000000E+00 -0.14559257173E+04  0.14559257173E+04  0.25500000920E-02 0.  1.
    10030    2    1    2    0    0  0.00000000000E+00  0.00000000000E+00 -0.34971527475E+03  0.25621361599E+04  0.25381569945E+04 0.  0.
        5    1    3    3  502    0  0.50211003687E+03  0.10050243448E+04  0.42092995830E+03  0.11997468661E+04  0.46999998093E+01 0. -1.
       -5    1    3    3    0  502 -0.50211003687E+03 -0.10050243448E+04 -0.77064523305E+03  0.13623892939E+04  0.46999998093E+01 0.  1.
</event>
<event>
 5   0  0.5284458E-07  0.3850790E+04  0.7818609E-02  0.8035343E-01
        1   -1    0    0  501    0  0.00000000000E+00  0.00000000000E+00  0.16799857240E+04  0.16799857240E+04  0.50400001928E-02 0. -1.
       -1   -1    0    0    0  501  0.00000000000E+00  0.00000000000E+00 -0.22066530206E+04  0.22066530206E+04  0.50400001928E-02 0.  1.
    10030    2    1    2    0    0  0.00000000000E+00  0.00000000000E+00 -0.52666729659E+03  0.38866387445E+04  0.38507898267E+04 0.  0.
        5    1    3    3  502    0 -0.17313356854E+04  0.42740927528E+03  0.46931767007E+03  0.18440398882E+04  0.46999998093E+01 0. -1.
       -5    1    3    3    0  502  0.17313356854E+04 -0.42740927528E+03 -0.99598496666E+03  0.20425988563E+04  0.46999998093E+01 0.  1.
</event>
<event>
 5   0  0.1341932E-06  0.2605999E+04  0.7818609E-02  0.8366166E-01
       -2   -1    0    0    0  501  0.00000000000E+00  0.00000000000E+00  0.14900217025E+04  0.14900217025E+04  0.25500000920E-02 0. -1.
        2   -1    0    0  501    0  0.00000000000E+00  0.00000000000E+00 -0.11394519432E+04  0.11394519432E+04  0.25500000920E-02 0.  1.
    10030    2    1    2    0    0  0.00000000000E+00  0.00000000000E+00  0.35056975932E+03  0.26294736456E+04  0.26059993279E+04 0.  0.
        2    1    3    3  502    0 -0.53278999182E+03 -0.63034068676E+03  0.11926397622E+04  0.14503737998E+04  0.25500000920E-02 0. -1.
       -2    1    3    3    0  502  0.53278999182E+03  0.63034068676E+03 -0.84207000286E+03  0.11790998459E+04  0.25500000920E-02 0.  1.
</event>
<event>
 5   0  0.1079205E-06  0.3792541E+04  0.7818609E-02  0.8047758E-01
        1   -1    0    0  501    0  0.00000000000E+00  0.00000000000E+00  0.20641287275E+04  0.20641287275E+04  0.50400001928E-02 0.  1.
       -1   -1    0    0    0  501  0.00000000000E+00  0.00000000000E+00 -0.17420625296E+04  0.17420625296E+04  0.50400001928E-02 0. -1.
    10030    2    1    2    0    0  0.00000000000E+00  0.00000000000E+00  0.32206619796E+03  0.38061912571E+04  0.37925407381E+04 0.  0.
        4    1    3    3  502    0  0.68226380542E+03 -0.38022216048E+03  0.18951954666E+04  0.20498342033E+04  0.12699999809E+01 0.  1.
       -4    1    3    3    0  502 -0.68226380542E+03  0.38022216048E+03 -0.15731292687E+04  0.17563570538E+04  0.12699999809E+01 0. -1.
</event>
<event>
 5   0  0.1337854E-06  0.3719862E+04  0.7818609E-02  0.8063574E-01
        2   -1    0    0  501    0  0.00000000000E+00  0.00000000000E+00  0.28259439782E+04  0.28259439782E+04  0.25500000920E-02 0.  1.
       -2   -1    0    0    0  501  0.00000000000E+00  0.00000000000E+00 -0.12241373399E+04  0.12241373399E+04  0.25500000920E-02 0. -1.
    10030    2    1    2    0    0  0.00000000000E+00  0.00000000000E+00  0.16018066384E+04  0.40500813181E+04  0.37198621179E+04 0.  0.
        3    1    3    3  502    0  0.14391518048E+04  0.50199768341E+03  0.19614462868E+04  0.24840352529E+04  0.10100000352E+00 0.  1.
       -3    1    3    3    0  502 -0.14391518048E+04 -0.50199768341E+03 -0.35963964841E+03  0.15660460652E+04  0.10100000352E+00 0. -1.
</event>
<event>
 5   0  0.1184616E-06  0.3699810E+04  0.7818609E-02  0.8068004E-01
       -2   -1    0    0    0  501  0.00000000000E+00  0.00000000000E+00  0.10885922951E+04  0.10885922952E+04  0.25500000920E-02 0. -1.
        2   -1    0    0  501    0  0.00000000000E+00  0.00000000000E+00 -0.31436452935E+04  0.31436452935E+04  0.25500000920E-02 0.  1.
    10030    2    1    2    0    0  0.00000000000E+00  0.00000000000E+00 -0.20550529984E+04  0.42322375887E+04  0.36998097493E+04 0.  0.
        5    1    3    3  502    0 -0.16847272725E+04  0.16988230532E+03 -0.18796871541E+04  0.25299035293E+04  0.46999998093E+01 0.  1.
       -5    1    3    3    0  502  0.16847272725E+04 -0.16988230532E+03 -0.17536584427E+03  0.17023340594E+04  0.46999998093E+01 0. -1.
</event>
<event>
 5   0  0.1476003E-06  0.1887199E+04  0.7818609E-02  0.8661255E-01
        2   -1    0    0  501    0  0.00000000000E+00  0.00000000000E+00  0.11015650772E+04  0.11015650772E+04  0.25500000920E-02 0.  1.
       -2   -1    0    0    0  501  0.00000000000E+00  0.00000000000E+00 -0.80828643323E+03  0.80828643323E+03  0.25500000920E-02 0. -1.
    10030    2    1    2    0    0  0.00000000000E+00  0.00000000000E+00  0.29327864394E+03  0.19098515104E+04  0.18871990962E+04 0.  0.
        4    1    3    3  502    0 -0.65539073918E+03 -0.56418852169E+03  0.52870609345E+03  0.10135962979E+04  0.12699999809E+01 0.  1.
       -4    1    3    3    0  502  0.65539073918E+03  0.56418852169E+03 -0.23542744951E+03  0.89625521248E+03  0.12699999809E+01 0. -1.
</event>
<event>
 5   0  0.8030324E-07  0.3443680E+04  0.7818609E-02  0.8127268E-01
       -1   -1    0    0    0  501  0.00000000000E+00  0.00000000000E+00  0.16479273265E+04  0.16479273265E+04  0.50400001928E-02 0.  1.
        1   -1    0    0  501    0  0.00000000000E+00  0.00000000000E+00 -0.17990679571E+04  0.17990679572E+04  0.50400001928E-02 0. -1.
    10030    2    1    2    0    0  0.00000000000E+00  0.00000000000E+00 -0.15114063064E+03  0.34469952837E+04  0.34436801529E+04 0.  0.
        1    1    3    3  502    0 -0.91193061708E+03  0.14186986512E+04 -0.42290571127E+03  0.17387272800E+04  0.50400001928E-02 0. -1.
       -1    1    3    3    0  502  0.91193061708E+03 -0.14186986512E+04  0.27176508063E+03  0.17082680037E+04  0.50400001928E-02 0.  1.
</event>
<event>
 5   0  0.1372748E-06  0.2904325E+04  0.7818609E-02  0.8271592E-01
       -2   -1    0    0    0  501  0.00000000000E+00  0.00000000000E+00  0.12145859326E+04  0.12145859326E+04  0.25500000920E-02 0. -1.
        2   -1    0    0  501    0  0.00000000000E+00  0.00000000000E+00 -0.17362097416E+04  0.17362097416E+04  0.25500000920E-02 0.  1.
    10030    2    1    2    0    0  0.00000000000E+00  0.00000000000E+00 -0.52162380897E+03  0.29507956742E+04  0.29043250012E+04 0.  0.
        1    1    3    3  502    0 -0.69738096617E+03 -0.56113535261E+03  0.90097160651E+03  0.12700247760E+04  0.50400001928E-02 0. -1.
       -1    1    3    3    0  502  0.69738096617E+03  0.56113535261E+03 -0.14225954155E+04  0.16807708982E+04  0.50400001928E-02 0.  1.
</event>
<event>
 5   0  0.8030324E-07  0.3789710E+04  0.7818609E-02  0.8048367E-01
        1   -1    0    0  501    0  0.00000000000E+00  0.00000000000E+00  0.22305319294E+04  0.22305319294E+04  0.50400001928E-02 0.  1.
       -1   -1    0    0    0  501  0.00000000000E+00  0.00000000000E+00 -0.16096945311E+04  0.16096945311E+04  0.50400001928E-02 0. -1.
    10030    2    1    2    0    0  0.00000000000E+00  0.00000000000E+00  0.62083739824E+03  0.38402264605E+04  0.37897097768E+04 0.  0.
        1    1    3    3  502    0  0.30215495810E+03 -0.11535090230E+04  0.18026634019E+04  0.21613597631E+04  0.50400001928E-02 0.  1.
       -1    1    3    3    0  502 -0.30215495810E+03  0.11535090230E+04 -0.11818260037E+04  0.16788666974E+04  0.50400001928E-02 0. -1.
</event>
<event>
 5   0  0.1214844E-06  0.4104371E+04  0.7818609E-02  0.7983816E-01
       -2   -1    0    0    0  501  0.00000000000E+00  0.00000000000E+00  0.31248272733E+04  0.31248272733E+04  0.25500000920E-02 0. -1.
        2   -1    0    0  501    0  0.00000000000E+00  0.00000000000E+00 -0.13477434362E+04  0.13477434362E+04  0.25500000920E-02 0.  1.
    10030    2    1    2    0    0  0.00000000000E+00  0.00000000000E+00  0.17770838371E+04  0.44725707095E+04  0.41043710587E+04 0.  0.
        4    1    3    3  502    0 -0.16536962796E+04  0.66258057936E+03  0.19986231422E+04  0.26773532615E+04  0.12699999809E+01 0. -1.
       -4    1    3    3    0  502  0.16536962796E+04 -0.66258057936E+03 -0.22153930507E+03  0.17952174480E+04  0.12699999809E+01 0.  1.
</event>
<event>
 5   0  0.4795023E-07  0.3805408E+04  0.7818609E-02  0.8044995E-01
       -1   -1    0    0    0  501  0.00000000000E+00  0.00000000000E+00  0.16269235927E+04  0.16269235927E+04  0.50400001928E-02 0.  1.
        1   -1    0    0  501    0  0.00000000000E+00  0.00000000000E+00 -0.22252324040E+04  0.22252324040E+04  0.50400001928E-02 0. -1.
    10030    2    1    2    0    0  0.00000000000E+00  0.00000000000E+00 -0.59830881130E+03  0.38521559967E+04  0.38054083078E+04 0.  0.
        3    1    3    3  502    0 -0.24283030950E+03 -0.12169868696E+04 -0.17591829940E+04  0.21528465845E+04  0.10100000352E+00 0. -1.
       -3    1    3    3    0  502  0.24283030950E+03  0.12169868696E+04  0.11608741827E+04  0.16993094121E+04  0.10100000352E+00 0.  1.
</event>
<event>
 5   0  0.1184616E-06  0.3910331E+04  0.7818609E-02  0.8022884E-01
       -2   -1    0    0    0  501  0.00000000000E+00  0.00000000000E+00  0.23599097412E+04  0.23599097412E+04  0.25500000920E-02 0. -1.
        2   -1    0    0  501    0  0.00000000000E+00  0.00000000000E+00 -0.16198379584E+04  0.16198379584E+04  0.25500000920E-02 0.  1.
    10030    2    1    2    0    0  0.00000000000E+00  0.00000000000E+00  0.74007178282E+03  0.39797476997E+04  0.39103306138E+04 0.  0.
        5    1    3    3  502    0  0.61020030867E+03 -0.71416811651E+03 -0.13751254261E+04  0.16653445718E+04  0.46999998093E+01 0.  1.
       -5    1    3    3    0  502 -0.61020030867E+03  0.71416811651E+03  0.21151972090E+04  0.23144031278E+04  0.46999998093E+01 0. -1.
</event>
<event>
 5   0  0.1184616E-06  0.1943061E+04  0.7818609E-02  0.8633714E-01
        2   -1    0    0  501    0  0.00000000000E+00  0.00000000000E+00  0.77199411536E+03  0.77199411537E+03  0.25500000920E-02 0.  1.
       -2   -1    0    0    0  501  0.00000000000E+00  0.00000000000E+00 -0.12226402196E+04  0.12226402196E+04  0.25500000920E-02 0. -1.
    10030    2    1    2    0    0  0.00000000000E+00  0.00000000000E+00 -0.45064610426E+03  0.19946343350E+04  0.19430605289E+04 0.  0.
        5    1    3    3  502    0  0.36836869217E+03  0.64407720409E+03  0.41847385602E+03  0.85186465848E+03  0.46999998093E+01 0.  1.
       -5    1    3    3    0  502 -0.36836869217E+03 -0.64407720409E+03 -0.86911996028E+03  0.11427696765E+04  0.46999998093E+01 0. -1.
</event>
<event>
 5   0  0.1341932E-06  0.1890593E+04  0.7818609E-02  0.8659553E-01
       -2   -1    0    0    0  501  0.00000000000E+00  0.00000000000E+00  0.42238801147E+03  0.42238801147E+03  0.25500000920E-02 0.  1.
        2   -1    0    0  501    0  0.00000000000E+00  0.00000000000E+00 -0.21155554604E+04  0.21155554604E+04  0.25500000920E-02 0. -1.
    10030    2    1    2    0    0  0.00000000000E+00  0.00000000000E+00 -0.16931674490E+04  0.25379434719E+04  0.18905927791E+04 0.  0.
        2    1    3    3  502    0 -0.29431467226E+03 -0.88522935207E+03 -0.64152867466E+03  0.11321709997E+04  0.25500000920E-02 0. -1.
       -2    1    3    3    0  502  0.29431467226E+03  0.88522935207E+03 -0.10516387743E+04  0.14057724722E+04  0.25500000920E-02 0.  1.
</event>
<event>
 5   0  0.1341932E-06  0.3628674E+04  0.7818609E-02  0.8083955E-01
        2   -1    0    0  501    0  0.00000000000E+00  0.00000000000E+00  0.10646522870E+04  0.10646522870E+04  0.25500000920E-02 0. -1.
       -2   -1    0    0    0  501  0.00000000000E+00  0.00000000000E+00 -0.30919195715E+04  0.30919195715E+04  0.25500000920E-02 0.  1.
    10030    2    1    2    0    0  0.00000000000E+00  0.00000000000E+00 -0.20272672845E+04  0.41565718585E+04  0.36286742720E+04 0.  0.
        2    1    3    3  502    0 -0.14878222877E+03  0.17720646941E+04 -0.60146821020E+03  0.18772622192E+04  0.25500000920E-02 0. -1.
       -2    1    3    3    0  502  0.14878222877E+03 -0.17720646941E+04 -0.14257990743E+04  0.22793096393E+04  0.25500000920E-02 0.  1.
</event>
<event>
 5   0  0.1372748E-06  0.1949087E+04  0.7818609E-02  0.8630801E-01
       -2   -1    0    0    0  501  0.00000000000E+00  0.00000000000E+00  0.52173228300E+03  0.52173228301E+03  0.25500000920E-02 0.  1.
        2   -1    0    0  501    0  0.00000000000E+00  0.00000000000E+00 -0.18203489009E+04  0.18203489009E+04  0.25500000920E-02 0. -1.
    10030    2    1    2    0    0  0.00000000000E+00  0.00000000000E+00 -0.12986166179E+04  0.23420811839E+04  0.19490867481E+04 0.  0.
        1    1    3    3  502    0 -0.62605208432E+03 -0.57842743423E+03 -0.81590215616E+02  0.85625724655E+03  0.50400001928E-02 0.  1.
       -1    1    3    3    0  502  0.62605208432E+03  0.57842743423E+03 -0.12170264023E+04  0.14858239373E+04  0.50400001928E-02 0. -1.
</event>
<event>
 5   0  0.4255250E-07  0.3781013E+04  0.7818609E-02  0.8050242E-01
        3   -1    0    0  501    0  0.00000000000E+00  0.00000000000E+00  0.14378904268E+04  0.14378904304E+04  0.10100000352E+00 0.  1.
       -3   -1    0    0    0  501  0.00000000000E+00  0.00000000000E+00 -0.24855955016E+04  0.24855955037E+04  0.10100000352E+00 0. -1.
    10030    2    1    2    0    0  0.00000000000E+00  0.00000000000E+00 -0.10477050748E+04  0.39234859341E+04  0.37810125563E+04 0.  0.
        3    1    3    3  502    0 -0.13811261734E+04  0.12071484039E+04 -0.49123615148E+02  0.18349740912E+04  0.10100000352E+00 0.  1.
       -3    1    3    3    0  502  0.13811261734E+04 -0.12071484039E+04 -0.99858145966E+03  0.20885118428E+04  0.10100000352E+00 0. -1.
</event>
<event>
 5   0  0.5284458E-07  0.3762849E+04  0.7818609E-02  0.8054175E-01
        1   -1    0    0  501    0  0.00000000000E+00  0.00000000000E+00  0.21711934812E+04  0.21711934812E+04  0.50400001928E-02 0. -1.
       -1   -1    0    0    0  501  0.00000000000E+00  0.00000000000E+00 -0.16303282006E+04  0.16303282006E+04  0.50400001928E-02 0.  1.
    10030    2    1    2    0    0  0.00000000000E+00  0.00000000000E+00  0.54086528060E+03  0.38015216818E+04  0.37628489002E+04 0.  0.
        5    1    3    3  502    0  0.11601316530E+04  0.13700179476E+04 -0.29827486353E+03  0.18198474148E+04  0.46999998093E+01 0.  1.
       -5    1    3    3    0  502 -0.11601316530E+04 -0.13700179476E+04  0.83914014412E+03  0.19816742670E+04  0.46999998093E+01 0. -1.
</event>
<event>
 5   0  0.1337854E-06  0.3411388E+04  0.7818609E-02  0.8135117E-01
        2   -1    0    0  501    0  0.00000000000E+00  0.00000000000E+00  0.28229447153E+04  0.28229447153E+04  0.25500000920E-02 0. -1.
       -2   -1    0    0    0  501  0.00000000000E+00  0.00000000000E+00 -0.10306230368E+04  0.10306230368E+04  0.25500000920E-02 0.  1.
    10030    2    1    2    0    0  0.00000000000E+00  0.00000000000E+00  0.17923216786E+04  0.38535677521E+04  0.34113879023E+04 0.  0.
        3    1    3    3  502    0  0.14581574543E+04 -0.69470883652E+03  0.15154436752E+04  0.22148167130E+04  0.10100000352E+00 0. -1.
       -3    1    3    3    0  502 -0.14581574543E+04  0.69470883652E+03  0.27687800339E+03  0.16387510391E+04  0.10100000352E+00 0.  1.
</event>
<event>
 5   0  0.4795023E-07  0.3865745E+04  0.7818609E-02  0.8032191E-01
        1   -1    0    0  501    0  0.00000000000E+00  0.00000000000E+00  0.24247454587E+04  0.24247454587E+04  0.50400001928E-02 0.  1.
       -1   -1    0    0    0  501  0.00000000000E+00  0.00000000000E+00 -0.15407788996E+04  0.15407788996E+04  0.50400001928E-02 0. -1.
    10030    2    1    2    0    0  0.00000000000E+00  0.00000000000E+00  0.88396655903E+03  0.39655243583E+04  0.38657452786E+04 0.  0.
        3    1    3    3  502    0  0.66816106267E+01  0.87589508870E+03 -0.13254983822E+04  0.15887677054E+04  0.10100000352E+00 0. -1.
       -3    1    3    3    0  502 -0.66816106267E+01 -0.87589508870E+03  0.22094649412E+04  0.23767566529E+04  0.10100000352E+00 0.  1.
</event>
<event>
 5   0  0.1341932E-06  0.3763090E+04  0.7818609E-02  0.8054122E-01
        2   -1    0    0  501    0  0.00000000000E+00  0.00000000000E+00  0.15900705565E+04  0.15900705565E+04  0.25500000920E-02 0. -1.
       -2   -1    0    0    0  501  0.00000000000E+00  0.00000000000E+00 -0.22264490104E+04  0.22264490104E+04  0.25500000920E-02 0.  1.
    10030    2    1    2    0    0  0.00000000000E+00  0.00000000000E+00 -0.63637845396E+03  0.38165195669E+04  0.37630896970E+04 0.  0.
        2    1    3    3  502    0  0.95213701173E+03  0.84557834883E+03  0.10866287406E+04  0.16740160253E+04  0.25500000920E-02 0. -1.
       -2    1    3    3    0  502 -0.95213701173E+03 -0.84557834883E+03 -0.17230071946E+04  0.21425035416E+04  0.25500000920E-02 0.  1.
</event>
<event>
 5   0  0.9180349E-07  0.1927155E+04  0.7818609E-02  0.8641456E-01
       -1   -1    0    0    0  501  0.00000000000E+00  0.00000000000E+00  0.68434989609E+03  0.68434989611E+03  0.50400001928E-02 0. -1.
        1   -1    0    0  501    0  0.00000000000E+00  0.00000000000E+00 -0.13567351645E+04  0.13567351645E+04  0.50400001928E-02 0.  1.
    10030    2    1    2    0    0  0.00000000000E+00  0.00000000000E+00 -0.67238526838E+03  0.20410850606E+04  0.19271549692E+04 0.  0.
        1    1    3    3  502    0  0.39904183697E+02  0.58880649597E+03 -0.11429294573E+04  0.12863021333E+04  0.50400001928E-02 0.  1.
       -1    1    3    3    0  502 -0.39904183697E+02 -0.58880649597E+03  0.47054418896E+03  0.75478292731E+03  0.50400001928E-02 0. -1.
</event>
<event>
 5   0  0.4795023E-07  0.3786942E+04  0.7818609E-02  0.8048963E-01
        1   -1    0    0  501    0  0.00000000000E+00  0.00000000000E+00  0.17131967308E+04  0.17131967308E+04  0.50400001928E-02 0.  1.
       -1   -1    0    0    0  501  0.00000000000E+00  0.00000000000E+00 -0.20927152856E+04  0.20927152857E+04  0.50400001928E-02 0. -1.
    10030    2    1    2    0    0  0.00000000000E+00  0.00000000000E+00 -0.37951855489E+03  0.38059120164E+04  0.37869422947E+04 0.  0.
        3    1    3    3  502    0 -0.10583955184E+04 -0.20759901208E+03 -0.17538115310E+04  0.20589204258E+04  0.10100000352E+00 0. -1.
       -3    1    3    3    0  502  0.10583955184E+04  0.20759901208E+03  0.13742929761E+04  0.17469915906E+04  0.10100000352E+00 0.  1.
</event>
<event>
 5   0  0.4255250E-07  0.1977964E+04  0.7818609E-02  0.8616993E-01
       -1   -1    0    0    0  501  0.00000000000E+00  0.00000000000E+00  0.85388877126E+03  0.85388877127E+03  0.50400001928E-02 0. -1.
        1   -1    0    0  501    0  0.00000000000E+00  0.00000000000E+00 -0.11454484983E+04  0.11454484983E+04  0.50400001928E-02 0.  1.
    10030    2    1    2    0    0  0.00000000000E+00  0.00000000000E+00 -0.29155972700E+03  0.19993372695E+04  0.19779642168E+04 0.  0.
        2    1    3    3  502    0  0.82701766731E+02  0.92370529136E+03  0.20146468223E+03  0.94903059261E+03  0.25500000920E-02 0. -1.
       -2    1    3    3    0  502 -0.82701766731E+02 -0.92370529136E+03 -0.49302440923E+03  0.10503066769E+04  0.25500000920E-02 0.  1.
</event>
<event>
 5   0  0.4255250E-07  0.3623962E+04  0.7818609E-02  0.8085025E-01
        3   -1    0    0  501    0  0.00000000000E+00  0.00000000000E+00  0.23675433783E+04  0.23675433805E+04  0.10100000352E+00 0.  1.
       -3   -1    0    0    0  501  0.00000000000E+00  0.00000000000E+00 -0.13867854222E+04  0.13867854259E+04  0.10100000352E+00 0. -1.
    10030    2    1    2    0    0  0.00000000000E+00  0.00000000000E+00  0.98075795608E+03  0.37543288064E+04  0.36239617297E+04 0.  0.
        1    1    3    3  502    0  0.12416130750E+04 -0.67565605713E+03  0.16648096653E+04  0.21839655119E+04  0.50400001928E-02 0.  1.
       -1    1    3    3    0  502 -0.12416130750E+04  0.67565605713E+03 -0.68405170926E+03  0.15703632944E+04  0.50400001928E-02 0. -1.
</event>
<event>
 5   0  0.1214844E-06  0.3697479E+04  0.7818609E-02  0.8068521E-01
        2   -1    0    0  501    0  0.00000000000E+00  0.00000000000E+00  0.11716337564E+04  0.11716337564E+04  0.25500000920E-02 0. -1.
       -2   -1    0    0    0  501  0.00000000000E+00  0.00000000000E+00 -0.29171549733E+04  0.29171549733E+04  0.25500000920E-02 0.  1.
    10030    2    1    2    0    0  0.00000000000E+00  0.00000000000E+00 -0.17455212169E+04  0.40887887298E+04  0.36974787299E+04 0.  0.
        4    1    3    3  502    0 -0.14508209489E+03  0.63455896720E+03  0.10407184478E+04  0.12275220559E+04  0.12699999809E+01 0. -1.
       -4    1    3    3    0  502  0.14508209489E+03 -0.63455896720E+03 -0.27862396647E+04  0.28612666739E+04  0.12699999809E+01 0.  1.
</event>
<event>
 5   0  0.1214844E-06  0.3588552E+04  0.7818609E-02  0.8093119E-01
        2   -1    0    0  501    0  0.00000000000E+00  0.00000000000E+00  0.19785136187E+04  0.19785136187E+04  0.25500000920E-02 0.  1.
       -2   -1    0    0    0  501  0.00000000000E+00  0.00000000000E+00 -0.16271946951E+04  0.16271946951E+04  0.25500000920E-02 0. -1.
    10030    2    1    2    0    0  0.00000000000E+00  0.00000000000E+00  0.35131892362E+03  0.36057083137E+04  0.35885522788E+04 0.  0.
        4    1    3    3  502    0  0.77330582877E+03 -0.20670185246E+03  0.17891689717E+04  0.19600649945E+04  0.12699999809E+01 0.  1.
       -4    1    3    3    0  502 -0.77330582877E+03  0.20670185246E+03 -0.14378500480E+04  0.16456433192E+04  0.12699999809E+01 0. -1.
</event>
<event>
 5   0  0.4255250E-07  0.3881279E+04  0.7818609E-02  0.8028934E-01
        1   -1    0    0  501    0  0.00000000000E+00  0.00000000000E+00  0.18517942040E+04  0.18517942040E+04  0.50400001928E-02 0. -1.
       -1   -1    0    0    0  501  0.00000000000E+00  0.00000000000E+00 -0.20337477959E+04  0.20337477959E+04  0.50400001928E-02 0.  1.
    10030    2    1    2    0    0  0.00000000000E+00  0.00000000000E+00 -0.18195359185E+03  0.38855419999E+04  0.38812793668E+04 0.  0.
        2    1    3    3  502    0 -0.14428175359E+04 -0.95699794067E+03  0.78663579370E+03  0.19016738344E+04  0.25500000920E-02 0. -1.
       -2    1    3    3    0  502  0.14428175359E+04  0.95699794067E+03 -0.96858938555E+03  0.19838681655E+04  0.25500000920E-02 0.  1.
</event>
<event>
 5   0  0.1214844E-06  0.3193187E+04  0.7818609E-02  0.8190619E-01
        2   -1    0    0  501    0  0.00000000000E+00  0.00000000000E+00  0.17076112940E+04  0.17076112940E+04  0.25500000920E-02 0.  1.
       -2   -1    0    0    0  501  0.00000000000E+00  0.00000000000E+00 -0.14927935740E+04  0.14927935740E+04  0.25500000920E-02 0. -1.
    10030    2    1    2    0    0  0.00000000000E+00  0.00000000000E+00  0.21481771998E+03  0.32004048680E+04  0.31931872269E+04 0.  0.
        4    1    3    3  502    0 -0.36795079254E+03 -0.15360031614E+04 -0.12639090471E+03  0.15845093156E+04  0.12699999809E+01 0. -1.
       -4    1    3    3    0  502  0.36795079254E+03  0.15360031614E+04  0.34120862469E+03  0.16158955524E+04  0.12699999809E+01 0.  1.
</event>
<event>
 5   0  0.1372748E-06  0.1918062E+04  0.7818609E-02  0.8645917E-01
       -2   -1    0    0    0  501  0.00000000000E+00  0.00000000000E+00  0.55081367499E+03  0.55081367499E+03  0.25500000920E-02 0.  1.
        2   -1    0    0  501    0  0.00000000000E+00  0.00000000000E+00 -0.16697856356E+04  0.16697856356E+04  0.25500000920E-02 0. -1.
    10030    2    1    2    0    0  0.00000000000E+00  0.00000000000E+00 -0.11189719606E+04  0.22205993106E+04  0.19180623164E+04 0.  0.
        1    1    3    3  502    0 -0.40627416885E+03  0.49720071608E+03 -0.13842205070E+04  0.15258878283E+04  0.50400001928E-02 0. -1.
       -1    1    3    3    0  502  0.40627416885E+03 -0.49720071608E+03  0.26524854638E+03  0.69471148236E+03  0.50400001928E-02 0.  1.
</event>
<event>
 5   0  0.1214844E-06  0.3456488E+04  0.7818609E-02  0.8124180E-01
        2   -1    0    0  501    0  0.00000000000E+00  0.00000000000E+00  0.24397315365E+04  0.24397315365E+04  0.25500000920E-02 0. -1.
       -2   -1    0    0    0  501  0.00000000000E+00  0.00000000000E+00 -0.12242443199E+04  0.12242443199E+04  0.25500000920E-02 0.  1.
    10030    2    1    2    0    0  0.00000000000E+00  0.00000000000E+00  0.12154872166E+04  0.36639758565E+04  0.34564880881E+04 0.  0.
        4    1    3    3  502    0  0.16430640196E+04 -0.14009351080E+02  0.11755966553E+04  0.20203674773E+04  0.12699999809E+01 0. -1.
       -4    1    3    3    0  502 -0.16430640196E+04  0.14009351080E+02  0.39890561286E+02  0.16436083792E+04  0.12699999809E+01 0.  1.
</event>
<event>
 5   0  0.4255250E-07  0.3744167E+04  0.7818609E-02  0.8058244E-01
        3   -1    0    0  501    0  0.00000000000E+00  0.00000000000E+00  0.11951634745E+04  0.11951634787E+04  0.10100000352E+00 0.  1.
       -3   -1    0    0    0  501  0.00000000000E+00  0.00000000000E+00 -0.29323991753E+04  0.29323991771E+04  0.10100000352E+00 0. -1.
    10030    2    1    2    0    0  0.00000000000E+00  0.00000000000E+00 -0.17372357008E+04  0.41275626558E+04  0.37441668763E+04 0.  0.
        3    1    3    3  502    0 -0.18402897591E+04  0.64607174864E+02 -0.12405949955E+04  0.22203415137E+04  0.10100000352E+00 0. -1.
       -3    1    3    3    0  502  0.18402897591E+04 -0.64607174864E+02 -0.49664070537E+03  0.19072211421E+04  0.10100000352E+00 0.  1.
</event>
<event>
 5   0  0.1184616E-06  0.3085289E+04  0.7818609E-02  0.8219787E-01
       -2   -1    0    0    0  501  0.00000000000E+00  0.00000000000E+00  0.15042741589E+04  0.15042741589E+04  0.25500000920E-02 0.  1.
        2   -1    0    0  501    0  0.00000000000E+00  0.00000000000E+00 -0.15819936772E+04  0.15819936772E+04  0.25500000920E-02 0. -1.
    10030    2    1    2    0    0  0.00000000000E+00  0.00000000000E+00 -0.77719518260E+02  0.30862678361E+04  0.30852891003E+04 0.  0.
        5    1    3    3  502    0 -0.82634271303E+03 -0.12641918456E+04  0.27541631537E+03  0.15352197037E+04  0.46999998093E+01 0. -1.
       -5    1    3    3    0  502  0.82634271303E+03  0.12641918456E+04 -0.35313583363E+03  0.15510481324E+04  0.46999998093E+01 0.  1.
</event>
<event>
 5   0  0.4255250E-07  0.2125706E+04  0.7818609E-02  0.8550003E-01
        3   -1    0    0  501    0  0.00000000000E+00  0.00000000000E+00  0.61248976872E+03  0.61248977705E+03  0.10100000352E+00 0.  1.
       -3   -1    0    0    0  501  0.00000000000E+00  0.00000000000E+00 -0.18443682072E+04  0.18443682100E+04  0.10100000352E+00 0. -1.
    10030    2    1    2    0    0  0.00000000000E+00  0.00000000000E+00 -0.12318784385E+04  0.24568579870E+04  0.21257061606E+04 0.  0.
        5    1    3    3  502    0 -0.36255678416E+03  0.62876275603E+03 -0.15133256411E+04  0.16783821409E+04  0.46999998093E+01 0. -1.
       -5    1    3    3    0  502  0.36255678416E+03 -0.62876275603E+03  0.28144720258E+03  0.77847584609E+03  0.46999998093E+01 0.  1.
</event>
<event>
 5   0  0.5284458E-07  0.3808164E+04  0.7818609E-02  0.8044405E-01
       -1   -1    0    0    0  501  0.00000000000E+00  0.00000000000E+00  0.24714210394E+04  0.24714210394E+04  0.50400001928E-02 0.  1.
        1   -1    0    0  501    0  0.00000000000E+00  0.00000000000E+00 -0.14669811914E+04  0.14669811914E+04  0.50400001928E-02 0. -1.
    10030    2    1    2    0    0  0.00000000000E+00  0.00000000000E+00  0.10044398479E+04  0.39384022308E+04  0.38081639570E+04 0.  0.
        5    1    3    3  502    0  0.39484377484E+03 -0.23188287407E+03 -0.14091857063E+04  0.14817212014E+04  0.46999998093E+01 0. -1.
       -5    1    3    3    0  502 -0.39484377484E+03  0.23188287407E+03  0.24136255543E+04  0.24566810294E+04  0.46999998093E+01 0.  1.
</event>
<event>
 5   0  0.1184616E-06  0.3463573E+04  0.7818609E-02  0.8122477E-01
        2   -1    0    0  501    0  0.00000000000E+00  0.00000000000E+00  0.20422238145E+04  0.20422238145E+04  0.25500000920E-02 0. -1.
       -2   -1    0    0    0  501  0.00000000000E+00  0.00000000000E+00 -0.14685381984E+04  0.14685381984E+04  0.25500000920E-02 0.  1.
    10030    2    1    2    0    0  0.00000000000E+00  0.00000000000E+00  0.57368561609E+03  0.35107620129E+04  0.34635725379E+04 0.  0.
        5    1    3    3  502    0  0.10161259358E+03  0.37979985591E+03  0.19963825342E+04  0.20347329954E+04  0.46999998093E+01 0. -1.
       -5    1    3    3    0  502 -0.10161259358E+03 -0.37979985591E+03 -0.14226969181E+04  0.14760290175E+04  0.46999998093E+01 0.  1.
</event>
<event>
 5   0  0.4795023E-07  0.3825340E+04  0.7818609E-02  0.8040739E-01
        1   -1    0    0  501    0  0.00000000000E+00  0.00000000000E+00  0.25820413406E+04  0.25820413406E+04  0.50400001928E-02 0. -1.
       -1   -1    0    0    0  501  0.00000000000E+00  0.00000000000E+00 -0.14168271111E+04  0.14168271111E+04  0.50400001928E-02 0.  1.
    10030    2    1    2    0    0  0.00000000000E+00  0.00000000000E+00  0.11652142295E+04  0.39988684517E+04  0.38253398140E+04 0.  0.
        3    1    3    3  502    0 -0.78945329829E+03  0.10005682202E+04 -0.90824788656E+03  0.15650199702E+04  0.10100000352E+00 0.  1.
       -3    1    3    3    0  502  0.78945329829E+03 -0.10005682202E+04  0.20734621161E+04  0.24338484814E+04  0.10100000352E+00 0. -1.
</event>
<event>
 5   0  0.8030324E-07  0.2103853E+04  0.7818609E-02  0.8559548E-01
        1   -1    0    0  501    0  0.00000000000E+00  0.00000000000E+00  0.64858205049E+03  0.64858205051E+03  0.50400001928E-02 0. -1.
       -1   -1    0    0    0  501  0.00000000000E+00  0.00000000000E+00 -0.17061046571E+04  0.17061046571E+04  0.50400001928E-02 0.  1.
    10030    2    1    2    0    0  0.00000000000E+00  0.00000000000E+00 -0.10575226066E+04  0.23546867076E+04  0.21038525204E+04 0.  0.
        1    1    3    3  502    0  0.52928367111E+03 -0.35687670822E+03 -0.14645351956E+04  0.15976124463E+04  0.50400001928E-02 0.  1.
       -1    1    3    3    0  502 -0.52928367111E+03  0.35687670822E+03  0.40701258906E+03  0.75707426126E+03  0.50400001928E-02 0. -1.
</event>
<event>
 5   0  0.8030324E-07  0.1965250E+04  0.7818609E-02  0.8623042E-01
       -1   -1    0    0    0  501  0.00000000000E+00  0.00000000000E+00  0.66994303303E+03  0.66994303305E+03  0.50400001928E-02 0. -1.
        1   -1    0    0  501    0  0.00000000000E+00  0.00000000000E+00 -0.14412446318E+04  0.14412446318E+04  0.50400001928E-02 0.  1.
    10030    2    1    2    0    0  0.00000000000E+00  0.00000000000E+00 -0.77130159881E+03  0.21111876649E+04  0.19652499078E+04 0.  0.
        1    1    3    3  502    0 -0.35675579381E+03  0.75162350706E+02  0.59459386958E+03  0.69747110703E+03  0.50400001928E-02 0. -1.
       -1    1    3    3    0  502  0.35675579381E+03 -0.75162350706E+02 -0.13658954684E+04  0.14137165579E+04  0.50400001928E-02 0.  1.
</event>
<event>
 5   0  0.4795023E-07  0.2663913E+04  0.7818609E-02  0.8346810E-01
        1   -1    0    0  501    0  0.00000000000E+00  0.00000000000E+00  0.15479254036E+04  0.15479254036E+04  0.50400001928E-02 0. -1.
       -1   -1    0    0    0  501  0.00000000000E+00  0.00000000000E+00 -0.11461197359E+04  0.11461197359E+04  0.50400001928E-02 0.  1.
    10030    2    1    2    0    0  0.00000000000E+00  0.00000000000E+00  0.40180566769E+03  0.26940451394E+04  0.26639128024E+04 0.  0.
        3    1    3    3  502    0  0.63620613786E+03 -0.66639707384E+03  0.11736899748E+04  0.14921097403E+04  0.10100000352E+00 0. -1.
       -3    1    3    3    0  502 -0.63620613786E+03  0.66639707384E+03 -0.77188430715E+03  0.12019353991E+04  0.10100000352E+00 0.  1.
</event>
<event>
 5   0  0.1217898E-06  0.2057462E+04  0.7818609E-02  0.8580217E-01
        2   -1    0    0  501    0  0.00000000000E+00  0.00000000000E+00  0.15787682343E+04  0.15787682343E+04  0.25500000920E-02 0.  1.
       -2   -1    0    0    0  501  0.00000000000E+00  0.00000000000E+00 -0.67032484872E+03  0.67032484873E+03  0.25500000920E-02 0. -1.
    10030    2    1    2    0    0  0.00000000000E+00  0.00000000000E+00  0.90844338558E+03  0.22490930830E+04  0.20574621045E+04 0.  0.
        4    1    3    3  502    0 -0.68928140251E+03 -0.48473553903E+02 -0.37888216053E+03  0.78804304562E+03  0.12699999809E+01 0. -1.
       -4    1    3    3    0  502  0.68928140251E+03  0.48473553903E+02  0.12873255461E+04  0.14610500374E+04  0.12699999809E+01 0.  1.
</event>
<event>
 5   0  0.1079205E-06  0.3755537E+04  0.7818609E-02  0.8055764E-01
       -1   -1    0    0    0  501  0.00000000000E+00  0.00000000000E+00  0.23665455336E+04  0.23665455337E+04  0.50400001928E-02 0.  1.
        1   -1    0    0  501    0  0.00000000000E+00  0.00000000000E+00 -0.14899419536E+04  0.14899419536E+04  0.50400001928E-02 0. -1.
    10030    2    1    2    0    0  0.00000000000E+00  0.00000000000E+00  0.87660358004E+03  0.38564874873E+04  0.37555374985E+04 0.  0.
        4    1    3    3  502    0  0.83830410218E+03 -0.16379024537E+04  0.53344035041E+02  0.18407404528E+04  0.12699999809E+01 0. -1.
       -4    1    3    3    0  502 -0.83830410218E+03  0.16379024537E+04  0.82325954500E+03  0.20157470345E+04  0.12699999809E+01 0.  1.
</event>
<event>
 5   0  0.4795023E-07  0.1998284E+04  0.7818609E-02  0.8607424E-01
        1   -1    0    0  501    0  0.00000000000E+00  0.00000000000E+00  0.10997666686E+04  0.10997666686E+04  0.50400001928E-02 0. -1.
       -1   -1    0    0    0  501  0.00000000000E+00  0.00000000000E+00 -0.90772368448E+03  0.90772368449E+03  0.50400001928E-02 0.  1.
    10030    2    1    2    0    0  0.00000000000E+00  0.00000000000E+00  0.19204298411E+03  0.20074903531E+04  0.19982835159E+04 0.  0.
        3    1    3    3  502    0  0.77354972887E+03 -0.45530213731E+02 -0.53762385455E+03  0.94312862462E+03  0.10100000352E+00 0.  1.
       -3    1    3    3    0  502 -0.77354972887E+03  0.45530213731E+02  0.72966683866E+03  0.10643617285E+04  0.10100000352E+00 0. -1.
</event>
<event>
 5   0  0.5284458E-07  0.3017918E+04  0.7818609E-02  0.8238633E-01
       -1   -1    0    0    0  501  0.00000000000E+00  0.00000000000E+00  0.11796683463E+04  0.11796683463E+04  0.50400001928E-02 0.  1.
        1   -1    0    0  501    0  0.00000000000E+00  0.00000000000E+00 -0.19301676545E+04  0.19301676545E+04  0.50400001928E-02 0. -1.
    10030    2    1    2    0    0  0.00000000000E+00  0.00000000000E+00 -0.75049930823E+03  0.31098360008E+04  0.30179182793E+04 0.  0.
        5    1    3    3  502    0  0.25998583874E+03 -0.84771018299E+03  0.88289207200E+03  0.12512896114E+04  0.46999998093E+01 0.  1.
       -5    1    3    3    0  502 -0.25998583874E+03  0.84771018299E+03 -0.16333913802E+04  0.18585463894E+04  0.46999998093E+01 0. -1.
</event>
<event>
 5   0  0.4255250E-07  0.3955032E+04  0.7818609E-02  0.8013680E-01
        3   -1    0    0  501    0  0.00000000000E+00  0.00000000000E+00  0.21117203848E+04  0.21117203873E+04  0.10100000352E+00 0. -1.
       -3   -1    0    0    0  501  0.00000000000E+00  0.00000000000E+00 -0.18518409504E+04  0.18518409531E+04  0.10100000352E+00 0.  1.
    10030    2    1    2    0    0  0.00000000000E+00  0.00000000000E+00  0.25987943447E+03  0.39635613404E+04  0.39550323865E+04 0.  0.
        4    1    3    3  502    0 -0.84552840750E+03 -0.11058925393E+04  0.15374798531E+04  0.20740690702E+04  0.12699999809E+01 0. -1.
       -4    1    3    3    0  502  0.84552840750E+03  0.11058925393E+04 -0.12776004187E+04  0.18894922702E+04  0.12699999809E+01 0.  1.
</event>
<event>
 5   0  0.1214844E-06  0.3745809E+04  0.7818609E-02  0.8057885E-01
       -2   -1    0    0    0  501  0.00000000000E+00  0.00000000000E+00  0.27882339549E+04  0.27882339549E+04  0.25500000920E-02 0.  1.
        2   -1    0    0  501    0  0.00000000000E+00  0.00000000000E+00 -0.12580620996E+04  0.12580620996E+04  0.25500000920E-02 0. -1.
    10030    2    1    2    0    0  0.00000000000E+00  0.00000000000E+00  0.15301718553E+04  0.40462960545E+04  0.37458091053E+04 0.  0.
        4    1    3    3  502    0 -0.15474282441E+04  0.59883645557E+03  0.17034669464E+04  0.23780118842E+04  0.12699999809E+01 0. -1.
       -4    1    3    3    0  502  0.15474282441E+04 -0.59883645557E+03 -0.17329509110E+03  0.16682841702E+04  0.12699999809E+01 0.  1.
</event>
<event>
 5   0  0.4255250E-07  0.2831179E+04  0.7818609E-02  0.8293653E-01
        1   -1    0    0  501    0  0.00000000000E+00  0.00000000000E+00  0.17647118485E+04  0.17647118485E+04  0.50400001928E-02 0. -1.
       -1   -1    0    0    0  501  0.00000000000E+00  0.00000000000E+00 -0.11355357094E+04  0.11355357094E+04  0.50400001928E-02 0.  1.
    10030    2    1    2    0    0  0.00000000000E+00  0.00000000000E+00  0.62917613916E+03  0.29002475579E+04  0.28311787798E+04 0.  0.
        2    1    3    3  502    0 -0.63262509499E+03  0.55551626755E+03  0.14803668745E+04  0.17030263995E+04  0.25500000920E-02 0. -1.
       -2    1    3    3    0  502  0.63262509499E+03 -0.55551626755E+03 -0.85119073532E+03  0.11972211584E+04  0.25500000920E-02 0.  1.
</event>
<event>
 5   0  0.8030324E-07  0.2778800E+04  0.7818609E-02  0.8309881E-01
       -1   -1    0    0    0  501  0.00000000000E+00  0.00000000000E+00  0.13772571259E+04  0.13772571260E+04  0.50400001928E-02 0. -1.
        1   -1    0    0  501    0  0.00000000000E+00  0.00000000000E+00 -0.14016495008E+04  0.14016495008E+04  0.50400001928E-02 0.  1.
    10030    2    1    2    0    0  0.00000000000E+00  0.00000000000E+00 -0.24392374859E+02  0.27789066268E+04  0.27787995704E+04 0.  0.
        1    1    3    3  502    0  0.47493522129E+02  0.13874575469E+04 -0.68213379039E+02  0.13899450148E+04  0.50400001928E-02 0. -1.
       -1    1    3    3    0  502 -0.47493522129E+02 -0.13874575469E+04  0.43821004180E+02  0.13889616120E+04  0.50400001928E-02 0.  1.
</event>
<event>
 5   0  0.1214844E-06  0.3592102E+04  0.7818609E-02  0.8092303E-01
       -2   -1    0    0    0  501  0.00000000000E+00  0.00000000000E+00  0.17712495061E+04  0.17712495061E+04  0.25500000920E-02 0. -1.
        2   -1    0    0  501    0  0.00000000000E+00  0.00000000000E+00 -0.18212000999E+04  0.18212000999E+04  0.25500000920E-02 0.  1.
    10030    2    1    2    0    0  0.00000000000E+00  0.00000000000E+00 -0.49950593733E+02  0.35924496060E+04  0.35921023245E+04 0.  0.
        4    1    3    3  502    0  0.73191551273E+03 -0.17896163473E+03  0.16055413590E+04  0.17735535664E+04  0.12699999809E+01 0. -1.
       -4    1    3    3    0  502 -0.73191551273E+03  0.17896163473E+03 -0.16554919527E+04  0.18188960396E+04  0.12699999809E+01 0.  1.
</event>
<event>
 5   0  0.1184616E-06  0.4014799E+04  0.7818609E-02  0.8001568E-01
       -2   -1    0    0    0  501  0.00000000000E+00  0.00000000000E+00  0.22115077041E+04  0.22115077041E+04  0.25500000920E-02 0. -1.
        2   -1    0    0  501    0  0.00000000000E+00  0.00000000000E+00 -0.18221295135E+04  0.18221295135E+04  0.25500000920E-02 0.  1.
    10030    2    1    2    0    0  0.00000000000E+00  0.00000000000E+00  0.38937819059E+03  0.40336372176E+04  0.40147993509E+04 0.  0.
        5    1    3    3  502    0  0.17682974969E+04  0.80890759620E+03  0.69544907939E+03  0.20651583592E+04  0.46999998093E+01 0.  1.
       -5    1    3    3    0  502 -0.17682974969E+04 -0.80890759620E+03 -0.30607088880E+03  0.19684788583E+04  0.46999998093E+01 0. -1.
</event>
<event>
 5   0  0.1079205E-06  0.3268708E+04  0.7818609E-02  0.8170904E-01
       -1   -1    0    0    0  501  0.00000000000E+00  0.00000000000E+00  0.16188354293E+04  0.16188354293E+04  0.50400001928E-02 0. -1.
        1   -1    0    0  501    0  0.00000000000E+00  0.00000000000E+00 -0.16500210457E+04  0.16500210457E+04  0.50400001928E-02 0.  1.
    10030    2    1    2    0    0  0.00000000000E+00  0.00000000000E+00 -0.31185616363E+02  0.32688564750E+04  0.32687077128E+04 0.  0.
        4    1    3    3  502    0 -0.84105952259E+02 -0.71001491744E+03 -0.14853249352E+04  0.16484498082E+04  0.12699999809E+01 0.  1.
       -4    1    3    3    0  502  0.84105952259E+02  0.71001491744E+03  0.14541393188E+04  0.16204066668E+04  0.12699999809E+01 0. -1.
</event>
<event>
 5   0  0.1214844E-06  0.2300960E+04  0.7818609E-02  0.8477543E-01
       -2   -1    0    0    0  501  0.00000000000E+00  0.00000000000E+00  0.12532981106E+04  0.12532981106E+04  0.25500000920E-02 0. -1.
        2   -1    0    0  501    0  0.00000000000E+00  0.00000000000E+00 -0.10560970335E+04  0.10560970335E+04  0.25500000920E-02 0.  1.
    10030    2    1    2    0    0  0.00000000000E+00  0.00000000000E+00  0.19720107701E+03  0.23093951441E+04  0.23009601619E+04 0.  0.
        4    1    3    3  502    0 -0.20461469267E+03  0.22976721922E+03 -0.10140402023E+04  0.10596882996E+04  0.12699999809E+01 0.  1.
       -4    1    3    3    0  502  0.20461469267E+03 -0.22976721922E+03  0.12112412793E+04  0.12497068445E+04  0.12699999809E+01 0. -1.
</event>
<event>
 5   0  0.1337854E-06  0.4222431E+04  0.7818609E-02  0.7961119E-01
        2   -1    0    0  501    0  0.00000000000E+00  0.00000000000E+00  0.22672558981E+04  0.22672558981E+04  0.25500000920E-02 0.  1.
       -2   -1    0    0    0  501  0.00000000000E+00  0.00000000000E+00 -0.19659140254E+04  0.19659140254E+04  0.25500000920E-02 0. -1.
    10030    2    1    2    0    0  0.00000000000E+00  0.00000000000E+00  0.30134187273E+03  0.42331699235E+04  0.42224306598E+04 0.  0.
        3    1    3    3  502    0  0.13371958060E+04  0.91594610635E+03  0.15069532847E+04  0.22131330971E+04  0.10100000352E+00 0. -1.
       -3    1    3    3    0  502 -0.13371958060E+04 -0.91594610635E+03 -0.12056114119E+04  0.20200368264E+04  0.10100000352E+00 0.  1.
</event>
<event>
 5   0  0.1341932E-06  0.3734209E+04  0.7818609E-02  0.8060423E-01
       -2   -1    0    0    0  501  0.00000000000E+00  0.00000000000E+00  0.17913020563E+04  0.17913020563E+04  0.25500000920E-02 0.  1.
        2   -1    0    0  501    0  0.00000000000E+00  0.00000000000E+00 -0.19461147565E+04  0.19461147565E+04  0.25500000920E-02 0. -1.
    10030    2    1    2    0    0  0.00000000000E+00  0.00000000000E+00 -0.15481270015E+03  0.37374168128E+04  0.37342090810E+04 0.  0.
        2    1    3    3  502    0 -0.51272207092E+03  0.63988019104E+03  0.16014578346E+04  0.17991658559E+04  0.25500000920E-02 0.  1.
       -2    1    3    3    0  502  0.51272207092E+03 -0.63988019104E+03 -0.17562705347E+04  0.19382509570E+04  0.25500000920E-02 0. -1.
</event>
<event>
 5   0  0.1341932E-06  0.3652974E+04  0.7818609E-02  0.8078464E-01
       -2   -1    0    0    0  501  0.00000000000E+00  0.00000000000E+00  0.14662699302E+04  0.14662699302E+04  0.25500000920E-02 0.  1.
        2   -1    0    0  501    0  0.00000000000E+00  0.00000000000E+00 -0.22751977979E+04  0.22751977979E+04  0.25500000920E-02 0. -1.
    10030    2    1    2    0    0  0.00000000000E+00  0.00000000000E+00 -0.80892786772E+03  0.37414677280E+04  0.36529736469E+04 0.  0.
        2    1    3    3  502    0  0.16525991200E+04 -0.74277265130E+03 -0.64083384127E+03  0.19218384623E+04  0.25500000920E-02 0. -1.
       -2    1    3    3    0  502 -0.16525991200E+04  0.74277265130E+03 -0.16809402645E+03  0.18196292657E+04  0.25500000920E-02 0.  1.
</event>
<event>
 5   0  0.5284458E-07  0.3869611E+04  0.7818609E-02  0.8031379E-01
       -1   -1    0    0    0  501  0.00000000000E+00  0.00000000000E+00  0.12295239571E+04  0.12295239571E+04  0.50400001928E-02 0.  1.
        1   -1    0    0  501    0  0.00000000000E+00  0.00000000000E+00 -0.30446522130E+04  0.30446522130E+04  0.50400001928E-02 0. -1.
    10030    2    1    2    0    0  0.00000000000E+00  0.00000000000E+00 -0.18151282559E+04  0.42741761702E+04  0.38696112658E+04 0.  0.
        5    1    3    3  502    0 -0.15522644525E+03  0.14398637572E+04 -0.23247261344E+04  0.27389188704E+04  0.46999998093E+01 0. -1.
       -5    1    3    3    0  502  0.15522644525E+03 -0.14398637572E+04  0.50959787852E+03  0.15352572997E+04  0.46999998093E+01 0.  1.
</event>
<event>
 5   0  0.1337854E-06  0.3728480E+04  0.7818609E-02  0.8061679E-01
       -2   -1    0    0    0  501  0.00000000000E+00  0.00000000000E+00  0.17224405912E+04  0.17224405912E+04  0.25500000920E-02 0. -1.
        2   -1    0    0  501    0  0.00000000000E+00  0.00000000000E+00 -0.20177131973E+04  0.20177131973E+04  0.25500000920E-02 0.  1.
    10030    2    1    2    0    0  0.00000000000E+00  0.00000000000E+00 -0.29527260614E+03  0.37401537885E+04  0.37284801796E+04 0.  0.
        3    1    3    3  502    0 -0.69301080484E+03 -0.11642889556E+04  0.11368251054E+04  0.17686729710E+04  0.10100000352E+00 0. -1.
       -3    1    3    3    0  502  0.69301080484E+03  0.11642889556E+04 -0.14320977116E+04  0.19714808175E+04  0.10100000352E+00 0.  1.
</event>
<event>
 5   0  0.4255250E-07  0.3783094E+04  0.7818609E-02  0.8049793E-01
        1   -1    0    0  501    0  0.00000000000E+00  0.00000000000E+00  0.30345875178E+04  0.30345875178E+04  0.50400001928E-02 0.  1.
       -1   -1    0    0    0  501  0.00000000000E+00  0.00000000000E+00 -0.11790562356E+04  0.11790562356E+04  0.50400001928E-02 0. -1.
    10030    2    1    2    0    0  0.00000000000E+00  0.00000000000E+00  0.18555312822E+04  0.42136437535E+04  0.37830936206E+04 0.  0.
        2    1    3    3  502    0  0.61874540832E+03  0.39110699667E+03 -0.10149097405E+04  0.12513402194E+04  0.25500000920E-02 0. -1.
       -2    1    3    3    0  502 -0.61874540832E+03 -0.39110699667E+03  0.28704410228E+04  0.29623035341E+04  0.25500000920E-02 0.  1.
</event>
<event>
 5   0  0.4795023E-07  0.3789008E+04  0.7818609E-02  0.8048518E-01
        1   -1    0    0  501    0  0.00000000000E+00  0.00000000000E+00  0.22549318373E+04  0.22549318373E+04  0.50400001928E-02 0.  1.
       -1   -1    0    0    0  501  0.00000000000E+00  0.00000000000E+00 -0.15916871543E+04  0.15916871543E+04  0.50400001928E-02 0. -1.
    10030    2    1    2    0    0  0.00000000000E+00  0.00000000000E+00  0.66324468300E+03  0.38466189916E+04  0.37890083342E+04 0.  0.
        3    1    3    3  502    0 -0.12413860931E+04  0.22827172109E+03 -0.11026569536E+04  0.16760070937E+04  0.10100000352E+00 0. -1.
       -3    1    3    3    0  502  0.12413860931E+04 -0.22827172109E+03  0.17659016366E+04  0.21706118978E+04  0.10100000352E+00 0.  1.
</event>
<event>
 5   0  0.1341932E-06  0.3802414E+04  0.7818609E-02  0.8045637E-01
        2   -1    0    0  501    0  0.00000000000E+00  0.00000000000E+00  0.21822709443E+04  0.21822709443E+04  0.25500000920E-02 0.  1.
       -2   -1    0    0    0  501  0.00000000000E+00  0.00000000000E+00 -0.16563421524E+04  0.16563421524E+04  0.25500000920E-02 0. -1.
    10030    2    1    2    0    0  0.00000000000E+00  0.00000000000E+00  0.52592879192E+03  0.38386130966E+04  0.38024136297E+04 0.  0.
        2    1    3    3  502    0  0.63549010246E+03  0.54216877039E+03 -0.14611566983E+04  0.16830845323E+04  0.25500000920E-02 0. -1.
       -2    1    3    3    0  502 -0.63549010246E+03 -0.54216877039E+03  0.19870854903E+04  0.21555285643E+04  0.25500000920E-02 0.  1.
</event>
<event>
 5   0  0.4255250E-07  0.3854381E+04  0.7818609E-02  0.8034584E-01
        3   -1    0    0  501    0  0.00000000000E+00  0.00000000000E+00  0.18696301855E+04  0.18696301882E+04  0.10100000352E+00 0.  1.
       -3   -1    0    0    0  501  0.00000000000E+00  0.00000000000E+00 -0.19865233408E+04  0.19865233433E+04  0.10100000352E+00 0. -1.
    10030    2    1    2    0    0  0.00000000000E+00  0.00000000000E+00 -0.11689315531E+03  0.38561535315E+04  0.38543814094E+04 0.  0.
        4    1    3    3  502    0  0.36758785133E+02 -0.16533697322E+04 -0.10483860840E+04  0.19580852059E+04  0.12699999809E+01 0. -1.
       -4    1    3    3    0  502 -0.36758785133E+02  0.16533697322E+04  0.93149292870E+03  0.18980683256E+04  0.12699999809E+01 0.  1.
</event>
<event>
 5   0  0.1214844E-06  0.3605394E+04  0.7818609E-02  0.8089257E-01
       -2   -1    0    0    0  501  0.00000000000E+00  0.00000000000E+00  0.16039401602E+04  0.16039401602E+04  0.25500000920E-02 0. -1.
        2   -1    0    0  501    0  0.00000000000E+00  0.00000000000E+00 -0.20260830039E+04  0.20260830039E+04  0.25500000920E-02 0.  1.
    10030    2    1    2    0    0  0.00000000000E+00  0.00000000000E+00 -0.42214284372E+03  0.36300231641E+04  0.36053936805E+04 0.  0.
        4    1    3    3  502    0 -0.17636633374E+04 -0.23792608019E+02 -0.58595870629E+03  0.18586079937E+04  0.12699999809E+01 0.  1.
       -4    1    3    3    0  502  0.17636633374E+04  0.23792608019E+02  0.16381586257E+03  0.17714151704E+04  0.12699999809E+01 0. -1.
</event>
<event>
 5   0  0.1337854E-06  0.2025721E+04  0.7818609E-02  0.8594689E-01
        2   -1    0    0  501    0  0.00000000000E+00  0.00000000000E+00  0.21318939330E+04  0.21318939330E+04  0.25500000920E-02 0. -1.
       -2   -1    0    0    0  501  0.00000000000E+00  0.00000000000E+00 -0.48120891546E+03  0.48120891547E+03  0.25500000920E-02 0.  1.
    10030    2    1    2    0    0  0.00000000000E+00  0.00000000000E+00  0.16506850176E+04  0.26131028485E+04  0.20257209753E+04 0.  0.
        3    1    3    3  502    0 -0.50370629467E+03  0.70484425497E+03  0.14843705021E+03  0.87895336801E+03  0.10100000352E+00 0.  1.
       -3    1    3    3    0  502  0.50370629467E+03 -0.70484425497E+03  0.15022479673E+04  0.17341494805E+04  0.10100000352E+00 0. -1.
</event>
<event>
 5   0  0.1184616E-06  0.2191757E+04  0.7818609E-02  0.8521867E-01
       -2   -1    0    0    0  501  0.00000000000E+00  0.00000000000E+00  0.49607958708E+03  0.49607958709E+03  0.25500000920E-02 0.  1.
        2   -1    0    0  501    0  0.00000000000E+00  0.00000000000E+00 -0.24208803080E+04  0.24208803080E+04  0.25500000920E-02 0. -1.
    10030    2    1    2    0    0  0.00000000000E+00  0.00000000000E+00 -0.19248007209E+04  0.29169598951E+04  0.21917566503E+04 0.  0.
        5    1    3    3  502    0  0.42100747774E+03 -0.98086274825E+03 -0.12926838259E+04  0.16764225574E+04  0.46999998093E+01 0.  1.
       -5    1    3    3    0  502 -0.42100747774E+03  0.98086274825E+03 -0.63211689500E+03  0.12405373377E+04  0.46999998093E+01 0. -1.
</event>
<event>
 5   0  0.8030324E-07  0.3845309E+04  0.7818609E-02  0.8036501E-01
       -1   -1    0    0    0  501  0.00000000000E+00  0.00000000000E+00  0.22125849637E+04  0.22125849637E+04  0.50400001928E-02 0. -1.
        1   -1    0    0  501    0  0.00000000000E+00  0.00000000000E+00 -0.16707156177E+04  0.16707156177E+04  0.50400001928E-02 0.  1.
    10030    2    1    2    0    0  0.00000000000E+00  0.00000000000E+00  0.54186934603E+03  0.38833005814E+04  0.38453089626E+04 0.  0.
        1    1    3    3  502    0 -0.84833452475E+03 -0.67467668425E+03  0.18746228782E+04  0.21654262928E+04  0.50400001928E-02 0. -1.
       -1    1    3    3    0  502  0.84833452475E+03  0.67467668425E+03 -0.13327535321E+04  0.17178742886E+04  0.50400001928E-02 0.  1.
</event>
<event>
 5   0  0.5284458E-07  0.3815215E+04  0.7818609E-02  0.8042898E-01
        1   -1    0    0  501    0  0.00000000000E+00  0.00000000000E+00  0.26984275882E+04  0.26984275882E+04  0.50400001928E-02 0. -1.
       -1   -1    0    0    0  501  0.00000000000E+00  0.00000000000E+00 -0.13485504768E+04  0.13485504768E+04  0.50400001928E-02 0.  1.
    10030    2    1    2    0    0  0.00000000000E+00  0.00000000000E+00  0.13498771114E+04  0.40469780650E+04  0.38152147047E+04 0.  0.
        5    1    3    3  502    0  0.16809201506E+04 -0.70855166985E+03  0.12668750900E+04  0.22209305719E+04  0.46999998093E+01 0. -1.
       -5    1    3    3    0  502 -0.16809201506E+04  0.70855166985E+03  0.83002021443E+02  0.18260474931E+04  0.46999998093E+01 0.  1.
</event>
<event>
 5   0  0.1214844E-06  0.3470746E+04  0.7818609E-02  0.8120758E-01
       -2   -1    0    0    0  501  0.00000000000E+00  0.00000000000E+00  0.18566832498E+04  0.18566832498E+04  0.25500000920E-02 0.  1.
        2   -1    0    0  501    0  0.00000000000E+00  0.00000000000E+00 -0.16219892272E+04  0.16219892272E+04  0.25500000920E-02 0. -1.
    10030    2    1    2    0    0  0.00000000000E+00  0.00000000000E+00  0.23469402265E+03  0.34786724770E+04  0.34707464497E+04 0.  0.
        4    1    3    3  502    0  0.15089475179E+04  0.33860088039E+03  0.90651123949E+03  0.17925784245E+04  0.12699999809E+01 0.  1.
       -4    1    3    3    0  502 -0.15089475179E+04 -0.33860088039E+03 -0.67181721684E+03  0.16860940524E+04  0.12699999809E+01 0. -1.
</event>
<event>
 5   0  0.1214844E-06  0.3483043E+04  0.7818609E-02  0.8117820E-01
       -2   -1    0    0    0  501  0.00000000000E+00  0.00000000000E+00  0.17309571776E+04  0.17309571776E+04  0.25500000920E-02 0.  1.
        2   -1    0    0  501    0  0.00000000000E+00  0.00000000000E+00 -0.17521500259E+04  0.17521500259E+04  0.25500000920E-02 0. -1.
    10030    2    1    2    0    0  0.00000000000E+00  0.00000000000E+00 -0.21192848300E+02  0.34831072035E+04  0.34830427293E+04 0.  0.
        4    1    3    3  502    0 -0.81008348991E+03 -0.13288921187E+04  0.77089454606E+03  0.17367986463E+04  0.12699999809E+01 0.  1.
       -4    1    3    3    0  502  0.81008348991E+03  0.13288921187E+04 -0.79208739436E+03  0.17463085572E+04  0.12699999809E+01 0. -1.
</event>
<event>
 5   0  0.1184616E-06  0.2167223E+04  0.7818609E-02  0.8532196E-01
       -2   -1    0    0    0  501  0.00000000000E+00  0.00000000000E+00  0.10773608229E+04  0.10773608229E+04  0.25500000920E-02 0.  1.
        2   -1    0    0  501    0  0.00000000000E+00  0.00000000000E+00 -0.10898982304E+04  0.10898982304E+04  0.25500000920E-02 0. -1.
    10030    2    1    2    0    0  0.00000000000E+00  0.00000000000E+00 -0.12537407543E+02  0.21672590533E+04  0.21672227891E+04 0.  0.
        5    1    3    3  502    0 -0.53978697837E+03 -0.31276342977E+03 -0.89228613615E+03  0.10887550614E+04  0.46999998093E+01 0. -1.
       -5    1    3    3    0  502  0.53978697837E+03  0.31276342977E+03  0.87974872860E+03  0.10785039919E+04  0.46999998093E+01 0.  1.
</event>
<event>
 5   0  0.1214844E-06  0.3718082E+04  0.7818609E-02  0.8063966E-01
       -2   -1    0    0    0  501  0.00000000000E+00  0.00000000000E+00  0.14654311315E+04  0.14654311315E+04  0.25500000920E-02 0. -1.
        2   -1    0    0  501    0  0.00000000000E+00  0.00000000000E+00 -0.23583730066E+04  0.23583730066E+04  0.25500000920E-02 0.  1.
    10030    2    1    2    0    0  0.00000000000E+00  0.00000000000E+00 -0.89294187503E+03  0.38238041381E+04  0.37180818837E+04 0.  0.
        4    1    3    3  502    0 -0.87661078754E+03  0.83903771600E+03  0.10019801412E+04  0.15736570713E+04  0.12699999809E+01 0. -1.
       -4    1    3    3    0  502  0.87661078754E+03 -0.83903771600E+03 -0.18949220162E+04  0.22501470668E+04  0.12699999809E+01 0.  1.
</event>
<event>
 5   0  0.1341932E-06  0.3838328E+04  0.7818609E-02  0.8037979E-01
        2   -1    0    0  501    0  0.00000000000E+00  0.00000000000E+00  0.11804557022E+04  0.11804557022E+04  0.25500000920E-02 0.  1.
       -2   -1    0    0    0  501  0.00000000000E+00  0.00000000000E+00 -0.31201433308E+04  0.31201433308E+04  0.25500000920E-02 0. -1.
    10030    2    1    2    0    0  0.00000000000E+00  0.00000000000E+00 -0.19396876287E+04  0.43005990330E+04  0.38383282749E+04 0.  0.
        2    1    3    3  502    0 -0.27277518991E+03  0.33112756172E+02  0.11583017848E+04  0.11904477240E+04  0.25500000920E-02 0.  1.
       -2    1    3    3    0  502  0.27277518991E+03 -0.33112756172E+02 -0.30979894135E+04  0.31101513090E+04  0.25500000920E-02 0. -1.
</event>
<event>
 5   0  0.1184616E-06  0.3781312E+04  0.7818609E-02  0.8050177E-01
       -2   -1    0    0    0  501  0.00000000000E+00  0.00000000000E+00  0.14967524435E+04  0.14967524435E+04  0.25500000920E-02 0. -1.
        2   -1    0    0  501    0  0.00000000000E+00  0.00000000000E+00 -0.23882237657E+04  0.23882237657E+04  0.25500000920E-02 0.  1.
    10030    2    1    2    0    0  0.00000000000E+00  0.00000000000E+00 -0.89147132226E+03  0.38849762092E+04  0.37813118131E+04 0.  0.
        5    1    3    3  502    0 -0.64616639424E+03  0.11183194590E+04 -0.18643081985E+04  0.22680027712E+04  0.46999998093E+01 0.  1.
       -5    1    3    3    0  502  0.64616639424E+03 -0.11183194590E+04  0.97283687620E+03  0.16169734380E+04  0.46999998093E+01 0. -1.
</event>
<event>
 5   0  0.1184616E-06  0.3484720E+04  0.7818609E-02  0.8117421E-01
       -2   -1    0    0    0  501  0.00000000000E+00  0.00000000000E+00  0.15900309115E+04  0.15900309115E+04  0.25500000920E-02 0.  1.
        2   -1    0    0  501    0  0.00000000000E+00  0.00000000000E+00 -0.19092823831E+04  0.19092823831E+04  0.25500000920E-02 0. -1.
    10030    2    1    2    0    0  0.00000000000E+00  0.00000000000E+00 -0.31925147157E+03  0.34993132946E+04  0.34847197924E+04 0.  0.
        5    1    3    3  502    0 -0.31669316527E+03 -0.59646682798E+03 -0.17725054537E+04  0.18968038674E+04  0.46999998093E+01 0. -1.
       -5    1    3    3    0  502  0.31669316527E+03  0.59646682798E+03  0.14532539821E+04  0.16025094272E+04  0.46999998093E+01 0.  1.
</event>
<event>
 5   0  0.4255250E-07  0.3167658E+04  0.7818609E-02  0.8197411E-01
       -1   -1    0    0    0  501  0.00000000000E+00  0.00000000000E+00  0.17255305932E+04  0.17255305932E+04  0.50400001928E-02 0.  1.
        1   -1    0    0  501    0  0.00000000000E+00  0.00000000000E+00 -0.14537643573E+04  0.14537643573E+04  0.50400001928E-02 0. -1.
    10030    2    1    2    0    0  0.00000000000E+00  0.00000000000E+00  0.27176623592E+03  0.31792949506E+04  0.31676583616E+04 0.  0.
        2    1    3    3  502    0  0.11412038511E+04  0.44845531397E+03  0.11420910056E+04  0.16756581583E+04  0.25500000920E-02 0.  1.
       -2    1    3    3    0  502 -0.11412038511E+04 -0.44845531397E+03 -0.87032476966E+03  0.15036367923E+04  0.25500000920E-02 0. -1.
</event>
<event>
 5   0  0.4255250E-07  0.3720628E+04  0.7818609E-02  0.8063406E-01
       -1   -1    0    0    0  501  0.00000000000E+00  0.00000000000E+00  0.22059425285E+04  0.22059425285E+04  0.50400001928E-02 0. -1.
        1   -1    0    0  501    0  0.00000000000E+00  0.00000000000E+00 -0.15688387304E+04  0.15688387304E+04  0.50400001928E-02 0.  1.
    10030    2    1    2    0    0  0.00000000000E+00  0.00000000000E+00  0.63710379812E+03  0.37747812589E+04  0.37206279447E+04 0.  0.
        2    1    3    3  502    0  0.13835103289E+04 -0.14777631281E+02  0.15802147887E+04  0.21003328276E+04  0.25500000920E-02 0. -1.
       -2    1    3    3    0  502 -0.13835103289E+04  0.14777631281E+02 -0.94311099053E+03  0.16744484313E+04  0.25500000920E-02 0.  1.
</event>
<event>
 5   0  0.4255250E-07  0.2129584E+04  0.7818609E-02  0.8548322E-01
       -4   -1    0    0    0  501  0.00000000000E+00  0.00000000000E+00  0.16680412477E+04  0.16680417312E+04  0.12699999809E+01 0.  1.
        4   -1    0    0  501    0  0.00000000000E+00  0.00000000000E+00 -0.67970744098E+03  0.67970862744E+03  0.12699999809E+01 0. -1.
    10030    2    1    2    0    0  0.00000000000E+00  0.00000000000E+00  0.98833380677E+03  0.23477503587E+04  0.21295840047E+04 0.  0.
        3    1    3    3  502    0  0.18386487077E+03 -0.84149570779E+03  0.11842843137E+04  0.14643942989E+04  0.10100000352E+00 0.  1.
       -3    1    3    3    0  502 -0.18386487077E+03  0.84149570779E+03 -0.19595050690E+03  0.88335605974E+03  0.10100000352E+00 0. -1.
</event>
<event>
 5   0  0.1337854E-06  0.3055228E+04  0.7818609E-02  0.8228134E-01
       -2   -1    0    0    0  501  0.00000000000E+00  0.00000000000E+00  0.13187890113E+04  0.13187890113E+04  0.25500000920E-02 0.  1.
        2   -1    0    0  501    0  0.00000000000E+00  0.00000000000E+00 -0.17695051161E+04  0.17695051161E+04  0.25500000920E-02 0. -1.
    10030    2    1    2    0    0  0.00000000000E+00  0.00000000000E+00 -0.45071610475E+03  0.30882941274E+04  0.30552275873E+04 0.  0.
        3    1    3    3  502    0 -0.97920851861E+03 -0.11095886514E+04  0.15764593914E+03  0.14882501640E+04  0.10100000352E+00 0.  1.
       -3    1    3    3    0  502  0.97920851861E+03  0.11095886514E+04 -0.60836204388E+03  0.16000439634E+04  0.10100000352E+00 0. -1.
</event>
<event>
 5   0  0.4795023E-07  0.3439888E+04  0.7818609E-02  0.8128185E-01
        1   -1    0    0  501    0  0.00000000000E+00  0.00000000000E+00  0.17678819872E+04  0.17678819872E+04  0.50400001928E-02 0. -1.
       -1   -1    0    0    0  501  0.00000000000E+00  0.00000000000E+00 -0.16733059448E+04  0.16733059448E+04  0.50400001928E-02 0.  1.
    10030    2    1    2    0    0  0.00000000000E+00  0.00000000000E+00  0.94576042377E+02  0.34411879320E+04  0.34398880440E+04 0.  0.
        3    1    3    3  502    0  0.30969803557E+03  0.14806328616E+04 -0.77156933151E+03  0.16980888633E+04  0.10100000352E+00 0.  1.
       -3    1    3    3    0  502 -0.30969803557E+03 -0.14806328616E+04  0.86614537388E+03  0.17430990686E+04  0.10100000352E+00 0. -1.
</event>
<event>
 5   0  0.4255250E-07  0.3695106E+04  0.7818609E-02  0.8069047E-01
        1   -1    0    0  501    0  0.00000000000E+00  0.00000000000E+00  0.12310062564E+04  0.12310062564E+04  0.50400001928E-02 0. -1.
       -1   -1    0    0    0  501  0.00000000000E+00  0.00000000000E+00 -0.27728963011E+04  0.27728963011E+04  0.50400001928E-02 0.  1.
    10030    2    1    2    0    0  0.00000000000E+00  0.00000000000E+00 -0.15418900447E+04  0.40039025575E+04  0.36951063286E+04 0.  0.
        2    1    3    3  502    0 -0.11946890717E+04  0.13780639099E+04 -0.10907549971E+04  0.21251090752E+04  0.25500000920E-02 0.  1.
       -2    1    3    3    0  502  0.11946890717E+04 -0.13780639099E+04 -0.45113504760E+03  0.18787934823E+04  0.25500000920E-02 0. -1.
</event>
<event>
 5   0  0.1341932E-06  0.1948967E+04  0.7818609E-02  0.8630859E-01
       -2   -1    0    0    0  501  0.00000000000E+00  0.00000000000E+00  0.70163474249E+03  0.70163474249E+03  0.25500000920E-02 0. -1.
        2   -1    0    0  501    0  0.00000000000E+00  0.00000000000E+00 -0.13534363599E+04  0.13534363599E+04  0.25500000920E-02 0.  1.
    10030    2    1    2    0    0  0.00000000000E+00  0.00000000000E+00 -0.65180161738E+03  0.20550711024E+04  0.19489668769E+04 0.  0.
        2    1    3    3  502    0  0.51426572950E+01 -0.14382842113E+03 -0.13421682765E+04  0.13498624909E+04  0.25500000920E-02 0.  1.
       -2    1    3    3    0  502 -0.51426572950E+01  0.14382842113E+03  0.69036665916E+03  0.70520861151E+03  0.25500000920E-02 0. -1.
</event>
<event>
 5   0  0.1214844E-06  0.3748856E+04  0.7818609E-02  0.8057220E-01
       -2   -1    0    0    0  501  0.00000000000E+00  0.00000000000E+00  0.16898973839E+04  0.16898973839E+04  0.25500000920E-02 0. -1.
        2   -1    0    0  501    0  0.00000000000E+00  0.00000000000E+00 -0.20791084680E+04  0.20791084680E+04  0.25500000920E-02 0.  1.
    10030    2    1    2    0    0  0.00000000000E+00  0.00000000000E+00 -0.38921108415E+03  0.37690058519E+04  0.37488558046E+04 0.  0.
        4    1    3    3  502    0  0.10397036500E+03 -0.62887365077E+03  0.15775903776E+04  0.17014949068E+04  0.12699999809E+01 0. -1.
       -4    1    3    3    0  502 -0.10397036500E+03  0.62887365077E+03 -0.19668014617E+04  0.20675109451E+04  0.12699999809E+01 0.  1.
</event>
<event>
 5   0  0.5284458E-07  0.3803379E+04  0.7818609E-02  0.8045430E-01
       -1   -1    0    0    0  501  0.00000000000E+00  0.00000000000E+00  0.26448780807E+04  0.26448780807E+04  0.50400001928E-02 0. -1.
        1   -1    0    0  501    0  0.00000000000E+00  0.00000000000E+00 -0.13673310071E+04  0.13673310071E+04  0.50400001928E-02 0.  1.
    10030    2    1    2    0    0  0.00000000000E+00  0.00000000000E+00  0.12775470736E+04  0.40122090878E+04  0.38033794498E+04 0.  0.
        5    1    3    3  502    0 -0.18299654167E+03  0.72656413211E+03 -0.12050562527E+04  0.14190017035E+04  0.46999998093E+01 0.  1.
       -5    1    3    3    0  502  0.18299654167E+03 -0.72656413211E+03  0.24826033263E+04  0.25932073843E+04  0.46999998093E+01 0. -1.
</event>
<event>
 5   0  0.1341932E-06  0.3636204E+04  0.7818609E-02  0.8082249E-01
       -2   -1    0    0    0  501  0.00000000000E+00  0.00000000000E+00  0.19249988630E+04  0.19249988630E+04  0.25500000920E-02 0. -1.
        2   -1    0    0  501    0  0.00000000000E+00  0.00000000000E+00 -0.17171411688E+04  0.17171411688E+04  0.25500000920E-02 0.  1.
    10030    2    1    2    0    0  0.00000000000E+00  0.00000000000E+00  0.20785769419E+03  0.36421400318E+04  0.36362039533E+04 0.  0.
        2    1    3    3  502    0  0.17258502515E+04 -0.55039307232E+03 -0.51253647613E+02  0.18122137184E+04  0.25500000920E-02 0. -1.
       -2    1    3    3    0  502 -0.17258502515E+04  0.55039307232E+03  0.25911134180E+03  0.18299263133E+04  0.25500000920E-02 0.  1.
</event>
<event>
 5   0  0.8030324E-07  0.3263768E+04  0.7818609E-02  0.8172176E-01
        1   -1    0    0  501    0  0.00000000000E+00  0.00000000000E+00  0.22624967876E+04  0.22624967876E+04  0.50400001928E-02 0. -1.
       -1   -1    0    0    0  501  0.00000000000E+00  0.00000000000E+00 -0.11770382173E+04  0.11770382174E+04  0.50400001928E-02 0.  1.
    10030    2    1    2    0    0  0.00000000000E+00  0.00000000000E+00  0.10854585703E+04  0.34395350050E+04  0.32637678751E+04 0.  0.
        1    1    3    3  502    0 -0.95783540130E+03  0.12184237294E+04  0.42932450739E+01  0.15498462738E+04  0.50400001928E-02 0. -1.
       -1    1    3    3    0  502  0.95783540130E+03 -0.12184237294E+04  0.10811653252E+04  0.18896887312E+04  0.50400001928E-02 0.  1.
</event>
<event>
 5   0  0.4255250E-07  0.3813137E+04  0.7818609E-02  0.8043341E-01
       -1   -1    0    0    0  501  0.00000000000E+00  0.00000000000E+00  0.20607214999E+04  0.20607214999E+04  0.50400001928E-02 0.  1.
        1   -1    0    0  501    0  0.00000000000E+00  0.00000000000E+00 -0.17639473891E+04  0.17639473891E+04  0.50400001928E-02 0. -1.
    10030    2    1    2    0    0  0.00000000000E+00  0.00000000000E+00  0.29677411078E+03  0.38246688889E+04  0.38131374532E+04 0.  0.
        2    1    3    3  502    0 -0.11333489569E+04 -0.15321431145E+04  0.20388908314E+03  0.19166411088E+04  0.25500000920E-02 0.  1.
       -2    1    3    3    0  502  0.11333489569E+04  0.15321431145E+04  0.92885027634E+02  0.19080277802E+04  0.25500000920E-02 0. -1.
</event>
<event>
 5   0  0.4795023E-07  0.3898191E+04  0.7818609E-02  0.8025406E-01
        1   -1    0    0  501    0  0.00000000000E+00  0.00000000000E+00  0.17965156656E+04  0.17965156656E+04  0.50400001928E-02 0.  1.
       -1   -1    0    0    0  501  0.00000000000E+00  0.00000000000E+00 -0.21146337766E+04  0.21146337766E+04  0.50400001928E-02 0. -1.
    10030    2    1    2    0    0  0.00000000000E+00  0.00000000000E+00 -0.31811811104E+03  0.39111494422E+04  0.38981907119E+04 0.  0.
        3    1    3    3  502    0  0.11087481297E+04 -0.12429097441E+04 -0.11747610872E+04  0.20381880849E+04  0.10100000352E+00 0. -1.
       -3    1    3    3    0  502 -0.11087481297E+04  0.12429097441E+04  0.85664297611E+03  0.18729613573E+04  0.10100000352E+00 0.  1.
</event>
<event>
 5   0  0.1337854E-06  0.3675039E+04  0.7818609E-02  0.8073516E-01
        2   -1    0    0  501    0  0.00000000000E+00  0.00000000000E+00  0.14900983294E+04  0.14900983294E+04  0.25500000920E-02 0.  1.
       -2   -1    0    0    0  501  0.00000000000E+00  0.00000000000E+00 -0.22659432539E+04  0.22659432539E+04  0.25500000920E-02 0. -1.
    10030    2    1    2    0    0  0.00000000000E+00  0.00000000000E+00 -0.77584492453E+03  0.37560415834E+04  0.36750391874E+04 0.  0.
        3    1    3    3  502    0  0.11236122616E+04  0.85112395223E+03 -0.15927013346E+04  0.21268789453E+04  0.10100000352E+00 0. -1.
       -3    1    3    3    0  502 -0.11236122616E+04 -0.85112395223E+03  0.81685641004E+03  0.16291626381E+04  0.10100000352E+00 0.  1.
</event>
<event>
 5   0  0.1337854E-06  0.3359126E+04  0.7818609E-02  0.8148012E-01
       -2   -1    0    0    0  501  0.00000000000E+00  0.00000000000E+00  0.15179392905E+04  0.15179392905E+04  0.25500000920E-02 0. -1.
        2   -1    0    0  501    0  0.00000000000E+00  0.00000000000E+00 -0.18583954159E+04  0.18583954159E+04  0.25500000920E-02 0.  1.
    10030    2    1    2    0    0  0.00000000000E+00  0.00000000000E+00 -0.34045612537E+03  0.33763347064E+04  0.33591257309E+04 0.  0.
        3    1    3    3  502    0 -0.72776181609E+03 -0.14469455180E+04 -0.61707599208E+03  0.17332257162E+04  0.10100000352E+00 0.  1.
       -3    1    3    3    0  502  0.72776181609E+03  0.14469455180E+04  0.27661986671E+03  0.16431089902E+04  0.10100000352E+00 0. -1.
</event>
<event>
 5   0  0.5284458E-07  0.2536696E+04  0.7818609E-02  0.8390028E-01
       -1   -1    0    0    0  501  0.00000000000E+00  0.00000000000E+00  0.68374356260E+03  0.68374356261E+03  0.50400001928E-02 0. -1.
        1   -1    0    0  501    0  0.00000000000E+00  0.00000000000E+00 -0.23527922156E+04  0.23527922156E+04  0.50400001928E-02 0.  1.
    10030    2    1    2    0    0  0.00000000000E+00  0.00000000000E+00 -0.16690486530E+04  0.30365357782E+04  0.25366959073E+04 0.  0.
        5    1    3    3  502    0  0.41169120707E+03  0.45241590500E+03 -0.21645441583E+04  0.22493206317E+04  0.46999998093E+01 0.  1.
       -5    1    3    3    0  502 -0.41169120707E+03 -0.45241590500E+03  0.49549550530E+03  0.78721514649E+03  0.46999998093E+01 0. -1.
</event>
<event>
 5   0  0.5284458E-07  0.2894141E+04  0.7818609E-02  0.8274623E-01
        1   -1    0    0  501    0  0.00000000000E+00  0.00000000000E+00  0.12313864412E+04  0.12313864412E+04  0.50400001928E-02 0. -1.
       -1   -1    0    0    0  501  0.00000000000E+00  0.00000000000E+00 -0.17005325990E+04  0.17005325990E+04  0.50400001928E-02 0.  1.
    10030    2    1    2    0    0  0.00000000000E+00  0.00000000000E+00 -0.46914615781E+03  0.29319190401E+04  0.28941408294E+04 0.  0.
        5    1    3    3  502    0 -0.52350798638E+03  0.69373404288E+03  0.93753583768E+03  0.12784064577E+04  0.46999998093E+01 0. -1.
       -5    1    3    3    0  502  0.52350798638E+03 -0.69373404288E+03 -0.14066819955E+04  0.16535125825E+04  0.46999998093E+01 0.  1.
</event>
<event>
 5   0  0.1341932E-06  0.3906474E+04  0.7818609E-02  0.8023684E-01
       -2   -1    0    0    0  501  0.00000000000E+00  0.00000000000E+00  0.34396286998E+04  0.34396286998E+04  0.25500000920E-02 0. -1.
        2   -1    0    0  501    0  0.00000000000E+00  0.00000000000E+00 -0.11091705229E+04  0.11091705229E+04  0.25500000920E-02 0.  1.
    10030    2    1    2    0    0  0.00000000000E+00  0.00000000000E+00  0.23304581768E+04  0.45487992227E+04  0.39064739925E+04 0.  0.
        2    1    3    3  502    0  0.36464077334E+03 -0.10096100022E+04 -0.73491247663E+03  0.13009118335E+04  0.25500000920E-02 0.  1.
       -2    1    3    3    0  502 -0.36464077334E+03  0.10096100022E+04  0.30653706534E+04  0.32478873892E+04  0.25500000920E-02 0. -1.
</event>
<event>
 5   0  0.1341932E-06  0.3823959E+04  0.7818609E-02  0.8041033E-01
       -2   -1    0    0    0  501  0.00000000000E+00  0.00000000000E+00  0.15180764765E+04  0.15180764765E+04  0.25500000920E-02 0.  1.
        2   -1    0    0  501    0  0.00000000000E+00  0.00000000000E+00 -0.24080899395E+04  0.24080899395E+04  0.25500000920E-02 0. -1.
    10030    2    1    2    0    0  0.00000000000E+00  0.00000000000E+00 -0.89001346300E+03  0.39261664159E+04  0.38239585198E+04 0.  0.
        2    1    3    3  502    0  0.14185515963E+04  0.11691401216E+04 -0.98488174876E+03  0.20854662103E+04  0.25500000920E-02 0. -1.
       -2    1    3    3    0  502 -0.14185515963E+04 -0.11691401216E+04  0.94868285760E+02  0.18407002056E+04  0.25500000920E-02 0.  1.
</event>
<event>
 5   0  0.8030324E-07  0.3677047E+04  0.7818609E-02  0.8073068E-01
       -1   -1    0    0    0  501  0.00000000000E+00  0.00000000000E+00  0.17569463913E+04  0.17569463913E+04  0.50400001928E-02 0. -1.
        1   -1    0    0  501    0  0.00000000000E+00  0.00000000000E+00 -0.19238884400E+04  0.19238884400E+04  0.50400001928E-02 0.  1.
    10030    2    1    2    0    0  0.00000000000E+00  0.00000000000E+00 -0.16694204873E+03  0.36808348313E+04  0.36770471044E+04 0.  0.
        1    1    3    3  502    0 -0.33442334008E+03 -0.14357779681E+04 -0.11831797065E+04  0.18902940412E+04  0.50400001928E-02 0.  1.
       -1    1    3    3    0  502  0.33442334008E+03  0.14357779681E+04  0.10162376578E+04  0.17905407902E+04  0.50400001928E-02 0. -1.
</event>
<event>
 5   0  0.1372748E-06  0.3307278E+04  0.7818609E-02  0.8161046E-01
        2   -1    0    0  501    0  0.00000000000E+00  0.00000000000E+00  0.32034207855E+04  0.32034207855E+04  0.25500000920E-02 0.  1.
       -2   -1    0    0    0  501  0.00000000000E+00  0.00000000000E+00 -0.85362570417E+03  0.85362570417E+03  0.25500000920E-02 0. -1.
    10030    2    1    2    0    0  0.00000000000E+00  0.00000000000E+00  0.23497950813E+04  0.40570464897E+04  0.33072782307E+04 0.  0.
        1    1    3    3  502    0  0.10399197201E+04  0.47726290337E+03  0.26394125597E+04  0.28767536501E+04  0.50400001928E-02 0.  1.
       -1    1    3    3    0  502 -0.10399197201E+04 -0.47726290337E+03 -0.28961747837E+03  0.11802928395E+04  0.50400001928E-02 0. -1.
</event>
<event>
 5   0  0.1184616E-06  0.3811001E+04  0.7818609E-02  0.8043798E-01
        2   -1    0    0  501    0  0.00000000000E+00  0.00000000000E+00  0.20519316524E+04  0.20519316524E+04  0.25500000920E-02 0.  1.
       -2   -1    0    0    0  501  0.00000000000E+00  0.00000000000E+00 -0.17695189008E+04  0.17695189008E+04  0.25500000920E-02 0. -1.
    10030    2    1    2    0    0  0.00000000000E+00  0.00000000000E+00  0.28241275161E+03  0.38214505531E+04  0.38110008355E+04 0.  0.
        5    1    3    3  502    0 -0.36996671100E+03  0.78774999408E+03  0.18409899072E+04  0.20363426403E+04  0.46999998093E+01 0.  1.
       -5    1    3    3    0  502  0.36996671100E+03 -0.78774999408E+03 -0.15585771556E+04  0.17851079128E+04  0.46999998093E+01 0. -1.
</event>
<event>
 5   0  0.1184616E-06  0.3781555E+04  0.7818609E-02  0.8050125E-01
       -2   -1    0    0    0  501  0.00000000000E+00  0.00000000000E+00  0.13241807168E+04  0.13241807168E+04  0.25500000920E-02 0. -1.
        2   -1    0    0  501    0  0.00000000000E+00  0.00000000000E+00 -0.26998128711E+04  0.26998128711E+04  0.25500000920E-02 0.  1.
    10030    2    1    2    0    0  0.00000000000E+00  0.00000000000E+00 -0.13756321543E+04  0.40239935879E+04  0.37815553111E+04 0.  0.
        5    1    3    3  502    0  0.59787978463E+03 -0.54607384276E+03  0.11303382208E+04  0.13904472166E+04  0.46999998093E+01 0. -1.
       -5    1    3    3    0  502 -0.59787978463E+03  0.54607384276E+03 -0.25059703752E+04  0.26335463713E+04  0.46999998093E+01 0.  1.
</event>
<event>
 5   0  0.1341932E-06  0.3807762E+04  0.7818609E-02  0.8044491E-01
        2   -1    0    0  501    0  0.00000000000E+00  0.00000000000E+00  0.23993770627E+04  0.23993770627E+04  0.25500000920E-02 0.  1.
       -2   -1    0    0    0  501  0.00000000000E+00  0.00000000000E+00 -0.15107099031E+04  0.15107099031E+04  0.25500000920E-02 0. -1.
    10030    2    1    2    0    0  0.00000000000E+00  0.00000000000E+00  0.88866715962E+03  0.39100869658E+04  0.38077619095E+04 0.  0.
        2    1    3    3  502    0 -0.90552785550E+02  0.16161994811E+04  0.14734948006E+04  0.21889466638E+04  0.25500000920E-02 0. -1.
       -2    1    3    3    0  502  0.90552785550E+02 -0.16161994811E+04 -0.58482764094E+03  0.17211403020E+04  0.25500000920E-02 0.  1.
</event>
<event>
 5   0  0.1337854E-06  0.3858378E+04  0.7818609E-02  0.8033742E-01
        2   -1    0    0  501    0  0.00000000000E+00  0.00000000000E+00  0.23563291873E+04  0.23563291873E+04  0.25500000920E-02 0.  1.
       -2   -1    0    0    0  501  0.00000000000E+00  0.00000000000E+00 -0.15794779854E+04  0.15794779854E+04  0.25500000920E-02 0. -1.
    10030    2    1    2    0    0  0.00000000000E+00  0.00000000000E+00  0.77685120189E+03  0.39358071726E+04  0.38583779377E+04 0.  0.
        3    1    3    3  502    0 -0.16181114641E+04 -0.10098178774E+04  0.93216473211E+02  0.19096350900E+04  0.10100000352E+00 0. -1.
       -3    1    3    3    0  502  0.16181114641E+04  0.10098178774E+04  0.68363472868E+03  0.20261720826E+04  0.10100000352E+00 0.  1.
</event>
<event>
 5   0  0.5284458E-07  0.2075679E+04  0.7818609E-02  0.8572033E-01
        1   -1    0    0  501    0  0.00000000000E+00  0.00000000000E+00  0.14661798614E+04  0.14661798614E+04  0.50400001928E-02 0. -1.
       -1   -1    0    0    0  501  0.00000000000E+00  0.00000000000E+00 -0.73463742794E+03  0.73463742796E+03  0.50400001928E-02 0.  1.
    10030    2    1    2    0    0  0.00000000000E+00  0.00000000000E+00  0.73154243342E+03  0.22008172893E+04  0.20756787827E+04 0.  0.
        5    1    3    3  502    0  0.67869720155E+03  0.75520807263E+03  0.13806986407E+03  0.10247216704E+04  0.46999998093E+01 0. -1.
       -5    1    3    3    0  502 -0.67869720155E+03 -0.75520807263E+03  0.59347256936E+03  0.11760956190E+04  0.46999998093E+01 0.  1.
</event>
<event>
 5   0  0.1214844E-06  0.3810012E+04  0.7818609E-02  0.8044010E-01
       -2   -1    0    0    0  501  0.00000000000E+00  0.00000000000E+00  0.15767662838E+04  0.15767662839E+04  0.25500000920E-02 0. -1.
        2   -1    0    0  501    0  0.00000000000E+00  0.00000000000E+00 -0.23015759878E+04  0.23015759878E+04  0.25500000920E-02 0.  1.
    10030    2    1    2    0    0  0.00000000000E+00  0.00000000000E+00 -0.72480970400E+03  0.38783422717E+04  0.38100117676E+04 0.  0.
        4    1    3    3  502    0 -0.13151979008E+04 -0.17216303338E+03 -0.17542828044E+04  0.21992942957E+04  0.12699999809E+01 0.  1.
       -4    1    3    3    0  502  0.13151979008E+04  0.17216303338E+03  0.10294731004E+04  0.16790479760E+04  0.12699999809E+01 0. -1.
</event>
<event>
 5   0  0.4426995E-07  0.2277127E+04  0.7818609E-02  0.8486994E-01
       -1   -1    0    0    0  501  0.00000000000E+00  0.00000000000E+00  0.10323991547E+04  0.10323991547E+04  0.50400001928E-02 0.  1.
        1   -1    0    0  501    0  0.00000000000E+00  0.00000000000E+00 -0.12556454074E+04  0.12556454074E+04  0.50400001928E-02 0. -1.
    10030    2    1    2    0    0  0.00000000000E+00  0.00000000000E+00 -0.22324625272E+03  0.22880445620E+04  0.22771273633E+04 0.  0.
        2    1    3    3  502    0  0.88946625463E+03  0.33510504379E+03 -0.74143091664E+03  0.12054731074E+04  0.25500000920E-02 0. -1.
       -2    1    3    3    0  502 -0.88946625463E+03 -0.33510504379E+03  0.51818466392E+03  0.10825714547E+04  0.25500000920E-02 0.  1.
</event>
<event>
 5   0  0.4795023E-07  0.3165836E+04  0.7818609E-02  0.8197898E-01
       -1   -1    0    0    0  501  0.00000000000E+00  0.00000000000E+00  0.11695246305E+04  0.11695246305E+04  0.50400001928E-02 0.  1.
        1   -1    0    0  501    0  0.00000000000E+00  0.00000000000E+00 -0.21424344333E+04  0.21424344333E+04  0.50400001928E-02 0. -1.
    10030    2    1    2    0    0  0.00000000000E+00  0.00000000000E+00 -0.97290980284E+03  0.33119590638E+04  0.31658362807E+04 0.  0.
        3    1    3    3  502    0 -0.13807336222E+04  0.90147167663E+02  0.31784663651E+03  0.14197106543E+04  0.10100000352E+00 0.  1.
       -3    1    3    3    0  502  0.13807336222E+04 -0.90147167663E+02 -0.12907564394E+04  0.18922484095E+04  0.10100000352E+00 0. -1.
</event>
<event>
 5   0  0.1184616E-06  0.3709553E+04  0.7818609E-02  0.8065848E-01
       -2   -1    0    0    0  501  0.00000000000E+00  0.00000000000E+00  0.16139241573E+04  0.16139241573E+04  0.25500000920E-02 0. -1.
        2   -1    0    0  501    0  0.00000000000E+00  0.00000000000E+00 -0.21315719499E+04  0.21315719499E+04  0.25500000920E-02 0.  1.
    10030    2    1    2    0    0  0.00000000000E+00  0.00000000000E+00 -0.51764779261E+03  0.37454961071E+04  0.37095527832E+04 0.  0.
        5    1    3    3  502    0 -0.24020757280E+03 -0.11140878525E+04  0.12186666925E+04  0.16685508738E+04  0.46999998093E+01 0. -1.
       -5    1    3    3    0  502  0.24020757280E+03  0.11140878525E+04 -0.17363144851E+04  0.20769452333E+04  0.46999998093E+01 0.  1.
</event>
<event>
 5   0  0.1337854E-06  0.2166193E+04  0.7818609E-02  0.8532632E-01
       -2   -1    0    0    0  501  0.00000000000E+00  0.00000000000E+00  0.65902231140E+03  0.65902231141E+03  0.25500000920E-02 0. -1.
        2   -1    0    0  501    0  0.00000000000E+00  0.00000000000E+00 -0.17800582804E+04  0.17800582804E+04  0.25500000920E-02 0.  1.
    10030    2    1    2    0    0  0.00000000000E+00  0.00000000000E+00 -0.11210359690E+04  0.24390805918E+04  0.21661930869E+04 0.  0.
        3    1    3    3  502    0 -0.39371042130E+03 -0.58003369167E+03  0.36911187641E+03  0.79226925147E+03  0.10100000352E+00 0. -1.
       -3    1    3    3    0  502  0.39371042130E+03  0.58003369167E+03 -0.14901478454E+04  0.16468113404E+04  0.10100000352E+00 0.  1.
</event>
<event>
 5   0  0.1372748E-06  0.3773514E+04  0.7818609E-02  0.8051863E-01
        2   -1    0    0  501    0  0.00000000000E+00  0.00000000000E+00  0.20025949027E+04  0.20025949027E+04  0.25500000920E-02 0. -1.
       -2   -1    0    0    0  501  0.00000000000E+00  0.00000000000E+00 -0.17776194574E+04  0.17776194574E+04  0.25500000920E-02 0.  1.
    10030    2    1    2    0    0  0.00000000000E+00  0.00000000000E+00  0.22497544526E+03  0.37802143602E+04  0.37735138343E+04 0.  0.
        1    1    3    3  502    0  0.10220795654E+04 -0.10946971866E+04  0.12620632151E+04  0.19585229453E+04  0.50400001928E-02 0. -1.
       -1    1    3    3    0  502 -0.10220795654E+04  0.10946971866E+04 -0.10370877698E+04  0.18216914148E+04  0.50400001928E-02 0.  1.
</event>
<event>
 5   0  0.4255250E-07  0.3508017E+04  0.7818609E-02  0.8111893E-01
       -1   -1    0    0    0  501  0.00000000000E+00  0.00000000000E+00  0.11800897078E+04  0.11800897078E+04  0.50400001928E-02 0. -1.
        1   -1    0    0  501    0  0.00000000000E+00  0.00000000000E+00 -0.26070434221E+04  0.26070434221E+04  0.50400001928E-02 0.  1.
    10030    2    1    2    0    0  0.00000000000E+00  0.00000000000E+00 -0.14269537143E+04  0.37871331300E+04  0.35080165965E+04 0.  0.
        2    1    3    3  502    0  0.13490726301E+03  0.95543874944E+03 -0.22947662733E+04  0.24893805299E+04  0.25500000920E-02 0.  1.
       -2    1    3    3    0  502 -0.13490726301E+03 -0.95543874944E+03  0.86781255895E+03  0.12977526001E+04  0.25500000920E-02 0. -1.
</event>
<event>
 5   0  0.4255250E-07  0.3833889E+04  0.7818609E-02  0.8038921E-01
       -1   -1    0    0    0  501  0.00000000000E+00  0.00000000000E+00  0.13513106074E+04  0.13513106074E+04  0.50400001928E-02 0.  1.
        1   -1    0    0  501    0  0.00000000000E+00  0.00000000000E+00 -0.27193429619E+04  0.27193429619E+04  0.50400001928E-02 0. -1.
    10030    2    1    2    0    0  0.00000000000E+00  0.00000000000E+00 -0.13680323545E+04  0.40706535693E+04  0.38338894035E+04 0.  0.
        2    1    3    3  502    0  0.11459559111E+03  0.18584904762E+04 -0.20029590242E+03  0.18727619839E+04  0.25500000920E-02 0.  1.
       -2    1    3    3    0  502 -0.11459559111E+03 -0.18584904762E+04 -0.11677364521E+04  0.21978915854E+04  0.25500000920E-02 0. -1.
</event>
<event>
 5   0  0.1337854E-06  0.3786965E+04  0.7818609E-02  0.8048958E-01
       -2   -1    0    0    0  501  0.00000000000E+00  0.00000000000E+00  0.16072647391E+04  0.16072647391E+04  0.25500000920E-02 0. -1.
        2   -1    0    0  501    0  0.00000000000E+00  0.00000000000E+00 -0.22306697677E+04  0.22306697677E+04  0.25500000920E-02 0.  1.
    10030    2    1    2    0    0  0.00000000000E+00  0.00000000000E+00 -0.62340502863E+03  0.38379345069E+04  0.37869654671E+04 0.  0.
        3    1    3    3  502    0  0.28232588616E+03  0.14006788812E+04  0.94746384261E+03  0.17144378021E+04  0.10100000352E+00 0. -1.
       -3    1    3    3    0  502 -0.28232588616E+03 -0.14006788812E+04 -0.15708688712E+04  0.21234967047E+04  0.10100000352E+00 0.  1.
</event>
<event>
 5   0  0.1184616E-06  0.2723496E+04  0.7818609E-02  0.8327422E-01
       -2   -1    0    0    0  501  0.00000000000E+00  0.00000000000E+00  0.10755490517E+04  0.10755490517E+04  0.25500000920E-02 0.  1.
        2   -1    0    0  501    0  0.00000000000E+00  0.00000000000E+00 -0.17241027093E+04  0.17241027093E+04  0.25500000920E-02 0. -1.
    10030    2    1    2    0    0  0.00000000000E+00  0.00000000000E+00 -0.64855365757E+03  0.27996517610E+04  0.27234955730E+04 0.  0.
        5    1    3    3  502    0 -0.51749967080E+03  0.66214873772E+03 -0.14257272297E+04  0.16549825025E+04  0.46999998093E+01 0. -1.
       -5    1    3    3    0  502  0.51749967080E+03 -0.66214873772E+03  0.77717357209E+03  0.11446692585E+04  0.46999998093E+01 0.  1.
</event>
<event>
 5   0  0.1079205E-06  0.3552162E+04  0.7818609E-02  0.8101538E-01
        1   -1    0    0  501    0  0.00000000000E+00  0.00000000000E+00  0.25091516955E+04  0.25091516955E+04  0.50400001928E-02 0. -1.
       -1   -1    0    0    0  501  0.00000000000E+00  0.00000000000E+00 -0.12571835609E+04  0.12571835609E+04  0.50400001928E-02 0.  1.
    10030    2    1    2    0    0  0.00000000000E+00  0.00000000000E+00  0.12519681346E+04  0.37663352564E+04  0.35521623068E+04 0.  0.
        4    1    3    3  502    0  0.13809707371E+04  0.94159718330E+02 -0.55400248732E+03  0.14909280996E+04  0.12699999809E+01 0.  1.
       -4    1    3    3    0  502 -0.13809707371E+04 -0.94159718330E+02  0.18059706219E+04  0.22754071569E+04  0.12699999809E+01 0. -1.
</event>
<event>
 5   0  0.8030324E-07  0.3460395E+04  0.7818609E-02  0.8123240E-01
        1   -1    0    0  501    0  0.00000000000E+00  0.00000000000E+00  0.14873406435E+04  0.14873406435E+04  0.50400001928E-02 0.  1.
       -1   -1    0    0    0  501  0.00000000000E+00  0.00000000000E+00 -0.20127090437E+04  0.20127090437E+04  0.50400001928E-02 0. -1.
    10030    2    1    2    0    0  0.00000000000E+00  0.00000000000E+00 -0.52536840024E+03  0.35000496872E+04  0.34603953325E+04 0.  0.
        1    1    3    3  502    0  0.72927180285E+03 -0.11792879925E+04 -0.13094477389E+04  0.19071473233E+04  0.50400001928E-02 0. -1.
       -1    1    3    3    0  502 -0.72927180285E+03  0.11792879925E+04  0.78407933870E+03  0.15929023640E+04  0.50400001928E-02 0.  1.
</event>
<event>
 5   0  0.4795023E-07  0.3825742E+04  0.7818609E-02  0.8040653E-01
       -1   -1    0    0    0  501  0.00000000000E+00  0.00000000000E+00  0.12852415566E+04  0.12852415566E+04  0.50400001928E-02 0. -1.
        1   -1    0    0  501    0  0.00000000000E+00  0.00000000000E+00 -0.28469948159E+04  0.28469948160E+04  0.50400001928E-02 0.  1.
    10030    2    1    2    0    0  0.00000000000E+00  0.00000000000E+00 -0.15617532594E+04  0.41322363725E+04  0.38257423064E+04 0.  0.
        3    1    3    3  502    0  0.26721781455E+03  0.53822020698E+02 -0.28259096514E+04  0.28390258080E+04  0.10100000352E+00 0.  1.
       -3    1    3    3    0  502 -0.26721781455E+03 -0.53822020698E+02  0.12641563921E+04  0.12932105645E+04  0.10100000352E+00 0. -1.
</event>
<event>
 5   0  0.4795023E-07  0.2016076E+04  0.7818609E-02  0.8599141E-01
        1   -1    0    0  501    0  0.00000000000E+00  0.00000000000E+00  0.17041538992E+04  0.17041538992E+04  0.50400001928E-02 0.  1.
       -1   -1    0    0    0  501  0.00000000000E+00  0.00000000000E+00 -0.59627261243E+03  0.59627261245E+03  0.50400001928E-02 0. -1.
    10030    2    1    2    0    0  0.00000000000E+00  0.00000000000E+00  0.11078812867E+04  0.23004265116E+04  0.20160756905E+04 0.  0.
        3    1    3    3  502    0  0.74414660364E+03  0.15941269707E+03  0.13082147277E+04  0.15134703035E+04  0.10100000352E+00 0.  1.
       -3    1    3    3    0  502 -0.74414660364E+03 -0.15941269707E+03 -0.20033344095E+03  0.78695620810E+03  0.10100000352E+00 0. -1.
</event>
<event>
 5   0  0.4255250E-07  0.3749874E+04  0.7818609E-02  0.8056998E-01
        1   -1    0    0  501    0  0.00000000000E+00  0.00000000000E+00  0.97443775750E+03  0.97443775751E+03  0.50400001928E-02 0. -1.
       -1   -1    0    0    0  501  0.00000000000E+00  0.00000000000E+00 -0.36076063776E+04  0.36076063776E+04  0.50400001928E-02 0.  1.
    10030    2    1    2    0    0  0.00000000000E+00  0.00000000000E+00 -0.26331686201E+04  0.45820441351E+04  0.37498735278E+04 0.  0.
        2    1    3    3  502    0 -0.40976783054E+03 -0.43904635221E+03  0.85373090883E+03  0.10438045023E+04  0.25500000920E-02 0. -1.
       -2    1    3    3    0  502  0.40976783054E+03  0.43904635221E+03 -0.34868995289E+04  0.35382396328E+04  0.25500000920E-02 0.  1.
</event>
<event>
 5   0  0.4255250E-07  0.3634811E+04  0.7818609E-02  0.8082564E-01
        1   -1    0    0  501    0  0.00000000000E+00  0.00000000000E+00  0.10738591778E+04  0.10738591778E+04  0.50400001928E-02 0. -1.
       -1   -1    0    0    0  501  0.00000000000E+00  0.00000000000E+00 -0.30757873589E+04  0.30757873589E+04  0.50400001928E-02 0.  1.
    10030    2    1    2    0    0  0.00000000000E+00  0.00000000000E+00 -0.20019281811E+04  0.41496465367E+04  0.36348108530E+04 0.  0.
        2    1    3    3  502    0  0.65687234377E+03  0.83771697709E+03 -0.26825934544E+04  0.28860974778E+04  0.25500000920E-02 0.  1.
       -2    1    3    3    0  502 -0.65687234377E+03 -0.83771697709E+03  0.68066527333E+03  0.12635490588E+04  0.25500000920E-02 0. -1.
</event>
<event>
 5   0  0.1372748E-06  0.3787945E+04  0.7818609E-02  0.8048747E-01
       -2   -1    0    0    0  501  0.00000000000E+00  0.00000000000E+00  0.23588391268E+04  0.23588391268E+04  0.25500000920E-02 0. -1.
        2   -1    0    0  501    0  0.00000000000E+00  0.00000000000E+00 -0.15207188691E+04  0.15207188691E+04  0.25500000920E-02 0.  1.
    10030    2    1    2    0    0  0.00000000000E+00  0.00000000000E+00  0.83812025774E+03  0.38795579959E+04  0.37879446508E+04 0.  0.
        1    1    3    3  502    0  0.14276975854E+04  0.72469208738E+03 -0.61715656195E+03  0.17159199396E+04  0.50400001928E-02 0. -1.
       -1    1    3    3    0  502 -0.14276975854E+04 -0.72469208738E+03  0.14552768197E+04  0.21636380564E+04  0.50400001928E-02 0.  1.
</event>
<event>
 5   0  0.1372748E-06  0.2705374E+04  0.7818609E-02  0.8333263E-01
       -2   -1    0    0    0  501  0.00000000000E+00  0.00000000000E+00  0.11152349765E+04  0.11152349765E+04  0.25500000920E-02 0. -1.
        2   -1    0    0  501    0  0.00000000000E+00  0.00000000000E+00 -0.16406962570E+04  0.16406962570E+04  0.25500000920E-02 0.  1.
    10030    2    1    2    0    0  0.00000000000E+00  0.00000000000E+00 -0.52546128056E+03  0.27559312335E+04  0.27053738016E+04 0.  0.
        1    1    3    3  502    0 -0.91831160463E+03  0.63402064449E+02  0.74697644264E+03  0.11854492106E+04  0.50400001928E-02 0. -1.
       -1    1    3    3    0  502  0.91831160463E+03 -0.63402064449E+02 -0.12724377232E+04  0.15704820230E+04  0.50400001928E-02 0.  1.
</event>
<event>
 5   0  0.1341932E-06  0.2389575E+04  0.7818609E-02  0.8443417E-01
       -2   -1    0    0    0  501  0.00000000000E+00  0.00000000000E+00  0.17224826804E+04  0.17224826804E+04  0.25500000920E-02 0. -1.
        2   -1    0    0  501    0  0.00000000000E+00  0.00000000000E+00 -0.82875576087E+03  0.82875576088E+03  0.25500000920E-02 0.  1.
    10030    2    1    2    0    0  0.00000000000E+00  0.00000000000E+00  0.89372691951E+03  0.25512384413E+04  0.23895752295E+04 0.  0.
        2    1    3    3  502    0  0.12655208271E+03 -0.15679935805E+01 -0.82157883707E+03  0.83126991632E+03  0.25500000920E-02 0.  1.
       -2    1    3    3    0  502 -0.12655208271E+03  0.15679935805E+01  0.17153057566E+04  0.17199685249E+04  0.25500000920E-02 0. -1.
</event>
<event>
 5   0  0.1314240E-06  0.1894151E+04  0.7818609E-02  0.8657773E-01
       -1   -1    0    0    0  501  0.00000000000E+00  0.00000000000E+00  0.80535438825E+03  0.80535438827E+03  0.50400001928E-02 0.  1.
        1   -1    0    0  501    0  0.00000000000E+00  0.00000000000E+00 -0.11137354034E+04  0.11137354034E+04  0.50400001928E-02 0. -1.
    10030    2    1    2    0    0  0.00000000000E+00  0.00000000000E+00 -0.30838101515E+03  0.19190897917E+04  0.18941506746E+04 0.  0.
        4    1    3    3  502    0  0.14348077380E+03 -0.84588879057E+03 -0.56051381345E+03  0.10248375122E+04  0.12699999809E+01 0.  1.
       -4    1    3    3    0  502 -0.14348077380E+03  0.84588879057E+03  0.25213279830E+03  0.89425227947E+03  0.12699999809E+01 0. -1.
</event>
<event>
 5   0  0.1079205E-06  0.2621898E+04  0.7818609E-02  0.8360801E-01
        1   -1    0    0  501    0  0.00000000000E+00  0.00000000000E+00  0.19151296524E+04  0.19151296524E+04  0.50400001928E-02 0.  1.
       -1   -1    0    0    0  501  0.00000000000E+00  0.00000000000E+00 -0.89737394951E+03  0.89737394952E+03  0.50400001928E-02 0. -1.
    10030    2    1    2    0    0  0.00000000000E+00  0.00000000000E+00  0.10177557029E+04  0.28125036019E+04  0.26218981369E+04 0.  0.
        4    1    3    3  502    0  0.15605935579E+03  0.10572121174E+04 -0.30561951234E+03  0.11115110808E+04  0.12699999809E+01 0. -1.
       -4    1    3    3    0  502 -0.15605935579E+03 -0.10572121174E+04  0.13233752152E+04  0.17009925211E+04  0.12699999809E+01 0.  1.
</event>
<event>
 5   0  0.4795023E-07  0.3811203E+04  0.7818609E-02  0.8043755E-01
        1   -1    0    0  501    0  0.00000000000E+00  0.00000000000E+00  0.13512570750E+04  0.13512570751E+04  0.50400001928E-02 0.  1.
       -1   -1    0    0    0  501  0.00000000000E+00  0.00000000000E+00 -0.26873620262E+04  0.26873620262E+04  0.50400001928E-02 0. -1.
    10030    2    1    2    0    0  0.00000000000E+00  0.00000000000E+00 -0.13361049511E+04  0.40386191012E+04  0.38112029340E+04 0.  0.
        3    1    3    3  502    0  0.72479205258E+03  0.97085793543E+03 -0.22266790374E+04  0.25349532927E+04  0.10100000352E+00 0. -1.
       -3    1    3    3    0  502 -0.72479205258E+03 -0.97085793543E+03  0.89057408631E+03  0.15036658085E+04  0.10100000352E+00 0.  1.
</event>
<event>
 5   0  0.4255250E-07  0.3758136E+04  0.7818609E-02  0.8055199E-01
       -1   -1    0    0    0  501  0.00000000000E+00  0.00000000000E+00  0.13529497269E+04  0.13529497269E+04  0.50400001928E-02 0. -1.
        1   -1    0    0  501    0  0.00000000000E+00  0.00000000000E+00 -0.26097768374E+04  0.26097768374E+04  0.50400001928E-02 0.  1.
    10030    2    1    2    0    0  0.00000000000E+00  0.00000000000E+00 -0.12568271105E+04  0.39627265642E+04  0.37581361653E+04 0.  0.
        2    1    3    3  502    0  0.11122848114E+04  0.12174957844E+04 -0.15782423936E+04  0.22826130946E+04  0.25500000920E-02 0.  1.
       -2    1    3    3    0  502 -0.11122848114E+04 -0.12174957844E+04  0.32141528304E+03  0.16801134697E+04  0.25500000920E-02 0. -1.
</event>
<event>
 5   0  0.4255250E-07  0.3895286E+04  0.7818609E-02  0.8026010E-01
       -1   -1    0    0    0  501  0.00000000000E+00  0.00000000000E+00  0.17968409781E+04  0.17968409781E+04  0.50400001928E-02 0. -1.
        1   -1    0    0  501    0  0.00000000000E+00  0.00000000000E+00 -0.21111015540E+04  0.21111015540E+04  0.50400001928E-02 0.  1.
    10030    2    1    2    0    0  0.00000000000E+00  0.00000000000E+00 -0.31426057589E+03  0.39079425321E+04  0.38952862699E+04 0.  0.
        2    1    3    3  502    0  0.12942194193E+04  0.12062006465E+04 -0.97426415057E+03  0.20196817918E+04  0.25500000920E-02 0.  1.
       -2    1    3    3    0  502 -0.12942194193E+04 -0.12062006465E+04  0.66000357467E+03  0.18882607403E+04  0.25500000920E-02 0. -1.
</event>
<event>
 5   0  0.1337854E-06  0.3819019E+04  0.7818609E-02  0.8042086E-01
        2   -1    0    0  501    0  0.00000000000E+00  0.00000000000E+00  0.33952492977E+04  0.33952492977E+04  0.25500000920E-02 0. -1.
       -2   -1    0    0    0  501  0.00000000000E+00  0.00000000000E+00 -0.10739201684E+04  0.10739201684E+04  0.25500000920E-02 0.  1.
    10030    2    1    2    0    0  0.00000000000E+00  0.00000000000E+00  0.23213291292E+04  0.44691694661E+04  0.38190190875E+04 0.  0.
        3    1    3    3  502    0  0.70929877220E+03 -0.44941410672E+03  0.31676004564E+04  0.32770063242E+04  0.10100000352E+00 0. -1.
       -3    1    3    3    0  502 -0.70929877220E+03  0.44941410672E+03 -0.84627132714E+03  0.11921631419E+04  0.10100000352E+00 0.  1.
</event>
<event>
 5   0  0.1372748E-06  0.3921049E+04  0.7818609E-02  0.8020666E-01
       -2   -1    0    0    0  501  0.00000000000E+00  0.00000000000E+00  0.17689738178E+04  0.17689738178E+04  0.25500000920E-02 0. -1.
        2   -1    0    0  501    0  0.00000000000E+00  0.00000000000E+00 -0.21728164580E+04  0.21728164580E+04  0.25500000920E-02 0.  1.
    10030    2    1    2    0    0  0.00000000000E+00  0.00000000000E+00 -0.40384264017E+03  0.39417902758E+04  0.39210485460E+04 0.  0.
        1    1    3    3  502    0  0.15753466071E+04  0.80639518082E+03 -0.10499864202E+04  0.20577807470E+04  0.50400001928E-02 0.  1.
       -1    1    3    3    0  502 -0.15753466071E+04 -0.80639518082E+03  0.64614378004E+03  0.18840095288E+04  0.50400001928E-02 0. -1.
</event>
<event>
 5   0  0.1337854E-06  0.3764720E+04  0.7818609E-02  0.8053769E-01
       -2   -1    0    0    0  501  0.00000000000E+00  0.00000000000E+00  0.15210492248E+04  0.15210492248E+04  0.25500000920E-02 0.  1.
        2   -1    0    0  501    0  0.00000000000E+00  0.00000000000E+00 -0.23294962862E+04  0.23294962862E+04  0.25500000920E-02 0. -1.
    10030    2    1    2    0    0  0.00000000000E+00  0.00000000000E+00 -0.80844706139E+03  0.38505455110E+04  0.37647196551E+04 0.  0.
        3    1    3    3  502    0  0.75107542328E+03 -0.17222873596E+04 -0.28809899511E+03  0.19008916544E+04  0.10100000352E+00 0.  1.
       -3    1    3    3    0  502 -0.75107542328E+03  0.17222873596E+04 -0.52034806628E+03  0.19496538566E+04  0.10100000352E+00 0. -1.
</event>
<event>
 5   0  0.4795023E-07  0.3030225E+04  0.7818609E-02  0.8235152E-01
       -1   -1    0    0    0  501  0.00000000000E+00  0.00000000000E+00  0.12876662336E+04  0.12876662336E+04  0.50400001928E-02 0. -1.
        1   -1    0    0  501    0  0.00000000000E+00  0.00000000000E+00 -0.17827331212E+04  0.17827331212E+04  0.50400001928E-02 0.  1.
    10030    2    1    2    0    0  0.00000000000E+00  0.00000000000E+00 -0.49506688765E+03  0.30703993548E+04  0.30302245750E+04 0.  0.
        3    1    3    3  502    0  0.14615279021E+04 -0.73150688090E+02 -0.64535872702E+03  0.15993444684E+04  0.10100000352E+00 0.  1.
       -3    1    3    3    0  502 -0.14615279021E+04  0.73150688090E+02  0.15029183937E+03  0.14710548865E+04  0.10100000352E+00 0. -1.
</event>
<event>
 5   0  0.1341932E-06  0.2107319E+04  0.7818609E-02  0.8558026E-01
       -2   -1    0    0    0  501  0.00000000000E+00  0.00000000000E+00  0.12288610362E+04  0.12288610362E+04  0.25500000920E-02 0. -1.
        2   -1    0    0  501    0  0.00000000000E+00  0.00000000000E+00 -0.90343696754E+03  0.90343696754E+03  0.25500000920E-02 0.  1.
    10030    2    1    2    0    0  0.00000000000E+00  0.00000000000E+00  0.32542406869E+03  0.21322980038E+04  0.21073191387E+04 0.  0.
        2    1    3    3  502    0 -0.70219016050E+02  0.40554355378E+03 -0.81873473986E+03  0.91636393343E+03  0.25500000920E-02 0.  1.
       -2    1    3    3    0  502  0.70219016050E+02 -0.40554355378E+03  0.11441588086E+04  0.12159340703E+04  0.25500000920E-02 0. -1.
</event>
<event>
 5   0  0.1341932E-06  0.3508628E+04  0.7818609E-02  0.8111748E-01
        2   -1    0    0  501    0  0.00000000000E+00  0.00000000000E+00  0.23288105913E+04  0.23288105913E+04  0.25500000920E-02 0.  1.
       -2   -1    0    0    0  501  0.00000000000E+00  0.00000000000E+00 -0.13215408328E+04  0.13215408328E+04  0.25500000920E-02 0. -1.
    10030    2    1    2    0    0  0.00000000000E+00  0.00000000000E+00  0.10072697585E+04  0.36503514241E+04  0.35086283863E+04 0.  0.
        2    1    3    3  502    0 -0.13961113302E+04 -0.99156972610E+03  0.10708155482E+03  0.17157516800E+04  0.25500000920E-02 0. -1.
       -2    1    3    3    0  502  0.13961113302E+04  0.99156972610E+03  0.90018820368E+03  0.19345997441E+04  0.25500000920E-02 0.  1.
</event>
<event>
 5   0  0.4795023E-07  0.3600914E+04  0.7818609E-02  0.8090282E-01
        1   -1    0    0  501    0  0.00000000000E+00  0.00000000000E+00  0.12149026919E+04  0.12149026919E+04  0.50400001928E-02 0. -1.
       -1   -1    0    0    0  501  0.00000000000E+00  0.00000000000E+00 -0.26682341588E+04  0.26682341588E+04  0.50400001928E-02 0.  1.
    10030    2    1    2    0    0  0.00000000000E+00  0.00000000000E+00 -0.14533314669E+04  0.38831368507E+04  0.36009136963E+04 0.  0.
        3    1    3    3  502    0  0.34446955902E+03 -0.17610594394E+04 -0.56797508299E+03  0.18821756909E+04  0.10100000352E+00 0. -1.
       -3    1    3    3    0  502 -0.34446955902E+03  0.17610594394E+04 -0.88535638394E+03  0.20009611598E+04  0.10100000352E+00 0.  1.
</event>
<event>
 5   0  0.1079205E-06  0.3138705E+04  0.7818609E-02  0.8205195E-01
        1   -1    0    0  501    0  0.00000000000E+00  0.00000000000E+00  0.21688048829E+04  0.21688048829E+04  0.50400001928E-02 0. -1.
       -1   -1    0    0    0  501  0.00000000000E+00  0.00000000000E+00 -0.11355871930E+04  0.11355871930E+04  0.50400001928E-02 0.  1.
    10030    2    1    2    0    0  0.00000000000E+00  0.00000000000E+00  0.10332176899E+04  0.33043920759E+04  0.31387048597E+04 0.  0.
        4    1    3    3  502    0 -0.13372735050E+03  0.62686937099E+03 -0.99149620104E+03  0.11806415807E+04  0.12699999809E+01 0.  1.
       -4    1    3    3    0  502  0.13372735050E+03 -0.62686937099E+03  0.20247138910E+04  0.21237504952E+04  0.12699999809E+01 0. -1.
</event>
<event>
 5   0  0.1214844E-06  0.2375104E+04  0.7818609E-02  0.8448883E-01
       -2   -1    0    0    0  501  0.00000000000E+00  0.00000000000E+00  0.84673415878E+03  0.84673415878E+03  0.25500000920E-02 0.  1.
        2   -1    0    0  501    0  0.00000000000E+00  0.00000000000E+00 -0.16655522174E+04  0.16655522174E+04  0.25500000920E-02 0. -1.
    10030    2    1    2    0    0  0.00000000000E+00  0.00000000000E+00 -0.81881805861E+03  0.25122863762E+04  0.23751041709E+04 0.  0.
        4    1    3    3  502    0 -0.66161979661E+03  0.95649596285E+03 -0.66338794491E+03  0.13389213795E+04  0.12699999809E+01 0. -1.
       -4    1    3    3    0  502  0.66161979661E+03 -0.95649596285E+03 -0.15543011370E+03  0.11733649966E+04  0.12699999809E+01 0.  1.
</event>
<event>
 5   0  0.1372748E-06  0.3783708E+04  0.7818609E-02  0.8049660E-01
       -2   -1    0    0    0  501  0.00000000000E+00  0.00000000000E+00  0.15147904092E+04  0.15147904092E+04  0.25500000920E-02 0. -1.
        2   -1    0    0  501    0  0.00000000000E+00  0.00000000000E+00 -0.23627764104E+04  0.23627764104E+04  0.25500000920E-02 0.  1.
    10030    2    1    2    0    0  0.00000000000E+00  0.00000000000E+00 -0.84798600115E+03  0.38775668196E+04  0.37837077295E+04 0.  0.
        1    1    3    3  502    0  0.39938553167E+03  0.11404099119E+03 -0.23154744285E+04  0.23524319288E+04  0.50400001928E-02 0.  1.
       -1    1    3    3    0  502 -0.39938553167E+03 -0.11404099119E+03  0.14674884274E+04  0.15251348908E+04  0.50400001928E-02 0. -1.
</event>
<event>
 5   0  0.5284458E-07  0.3736698E+04  0.7818609E-02  0.8059877E-01
       -1   -1    0    0    0  501  0.00000000000E+00  0.00000000000E+00  0.28417418791E+04  0.28417418791E+04  0.50400001928E-02 0. -1.
        1   -1    0    0  501    0  0.00000000000E+00  0.00000000000E+00 -0.12283764914E+04  0.12283764914E+04  0.50400001928E-02 0.  1.
    10030    2    1    2    0    0  0.00000000000E+00  0.00000000000E+00  0.16133653877E+04  0.40701183706E+04  0.37366984995E+04 0.  0.
        5    1    3    3  502    0 -0.74512993095E+03  0.85685141864E+03  0.24227446013E+04  0.26756543986E+04  0.46999998093E+01 0. -1.
       -5    1    3    3    0  502  0.74512993095E+03 -0.85685141864E+03 -0.80937921362E+03  0.13944639719E+04  0.46999998093E+01 0.  1.
</event>
<event>
 5   0  0.5284458E-07  0.3527419E+04  0.7818609E-02  0.8107323E-01
       -1   -1    0    0    0  501  0.00000000000E+00  0.00000000000E+00  0.16239890388E+04  0.16239890388E+04  0.50400001928E-02 0.  1.
        1   -1    0    0  501    0  0.00000000000E+00  0.00000000000E+00 -0.19154507812E+04  0.19154507812E+04  0.50400001928E-02 0. -1.
    10030    2    1    2    0    0  0.00000000000E+00  0.00000000000E+00 -0.29146174238E+03  0.35394398200E+04  0.35274189278E+04 0.  0.
        5    1    3    3  502    0 -0.42131015709E+03  0.22518370262E+03  0.15578296099E+04  0.16294370598E+04  0.46999998093E+01 0.  1.
       -5    1    3    3    0  502  0.42131015709E+03 -0.22518370262E+03 -0.18492913523E+04  0.19100027602E+04  0.46999998093E+01 0. -1.
</event>
<event>
 5   0  0.1214844E-06  0.2431174E+04  0.7818609E-02  0.8427924E-01
        2   -1    0    0  501    0  0.00000000000E+00  0.00000000000E+00  0.17259719696E+04  0.17259719696E+04  0.25500000920E-02 0.  1.
       -2   -1    0    0    0  501  0.00000000000E+00  0.00000000000E+00 -0.85612713613E+03  0.85612713613E+03  0.25500000920E-02 0. -1.
    10030    2    1    2    0    0  0.00000000000E+00  0.00000000000E+00  0.86984483343E+03  0.25820991057E+04  0.24311737407E+04 0.  0.
        4    1    3    3  502    0 -0.63276495020E+03  0.52016381516E+03 -0.51899262234E+03  0.96969935121E+03  0.12699999809E+01 0. -1.
       -4    1    3    3    0  502  0.63276495020E+03 -0.52016381516E+03  0.13888374558E+04  0.16123997545E+04  0.12699999809E+01 0.  1.
</event>
<event>
 5   0  0.1337854E-06  0.1872813E+04  0.7818609E-02  0.8668509E-01
        2   -1    0    0  501    0  0.00000000000E+00  0.00000000000E+00  0.81614174505E+03  0.81614174505E+03  0.25500000920E-02 0.  1.
       -2   -1    0    0    0  501  0.00000000000E+00  0.00000000000E+00 -0.10743931859E+04  0.10743931859E+04  0.25500000920E-02 0. -1.
    10030    2    1    2    0    0  0.00000000000E+00  0.00000000000E+00 -0.25825144084E+03  0.18905349309E+04  0.18728129961E+04 0.  0.
        3    1    3    3  502    0  0.31321218458E+03  0.60255629320E+03 -0.77996006490E+03  0.10341729411E+04  0.10100000352E+00 0. -1.
       -3    1    3    3    0  502 -0.31321218458E+03 -0.60255629320E+03  0.52170862406E+03  0.85636198985E+03  0.10100000352E+00 0.  1.
</event>
<event>
 5   0  0.1341932E-06  0.3741371E+04  0.7818609E-02  0.8058855E-01
       -2   -1    0    0    0  501  0.00000000000E+00  0.00000000000E+00  0.19943571521E+04  0.19943571521E+04  0.25500000920E-02 0. -1.
        2   -1    0    0  501    0  0.00000000000E+00  0.00000000000E+00 -0.17546824863E+04  0.17546824863E+04  0.25500000920E-02 0.  1.
    10030    2    1    2    0    0  0.00000000000E+00  0.00000000000E+00  0.23967466572E+03  0.37490396384E+04  0.37413706399E+04 0.  0.
        2    1    3    3  502    0 -0.84116462372E+03 -0.46116028283E+03  0.17291295453E+04  0.19774012529E+04  0.25500000920E-02 0. -1.
       -2    1    3    3    0  502  0.84116462372E+03  0.46116028283E+03 -0.14894548796E+04  0.17716383855E+04  0.25500000920E-02 0.  1.
</event>
<event>
 5   0  0.1372748E-06  0.3817858E+04  0.7818609E-02  0.8042333E-01
       -2   -1    0    0    0  501  0.00000000000E+00  0.00000000000E+00  0.26610580529E+04  0.26610580529E+04  0.25500000920E-02 0.  1.
        2   -1    0    0  501    0  0.00000000000E+00  0.00000000000E+00 -0.13693838866E+04  0.13693838866E+04  0.25500000920E-02 0. -1.
    10030    2    1    2    0    0  0.00000000000E+00  0.00000000000E+00  0.12916741663E+04  0.40304419394E+04  0.38178580481E+04 0.  0.
        1    1    3    3  502    0 -0.16812090437E+04  0.12007470057E+03 -0.30023742361E+03  0.17120234499E+04  0.50400001928E-02 0. -1.
       -1    1    3    3    0  502  0.16812090437E+04 -0.12007470057E+03  0.15919115899E+04  0.23184184895E+04  0.50400001928E-02 0.  1.
</event>
<event>
 5   0  0.1184616E-06  0.3837798E+04  0.7818609E-02  0.8038092E-01
        2   -1    0    0  501    0  0.00000000000E+00  0.00000000000E+00  0.19288590563E+04  0.19288590563E+04  0.25500000920E-02 0.  1.
       -2   -1    0    0    0  501  0.00000000000E+00  0.00000000000E+00 -0.19089903449E+04  0.19089903449E+04  0.25500000920E-02 0. -1.
    10030    2    1    2    0    0  0.00000000000E+00  0.00000000000E+00  0.19868711361E+02  0.38378494012E+04  0.38377979703E+04 0.  0.
        5    1    3    3  502    0  0.12965478786E+04 -0.33358952163E+03 -0.13647959840E+04  0.19118076625E+04  0.46999998093E+01 0.  1.
       -5    1    3    3    0  502 -0.12965478786E+04  0.33358952163E+03  0.13846646954E+04  0.19260417387E+04  0.46999998093E+01 0. -1.
</event>
<event>
 5   0  0.1337854E-06  0.3277947E+04  0.7818609E-02  0.8168530E-01
        2   -1    0    0  501    0  0.00000000000E+00  0.00000000000E+00  0.19892871739E+04  0.19892871739E+04  0.25500000920E-02 0. -1.
       -2   -1    0    0    0  501  0.00000000000E+00  0.00000000000E+00 -0.13503501690E+04  0.13503501690E+04  0.25500000920E-02 0.  1.
    10030    2    1    2    0    0  0.00000000000E+00  0.00000000000E+00  0.63893700495E+03  0.33396373429E+04  0.32779470841E+04 0.  0.
        3    1    3    3  502    0  0.48504120717E+03  0.13612272410E+04  0.11073460816E+04  0.18205548410E+04  0.10100000352E+00 0. -1.
       -3    1    3    3    0  502 -0.48504120717E+03 -0.13612272410E+04 -0.46840907665E+03  0.15190825019E+04  0.10100000352E+00 0.  1.
</event>
<event>
 5   0  0.4795023E-07  0.3099376E+04  0.7818609E-02  0.8215909E-01
        1   -1    0    0  501    0  0.00000000000E+00  0.00000000000E+00  0.24129219813E+04  0.24129219813E+04  0.50400001928E-02 0. -1.
       -1   -1    0    0    0  501  0.00000000000E+00  0.00000000000E+00 -0.99527987262E+03  0.99527987264E+03  0.50400001928E-02 0.  1.
    10030    2    1    2    0    0  0.00000000000E+00  0.00000000000E+00  0.14176421087E+04  0.34082018539E+04  0.30993758612E+04 0.  0.
        3    1    3    3  502    0 -0.13810691834E+04  0.46216692640E+03  0.12634079828E+03  0.14618181709E+04  0.10100000352E+00 0.  1.
       -3    1    3    3    0  502  0.13810691834E+04 -0.46216692640E+03  0.12913013104E+04  0.19463836831E+04  0.10100000352E+00 0. -1.
</event>
<event>
 5   0  0.5284458E-07  0.3800511E+04  0.7818609E-02  0.8046045E-01
        1   -1    0    0  501    0  0.00000000000E+00  0.00000000000E+00  0.28295870065E+04  0.28295870065E+04  0.50400001928E-02 0. -1.
       -1   -1    0    0    0  501  0.00000000000E+00  0.00000000000E+00 -0.12761475762E+04  0.12761475762E+04  0.50400001928E-02 0.  1.
    10030    2    1    2    0    0  0.00000000000E+00  0.00000000000E+00  0.15534394303E+04  0.41057345827E+04  0.38005108077E+04 0.  0.
        5    1    3    3  502    0 -0.15500045075E+04  0.22519207873E+02  0.19640439137E+04  0.25021014514E+04  0.46999998093E+01 0. -1.
       -5    1    3    3    0  502  0.15500045075E+04 -0.22519207873E+02 -0.41060448342E+03  0.16036331313E+04  0.46999998093E+01 0.  1.
</event>
<event>
 5   0  0.5284458E-07  0.2609470E+04  0.7818609E-02  0.8364992E-01
        1   -1    0    0  501    0  0.00000000000E+00  0.00000000000E+00  0.23898548251E+04  0.23898548251E+04  0.50400001928E-02 0. -1.
       -1   -1    0    0    0  501  0.00000000000E+00  0.00000000000E+00 -0.71231675578E+03  0.71231675580E+03  0.50400001928E-02 0.  1.
    10030    2    1    2    0    0  0.00000000000E+00  0.00000000000E+00  0.16775380693E+04  0.31021715809E+04  0.26094701653E+04 0.  0.
        5    1    3    3  502    0  0.12155690709E+04  0.39499737232E+03  0.11503206900E+04  0.17195612435E+04  0.46999998093E+01 0.  1.
       -5    1    3    3    0  502 -0.12155690709E+04 -0.39499737232E+03  0.52721737931E+03  0.13826103375E+04  0.46999998093E+01 0. -1.
</event>
<event>
 5   0  0.1341932E-06  0.3232464E+04  0.7818609E-02  0.8180296E-01
       -2   -1    0    0    0  501  0.00000000000E+00  0.00000000000E+00  0.17223566752E+04  0.17223566752E+04  0.25500000920E-02 0.  1.
        2   -1    0    0  501    0  0.00000000000E+00  0.00000000000E+00 -0.15166465041E+04  0.15166465041E+04  0.25500000920E-02 0. -1.
    10030    2    1    2    0    0  0.00000000000E+00  0.00000000000E+00  0.20571017107E+03  0.32390031792E+04  0.32324642180E+04 0.  0.
        2    1    3    3  502    0 -0.12226820573E+04  0.74929966987E+03 -0.64417622193E+03  0.15720573824E+04  0.25500000920E-02 0. -1.
       -2    1    3    3    0  502  0.12226820573E+04 -0.74929966987E+03  0.84988639300E+03  0.16669457968E+04  0.25500000920E-02 0.  1.
</event>
<event>
 5   0  0.1337854E-06  0.2827938E+04  0.7818609E-02  0.8294647E-01
       -2   -1    0    0    0  501  0.00000000000E+00  0.00000000000E+00  0.12196667040E+04  0.12196667040E+04  0.25500000920E-02 0. -1.
        2   -1    0    0  501    0  0.00000000000E+00  0.00000000000E+00 -0.16392247714E+04  0.16392247714E+04  0.25500000920E-02 0.  1.
    10030    2    1    2    0    0  0.00000000000E+00  0.00000000000E+00 -0.41955806736E+03  0.28588914754E+04  0.28279376754E+04 0.  0.
        3    1    3    3  502    0  0.65580116340E+03  0.76128056459E+03 -0.12154970776E+04  0.15770403989E+04  0.10100000352E+00 0.  1.
       -3    1    3    3    0  502 -0.65580116340E+03 -0.76128056459E+03  0.79593901028E+03  0.12818510765E+04  0.10100000352E+00 0. -1.
</event>
<event>
 5   0  0.5284458E-07  0.3847175E+04  0.7818609E-02  0.8036106E-01
       -1   -1    0    0    0  501  0.00000000000E+00  0.00000000000E+00  0.22407253160E+04  0.22407253160E+04  0.50400001928E-02 0. -1.
        1   -1    0    0  501    0  0.00000000000E+00  0.00000000000E+00 -0.16513352283E+04  0.16513352283E+04  0.50400001928E-02 0.  1.
    10030    2    1    2    0    0  0.00000000000E+00  0.00000000000E+00  0.58939008765E+03  0.38920605443E+04  0.38471748862E+04 0.  0.
        5    1    3    3  502    0 -0.11294397516E+04  0.14135392578E+04 -0.36594699503E+03  0.18459866411E+04  0.46999998093E+01 0.  1.
       -5    1    3    3    0  502  0.11294397516E+04 -0.14135392578E+04  0.95533708268E+03  0.20460739032E+04  0.46999998093E+01 0. -1.
</event>
<event>
 5   0  0.4255250E-07  0.2972111E+04  0.7818609E-02  0.8251740E-01
       -1   -1    0    0    0  501  0.00000000000E+00  0.00000000000E+00  0.97576631384E+03  0.97576631386E+03  0.50400001928E-02 0.  1.
        1   -1    0    0  501    0  0.00000000000E+00  0.00000000000E+00 -0.22632062383E+04  0.22632062383E+04  0.50400001928E-02 0. -1.
    10030    2    1    2    0    0  0.00000000000E+00  0.00000000000E+00 -0.12874399245E+04  0.32389725522E+04  0.29721106364E+04 0.  0.
        2    1    3    3  502    0 -0.77107369647E+03  0.19687082694E+03 -0.20114145963E+04  0.21631230770E+04  0.25500000920E-02 0. -1.
       -2    1    3    3    0  502  0.77107369647E+03 -0.19687082694E+03  0.72397467182E+03  0.10758494752E+04  0.25500000920E-02 0.  1.
</event>
<event>
 5   0  0.1341932E-06  0.3852649E+04  0.7818609E-02  0.8034950E-01
       -2   -1    0    0    0  501  0.00000000000E+00  0.00000000000E+00  0.19150273242E+04  0.19150273242E+04  0.25500000920E-02 0. -1.
        2   -1    0    0  501    0  0.00000000000E+00  0.00000000000E+00 -0.19376887071E+04  0.19376887071E+04  0.25500000920E-02 0.  1.
    10030    2    1    2    0    0  0.00000000000E+00  0.00000000000E+00 -0.22661382862E+02  0.38527160313E+04  0.38526493845E+04 0.  0.
        2    1    3    3  502    0 -0.11168312947E+04  0.99914130267E+03  0.11991163448E+04  0.19192382582E+04  0.25500000920E-02 0. -1.
       -2    1    3    3    0  502  0.11168312947E+04 -0.99914130267E+03 -0.12217777277E+04  0.19334777731E+04  0.25500000920E-02 0.  1.
</event>
<event>
 5   0  0.1079205E-06  0.3756678E+04  0.7818609E-02  0.8055516E-01
        1   -1    0    0  501    0  0.00000000000E+00  0.00000000000E+00  0.24569498842E+04  0.24569498842E+04  0.50400001928E-02 0.  1.
       -1   -1    0    0    0  501  0.00000000000E+00  0.00000000000E+00 -0.14359904402E+04  0.14359904403E+04  0.50400001928E-02 0. -1.
    10030    2    1    2    0    0  0.00000000000E+00  0.00000000000E+00  0.10209594440E+04  0.38929403245E+04  0.37566775459E+04 0.  0.
        4    1    3    3  502    0 -0.33642947822E+02 -0.17526626549E+04 -0.18867513882E+03  0.17631103626E+04  0.12699999809E+01 0. -1.
       -4    1    3    3    0  502  0.33642947822E+02  0.17526626549E+04  0.12096345828E+04  0.21298299619E+04  0.12699999809E+01 0.  1.
</event>
<event>
 5   0  0.1372748E-06  0.3370201E+04  0.7818609E-02  0.8145259E-01
       -2   -1    0    0    0  501  0.00000000000E+00  0.00000000000E+00  0.14141746080E+04  0.14141746080E+04  0.25500000920E-02 0. -1.
        2   -1    0    0  501    0  0.00000000000E+00  0.00000000000E+00 -0.20079305804E+04  0.20079305804E+04  0.25500000920E-02 0.  1.
    10030    2    1    2    0    0  0.00000000000E+00  0.00000000000E+00 -0.59375597237E+03  0.34221051884E+04  0.33702014429E+04 0.  0.
        1    1    3    3  502    0  0.44417244777E+03 -0.83595782765E+03  0.11186685676E+04  0.14654466954E+04  0.50400001928E-02 0. -1.
       -1    1    3    3    0  502 -0.44417244777E+03  0.83595782765E+03 -0.17124245400E+04  0.19566584930E+04  0.50400001928E-02 0.  1.
</event>
<event>
 5   0  0.1079205E-06  0.2131457E+04  0.7818609E-02  0.8547512E-01
        1   -1    0    0  501    0  0.00000000000E+00  0.00000000000E+00  0.15624361348E+04  0.15624361348E+04  0.50400001928E-02 0. -1.
       -1   -1    0    0    0  501  0.00000000000E+00  0.00000000000E+00 -0.72692710229E+03  0.72692710230E+03  0.50400001928E-02 0.  1.
    10030    2    1    2    0    0  0.00000000000E+00  0.00000000000E+00  0.83550903252E+03  0.22893632371E+04  0.21314569402E+04 0.  0.
        4    1    3    3  502    0 -0.78085116253E+03  0.24539067336E+02 -0.36082274039E+03  0.86053783574E+03  0.12699999809E+01 0.  1.
       -4    1    3    3    0  502  0.78085116253E+03 -0.24539067336E+02  0.11963317729E+04  0.14288254014E+04  0.12699999809E+01 0. -1.
</event>
<event>
 5   0  0.5284458E-07  0.1901047E+04  0.7818609E-02  0.8654336E-01
       -1   -1    0    0    0  501  0.00000000000E+00  0.00000000000E+00  0.78616621809E+03  0.78616621810E+03  0.50400001928E-02 0.  1.
        1   -1    0    0  501    0  0.00000000000E+00  0.00000000000E+00 -0.11492411281E+04  0.11492411281E+04  0.50400001928E-02 0. -1.
    10030    2    1    2    0    0  0.00000000000E+00  0.00000000000E+00 -0.36307490998E+03  0.19354073462E+04  0.19010466079E+04 0.  0.
        5    1    3    3  502    0  0.33074962531E+02  0.23329397487E+03  0.75594978430E+03  0.79183470386E+03  0.46999998093E+01 0.  1.
       -5    1    3    3    0  502 -0.33074962531E+02 -0.23329397487E+03 -0.11190246943E+04  0.11435726423E+04  0.46999998093E+01 0. -1.
</event>
<event>
 5   0  0.4255250E-07  0.3755300E+04  0.7818609E-02  0.8055816E-01
       -1   -1    0    0    0  501  0.00000000000E+00  0.00000000000E+00  0.16980441921E+04  0.16980441921E+04  0.50400001928E-02 0.  1.
        1   -1    0    0  501    0  0.00000000000E+00  0.00000000000E+00 -0.20762529075E+04  0.20762529075E+04  0.50400001928E-02 0. -1.
    10030    2    1    2    0    0  0.00000000000E+00  0.00000000000E+00 -0.37820871537E+03  0.37742970996E+04  0.37552998234E+04 0.  0.
        2    1    3    3  502    0  0.47150906448E+02 -0.36145544963E+03  0.16621408024E+04  0.17016419415E+04  0.25500000920E-02 0.  1.
       -2    1    3    3    0  502 -0.47150906448E+02  0.36145544963E+03 -0.20403495177E+04  0.20726551582E+04  0.25500000920E-02 0. -1.
</event>
<event>
 5   0  0.2463393E-06  0.1871373E+04  0.7818609E-02  0.8669239E-01
       -2   -1    0    0    0  501  0.00000000000E+00  0.00000000000E+00  0.77181061921E+03  0.77181061921E+03  0.25500000920E-02 0. -1.
        2   -1    0    0  501    0  0.00000000000E+00  0.00000000000E+00 -0.11343570087E+04  0.11343570087E+04  0.25500000920E-02 0.  1.
    10030    2    1    2    0    0  0.00000000000E+00  0.00000000000E+00 -0.36254638945E+03  0.19061676279E+04  0.18713725287E+04 0.  0.
        1    1    3    3  502    0  0.19768633892E+03  0.63791042317E+03  0.48627405930E+03  0.82611867027E+03  0.50400001928E-02 0. -1.
       -1    1    3    3    0  502 -0.19768633892E+03 -0.63791042317E+03 -0.84882044876E+03  0.10800489576E+04  0.50400001928E-02 0.  1.
</event>
<event>
 5   0  0.1184616E-06  0.3062091E+04  0.7818609E-02  0.8226219E-01
        2   -1    0    0  501    0  0.00000000000E+00  0.00000000000E+00  0.24414702042E+04  0.24414702042E+04  0.25500000920E-02 0. -1.
       -2   -1    0    0    0  501  0.00000000000E+00  0.00000000000E+00 -0.96011849820E+03  0.96011849820E+03  0.25500000920E-02 0.  1.
    10030    2    1    2    0    0  0.00000000000E+00  0.00000000000E+00  0.14813517060E+04  0.34015887024E+04  0.30620912500E+04 0.  0.
        5    1    3    3  502    0  0.53689391856E+03  0.51843306345E+03  0.22256951882E+04  0.23475027331E+04  0.46999998093E+01 0. -1.
       -5    1    3    3    0  502 -0.53689391856E+03 -0.51843306345E+03 -0.74434348225E+03  0.10540859693E+04  0.46999998093E+01 0.  1.
</event>
<event>
 5   0  0.1214844E-06  0.3150366E+04  0.7818609E-02  0.8202050E-01
       -2   -1    0    0    0  501  0.00000000000E+00  0.00000000000E+00  0.21026497004E+04  0.21026497004E+04  0.25500000920E-02 0. -1.
        2   -1    0    0  501    0  0.00000000000E+00  0.00000000000E+00 -0.11800354095E+04  0.11800354095E+04  0.25500000920E-02 0.  1.
    10030    2    1    2    0    0  0.00000000000E+00  0.00000000000E+00  0.92261429085E+03  0.32826851099E+04  0.31503657567E+04 0.  0.
        4    1    3    3  502    0 -0.73296339276E+03 -0.13333022930E+04  0.88619477041E+03  0.17607592464E+04  0.12699999809E+01 0. -1.
       -4    1    3    3    0  502  0.73296339276E+03  0.13333022930E+04  0.36419520438E+02  0.15219258635E+04  0.12699999809E+01 0.  1.
</event>
<event>
 5   0  0.4795023E-07  0.3756655E+04  0.7818609E-02  0.8055521E-01
        1   -1    0    0  501    0  0.00000000000E+00  0.00000000000E+00  0.18848703847E+04  0.18848703847E+04  0.50400001928E-02 0.  1.
       -1   -1    0    0    0  501  0.00000000000E+00  0.00000000000E+00 -0.18718073151E+04  0.18718073152E+04  0.50400001928E-02 0. -1.
    10030    2    1    2    0    0  0.00000000000E+00  0.00000000000E+00  0.13063069520E+02  0.37566776998E+04  0.37566549877E+04 0.  0.
        3    1    3    3  502    0  0.13300845673E+04 -0.42158915655E+03  0.12640174833E+04  0.18827114971E+04  0.10100000352E+00 0.  1.
       -3    1    3    3    0  502 -0.13300845673E+04  0.42158915655E+03 -0.12509544138E+04  0.18739662027E+04  0.10100000352E+00 0. -1.
</event>
<event>
 5   0  0.4255250E-07  0.2102027E+04  0.7818609E-02  0.8560351E-01
       -1   -1    0    0    0  501  0.00000000000E+00  0.00000000000E+00  0.11286427624E+04  0.11286427624E+04  0.50400001928E-02 0.  1.
        1   -1    0    0  501    0  0.00000000000E+00  0.00000000000E+00 -0.97872399392E+03  0.97872399393E+03  0.50400001928E-02 0. -1.
    10030    2    1    2    0    0  0.00000000000E+00  0.00000000000E+00  0.14991876850E+03  0.21073667564E+04  0.21020273568E+04 0.  0.
        2    1    3    3  502    0 -0.15230722183E+03 -0.10145268179E+04 -0.15402305730E+03  0.10373934915E+04  0.25500000920E-02 0. -1.
       -2    1    3    3    0  502  0.15230722183E+03  0.10145268179E+04  0.30394182581E+03  0.10699732649E+04  0.25500000920E-02 0.  1.
</event>
<event>
 5   0  0.4255250E-07  0.3599881E+04  0.7818609E-02  0.8090519E-01
        1   -1    0    0  501    0  0.00000000000E+00  0.00000000000E+00  0.19164495678E+04  0.19164495678E+04  0.50400001928E-02 0. -1.
       -1   -1    0    0    0  501  0.00000000000E+00  0.00000000000E+00 -0.16905140611E+04  0.16905140611E+04  0.50400001928E-02 0.  1.
    10030    2    1    2    0    0  0.00000000000E+00  0.00000000000E+00  0.22593550674E+03  0.36069636289E+04  0.35998805212E+04 0.  0.
        2    1    3    3  502    0 -0.86207804209E+03  0.10756013554E+04  0.12726941132E+04  0.18761255641E+04  0.25500000920E-02 0. -1.
       -2    1    3    3    0  502  0.86207804209E+03 -0.10756013554E+04 -0.10467586065E+04  0.17308380648E+04  0.25500000920E-02 0.  1.
</event>
<event>
 5   0  0.4255250E-07  0.2457929E+04  0.7818609E-02  0.8418129E-01
       -1   -1    0    0    0  501  0.00000000000E+00  0.00000000000E+00  0.15874468834E+04  0.15874468834E+04  0.50400001928E-02 0.  1.
        1   -1    0    0  501    0  0.00000000000E+00  0.00000000000E+00 -0.95143612748E+03  0.95143612749E+03  0.50400001928E-02 0. -1.
    10030    2    1    2    0    0  0.00000000000E+00  0.00000000000E+00  0.63601075596E+03  0.25388830109E+04  0.24579294663E+04 0.  0.
        2    1    3    3  502    0 -0.15342928367E+03 -0.91392987988E+03  0.11517744793E+04  0.14783074178E+04  0.25500000920E-02 0.  1.
       -2    1    3    3    0  502  0.15342928367E+03  0.91392987988E+03 -0.51576372333E+03  0.10605755931E+04  0.25500000920E-02 0. -1.
</event>
<event>
 5   0  0.4255250E-07  0.3469495E+04  0.7818609E-02  0.8121058E-01
        1   -1    0    0  501    0  0.00000000000E+00  0.00000000000E+00  0.18459060634E+04  0.18459060634E+04  0.50400001928E-02 0. -1.
       -1   -1    0    0    0  501  0.00000000000E+00  0.00000000000E+00 -0.16302824687E+04  0.16302824687E+04  0.50400001928E-02 0.  1.
    10030    2    1    2    0    0  0.00000000000E+00  0.00000000000E+00  0.21562359466E+03  0.34761885321E+04  0.34694946572E+04 0.  0.
        2    1    3    3  502    0  0.11008622942E+04  0.13310788867E+04  0.26836921935E+03  0.17480534407E+04  0.25500000920E-02 0.  1.
       -2    1    3    3    0  502 -0.11008622942E+04 -0.13310788867E+04 -0.52745624693E+02  0.17281350915E+04  0.25500000920E-02 0. -1.
</event>
<event>
 5   0  0.4255250E-07  0.2239713E+04  0.7818609E-02  0.8502078E-01
        4   -1    0    0  501    0  0.00000000000E+00  0.00000000000E+00  0.74963437330E+03  0.74963544909E+03  0.12699999809E+01 0. -1.
       -4   -1    0    0    0  501  0.00000000000E+00  0.00000000000E+00 -0.16729182029E+04  0.16729186850E+04  0.12699999809E+01 0.  1.
    10030    2    1    2    0    0  0.00000000000E+00  0.00000000000E+00 -0.92328382964E+03  0.24225541341E+04  0.22397132635E+04 0.  0.
        1    1    3    3  502    0 -0.31829641589E+03  0.93927902276E+03  0.10093474336E+03  0.99686785153E+03  0.50400001928E-02 0. -1.
       -1    1    3    3    0  502  0.31829641589E+03 -0.93927902276E+03 -0.10242185730E+04  0.14256862826E+04  0.50400001928E-02 0.  1.
</event>
<event>
 5   0  0.1372748E-06  0.2633435E+04  0.7818609E-02  0.8356932E-01
       -2   -1    0    0    0  501  0.00000000000E+00  0.00000000000E+00  0.84686711940E+03  0.84686711940E+03  0.25500000920E-02 0. -1.
        2   -1    0    0  501    0  0.00000000000E+00  0.00000000000E+00 -0.20472456285E+04  0.20472456285E+04  0.25500000920E-02 0.  1.
    10030    2    1    2    0    0  0.00000000000E+00  0.00000000000E+00 -0.12003785091E+04  0.28941127479E+04  0.26334350253E+04 0.  0.
        1    1    3    3  502    0  0.11407487232E+04  0.59996186066E+03 -0.30431219704E+03  0.13243367386E+04  0.50400001928E-02 0. -1.
       -1    1    3    3    0  502 -0.11407487232E+04 -0.59996186066E+03 -0.89606631203E+03  0.15697760093E+04  0.50400001928E-02 0.  1.
</event>
<event>
 5   0  0.4255250E-07  0.2803012E+04  0.7818609E-02  0.8302334E-01
       -1   -1    0    0    0  501  0.00000000000E+00  0.00000000000E+00  0.12942285060E+04  0.12942285060E+04  0.50400001928E-02 0.  1.
        1   -1    0    0  501    0  0.00000000000E+00  0.00000000000E+00 -0.15176759108E+04  0.15176759108E+04  0.50400001928E-02 0. -1.
    10030    2    1    2    0    0  0.00000000000E+00  0.00000000000E+00 -0.22344740477E+03  0.28119044168E+04  0.28030122559E+04 0.  0.
        2    1    3    3  502    0 -0.27633091257E+03 -0.12576591179E+04 -0.66679103142E+03  0.14500605193E+04  0.25500000920E-02 0. -1.
       -2    1    3    3    0  502  0.27633091257E+03  0.12576591179E+04  0.44334362665E+03  0.13618438975E+04  0.25500000920E-02 0.  1.
</event>
<event>
 5   0  0.4795023E-07  0.3360796E+04  0.7818609E-02  0.8147596E-01
        1   -1    0    0  501    0  0.00000000000E+00  0.00000000000E+00  0.16644287807E+04  0.16644287807E+04  0.50400001928E-02 0.  1.
       -1   -1    0    0    0  501  0.00000000000E+00  0.00000000000E+00 -0.16965200909E+04  0.16965200909E+04  0.50400001928E-02 0. -1.
    10030    2    1    2    0    0  0.00000000000E+00  0.00000000000E+00 -0.32091310206E+02  0.33609488717E+04  0.33607956597E+04 0.  0.
        3    1    3    3  502    0  0.39519339088E+03  0.50478902826E+03 -0.15694184587E+04  0.16953064879E+04  0.10100000352E+00 0. -1.
       -3    1    3    3    0  502 -0.39519339088E+03 -0.50478902826E+03  0.15373271484E+04  0.16656423838E+04  0.10100000352E+00 0.  1.
</event>
<event>
 5   0  0.1184616E-06  0.3729349E+04  0.7818609E-02  0.8061489E-01
       -2   -1    0    0    0  501  0.00000000000E+00  0.00000000000E+00  0.13867915422E+04  0.13867915422E+04  0.25500000920E-02 0. -1.
        2   -1    0    0  501    0  0.00000000000E+00  0.00000000000E+00 -0.25072338790E+04  0.25072338790E+04  0.25500000920E-02 0.  1.
    10030    2    1    2    0    0  0.00000000000E+00  0.00000000000E+00 -0.11204423368E+04  0.38940254212E+04  0.37293488642E+04 0.  0.
        5    1    3    3  502    0  0.89848679524E+03 -0.63936380209E+03  0.10098117494E+04  0.14952613323E+04  0.46999998093E+01 0. -1.
       -5    1    3    3    0  502 -0.89848679524E+03  0.63936380209E+03 -0.21302540862E+04  0.23987640889E+04  0.46999998093E+01 0.  1.
</event>
<event>
 5   0  0.1184616E-06  0.3458228E+04  0.7818609E-02  0.8123761E-01
        2   -1    0    0  501    0  0.00000000000E+00  0.00000000000E+00  0.18211613720E+04  0.18211613720E+04  0.25500000920E-02 0.  1.
       -2   -1    0    0    0  501  0.00000000000E+00  0.00000000000E+00 -0.16417185261E+04  0.16417185261E+04  0.25500000920E-02 0. -1.
    10030    2    1    2    0    0  0.00000000000E+00  0.00000000000E+00  0.17944284595E+03  0.34628798981E+04  0.34582275017E+04 0.  0.
        5    1    3    3  502    0 -0.14121878939E+04 -0.11886456875E+03  0.10817149810E+04  0.17828440267E+04  0.46999998093E+01 0.  1.
       -5    1    3    3    0  502  0.14121878939E+04  0.11886456875E+03 -0.90227213504E+03  0.16800358714E+04  0.46999998093E+01 0. -1.
</event>
<event>
 5   0  0.1214844E-06  0.2402592E+04  0.7818609E-02  0.8438534E-01
       -2   -1    0    0    0  501  0.00000000000E+00  0.00000000000E+00  0.98669834555E+03  0.98669834555E+03  0.25500000920E-02 0. -1.
        2   -1    0    0  501    0  0.00000000000E+00  0.00000000000E+00 -0.14625671074E+04  0.14625671074E+04  0.25500000920E-02 0.  1.
    10030    2    1    2    0    0  0.00000000000E+00  0.00000000000E+00 -0.47586876184E+03  0.24492654529E+04  0.24025923875E+04 0.  0.
        4    1    3    3  502    0 -0.67814778032E+03 -0.74589008297E+03  0.42811414043E+03  0.10952258936E+04  0.12699999809E+01 0. -1.
       -4    1    3    3    0  502  0.67814778032E+03  0.74589008297E+03 -0.90398290227E+03  0.13540395594E+04  0.12699999809E+01 0.  1.
</event>
<event>
 5   0  0.1341932E-06  0.2239124E+04  0.7818609E-02  0.8502318E-01
       -2   -1    0    0    0  501  0.00000000000E+00  0.00000000000E+00  0.13759037056E+04  0.13759037056E+04  0.25500000920E-02 0.  1.
        2   -1    0    0  501    0  0.00000000000E+00  0.00000000000E+00 -0.91097881058E+03  0.91097881058E+03  0.25500000920E-02 0. -1.
    10030    2    1    2    0    0  0.00000000000E+00  0.00000000000E+00  0.46492489506E+03  0.22868825162E+04  0.22391240441E+04 0.  0.
        2    1    3    3  502    0 -0.45800020265E+02  0.45035778261E+03 -0.81334031059E+03  0.93082878934E+03  0.25500000920E-02 0. -1.
       -2    1    3    3    0  502  0.45800020265E+02 -0.45035778261E+03  0.12782652057E+04  0.13560537269E+04  0.25500000920E-02 0.  1.
</event>
<event>
 5   0  0.4255250E-07  0.2516926E+04  0.7818609E-02  0.8396980E-01
        1   -1    0    0  501    0  0.00000000000E+00  0.00000000000E+00  0.16093154419E+04  0.16093154419E+04  0.50400001928E-02 0.  1.
       -1   -1    0    0    0  501  0.00000000000E+00  0.00000000000E+00 -0.98410124383E+03  0.98410124384E+03  0.50400001928E-02 0. -1.
    10030    2    1    2    0    0  0.00000000000E+00  0.00000000000E+00  0.62521419804E+03  0.25934166857E+04  0.25169261635E+04 0.  0.
        2    1    3    3  502    0 -0.44535820985E+02  0.12561520050E+04  0.37635845640E+03  0.13120773555E+04  0.25500000920E-02 0.  1.
       -2    1    3    3    0  502  0.44535820985E+02 -0.12561520050E+04  0.24885574164E+03  0.12813393302E+04  0.25500000920E-02 0. -1.
</event>
<event>
 5   0  0.1341932E-06  0.3762126E+04  0.7818609E-02  0.8054332E-01
       -2   -1    0    0    0  501  0.00000000000E+00  0.00000000000E+00  0.12428071335E+04  0.12428071335E+04  0.25500000920E-02 0.  1.
        2   -1    0    0  501    0  0.00000000000E+00  0.00000000000E+00 -0.28471015751E+04  0.28471015751E+04  0.25500000920E-02 0. -1.
    10030    2    1    2    0    0  0.00000000000E+00  0.00000000000E+00 -0.16042944416E+04  0.40899087086E+04  0.37621260730E+04 0.  0.
        2    1    3    3  502    0  0.38466992693E+03  0.16294038346E+04  0.13016816256E+03  0.16792473193E+04  0.25500000920E-02 0. -1.
       -2    1    3    3    0  502 -0.38466992693E+03 -0.16294038346E+04 -0.17344626041E+04  0.24106613893E+04  0.25500000920E-02 0.  1.
</event>
<event>
 5   0  0.1214844E-06  0.3657808E+04  0.7818609E-02  0.8077377E-01
        2   -1    0    0  501    0  0.00000000000E+00  0.00000000000E+00  0.18203086828E+04  0.18203086828E+04  0.25500000920E-02 0. -1.
       -2   -1    0    0    0  501  0.00000000000E+00  0.00000000000E+00 -0.18375397851E+04  0.18375397851E+04  0.25500000920E-02 0.  1.
    10030    2    1    2    0    0  0.00000000000E+00  0.00000000000E+00 -0.17231102264E+02  0.36578484679E+04  0.36578078823E+04 0.  0.
        4    1    3    3  502    0 -0.14535489457E+04 -0.51868639207E+02 -0.11174078679E+04  0.18341474448E+04  0.12699999809E+01 0.  1.
       -4    1    3    3    0  502  0.14535489457E+04  0.51868639207E+02  0.11001767656E+04  0.18237010231E+04  0.12699999809E+01 0. -1.
</event>
<event>
 5   0  0.4795023E-07  0.3839323E+04  0.7818609E-02  0.8037769E-01
        1   -1    0    0  501    0  0.00000000000E+00  0.00000000000E+00  0.26225057446E+04  0.26225057446E+04  0.50400001928E-02 0.  1.
       -1   -1    0    0    0  501  0.00000000000E+00  0.00000000000E+00 -0.14051826138E+04  0.14051826138E+04  0.50400001928E-02 0. -1.
    10030    2    1    2    0    0  0.00000000000E+00  0.00000000000E+00  0.12173231309E+04  0.40276883584E+04  0.38393225845E+04 0.  0.
        3    1    3    3  502    0 -0.10867487573E+04 -0.30065363521E+03  0.22384883910E+04  0.25064408544E+04  0.10100000352E+00 0.  1.
       -3    1    3    3    0  502  0.10867487573E+04  0.30065363521E+03 -0.10211652601E+04  0.15212475040E+04  0.10100000352E+00 0. -1.
</event>
<event>
 5   0  0.4795023E-07  0.3720403E+04  0.7818609E-02  0.8063455E-01
       -1   -1    0    0    0  501  0.00000000000E+00  0.00000000000E+00  0.12756755876E+04  0.12756755876E+04  0.50400001928E-02 0.  1.
        1   -1    0    0  501    0  0.00000000000E+00  0.00000000000E+00 -0.27125622520E+04  0.27125622520E+04  0.50400001928E-02 0. -1.
    10030    2    1    2    0    0  0.00000000000E+00  0.00000000000E+00 -0.14368866644E+04  0.39882378396E+04  0.37204029055E+04 0.  0.
        3    1    3    3  502    0  0.18214225298E+04 -0.16732516457E+03 -0.35527458608E+03  0.18632760892E+04  0.10100000352E+00 0. -1.
       -3    1    3    3    0  502 -0.18214225298E+04  0.16732516457E+03 -0.10816120783E+04  0.21249617505E+04  0.10100000352E+00 0.  1.
</event>
<event>
 5   0  0.1341932E-06  0.3795506E+04  0.7818609E-02  0.8047120E-01
        2   -1    0    0  501    0  0.00000000000E+00  0.00000000000E+00  0.18740169927E+04  0.18740169927E+04  0.25500000920E-02 0.  1.
       -2   -1    0    0    0  501  0.00000000000E+00  0.00000000000E+00 -0.19217893069E+04  0.19217893069E+04  0.25500000920E-02 0. -1.
    10030    2    1    2    0    0  0.00000000000E+00  0.00000000000E+00 -0.47772314208E+02  0.37958062996E+04  0.37955056672E+04 0.  0.
        2    1    3    3  502    0 -0.14528628151E+04  0.11499786073E+04 -0.43404625774E+03  0.19030652407E+04  0.25500000920E-02 0. -1.
       -2    1    3    3    0  502  0.14528628151E+04 -0.11499786073E+04  0.38627394353E+03  0.18927410589E+04  0.25500000920E-02 0.  1.
</event>
<event>
 5   0  0.1337854E-06  0.3833359E+04  0.7818609E-02  0.8039034E-01
        2   -1    0    0  501    0  0.00000000000E+00  0.00000000000E+00  0.17533666893E+04  0.17533666893E+04  0.25500000920E-02 0.  1.
       -2   -1    0    0    0  501  0.00000000000E+00  0.00000000000E+00 -0.20952032489E+04  0.20952032489E+04  0.25500000920E-02 0. -1.
    10030    2    1    2    0    0  0.00000000000E+00  0.00000000000E+00 -0.34183655960E+03  0.38485699382E+04  0.38333586234E+04 0.  0.
        3    1    3    3  502    0  0.51816232668E+03  0.79333318378E+03  0.15017631023E+04  0.17757145499E+04  0.10100000352E+00 0.  1.
       -3    1    3    3    0  502 -0.51816232668E+03 -0.79333318378E+03 -0.18435996619E+04  0.20728553883E+04  0.10100000352E+00 0. -1.
</event>
<event>
 5   0  0.1184616E-06  0.3704328E+04  0.7818609E-02  0.8067003E-01
       -2   -1    0    0    0  501  0.00000000000E+00  0.00000000000E+00  0.11211870182E+04  0.11211870182E+04  0.25500000920E-02 0. -1.
        2   -1    0    0  501    0  0.00000000000E+00  0.00000000000E+00 -0.30597139597E+04  0.30597139597E+04  0.25500000920E-02 0.  1.
    10030    2    1    2    0    0  0.00000000000E+00  0.00000000000E+00 -0.19385269415E+04  0.41809009779E+04  0.37043280476E+04 0.  0.
        5    1    3    3  502    0 -0.17626028281E+04  0.52233331589E+03 -0.12238708242E+04  0.22085023674E+04  0.46999998093E+01 0.  1.
       -5    1    3    3    0  502  0.17626028281E+04 -0.52233331589E+03 -0.71465611732E+03  0.19723986105E+04  0.46999998093E+01 0. -1.
</event>
<event>
 5   0  0.1184616E-06  0.3438121E+04  0.7818609E-02  0.8128613E-01
       -2   -1    0    0    0  501  0.00000000000E+00  0.00000000000E+00  0.12325538173E+04  0.12325538173E+04  0.25500000920E-02 0.  1.
        2   -1    0    0  501    0  0.00000000000E+00  0.00000000000E+00 -0.23975987069E+04  0.23975987069E+04  0.25500000920E-02 0. -1.
    10030    2    1    2    0    0  0.00000000000E+00  0.00000000000E+00 -0.11650448897E+04  0.36301525242E+04  0.34381212536E+04 0.  0.
        5    1    3    3  502    0 -0.12348150765E+04 -0.88342446079E+03 -0.14337396948E+04  0.20882621132E+04  0.46999998093E+01 0.  1.
       -5    1    3    3    0  502  0.12348150765E+04  0.88342446079E+03  0.26869480517E+03  0.15418904110E+04  0.46999998093E+01 0. -1.
</event>
<event>
 5   0  0.1184616E-06  0.3538926E+04  0.7818609E-02  0.8104626E-01
       -2   -1    0    0    0  501  0.00000000000E+00  0.00000000000E+00  0.19697227377E+04  0.19697227377E+04  0.25500000920E-02 0. -1.
        2   -1    0    0  501    0  0.00000000000E+00  0.00000000000E+00 -0.15895638782E+04  0.15895638782E+04  0.25500000920E-02 0.  1.
    10030    2    1    2    0    0  0.00000000000E+00  0.00000000000E+00  0.38015885953E+03  0.35592866159E+04  0.35389264552E+04 0.  0.
        5    1    3    3  502    0 -0.14746431491E+04  0.96160322240E+03  0.36921886790E+03  0.17987767613E+04  0.46999998093E+01 0. -1.
       -5    1    3    3    0  502  0.14746431491E+04 -0.96160322240E+03  0.10939991632E+02  0.17605098546E+04  0.46999998093E+01 0.  1.
</event>
<event>
 5   0  0.4795023E-07  0.2039541E+04  0.7818609E-02  0.8588354E-01
        1   -1    0    0  501    0  0.00000000000E+00  0.00000000000E+00  0.13411124397E+04  0.13411124397E+04  0.50400001928E-02 0. -1.
       -1   -1    0    0    0  501  0.00000000000E+00  0.00000000000E+00 -0.77542507555E+03  0.77542507557E+03  0.50400001928E-02 0.  1.
    10030    2    1    2    0    0  0.00000000000E+00  0.00000000000E+00  0.56568736417E+03  0.21165375153E+04  0.20395413356E+04 0.  0.
        3    1    3    3  502    0  0.55651709326E+03 -0.45949463422E+03  0.10305188452E+04  0.12581000336E+04  0.10100000352E+00 0. -1.
       -3    1    3    3    0  502 -0.55651709326E+03  0.45949463422E+03 -0.46483148107E+03  0.85843748169E+03  0.10100000352E+00 0.  1.
</event>
<event>
 5   0  0.1214844E-06  0.3931845E+04  0.7818609E-02  0.8018438E-01
       -2   -1    0    0    0  501  0.00000000000E+00  0.00000000000E+00  0.14218577568E+04  0.14218577568E+04  0.25500000920E-02 0.  1.
        2   -1    0    0  501    0  0.00000000000E+00  0.00000000000E+00 -0.27181699757E+04  0.27181699757E+04  0.25500000920E-02 0. -1.
    10030    2    1    2    0    0  0.00000000000E+00  0.00000000000E+00 -0.12963122189E+04  0.41400277325E+04  0.39318448923E+04 0.  0.
        4    1    3    3  502    0 -0.79186692580E+03 -0.41319670513E+03  0.11958754206E+04  0.14926166219E+04  0.12699999809E+01 0.  1.
       -4    1    3    3    0  502  0.79186692580E+03  0.41319670513E+03 -0.24921876396E+04  0.26474111107E+04  0.12699999809E+01 0. -1.
</event>
<event>
 5   0  0.4795023E-07  0.2546829E+04  0.7818609E-02  0.8386490E-01
       -1   -1    0    0    0  501  0.00000000000E+00  0.00000000000E+00  0.77656195104E+03  0.77656195106E+03  0.50400001928E-02 0. -1.
        1   -1    0    0  501    0  0.00000000000E+00  0.00000000000E+00 -0.20881578515E+04  0.20881578515E+04  0.50400001928E-02 0.  1.
    10030    2    1    2    0    0  0.00000000000E+00  0.00000000000E+00 -0.13115959005E+04  0.28647198026E+04  0.25468285653E+04 0.  0.
        3    1    3    3  502    0  0.49946478561E+03  0.10294989734E+04 -0.12843397429E+04  0.17201342371E+04  0.10100000352E+00 0.  1.
       -3    1    3    3    0  502 -0.49946478561E+03 -0.10294989734E+04 -0.27256157580E+02  0.11445855655E+04  0.10100000352E+00 0. -1.
</event>
<event>
 5   0  0.5284458E-07  0.3837161E+04  0.7818609E-02  0.8038227E-01
       -1   -1    0    0    0  501  0.00000000000E+00  0.00000000000E+00  0.13474274764E+04  0.13474274764E+04  0.50400001928E-02 0.  1.
        1   -1    0    0  501    0  0.00000000000E+00  0.00000000000E+00 -0.27318366941E+04  0.27318366941E+04  0.50400001928E-02 0. -1.
    10030    2    1    2    0    0  0.00000000000E+00  0.00000000000E+00 -0.13844092177E+04  0.40792641705E+04  0.38371613584E+04 0.  0.
        5    1    3    3  502    0 -0.19179797717E+04  0.15103818247E+02 -0.74039928917E+03  0.20559882605E+04  0.46999998093E+01 0. -1.
       -5    1    3    3    0  502  0.19179797717E+04 -0.15103818247E+02 -0.64400992851E+03  0.20232759100E+04  0.46999998093E+01 0.  1.
</event>
<event>
 5   0  0.4255250E-07  0.2780515E+04  0.7818609E-02  0.8309343E-01
        1   -1    0    0  501    0  0.00000000000E+00  0.00000000000E+00  0.19016776203E+04  0.19016776203E+04  0.50400001928E-02 0.  1.
       -1   -1    0    0    0  501  0.00000000000E+00  0.00000000000E+00 -0.10163740266E+04  0.10163740266E+04  0.50400001928E-02 0. -1.
    10030    2    1    2    0    0  0.00000000000E+00  0.00000000000E+00  0.88530359370E+03  0.29180516469E+04  0.27805148733E+04 0.  0.
        2    1    3    3  502    0  0.92509614166E+03 -0.50041617554E+03 -0.51149355300E+03  0.11695490049E+04  0.25500000920E-02 0. -1.
       -2    1    3    3    0  502 -0.92509614166E+03  0.50041617554E+03  0.13967971467E+04  0.17485026420E+04  0.25500000920E-02 0.  1.
</event>
<event>
 5   0  0.1214844E-06  0.3768608E+04  0.7818609E-02  0.8052925E-01
       -2   -1    0    0    0  501  0.00000000000E+00  0.00000000000E+00  0.14675708577E+04  0.14675708577E+04  0.25500000920E-02 0.  1.
        2   -1    0    0  501    0  0.00000000000E+00  0.00000000000E+00 -0.24193734255E+04  0.24193734255E+04  0.25500000920E-02 0. -1.
    10030    2    1    2    0    0  0.00000000000E+00  0.00000000000E+00 -0.95180256785E+03  0.38869442832E+04  0.37686081957E+04 0.  0.
        4    1    3    3  502    0 -0.14755697077E+04 -0.93755596761E+03 -0.12010302216E+04  0.21210356812E+04  0.12699999809E+01 0. -1.
       -4    1    3    3    0  502  0.14755697077E+04  0.93755596761E+03  0.24922765376E+03  0.17659086021E+04  0.12699999809E+01 0.  1.
</event>
<event>
 5   0  0.1079205E-06  0.3819407E+04  0.7818609E-02  0.8042003E-01
        1   -1    0    0  501    0  0.00000000000E+00  0.00000000000E+00  0.24494943364E+04  0.24494943364E+04  0.50400001928E-02 0. -1.
       -1   -1    0    0    0  501  0.00000000000E+00  0.00000000000E+00 -0.14888651822E+04  0.14888651822E+04  0.50400001928E-02 0.  1.
    10030    2    1    2    0    0  0.00000000000E+00  0.00000000000E+00  0.96062915420E+03  0.39383595185E+04  0.38194066719E+04 0.  0.
        4    1    3    3  502    0 -0.74648005279E+03  0.10855102778E+04  0.19059066387E+04  0.23169045645E+04  0.12699999809E+01 0. -1.
       -4    1    3    3    0  502  0.74648005279E+03 -0.10855102778E+04 -0.94527748449E+03  0.16214549541E+04  0.12699999809E+01 0.  1.
</event>
<event>
 5   0  0.5284458E-07  0.2050572E+04  0.7818609E-02  0.8583335E-01
        1   -1    0    0  501    0  0.00000000000E+00  0.00000000000E+00  0.17448983087E+04  0.17448983087E+04  0.50400001928E-02 0. -1.
       -1   -1    0    0    0  501  0.00000000000E+00  0.00000000000E+00 -0.60244880083E+03  0.60244880085E+03  0.50400001928E-02 0.  1.
    10030    2    1    2    0    0  0.00000000000E+00  0.00000000000E+00  0.11424495079E+04  0.23473471096E+04  0.20505724993E+04 0.  0.
        5    1    3    3  502    0  0.28793072113E+03 -0.40073430852E+03  0.16000144692E+04  0.16743836113E+04  0.46999998093E+01 0. -1.
       -5    1    3    3    0  502 -0.28793072113E+03  0.40073430852E+03 -0.45756496129E+03  0.67296349827E+03  0.46999998093E+01 0.  1.
</event>
<event>
 5   0  0.1372748E-06  0.2712480E+04  0.7818609E-02  0.8330967E-01
       -2   -1    0    0    0  501  0.00000000000E+00  0.00000000000E+00  0.99157442919E+03  0.99157442919E+03  0.25500000920E-02 0.  1.
        2   -1    0    0  501    0  0.00000000000E+00  0.00000000000E+00 -0.18550163147E+04  0.18550163147E+04  0.25500000920E-02 0. -1.
    10030    2    1    2    0    0  0.00000000000E+00  0.00000000000E+00 -0.86344188549E+03  0.28465907439E+04  0.27124798568E+04 0.  0.
        1    1    3    3  502    0  0.68533506583E+03 -0.30370109872E+03  0.75441254076E+03  0.10635115380E+04  0.50400001928E-02 0.  1.
       -1    1    3    3    0  502 -0.68533506583E+03  0.30370109872E+03 -0.16178544262E+04  0.17830792059E+04  0.50400001928E-02 0. -1.
</event>
<event>
 5   0  0.1184616E-06  0.3948989E+04  0.7818609E-02  0.8014917E-01
        2   -1    0    0  501    0  0.00000000000E+00  0.00000000000E+00  0.14273947765E+04  0.14273947765E+04  0.25500000920E-02 0.  1.
       -2   -1    0    0    0  501  0.00000000000E+00  0.00000000000E+00 -0.27312895526E+04  0.27312895526E+04  0.25500000920E-02 0. -1.
    10030    2    1    2    0    0  0.00000000000E+00  0.00000000000E+00 -0.13038947761E+04  0.41586843291E+04  0.39489889544E+04 0.  0.
        5    1    3    3  502    0  0.97029024118E+03  0.79854919872E+03 -0.22557972200E+04  0.25822058714E+04  0.46999998093E+01 0. -1.
       -5    1    3    3    0  502 -0.97029024118E+03 -0.79854919872E+03  0.95190244390E+03  0.15764784577E+04  0.46999998093E+01 0.  1.
</event>
<event>
 5   0  0.1079205E-06  0.2780603E+04  0.7818609E-02  0.8309316E-01
        1   -1    0    0  501    0  0.00000000000E+00  0.00000000000E+00  0.79451642377E+03  0.79451642379E+03  0.50400001928E-02 0.  1.
       -1   -1    0    0    0  501  0.00000000000E+00  0.00000000000E+00 -0.24328485833E+04  0.24328485833E+04  0.50400001928E-02 0. -1.
    10030    2    1    2    0    0  0.00000000000E+00  0.00000000000E+00 -0.16383321595E+04  0.32273650071E+04  0.27806029245E+04 0.  0.
        4    1    3    3  502    0  0.16242576963E+03  0.69923422309E+03  0.56277628997E+03  0.91215645305E+03  0.12699999809E+01 0.  1.
       -4    1    3    3    0  502 -0.16242576963E+03 -0.69923422309E+03 -0.22011084495E+04  0.23152085540E+04  0.12699999809E+01 0. -1.
</event>
<event>
 5   0  0.1214844E-06  0.3800321E+04  0.7818609E-02  0.8046086E-01
       -2   -1    0    0    0  501  0.00000000000E+00  0.00000000000E+00  0.22254419003E+04  0.22254419003E+04  0.25500000920E-02 0.  1.
        2   -1    0    0  501    0  0.00000000000E+00  0.00000000000E+00 -0.16224235784E+04  0.16224235784E+04  0.25500000920E-02 0. -1.
    10030    2    1    2    0    0  0.00000000000E+00  0.00000000000E+00  0.60301832191E+03  0.38478654788E+04  0.38003207294E+04 0.  0.
        4    1    3    3  502    0 -0.61288630872E+03 -0.14232594435E+04  0.14149536827E+04  0.20984262217E+04  0.12699999809E+01 0.  1.
       -4    1    3    3    0  502  0.61288630872E+03  0.14232594435E+04 -0.81193536076E+03  0.17494392570E+04  0.12699999809E+01 0. -1.
</event>
<event>
 5   0  0.1341932E-06  0.3720509E+04  0.7818609E-02  0.8063432E-01
        2   -1    0    0  501    0  0.00000000000E+00  0.00000000000E+00  0.21041051888E+04  0.21041051888E+04  0.25500000920E-02 0.  1.
       -2   -1    0    0    0  501  0.00000000000E+00  0.00000000000E+00 -0.16446647669E+04  0.16446647669E+04  0.25500000920E-02 0. -1.
    10030    2    1    2    0    0  0.00000000000E+00  0.00000000000E+00  0.45944042192E+03  0.37487699557E+04  0.37205094650E+04 0.  0.
        2    1    3    3  502    0  0.82524865335E+03 -0.11107579094E+04  0.14824375310E+04  0.20279150639E+04  0.25500000920E-02 0.  1.
       -2    1    3    3    0  502 -0.82524865335E+03  0.11107579094E+04 -0.10229971091E+04  0.17208548917E+04  0.25500000920E-02 0. -1.
</event>
<event>
 5   0  0.4795023E-07  0.2668057E+04  0.7818609E-02  0.8345444E-01
       -1   -1    0    0    0  501  0.00000000000E+00  0.00000000000E+00  0.13404296350E+04  0.13404296350E+04  0.50400001928E-02 0.  1.
        1   -1    0    0  501    0  0.00000000000E+00  0.00000000000E+00 -0.13276582845E+04  0.13276582845E+04  0.50400001928E-02 0. -1.
    10030    2    1    2    0    0  0.00000000000E+00  0.00000000000E+00  0.12771350570E+02  0.26680879195E+04  0.26680573530E+04 0.  0.
        3    1    3    3  502    0  0.99307628257E+03  0.39318717032E+02 -0.88350430641E+03  0.13297843187E+04  0.10100000352E+00 0. -1.
       -3    1    3    3    0  502 -0.99307628257E+03 -0.39318717032E+02  0.89627565698E+03  0.13383036008E+04  0.10100000352E+00 0.  1.
</event>
<event>
 5   0  0.1341932E-06  0.3771157E+04  0.7818609E-02  0.8052373E-01
       -2   -1    0    0    0  501  0.00000000000E+00  0.00000000000E+00  0.25399843553E+04  0.25399843553E+04  0.25500000920E-02 0. -1.
        2   -1    0    0  501    0  0.00000000000E+00  0.00000000000E+00 -0.13997749286E+04  0.13997749286E+04  0.25500000920E-02 0.  1.
    10030    2    1    2    0    0  0.00000000000E+00  0.00000000000E+00  0.11402094267E+04  0.39397592839E+04  0.37711570742E+04 0.  0.
        2    1    3    3  502    0 -0.67476954135E+03 -0.17505522391E+04  0.76738411414E+03  0.20269744582E+04  0.25500000920E-02 0. -1.
       -2    1    3    3    0  502  0.67476954135E+03  0.17505522391E+04  0.37282531257E+03  0.19127848257E+04  0.25500000920E-02 0.  1.
</event>
<event>
 5   0  0.4255250E-07  0.2922664E+04  0.7818609E-02  0.8266166E-01
        1   -1    0    0  501    0  0.00000000000E+00  0.00000000000E+00  0.12128932081E+04  0.12128932081E+04  0.50400001928E-02 0.  1.
       -1   -1    0    0    0  501  0.00000000000E+00  0.00000000000E+00 -0.17606591220E+04  0.17606591221E+04  0.50400001928E-02 0. -1.
    10030    2    1    2    0    0  0.00000000000E+00  0.00000000000E+00 -0.54776591398E+03  0.29735523301E+04  0.29226641893E+04 0.  0.
        2    1    3    3  502    0  0.29868542490E+03 -0.95628549375E+03  0.80849976936E+03  0.12873875895E+04  0.25500000920E-02 0.  1.
       -2    1    3    3    0  502 -0.29868542490E+03  0.95628549375E+03 -0.13562656833E+04  0.16861647406E+04  0.25500000920E-02 0. -1.
</event>
<event>
 5   0  0.8030324E-07  0.1999998E+04  0.7818609E-02  0.8606622E-01
        1   -1    0    0  501    0  0.00000000000E+00  0.00000000000E+00  0.24251099169E+04  0.24251099169E+04  0.50400001928E-02 0.  1.
       -1   -1    0    0    0  501  0.00000000000E+00  0.00000000000E+00 -0.41235162048E+03  0.41235162051E+03  0.50400001928E-02 0. -1.
    10030    2    1    2    0    0  0.00000000000E+00  0.00000000000E+00  0.20127582964E+04  0.28374615374E+04  0.19999980041E+04 0.  0.
        1    1    3    3  502    0 -0.16454146897E+02  0.84586429263E+03  0.24999280661E+03  0.88218679647E+03  0.50400001928E-02 0. -1.
       -1    1    3    3    0  502  0.16454146897E+02 -0.84586429263E+03  0.17627654898E+04  0.19552747409E+04  0.50400001928E-02 0.  1.
</event>
<event>
 5   0  0.1372748E-06  0.3528643E+04  0.7818609E-02  0.8107035E-01
        2   -1    0    0  501    0  0.00000000000E+00  0.00000000000E+00  0.25457892066E+04  0.25457892066E+04  0.25500000920E-02 0. -1.
       -2   -1    0    0    0  501  0.00000000000E+00  0.00000000000E+00 -0.12227370052E+04  0.12227370052E+04  0.25500000920E-02 0.  1.
    10030    2    1    2    0    0  0.00000000000E+00  0.00000000000E+00  0.13230522015E+04  0.37685262118E+04  0.35286431785E+04 0.  0.
        1    1    3    3  502    0 -0.92103426660E+03 -0.14978612986E+04  0.50698919027E+03  0.18300083686E+04  0.50400001928E-02 0.  1.
       -1    1    3    3    0  502  0.92103426660E+03  0.14978612986E+04  0.81606301121E+03  0.19385178432E+04  0.50400001928E-02 0. -1.
</event>
<event>
 5   0  0.1341932E-06  0.3819491E+04  0.7818609E-02  0.8041985E-01
        2   -1    0    0  501    0  0.00000000000E+00  0.00000000000E+00  0.26162982789E+04  0.26162982789E+04  0.25500000920E-02 0.  1.
       -2   -1    0    0    0  501  0.00000000000E+00  0.00000000000E+00 -0.13940030782E+04  0.13940030782E+04  0.25500000920E-02 0. -1.
    10030    2    1    2    0    0  0.00000000000E+00  0.00000000000E+00  0.12222952007E+04  0.40103013570E+04  0.38194909892E+04 0.  0.
        2    1    3    3  502    0  0.43707234974E+03  0.18553505544E+04  0.73435519280E+03  0.20427029808E+04  0.25500000920E-02 0. -1.
       -2    1    3    3    0  502 -0.43707234974E+03 -0.18553505544E+04  0.48794000787E+03  0.19675983762E+04  0.25500000920E-02 0.  1.
</event>
<event>
 5   0  0.4795023E-07  0.3813048E+04  0.7818609E-02  0.8043361E-01
       -1   -1    0    0    0  501  0.00000000000E+00  0.00000000000E+00  0.19780440551E+04  0.19780440551E+04  0.50400001928E-02 0. -1.
        1   -1    0    0  501    0  0.00000000000E+00  0.00000000000E+00 -0.18375896187E+04  0.18375896187E+04  0.50400001928E-02 0.  1.
    10030    2    1    2    0    0  0.00000000000E+00  0.00000000000E+00  0.14045443636E+03  0.38156336738E+04  0.38130477159E+04 0.  0.
        3    1    3    3  502    0  0.17693159675E+04  0.38089477609E+03 -0.52957346651E+03  0.18857380226E+04  0.10100000352E+00 0.  1.
       -3    1    3    3    0  502 -0.17693159675E+04 -0.38089477609E+03  0.67002790288E+03  0.19298956511E+04  0.10100000352E+00 0. -1.
</event>
<event>
 5   0  0.4255250E-07  0.2418151E+04  0.7818609E-02  0.8432739E-01
        1   -1    0    0  501    0  0.00000000000E+00  0.00000000000E+00  0.11390989592E+04  0.11390989592E+04  0.50400001928E-02 0. -1.
       -1   -1    0    0    0  501  0.00000000000E+00  0.00000000000E+00 -0.12833507318E+04  0.12833507318E+04  0.50400001928E-02 0.  1.
    10030    2    1    2    0    0  0.00000000000E+00  0.00000000000E+00 -0.14425177260E+03  0.24224496909E+04  0.24181509323E+04 0.  0.
        2    1    3    3  502    0 -0.65532831914E+03 -0.11477374919E+03 -0.10834924289E+04  0.12714495911E+04  0.25500000920E-02 0.  1.
       -2    1    3    3    0  502  0.65532831914E+03  0.11477374919E+03  0.93924065625E+03  0.11510000998E+04  0.25500000920E-02 0. -1.
</event>
<event>
 5   0  0.1372748E-06  0.2802650E+04  0.7818609E-02  0.8302446E-01
       -2   -1    0    0    0  501  0.00000000000E+00  0.00000000000E+00  0.86163615358E+03  0.86163615358E+03  0.25500000920E-02 0.  1.
        2   -1    0    0  501    0  0.00000000000E+00  0.00000000000E+00 -0.22790497236E+04  0.22790497236E+04  0.25500000920E-02 0. -1.
    10030    2    1    2    0    0  0.00000000000E+00  0.00000000000E+00 -0.14174135701E+04  0.31406858772E+04  0.28026499158E+04 0.  0.
        1    1    3    3  502    0 -0.78434386940E+03  0.38736241767E+03  0.51807871114E+03  0.10166860376E+04  0.50400001928E-02 0.  1.
       -1    1    3    3    0  502  0.78434386940E+03 -0.38736241767E+03 -0.19354922812E+04  0.21239998396E+04  0.50400001928E-02 0. -1.
</event>
<event>
 5   0  0.4255250E-07  0.3770305E+04  0.7818609E-02  0.8052557E-01
        1   -1    0    0  501    0  0.00000000000E+00  0.00000000000E+00  0.17323997862E+04  0.17323997862E+04  0.50400001928E-02 0.  1.
       -1   -1    0    0    0  501  0.00000000000E+00  0.00000000000E+00 -0.20513745348E+04  0.20513745348E+04  0.50400001928E-02 0. -1.
    10030    2    1    2    0    0  0.00000000000E+00  0.00000000000E+00 -0.31897474857E+03  0.37837743210E+04  0.37703054547E+04 0.  0.
        2    1    3    3  502    0  0.30647824720E+03 -0.14341995440E+03 -0.20206481173E+04  0.20487842769E+04  0.25500000920E-02 0. -1.
       -2    1    3    3    0  502 -0.30647824720E+03  0.14341995440E+03  0.17016733687E+04  0.17349900441E+04  0.25500000920E-02 0.  1.
</event>
<event>
 5   0  0.5284458E-07  0.2389561E+04  0.7818609E-02  0.8443422E-01
       -1   -1    0    0    0  501  0.00000000000E+00  0.00000000000E+00  0.32151635089E+04  0.32151635089E+04  0.50400001928E-02 0.  1.
        1   -1    0    0  501    0  0.00000000000E+00  0.00000000000E+00 -0.44398982630E+03  0.44398982633E+03  0.50400001928E-02 0. -1.
    10030    2    1    2    0    0  0.00000000000E+00  0.00000000000E+00  0.27711736826E+04  0.36591533352E+04  0.23895605353E+04 0.  0.
        5    1    3    3  502    0  0.57235107960E+03  0.58232428282E+03  0.49929352824E+02  0.81804789527E+03  0.46999998093E+01 0. -1.
       -5    1    3    3    0  502 -0.57235107960E+03 -0.58232428282E+03  0.27212443298E+04  0.28411054400E+04  0.46999998093E+01 0.  1.
</event>
<event>
 5   0  0.1214844E-06  0.3189459E+04  0.7818609E-02  0.8191607E-01
       -2   -1    0    0    0  501  0.00000000000E+00  0.00000000000E+00  0.23940016980E+04  0.23940016980E+04  0.25500000920E-02 0. -1.
        2   -1    0    0  501    0  0.00000000000E+00  0.00000000000E+00 -0.10623057728E+04  0.10623057728E+04  0.25500000920E-02 0.  1.
    10030    2    1    2    0    0  0.00000000000E+00  0.00000000000E+00  0.13316959253E+04  0.34563074708E+04  0.31894587778E+04 0.  0.
        4    1    3    3  502    0 -0.89468818768E+03  0.99587758676E+02 -0.76063480790E+03  0.11785379072E+04  0.12699999809E+01 0.  1.
       -4    1    3    3    0  502  0.89468818768E+03 -0.99587758676E+02  0.20923307332E+04  0.22777695636E+04  0.12699999809E+01 0. -1.
</event>
<event>
 5   0  0.1214844E-06  0.3803330E+04  0.7818609E-02  0.8045441E-01
       -2   -1    0    0    0  501  0.00000000000E+00  0.00000000000E+00  0.17829466938E+04  0.17829466938E+04  0.25500000920E-02 0.  1.
        2   -1    0    0  501    0  0.00000000000E+00  0.00000000000E+00 -0.20282881670E+04  0.20282881670E+04  0.25500000920E-02 0. -1.
    10030    2    1    2    0    0  0.00000000000E+00  0.00000000000E+00 -0.24534147323E+03  0.38112348608E+04  0.38033299522E+04 0.  0.
        4    1    3    3  502    0 -0.52815860521E+03 -0.76295814127E+03  0.15406802616E+04  0.17985421649E+04  0.12699999809E+01 0.  1.
       -4    1    3    3    0  502  0.52815860521E+03  0.76295814127E+03 -0.17860217349E+04  0.20126926958E+04  0.12699999809E+01 0. -1.
</event>
<event>
 5   0  0.1214844E-06  0.3802261E+04  0.7818609E-02  0.8045670E-01
       -2   -1    0    0    0  501  0.00000000000E+00  0.00000000000E+00  0.15211309766E+04  0.15211309766E+04  0.25500000920E-02 0. -1.
        2   -1    0    0  501    0  0.00000000000E+00  0.00000000000E+00 -0.23760593137E+04  0.23760593137E+04  0.25500000920E-02 0.  1.
    10030    2    1    2    0    0  0.00000000000E+00  0.00000000000E+00 -0.85492833707E+03  0.38971902902E+04  0.38022611295E+04 0.  0.
        4    1    3    3  502    0  0.68843299987E+02  0.50511314559E+03 -0.23046972767E+04  0.23604045924E+04  0.12699999809E+01 0.  1.
       -4    1    3    3    0  502 -0.68843299987E+02 -0.50511314559E+03  0.14497689396E+04  0.15367856978E+04  0.12699999809E+01 0. -1.
</event>
<event>
 5   0  0.1337854E-06  0.3851407E+04  0.7818609E-02  0.8035212E-01
       -2   -1    0    0    0  501  0.00000000000E+00  0.00000000000E+00  0.23590496665E+04  0.23590496665E+04  0.25500000920E-02 0.  1.
        2   -1    0    0  501    0  0.00000000000E+00  0.00000000000E+00 -0.15719611188E+04  0.15719611188E+04  0.25500000920E-02 0. -1.
    10030    2    1    2    0    0  0.00000000000E+00  0.00000000000E+00  0.78708854774E+03  0.39310107853E+04  0.38514071989E+04 0.  0.
        3    1    3    3  502    0 -0.60062457017E+03  0.14915401791E+04 -0.68802380602E+03  0.17489478974E+04  0.10100000352E+00 0. -1.
       -3    1    3    3    0  502  0.60062457017E+03 -0.14915401791E+04  0.14751123538E+04  0.21820628878E+04  0.10100000352E+00 0.  1.
</event>
<event>
 5   0  0.4795023E-07  0.2575910E+04  0.7818609E-02  0.8376430E-01
       -1   -1    0    0    0  501  0.00000000000E+00  0.00000000000E+00  0.18206287984E+04  0.18206287984E+04  0.50400001928E-02 0.  1.
        1   -1    0    0  501    0  0.00000000000E+00  0.00000000000E+00 -0.91112926102E+03  0.91112926103E+03  0.50400001928E-02 0. -1.
    10030    2    1    2    0    0  0.00000000000E+00  0.00000000000E+00  0.90949953738E+03  0.27317580594E+04  0.25759100696E+04 0.  0.
        3    1    3    3  502    0  0.97760350865E+02  0.25588165213E+03 -0.87988092921E+03  0.92153294346E+03  0.10100000352E+00 0. -1.
       -3    1    3    3    0  502 -0.97760350865E+02 -0.25588165213E+03  0.17893804666E+04  0.18102251160E+04  0.10100000352E+00 0.  1.
</event>
<event>
 5   0  0.1341932E-06  0.3791536E+04  0.7818609E-02  0.8047974E-01
        2   -1    0    0  501    0  0.00000000000E+00  0.00000000000E+00  0.23881608513E+04  0.23881608513E+04  0.25500000920E-02 0.  1.
       -2   -1    0    0    0  501  0.00000000000E+00  0.00000000000E+00 -0.15048969810E+04  0.15048969810E+04  0.25500000920E-02 0. -1.
    10030    2    1    2    0    0  0.00000000000E+00  0.00000000000E+00  0.88326387033E+03  0.38930578322E+04  0.37915358656E+04 0.  0.
        2    1    3    3  502    0 -0.11037931302E+04 -0.14190252250E+04 -0.17609493466E+03  0.18063779476E+04  0.25500000920E-02 0. -1.
       -2    1    3    3    0  502  0.11037931302E+04  0.14190252250E+04  0.10593588050E+04  0.20866798847E+04  0.25500000920E-02 0.  1.
</event>
<event>
 5   0  0.1372748E-06  0.3757288E+04  0.7818609E-02  0.8055383E-01
       -2   -1    0    0    0  501  0.00000000000E+00  0.00000000000E+00  0.26101622080E+04  0.26101622080E+04  0.25500000920E-02 0. -1.
        2   -1    0    0  501    0  0.00000000000E+00  0.00000000000E+00 -0.13521391573E+04  0.13521391573E+04  0.25500000920E-02 0.  1.
    10030    2    1    2    0    0  0.00000000000E+00  0.00000000000E+00  0.12580230507E+04  0.39623013654E+04  0.37572876006E+04 0.  0.
        1    1    3    3  502    0 -0.11438971727E+04 -0.51477111099E+03 -0.84580050787E+03  0.15129007031E+04  0.50400001928E-02 0.  1.
       -1    1    3    3    0  502  0.11438971727E+04  0.51477111099E+03  0.21038235586E+04  0.24494006622E+04  0.50400001928E-02 0. -1.
</event>
<event>
 5   0  0.4255250E-07  0.3802840E+04  0.7818609E-02  0.8045546E-01
        1   -1    0    0  501    0  0.00000000000E+00  0.00000000000E+00  0.16632556608E+04  0.16632556608E+04  0.50400001928E-02 0.  1.
       -1   -1    0    0    0  501  0.00000000000E+00  0.00000000000E+00 -0.21736879740E+04  0.21736879741E+04  0.50400001928E-02 0. -1.
    10030    2    1    2    0    0  0.00000000000E+00  0.00000000000E+00 -0.51043231321E+03  0.38369436349E+04  0.38028404267E+04 0.  0.
        2    1    3    3  502    0  0.80065717335E+02  0.18981356280E+04 -0.33382146145E+03  0.19289287570E+04  0.25500000920E-02 0.  1.
       -2    1    3    3    0  502 -0.80065717335E+02 -0.18981356280E+04 -0.17661085176E+03  0.19080148779E+04  0.25500000920E-02 0. -1.
</event>
<event>
 5   0  0.4255250E-07  0.3852398E+04  0.7818609E-02  0.8035003E-01
       -1   -1    0    0    0  501  0.00000000000E+00  0.00000000000E+00  0.21290498378E+04  0.21290498378E+04  0.50400001928E-02 0. -1.
        1   -1    0    0  501    0  0.00000000000E+00  0.00000000000E+00 -0.17426756283E+04  0.17426756283E+04  0.50400001928E-02 0.  1.
    10030    2    1    2    0    0  0.00000000000E+00  0.00000000000E+00  0.38637420942E+03  0.38717254661E+04  0.38523983511E+04 0.  0.
        2    1    3    3  502    0 -0.16114668383E+04 -0.47863362671E+03 -0.75191774564E+03  0.18415471256E+04  0.25500000920E-02 0.  1.
       -2    1    3    3    0  502  0.16114668383E+04  0.47863362671E+03  0.11382919551E+04  0.20301783405E+04  0.25500000920E-02 0. -1.
</event>
<event>
 5   0  0.1214844E-06  0.3781701E+04  0.7818609E-02  0.8050093E-01
       -2   -1    0    0    0  501  0.00000000000E+00  0.00000000000E+00  0.18631906302E+04  0.18631906302E+04  0.25500000920E-02 0.  1.
        2   -1    0    0  501    0  0.00000000000E+00  0.00000000000E+00 -0.19189211345E+04  0.19189211345E+04  0.25500000920E-02 0. -1.
    10030    2    1    2    0    0  0.00000000000E+00  0.00000000000E+00 -0.55730504353E+02  0.37821117647E+04  0.37817011399E+04 0.  0.
        4    1    3    3  502    0  0.17454035264E+04 -0.38525228513E+03  0.58901731256E+03  0.18819659404E+04  0.12699999809E+01 0.  1.
       -4    1    3    3    0  502 -0.17454035264E+04  0.38525228513E+03 -0.64474781692E+03  0.19001458243E+04  0.12699999809E+01 0. -1.
</event>
<event>
 5   0  0.1214844E-06  0.3725399E+04  0.7818609E-02  0.8062356E-01
       -2   -1    0    0    0  501  0.00000000000E+00  0.00000000000E+00  0.18984946127E+04  0.18984946127E+04  0.25500000920E-02 0.  1.
        2   -1    0    0  501    0  0.00000000000E+00  0.00000000000E+00 -0.18275796077E+04  0.18275796077E+04  0.25500000920E-02 0. -1.
    10030    2    1    2    0    0  0.00000000000E+00  0.00000000000E+00  0.70915005035E+02  0.37260742204E+04  0.37253993287E+04 0.  0.
        4    1    3    3  502    0 -0.11098772292E+04 -0.96919638129E+03  0.11751723106E+04  0.18847282727E+04  0.12699999809E+01 0.  1.
       -4    1    3    3    0  502  0.11098772292E+04  0.96919638129E+03 -0.11042573055E+04  0.18413459477E+04  0.12699999809E+01 0. -1.
</event>
<event>
 5   0  0.1214844E-06  0.3798912E+04  0.7818609E-02  0.8046388E-01
       -2   -1    0    0    0  501  0.00000000000E+00  0.00000000000E+00  0.29006840009E+04  0.29006840009E+04  0.25500000920E-02 0. -1.
        2   -1    0    0  501    0  0.00000000000E+00  0.00000000000E+00 -0.12438213296E+04  0.12438213296E+04  0.25500000920E-02 0.  1.
    10030    2    1    2    0    0  0.00000000000E+00  0.00000000000E+00  0.16568626713E+04  0.41445053305E+04  0.37989117551E+04 0.  0.
        4    1    3    3  502    0 -0.14967537211E+04  0.13471078765E+03  0.20957969619E+04  0.25789116341E+04  0.12699999809E+01 0. -1.
       -4    1    3    3    0  502  0.14967537211E+04 -0.13471078765E+03 -0.43893429062E+03  0.15655936964E+04  0.12699999809E+01 0.  1.
</event>
<event>
 5   0  0.5284458E-07  0.3658742E+04  0.7818609E-02  0.8077167E-01
       -1   -1    0    0    0  501  0.00000000000E+00  0.00000000000E+00  0.22327132095E+04  0.22327132095E+04  0.50400001928E-02 0. -1.
        1   -1    0    0  501    0  0.00000000000E+00  0.00000000000E+00 -0.14988927145E+04  0.14988927146E+04  0.50400001928E-02 0.  1.
    10030    2    1    2    0    0  0.00000000000E+00  0.00000000000E+00  0.73382049497E+03  0.37316059241E+04  0.36587416216E+04 0.  0.
        5    1    3    3  502    0 -0.15706275107E+03 -0.83593330770E+03 -0.12849499939E+04  0.15409645615E+04  0.46999998093E+01 0.  1.
       -5    1    3    3    0  502  0.15706275107E+03  0.83593330770E+03  0.20187704889E+04  0.21906413626E+04  0.46999998093E+01 0. -1.
</event>
<event>
 5   0  0.1341932E-06  0.3719358E+04  0.7818609E-02  0.8063685E-01
       -2   -1    0    0    0  501  0.00000000000E+00  0.00000000000E+00  0.22518216753E+04  0.22518216753E+04  0.25500000920E-02 0.  1.
        2   -1    0    0  501    0  0.00000000000E+00  0.00000000000E+00 -0.15358257025E+04  0.15358257025E+04  0.25500000920E-02 0. -1.
    10030    2    1    2    0    0  0.00000000000E+00  0.00000000000E+00  0.71599597284E+03  0.37876473778E+04  0.37193577974E+04 0.  0.
        2    1    3    3  502    0  0.96792301675E+03  0.24695094762E+03  0.19554113530E+04  0.21957899026E+04  0.25500000920E-02 0.  1.
       -2    1    3    3    0  502 -0.96792301675E+03 -0.24695094762E+03 -0.12394153801E+04  0.15918574752E+04  0.25500000920E-02 0. -1.
</event>
<event>
 5   0  0.4255250E-07  0.2507080E+04  0.7818609E-02  0.8400468E-01
        1   -1    0    0  501    0  0.00000000000E+00  0.00000000000E+00  0.14712516284E+04  0.14712516284E+04  0.50400001928E-02 0. -1.
       -1   -1    0    0    0  501  0.00000000000E+00  0.00000000000E+00 -0.10680446607E+04  0.10680446607E+04  0.50400001928E-02 0.  1.
    10030    2    1    2    0    0  0.00000000000E+00  0.00000000000E+00  0.40320696771E+03  0.25392962891E+04  0.25070799319E+04 0.  0.
        2    1    3    3  502    0  0.48510703043E+03  0.11523852649E+04  0.11077495547E+03  0.12552257647E+04  0.25500000920E-02 0.  1.
       -2    1    3    3    0  502 -0.48510703043E+03 -0.11523852649E+04  0.29243201224E+03  0.12840705243E+04  0.25500000920E-02 0. -1.
</event>
<event>
 5   0  0.4255250E-07  0.3768941E+04  0.7818609E-02  0.8052853E-01
       -1   -1    0    0    0  501  0.00000000000E+00  0.00000000000E+00  0.33469690883E+04  0.33469690883E+04  0.50400001928E-02 0. -1.
        1   -1    0    0  501    0  0.00000000000E+00  0.00000000000E+00 -0.10610284455E+04  0.10610284455E+04  0.50400001928E-02 0.  1.
    10030    2    1    2    0    0  0.00000000000E+00  0.00000000000E+00  0.22859406429E+04  0.44079975338E+04  0.37689411823E+04 0.  0.
        2    1    3    3  502    0  0.13637836735E+04 -0.61413053616E+03 -0.19777809364E+03  0.15087008974E+04  0.25500000920E-02 0.  1.
       -2    1    3    3    0  502 -0.13637836735E+04  0.61413053616E+03  0.24837187365E+04  0.28992966364E+04  0.25500000920E-02 0. -1.
</event>
<event>
 5   0  0.4795023E-07  0.3124917E+04  0.7818609E-02  0.8208933E-01
       -1   -1    0    0    0  501  0.00000000000E+00  0.00000000000E+00  0.13643245973E+04  0.13643245973E+04  0.50400001928E-02 0.  1.
        1   -1    0    0  501    0  0.00000000000E+00  0.00000000000E+00 -0.17893666880E+04  0.17893666880E+04  0.50400001928E-02 0. -1.
    10030    2    1    2    0    0  0.00000000000E+00  0.00000000000E+00 -0.42504209068E+03  0.31536912854E+04  0.31249172700E+04 0.  0.
        3    1    3    3  502    0  0.99982509411E+03 -0.11590059206E+04 -0.52898785082E+03  0.16194977923E+04  0.10100000352E+00 0.  1.
       -3    1    3    3    0  502 -0.99982509411E+03  0.11590059206E+04  0.10394576014E+03  0.15341934930E+04  0.10100000352E+00 0. -1.
</event>
<event>
 5   0  0.1341932E-06  0.3680600E+04  0.7818609E-02  0.8072275E-01
        2   -1    0    0  501    0  0.00000000000E+00  0.00000000000E+00  0.30980364832E+04  0.30980364832E+04  0.25500000920E-02 0. -1.
       -2   -1    0    0    0  501  0.00000000000E+00  0.00000000000E+00 -0.10931777702E+04  0.10931777702E+04  0.25500000920E-02 0.  1.
    10030    2    1    2    0    0  0.00000000000E+00  0.00000000000E+00  0.20048587130E+04  0.41912142534E+04  0.36806002852E+04 0.  0.
        2    1    3    3  502    0 -0.10792214763E+04 -0.79126773071E+03 -0.43610904174E+03  0.14074852443E+04  0.25500000920E-02 0.  1.
       -2    1    3    3    0  502  0.10792214763E+04  0.79126773071E+03  0.24409677547E+04  0.27837290091E+04  0.25500000920E-02 0. -1.
</event>
<event>
 5   0  0.1214844E-06  0.3655620E+04  0.7818609E-02  0.8077869E-01
       -2   -1    0    0    0  501  0.00000000000E+00  0.00000000000E+00  0.13444089915E+04  0.13444089915E+04  0.25500000920E-02 0.  1.
        2   -1    0    0  501    0  0.00000000000E+00  0.00000000000E+00 -0.24850252091E+04  0.24850252091E+04  0.25500000920E-02 0. -1.
    10030    2    1    2    0    0  0.00000000000E+00  0.00000000000E+00 -0.11406162176E+04  0.38294342007E+04  0.36556204592E+04 0.  0.
        4    1    3    3  502    0 -0.73061204370E+02  0.14999353243E+04 -0.16618423716E+04  0.22398360649E+04  0.12699999809E+01 0. -1.
       -4    1    3    3    0  502  0.73061204370E+02 -0.14999353243E+04  0.52122615399E+03  0.15895981358E+04  0.12699999809E+01 0.  1.
</event>
<event>
 5   0  0.4795023E-07  0.2208601E+04  0.7818609E-02  0.8514857E-01
        1   -1    0    0  501    0  0.00000000000E+00  0.00000000000E+00  0.75716481832E+03  0.75716481833E+03  0.50400001928E-02 0.  1.
       -1   -1    0    0    0  501  0.00000000000E+00  0.00000000000E+00 -0.16105867974E+04  0.16105867974E+04  0.50400001928E-02 0. -1.
    10030    2    1    2    0    0  0.00000000000E+00  0.00000000000E+00 -0.85342197905E+03  0.23677516157E+04  0.22086010594E+04 0.  0.
        3    1    3    3  502    0  0.48795644578E+02  0.11030924612E+04 -0.44483027918E+03  0.11904066449E+04  0.10100000352E+00 0. -1.
       -3    1    3    3    0  502 -0.48795644578E+02 -0.11030924612E+04 -0.40859169986E+03  0.11773449708E+04  0.10100000352E+00 0.  1.
</event>
<event>
 5   0  0.1372748E-06  0.4044189E+04  0.7818609E-02  0.7995691E-01
       -2   -1    0    0    0  501  0.00000000000E+00  0.00000000000E+00  0.17318432823E+04  0.17318432823E+04  0.25500000920E-02 0. -1.
        2   -1    0    0  501    0  0.00000000000E+00  0.00000000000E+00 -0.23609911430E+04  0.23609911430E+04  0.25500000920E-02 0.  1.
    10030    2    1    2    0    0  0.00000000000E+00  0.00000000000E+00 -0.62914786069E+03  0.40928344252E+04  0.40441892391E+04 0.  0.
        1    1    3    3  502    0  0.78569620701E+03 -0.80972860887E+03 -0.20128190370E+04  0.23074703520E+04  0.50400001928E-02 0.  1.
       -1    1    3    3    0  502 -0.78569620701E+03  0.80972860887E+03  0.13836711763E+04  0.17853640732E+04  0.50400001928E-02 0. -1.
</event>
<event>
 5   0  0.4255250E-07  0.3836629E+04  0.7818609E-02  0.8038340E-01
        1   -1    0    0  501    0  0.00000000000E+00  0.00000000000E+00  0.25629287921E+04  0.25629287921E+04  0.50400001928E-02 0. -1.
       -1   -1    0    0    0  501  0.00000000000E+00  0.00000000000E+00 -0.14358298768E+04  0.14358298768E+04  0.50400001928E-02 0.  1.
    10030    2    1    2    0    0  0.00000000000E+00  0.00000000000E+00  0.11270989153E+04  0.39987586689E+04  0.38366285886E+04 0.  0.
        2    1    3    3  502    0 -0.46851821702E+03  0.13689225464E+04  0.18763283032E+04  0.23694020679E+04  0.25500000920E-02 0. -1.
       -2    1    3    3    0  502  0.46851821702E+03 -0.13689225464E+04 -0.74922938789E+03  0.16293566010E+04  0.25500000920E-02 0.  1.
</event>
<event>
 5   0  0.4795023E-07  0.1928673E+04  0.7818609E-02  0.8640714E-01
       -1   -1    0    0    0  501  0.00000000000E+00  0.00000000000E+00  0.96629181586E+03  0.96629181587E+03  0.50400001928E-02 0. -1.
        1   -1    0    0  501    0  0.00000000000E+00  0.00000000000E+00 -0.96238492541E+03  0.96238492542E+03  0.50400001928E-02 0.  1.
    10030    2    1    2    0    0  0.00000000000E+00  0.00000000000E+00  0.39068904445E+01  0.19286767413E+04  0.19286727842E+04 0.  0.
        3    1    3    3  502    0 -0.60533129180E+03  0.65045584844E+03  0.37668863114E+03  0.96509746588E+03  0.10100000352E+00 0.  1.
       -3    1    3    3    0  502  0.60533129180E+03 -0.65045584844E+03 -0.37278174070E+03  0.96357927541E+03  0.10100000352E+00 0. -1.
</event>
<event>
 5   0  0.4795023E-07  0.3655242E+04  0.7818609E-02  0.8077954E-01
        1   -1    0    0  501    0  0.00000000000E+00  0.00000000000E+00  0.25402296354E+04  0.25402296355E+04  0.50400001928E-02 0. -1.
       -1   -1    0    0    0  501  0.00000000000E+00  0.00000000000E+00 -0.13149198171E+04  0.13149198171E+04  0.50400001928E-02 0.  1.
    10030    2    1    2    0    0  0.00000000000E+00  0.00000000000E+00  0.12253098184E+04  0.38551494525E+04  0.36552418730E+04 0.  0.
        3    1    3    3  502    0 -0.13581063126E+04  0.11377416810E+04  0.10858448885E+04  0.20779720934E+04  0.10100000352E+00 0. -1.
       -3    1    3    3    0  502  0.13581063126E+04 -0.11377416810E+04  0.13946492992E+03  0.17771773591E+04  0.10100000352E+00 0.  1.
</event>
<event>
 5   0  0.4795023E-07  0.3786696E+04  0.7818609E-02  0.8049016E-01
       -1   -1    0    0    0  501  0.00000000000E+00  0.00000000000E+00  0.24384710103E+04  0.24384710103E+04  0.50400001928E-02 0. -1.
        1   -1    0    0  501    0  0.00000000000E+00  0.00000000000E+00 -0.14700878161E+04  0.14700878161E+04  0.50400001928E-02 0.  1.
    10030    2    1    2    0    0  0.00000000000E+00  0.00000000000E+00  0.96838319415E+03  0.39085588264E+04  0.37866959329E+04 0.  0.
        3    1    3    3  502    0 -0.13599545771E+04 -0.94855714834E+03 -0.45929793639E+03  0.17205207700E+04  0.10100000352E+00 0.  1.
       -3    1    3    3    0  502  0.13599545771E+04  0.94855714834E+03  0.14276811305E+04  0.21880380564E+04  0.10100000352E+00 0. -1.
</event>
<event>
 5   0  0.4795023E-07  0.1962610E+04  0.7818609E-02  0.8624304E-01
       -1   -1    0    0    0  501  0.00000000000E+00  0.00000000000E+00  0.53772202998E+03  0.53772203000E+03  0.50400001928E-02 0. -1.
        1   -1    0    0  501    0  0.00000000000E+00  0.00000000000E+00 -0.17908124116E+04  0.17908124116E+04  0.50400001928E-02 0.  1.
    10030    2    1    2    0    0  0.00000000000E+00  0.00000000000E+00 -0.12530903816E+04  0.23285344416E+04  0.19626097781E+04 0.  0.
        3    1    3    3  502    0  0.12700113119E+03  0.52860414668E+03 -0.15958141304E+04  0.16858749599E+04  0.10100000352E+00 0.  1.
       -3    1    3    3    0  502 -0.12700113119E+03 -0.52860414668E+03  0.34272374884E+03  0.64265948171E+03  0.10100000352E+00 0. -1.
</event>
<event>
 5   0  0.4255250E-07  0.3772726E+04  0.7818609E-02  0.8052033E-01
        1   -1    0    0  501    0  0.00000000000E+00  0.00000000000E+00  0.17076571525E+04  0.17076571525E+04  0.50400001928E-02 0. -1.
       -1   -1    0    0    0  501  0.00000000000E+00  0.00000000000E+00 -0.20837709039E+04  0.20837709039E+04  0.50400001928E-02 0.  1.
    10030    2    1    2    0    0  0.00000000000E+00  0.00000000000E+00 -0.37611375144E+03  0.37914280564E+04  0.37727264879E+04 0.  0.
        2    1    3    3  502    0 -0.17170582724E+04  0.48687892690E+03  0.42572929780E+03  0.18348257779E+04  0.25500000920E-02 0.  1.
       -2    1    3    3    0  502  0.17170582724E+04 -0.48687892690E+03 -0.80184304925E+03  0.19566022784E+04  0.25500000920E-02 0. -1.
</event>
<event>
 5   0  0.8030324E-07  0.3787003E+04  0.7818609E-02  0.8048950E-01
       -1   -1    0    0    0  501  0.00000000000E+00  0.00000000000E+00  0.29089854253E+04  0.29089854253E+04  0.50400001928E-02 0.  1.
        1   -1    0    0  501    0  0.00000000000E+00  0.00000000000E+00 -0.12325080781E+04  0.12325080781E+04  0.50400001928E-02 0. -1.
    10030    2    1    2    0    0  0.00000000000E+00  0.00000000000E+00  0.16764773473E+04  0.41414935034E+04  0.37870030555E+04 0.  0.
        1    1    3    3  502    0 -0.13865294119E+04 -0.20341282968E+03 -0.55434340732E+03  0.15070292640E+04  0.50400001928E-02 0. -1.
       -1    1    3    3    0  502  0.13865294119E+04  0.20341282968E+03  0.22308207546E+04  0.26344642394E+04  0.50400001928E-02 0.  1.
</event>
<event>
 5   0  0.1341932E-06  0.3685081E+04  0.7818609E-02  0.8071276E-01
       -2   -1    0    0    0  501  0.00000000000E+00  0.00000000000E+00  0.17082580064E+04  0.17082580064E+04  0.25500000920E-02 0. -1.
        2   -1    0    0  501    0  0.00000000000E+00  0.00000000000E+00 -0.19873790937E+04  0.19873790937E+04  0.25500000920E-02 0.  1.
    10030    2    1    2    0    0  0.00000000000E+00  0.00000000000E+00 -0.27912108727E+03  0.36956371001E+04  0.36850814095E+04 0.  0.
        2    1    3    3  502    0  0.48724824879E+03 -0.64137265356E+03  0.15223484826E+04  0.17222992304E+04  0.25500000920E-02 0. -1.
       -2    1    3    3    0  502 -0.48724824879E+03  0.64137265356E+03 -0.18014695699E+04  0.19733378697E+04  0.25500000920E-02 0.  1.
</event>
<event>
 5   0  0.4255250E-07  0.4149941E+04  0.7818609E-02  0.7974963E-01
       -1   -1    0    0    0  501  0.00000000000E+00  0.00000000000E+00  0.17927275902E+04  0.17927275902E+04  0.50400001928E-02 0. -1.
        1   -1    0    0  501    0  0.00000000000E+00  0.00000000000E+00 -0.24016489133E+04  0.24016489134E+04  0.50400001928E-02 0.  1.
    10030    2    1    2    0    0  0.00000000000E+00  0.00000000000E+00 -0.60892132311E+03  0.41943765036E+04  0.41499408521E+04 0.  0.
        2    1    3    3  502    0  0.85261313968E+03  0.73053910067E+02  0.16060750236E+04  0.18198249974E+04  0.25500000920E-02 0. -1.
       -2    1    3    3    0  502 -0.85261313968E+03 -0.73053910067E+02 -0.22149963467E+04  0.23745515062E+04  0.25500000920E-02 0.  1.
</event>
<event>
 5   0  0.1372748E-06  0.3775376E+04  0.7818609E-02  0.8051460E-01
        2   -1    0    0  501    0  0.00000000000E+00  0.00000000000E+00  0.21352147122E+04  0.21352147122E+04  0.25500000920E-02 0.  1.
       -2   -1    0    0    0  501  0.00000000000E+00  0.00000000000E+00 -0.16688558224E+04  0.16688558224E+04  0.25500000920E-02 0. -1.
    10030    2    1    2    0    0  0.00000000000E+00  0.00000000000E+00  0.46635888986E+03  0.38040705346E+04  0.37753757452E+04 0.  0.
        1    1    3    3  502    0  0.71148047707E+03  0.12883415521E+02 -0.15285359421E+04  0.16860582961E+04  0.50400001928E-02 0. -1.
       -1    1    3    3    0  502 -0.71148047707E+03 -0.12883415521E+02  0.19948948319E+04  0.21180122384E+04  0.50400001928E-02 0.  1.
</event>
<event>
 5   0  0.1372748E-06  0.2013854E+04  0.7818609E-02  0.8600171E-01
       -2   -1    0    0    0  501  0.00000000000E+00  0.00000000000E+00  0.98178424047E+03  0.98178424048E+03  0.25500000920E-02 0. -1.
        2   -1    0    0  501    0  0.00000000000E+00  0.00000000000E+00 -0.10327139671E+04  0.10327139671E+04  0.25500000920E-02 0.  1.
    10030    2    1    2    0    0  0.00000000000E+00  0.00000000000E+00 -0.50929726598E+02  0.20144982076E+04  0.20138543123E+04 0.  0.
        1    1    3    3  502    0 -0.41194823546E+03  0.79006711128E+03  0.44372125158E+03  0.99538733072E+03  0.50400001928E-02 0. -1.
       -1    1    3    3    0  502  0.41194823546E+03 -0.79006711128E+03 -0.49465097818E+03  0.10191108768E+04  0.50400001928E-02 0.  1.
</event>
<event>
 5   0  0.1341932E-06  0.3727564E+04  0.7818609E-02  0.8061881E-01
       -2   -1    0    0    0  501  0.00000000000E+00  0.00000000000E+00  0.13618775727E+04  0.13618775727E+04  0.25500000920E-02 0. -1.
        2   -1    0    0  501    0  0.00000000000E+00  0.00000000000E+00 -0.25506577479E+04  0.25506577479E+04  0.25500000920E-02 0.  1.
    10030    2    1    2    0    0  0.00000000000E+00  0.00000000000E+00 -0.11887801752E+04  0.39125353206E+04  0.37275641283E+04 0.  0.
        2    1    3    3  502    0 -0.28704104022E+03 -0.17365515388E+04 -0.12377323118E+04  0.21517400125E+04  0.25500000920E-02 0.  1.
       -2    1    3    3    0  502  0.28704104022E+03  0.17365515388E+04  0.48952136650E+02  0.17607953082E+04  0.25500000920E-02 0. -1.
</event>
<event>
 5   0  0.1184616E-06  0.3835254E+04  0.7818609E-02  0.8038632E-01
       -2   -1    0    0    0  501  0.00000000000E+00  0.00000000000E+00  0.12045817347E+04  0.12045817347E+04  0.25500000920E-02 0.  1.
        2   -1    0    0  501    0  0.00000000000E+00  0.00000000000E+00 -0.30527551085E+04  0.30527551085E+04  0.25500000920E-02 0. -1.
    10030    2    1    2    0    0  0.00000000000E+00  0.00000000000E+00 -0.18481733738E+04  0.42573368432E+04  0.38352538608E+04 0.  0.
        5    1    3    3  502    0 -0.19175117298E+04 -0.20468672302E+02 -0.92505056121E+03  0.21290868538E+04  0.46999998093E+01 0.  1.
       -5    1    3    3    0  502  0.19175117298E+04  0.20468672302E+02 -0.92312281257E+03  0.21282499894E+04  0.46999998093E+01 0. -1.
</event>
<event>
 5   0  0.1079205E-06  0.2338444E+04  0.7818609E-02  0.8462916E-01
        1   -1    0    0  501    0  0.00000000000E+00  0.00000000000E+00  0.15555566660E+04  0.15555566660E+04  0.50400001928E-02 0.  1.
       -1   -1    0    0    0  501  0.00000000000E+00  0.00000000000E+00 -0.87883635612E+03  0.87883635614E+03  0.50400001928E-02 0. -1.
    10030    2    1    2    0    0  0.00000000000E+00  0.00000000000E+00  0.67672030990E+03  0.24343930222E+04  0.23384437151E+04 0.  0.
        4    1    3    3  502    0 -0.47463136811E+03 -0.88442534126E+03 -0.28590717480E+03  0.10436606946E+04  0.12699999809E+01 0. -1.
       -4    1    3    3    0  502  0.47463136811E+03  0.88442534126E+03  0.96262748470E+03  0.13907323276E+04  0.12699999809E+01 0.  1.
</event>
<event>
 5   0  0.1764501E-06  0.1953461E+04  0.7818609E-02  0.8628693E-01
       -2   -1    0    0    0  501  0.00000000000E+00  0.00000000000E+00  0.47099849408E+03  0.47099849409E+03  0.25500000920E-02 0.  1.
        2   -1    0    0  501    0  0.00000000000E+00  0.00000000000E+00 -0.20254901562E+04  0.20254901562E+04  0.25500000920E-02 0. -1.
    10030    2    1    2    0    0  0.00000000000E+00  0.00000000000E+00 -0.15544916621E+04  0.24964886503E+04  0.19534613519E+04 0.  0.
        1    1    3    3  502    0 -0.22939090461E+03 -0.55171704874E+03 -0.17646811042E+04  0.18630918626E+04  0.50400001928E-02 0. -1.
       -1    1    3    3    0  502  0.22939090461E+03  0.55171704874E+03  0.21018944212E+03  0.63339678764E+03  0.50400001928E-02 0.  1.
</event>
<event>
 5   0  0.4795023E-07  0.3169906E+04  0.7818609E-02  0.8196810E-01
       -1   -1    0    0    0  501  0.00000000000E+00  0.00000000000E+00  0.15375488787E+04  0.15375488787E+04  0.50400001928E-02 0.  1.
        1   -1    0    0  501    0  0.00000000000E+00  0.00000000000E+00 -0.16338187145E+04  0.16338187145E+04  0.50400001928E-02 0. -1.
    10030    2    1    2    0    0  0.00000000000E+00  0.00000000000E+00 -0.96269835811E+02  0.31713675933E+04  0.31699060760E+04 0.  0.
        3    1    3    3  502    0 -0.20989093234E+03 -0.68513861150E+03 -0.14625077057E+04  0.16286184083E+04  0.10100000352E+00 0. -1.
       -3    1    3    3    0  502  0.20989093234E+03  0.68513861150E+03  0.13662378699E+04  0.15427491850E+04  0.10100000352E+00 0.  1.
</event>
<event>
 5   0  0.4255250E-07  0.3749771E+04  0.7818609E-02  0.8057021E-01
       -1   -1    0    0    0  501  0.00000000000E+00  0.00000000000E+00  0.12078087636E+04  0.12078087636E+04  0.50400001928E-02 0.  1.
        1   -1    0    0  501    0  0.00000000000E+00  0.00000000000E+00 -0.29103902478E+04  0.29103902478E+04  0.50400001928E-02 0. -1.
    10030    2    1    2    0    0  0.00000000000E+00  0.00000000000E+00 -0.17025814842E+04  0.41181990114E+04  0.37497705779E+04 0.  0.
        2    1    3    3  502    0 -0.43402917217E+03  0.21157876927E+03 -0.28409334460E+04  0.28816748156E+04  0.25500000920E-02 0. -1.
       -2    1    3    3    0  502  0.43402917217E+03 -0.21157876927E+03  0.11383519618E+04  0.12365241958E+04  0.25500000920E-02 0.  1.
</event>
<event>
 5   0  0.4795023E-07  0.1993006E+04  0.7818609E-02  0.8609898E-01
       -1   -1    0    0    0  501  0.00000000000E+00  0.00000000000E+00  0.96730022780E+03  0.96730022781E+03  0.50400001928E-02 0. -1.
        1   -1    0    0  501    0  0.00000000000E+00  0.00000000000E+00 -0.10265871373E+04  0.10265871373E+04  0.50400001928E-02 0.  1.
    10030    2    1    2    0    0  0.00000000000E+00  0.00000000000E+00 -0.59286909532E+02  0.19938873652E+04  0.19930057419E+04 0.  0.
        3    1    3    3  502    0  0.21914680302E+03  0.92387335371E+02  0.93849181661E+03  0.96815682668E+03  0.10100000352E+00 0. -1.
       -3    1    3    3    0  502 -0.21914680302E+03 -0.92387335371E+02 -0.99777872614E+03  0.10257305385E+04  0.10100000352E+00 0.  1.
</event>
<event>
 5   0  0.4255250E-07  0.3168409E+04  0.7818609E-02  0.8197210E-01
       -1   -1    0    0    0  501  0.00000000000E+00  0.00000000000E+00  0.23556972043E+04  0.23556972043E+04  0.50400001928E-02 0. -1.
        1   -1    0    0  501    0  0.00000000000E+00  0.00000000000E+00 -0.10653762000E+04  0.10653762000E+04  0.50400001928E-02 0.  1.
    10030    2    1    2    0    0  0.00000000000E+00  0.00000000000E+00  0.12903210043E+04  0.34210734043E+04  0.31684088978E+04 0.  0.
        2    1    3    3  502    0  0.27652334197E+03  0.43532776885E+03  0.22625190286E+04  0.23205533348E+04  0.25500000920E-02 0. -1.
       -2    1    3    3    0  502 -0.27652334197E+03 -0.43532776885E+03 -0.97219802431E+03  0.11005200695E+04  0.25500000920E-02 0.  1.
</event>
<event>
 5   0  0.1372748E-06  0.3829296E+04  0.7818609E-02  0.8039897E-01
        2   -1    0    0  501    0  0.00000000000E+00  0.00000000000E+00  0.12336573818E+04  0.12336573818E+04  0.25500000920E-02 0. -1.
       -2   -1    0    0    0  501  0.00000000000E+00  0.00000000000E+00 -0.29715520175E+04  0.29715520175E+04  0.25500000920E-02 0.  1.
    10030    2    1    2    0    0  0.00000000000E+00  0.00000000000E+00 -0.17378946357E+04  0.42052093993E+04  0.38292960615E+04 0.  0.
        1    1    3    3  502    0 -0.15680586224E+03 -0.14123868547E+04 -0.22780520325E+04  0.26849480010E+04  0.50400001928E-02 0.  1.
       -1    1    3    3    0  502  0.15680586224E+03  0.14123868547E+04  0.54015739674E+03  0.15202613982E+04  0.50400001928E-02 0. -1.
</event>
<event>
 5   0  0.1337854E-06  0.3230790E+04  0.7818609E-02  0.8180733E-01
        2   -1    0    0  501    0  0.00000000000E+00  0.00000000000E+00  0.11185855324E+04  0.11185855324E+04  0.25500000920E-02 0.  1.
       -2   -1    0    0    0  501  0.00000000000E+00  0.00000000000E+00 -0.23328576731E+04  0.23328576731E+04  0.25500000920E-02 0. -1.
    10030    2    1    2    0    0  0.00000000000E+00  0.00000000000E+00 -0.12142721407E+04  0.34514432055E+04  0.32307898987E+04 0.  0.
        3    1    3    3  502    0  0.58132084053E+02 -0.87292500953E+03  0.84359531494E+03  0.12153314268E+04  0.10100000352E+00 0.  1.
       -3    1    3    3    0  502 -0.58132084053E+02  0.87292500953E+03 -0.20578674557E+04  0.22361117787E+04  0.10100000352E+00 0. -1.
</event>
<event>
 5   0  0.4795023E-07  0.3789638E+04  0.7818609E-02  0.8048382E-01
       -1   -1    0    0    0  501  0.00000000000E+00  0.00000000000E+00  0.24585638075E+04  0.24585638075E+04  0.50400001928E-02 0. -1.
        1   -1    0    0  501    0  0.00000000000E+00  0.00000000000E+00 -0.14603400065E+04  0.14603400065E+04  0.50400001928E-02 0.  1.
    10030    2    1    2    0    0  0.00000000000E+00  0.00000000000E+00  0.99822380108E+03  0.39189038140E+04  0.37896380231E+04 0.  0.
        3    1    3    3  502    0 -0.85044994925E+02 -0.51754213782E+03 -0.13837802573E+04  0.14798413179E+04  0.10100000352E+00 0.  1.
       -3    1    3    3    0  502  0.85044994925E+02  0.51754213782E+03  0.23820040584E+04  0.24390624961E+04  0.10100000352E+00 0. -1.
</event>
<event>
 5   0  0.4255250E-07  0.2427578E+04  0.7818609E-02  0.8429250E-01
        1   -1    0    0  501    0  0.00000000000E+00  0.00000000000E+00  0.14267122065E+04  0.14267122065E+04  0.50400001928E-02 0. -1.
       -1   -1    0    0    0  501  0.00000000000E+00  0.00000000000E+00 -0.10326425093E+04  0.10326425093E+04  0.50400001928E-02 0.  1.
    10030    2    1    2    0    0  0.00000000000E+00  0.00000000000E+00  0.39406969719E+03  0.24593547158E+04  0.24275779476E+04 0.  0.
        2    1    3    3  502    0  0.83934375314E+03 -0.68338577745E+03 -0.35949151659E+03  0.11405034885E+04  0.25500000920E-02 0.  1.
       -2    1    3    3    0  502 -0.83934375314E+03  0.68338577745E+03  0.75356121378E+03  0.13188512273E+04  0.25500000920E-02 0. -1.
</event>
<event>
 5   0  0.4795023E-07  0.3787711E+04  0.7818609E-02  0.8048797E-01
       -1   -1    0    0    0  501  0.00000000000E+00  0.00000000000E+00  0.33980221602E+04  0.33980221602E+04  0.50400001928E-02 0. -1.
        1   -1    0    0  501    0  0.00000000000E+00  0.00000000000E+00 -0.10555221859E+04  0.10555221859E+04  0.50400001928E-02 0.  1.
    10030    2    1    2    0    0  0.00000000000E+00  0.00000000000E+00  0.23424999743E+04  0.44535443461E+04  0.37877105372E+04 0.  0.
        3    1    3    3  502    0 -0.13647004162E+04  0.91396682935E+03  0.62671393951E+02  0.16436758515E+04  0.10100000352E+00 0.  1.
       -3    1    3    3    0  502  0.13647004162E+04 -0.91396682935E+03  0.22798285804E+04  0.28098684946E+04  0.10100000352E+00 0. -1.
</event>
<event>
 5   0  0.4255250E-07  0.3067357E+04  0.7818609E-02  0.8224754E-01
       -1   -1    0    0    0  501  0.00000000000E+00  0.00000000000E+00  0.13412467500E+04  0.13412467500E+04  0.50400001928E-02 0. -1.
        1   -1    0    0  501    0  0.00000000000E+00  0.00000000000E+00 -0.17537191796E+04  0.17537191796E+04  0.50400001928E-02 0.  1.
    10030    2    1    2    0    0  0.00000000000E+00  0.00000000000E+00 -0.41247242958E+03  0.30949659296E+04  0.30673572665E+04 0.  0.
        2    1    3    3  502    0  0.52070006296E+03  0.35828425383E+03  0.12037224480E+04  0.13595748946E+04  0.25500000920E-02 0. -1.
       -2    1    3    3    0  502 -0.52070006296E+03 -0.35828425383E+03 -0.16161948776E+04  0.17353910350E+04  0.25500000920E-02 0.  1.
</event>
<event>
 5   0  0.5284458E-07  0.3849043E+04  0.7818609E-02  0.8035711E-01
       -1   -1    0    0    0  501  0.00000000000E+00  0.00000000000E+00  0.19765054864E+04  0.19765054864E+04  0.50400001928E-02 0.  1.
        1   -1    0    0  501    0  0.00000000000E+00  0.00000000000E+00 -0.18739052080E+04  0.18739052080E+04  0.50400001928E-02 0. -1.
    10030    2    1    2    0    0  0.00000000000E+00  0.00000000000E+00  0.10260027844E+03  0.38504106944E+04  0.38490434784E+04 0.  0.
        5    1    3    3  502    0 -0.13385742043E+04  0.87333700613E+03  0.11237179734E+04  0.19537816153E+04  0.46999998093E+01 0.  1.
       -5    1    3    3    0  502  0.13385742043E+04 -0.87333700613E+03 -0.10211176950E+04  0.18966290791E+04  0.46999998093E+01 0. -1.
</event>
<event>
 5   0  0.1372748E-06  0.2437092E+04  0.7818609E-02  0.8425746E-01
       -2   -1    0    0    0  501  0.00000000000E+00  0.00000000000E+00  0.93937712359E+03  0.93937712359E+03  0.25500000920E-02 0. -1.
        2   -1    0    0  501    0  0.00000000000E+00  0.00000000000E+00 -0.15806802447E+04  0.15806802447E+04  0.25500000920E-02 0.  1.
    10030    2    1    2    0    0  0.00000000000E+00  0.00000000000E+00 -0.64130312107E+03  0.25200573682E+04  0.24370924164E+04 0.  0.
        1    1    3    3  502    0 -0.53532629312E+03 -0.29140637089E+03  0.77042898293E+03  0.98237097415E+03  0.50400001928E-02 0. -1.
       -1    1    3    3    0  502  0.53532629312E+03  0.29140637089E+03 -0.14117321040E+04  0.15376863941E+04  0.50400001928E-02 0.  1.
</event>
<event>
 5   0  0.1341932E-06  0.3690544E+04  0.7818609E-02  0.8070061E-01
       -2   -1    0    0    0  501  0.00000000000E+00  0.00000000000E+00  0.10881938870E+04  0.10881938870E+04  0.25500000920E-02 0. -1.
        2   -1    0    0  501    0  0.00000000000E+00  0.00000000000E+00 -0.31290639375E+04  0.31290639375E+04  0.25500000920E-02 0.  1.
    10030    2    1    2    0    0  0.00000000000E+00  0.00000000000E+00 -0.20408700505E+04  0.42172578245E+04  0.36905437262E+04 0.  0.
        2    1    3    3  502    0 -0.11561481801E+04  0.22108754718E+03 -0.26443320755E+04  0.28944862140E+04  0.25500000920E-02 0.  1.
       -2    1    3    3    0  502  0.11561481801E+04 -0.22108754718E+03  0.60346202496E+03  0.13227716104E+04  0.25500000920E-02 0. -1.
</event>
<event>
 5   0  0.4255250E-07  0.3822033E+04  0.7818609E-02  0.8041443E-01
       -1   -1    0    0    0  501  0.00000000000E+00  0.00000000000E+00  0.17409559754E+04  0.17409559754E+04  0.50400001928E-02 0.  1.
        1   -1    0    0  501    0  0.00000000000E+00  0.00000000000E+00 -0.20976891242E+04  0.20976891243E+04  0.50400001928E-02 0. -1.
    10030    2    1    2    0    0  0.00000000000E+00  0.00000000000E+00 -0.35673314886E+03  0.38386450996E+04  0.38220331843E+04 0.  0.
        2    1    3    3  502    0 -0.16195145868E+04  0.85358021511E+03  0.37224769543E+03  0.18681528383E+04  0.25500000920E-02 0. -1.
       -2    1    3    3    0  502  0.16195145868E+04 -0.85358021511E+03 -0.72898084429E+03  0.19704922613E+04  0.25500000920E-02 0.  1.
</event>
<event>
 5   0  0.1337854E-06  0.3575436E+04  0.7818609E-02  0.8096142E-01
        2   -1    0    0  501    0  0.00000000000E+00  0.00000000000E+00  0.20080939724E+04  0.20080939724E+04  0.25500000920E-02 0. -1.
       -2   -1    0    0    0  501  0.00000000000E+00  0.00000000000E+00 -0.15915273646E+04  0.15915273646E+04  0.25500000920E-02 0.  1.
    10030    2    1    2    0    0  0.00000000000E+00  0.00000000000E+00  0.41656660780E+03  0.35996213370E+04  0.35754364812E+04 0.  0.
        3    1    3    3  502    0  0.15819252647E+04  0.81666856565E+03  0.44389616723E+02  0.17808440520E+04  0.10100000352E+00 0.  1.
       -3    1    3    3    0  502 -0.15819252647E+04 -0.81666856565E+03  0.37217699108E+03  0.18187772850E+04  0.10100000352E+00 0. -1.
</event>
<event>
 5   0  0.4795023E-07  0.3710403E+04  0.7818609E-02  0.8065660E-01
       -1   -1    0    0    0  501  0.00000000000E+00  0.00000000000E+00  0.19011142957E+04  0.19011142957E+04  0.50400001928E-02 0.  1.
        1   -1    0    0  501    0  0.00000000000E+00  0.00000000000E+00 -0.18103971300E+04  0.18103971300E+04  0.50400001928E-02 0. -1.
    10030    2    1    2    0    0  0.00000000000E+00  0.00000000000E+00  0.90717165742E+02  0.37115114258E+04  0.37104026007E+04 0.  0.
        3    1    3    3  502    0 -0.12878995451E+04  0.79311711141E+02  0.13787221458E+04  0.18883459300E+04  0.10100000352E+00 0.  1.
       -3    1    3    3    0  502  0.12878995451E+04 -0.79311711141E+02 -0.12880049801E+04  0.18231654957E+04  0.10100000352E+00 0. -1.
</event>
<event>
 5   0  0.1337854E-06  0.3777111E+04  0.7818609E-02  0.8051085E-01
       -2   -1    0    0    0  501  0.00000000000E+00  0.00000000000E+00  0.13182268278E+04  0.13182268278E+04  0.25500000920E-02 0.  1.
        2   -1    0    0  501    0  0.00000000000E+00  0.00000000000E+00 -0.27056364152E+04  0.27056364152E+04  0.25500000920E-02 0. -1.
    10030    2    1    2    0    0  0.00000000000E+00  0.00000000000E+00 -0.13874095875E+04  0.40238632430E+04  0.37771113347E+04 0.  0.
        3    1    3    3  502    0  0.12937430608E+04 -0.13679880072E+04 -0.84984063970E+03  0.20657665449E+04  0.10100000352E+00 0.  1.
       -3    1    3    3    0  502 -0.12937430608E+04  0.13679880072E+04 -0.53756894776E+03  0.19580966981E+04  0.10100000352E+00 0. -1.
</event>
<event>
 5   0  0.4255250E-07  0.3778851E+04  0.7818609E-02  0.8050709E-01
       -3   -1    0    0    0  501  0.00000000000E+00  0.00000000000E+00  0.13471768072E+04  0.13471768109E+04  0.10100000352E+00 0.  1.
        3   -1    0    0  501    0  0.00000000000E+00  0.00000000000E+00 -0.26499335448E+04  0.26499335468E+04  0.10100000352E+00 0. -1.
    10030    2    1    2    0    0  0.00000000000E+00  0.00000000000E+00 -0.13027567377E+04  0.39971103577E+04  0.37788511606E+04 0.  0.
        4    1    3    3  502    0  0.10598667536E+04 -0.91420762089E+03 -0.19938706180E+04  0.24361064763E+04  0.12699999809E+01 0. -1.
       -4    1    3    3    0  502 -0.10598667536E+04  0.91420762089E+03  0.69111388032E+03  0.15610038815E+04  0.12699999809E+01 0.  1.
</event>
<event>
 5   0  0.5284458E-07  0.3744545E+04  0.7818609E-02  0.8058161E-01
        1   -1    0    0  501    0  0.00000000000E+00  0.00000000000E+00  0.18730740886E+04  0.18730740886E+04  0.50400001928E-02 0. -1.
       -1   -1    0    0    0  501  0.00000000000E+00  0.00000000000E+00 -0.18714708250E+04  0.18714708250E+04  0.50400001928E-02 0.  1.
    10030    2    1    2    0    0  0.00000000000E+00  0.00000000000E+00  0.16032636433E+01  0.37445449136E+04  0.37445445704E+04 0.  0.
        5    1    3    3  502    0  0.11703507199E+04 -0.72594534149E+02  0.14603875445E+04  0.18728973928E+04  0.46999998093E+01 0. -1.
       -5    1    3    3    0  502 -0.11703507199E+04  0.72594534149E+02 -0.14587842808E+04  0.18716475208E+04  0.46999998093E+01 0.  1.
</event>
<event>
 5   0  0.1184616E-06  0.3157291E+04  0.7818609E-02  0.8200188E-01
        2   -1    0    0  501    0  0.00000000000E+00  0.00000000000E+00  0.21384599053E+04  0.21384599053E+04  0.25500000920E-02 0. -1.
       -2   -1    0    0    0  501  0.00000000000E+00  0.00000000000E+00 -0.11653813892E+04  0.11653813892E+04  0.25500000920E-02 0.  1.
    10030    2    1    2    0    0  0.00000000000E+00  0.00000000000E+00  0.97307851608E+03  0.33038412945E+04  0.31572908483E+04 0.  0.
        5    1    3    3  502    0  0.88491621936E+03  0.11610636134E+04 -0.14214187746E+03  0.14667555464E+04  0.46999998093E+01 0.  1.
       -5    1    3    3    0  502 -0.88491621936E+03 -0.11610636134E+04  0.11152203935E+04  0.18370857481E+04  0.46999998093E+01 0. -1.
</event>
<event>
 5   0  0.1372748E-06  0.2149411E+04  0.7818609E-02  0.8539784E-01
       -2   -1    0    0    0  501  0.00000000000E+00  0.00000000000E+00  0.78543578806E+03  0.78543578807E+03  0.25500000920E-02 0. -1.
        2   -1    0    0  501    0  0.00000000000E+00  0.00000000000E+00 -0.14705108844E+04  0.14705108844E+04  0.25500000920E-02 0.  1.
    10030    2    1    2    0    0  0.00000000000E+00  0.00000000000E+00 -0.68507509630E+03  0.22559466724E+04  0.21494109661E+04 0.  0.
        1    1    3    3  502    0 -0.84082337541E+03  0.17912461003E+03  0.33434835944E+03  0.92241986104E+03  0.50400001928E-02 0. -1.
       -1    1    3    3    0  502  0.84082337541E+03 -0.17912461003E+03 -0.10194234557E+04  0.13335268114E+04  0.50400001928E-02 0.  1.
</event>
<event>
 5   0  0.1372748E-06  0.2415939E+04  0.7818609E-02  0.8433560E-01
       -2   -1    0    0    0  501  0.00000000000E+00  0.00000000000E+00  0.10567925569E+04  0.10567925569E+04  0.25500000920E-02 0.  1.
        2   -1    0    0  501    0  0.00000000000E+00  0.00000000000E+00 -0.13807726949E+04  0.13807726949E+04  0.25500000920E-02 0. -1.
    10030    2    1    2    0    0  0.00000000000E+00  0.00000000000E+00 -0.32398013792E+03  0.24375652518E+04  0.24159389949E+04 0.  0.
        1    1    3    3  502    0  0.41171784336E+03  0.46320884326E+03  0.88416968376E+03  0.10797360996E+04  0.50400001928E-02 0.  1.
       -1    1    3    3    0  502 -0.41171784336E+03 -0.46320884326E+03 -0.12081498217E+04  0.13578291522E+04  0.50400001928E-02 0. -1.
</event>
<event>
 5   0  0.4255250E-07  0.3456795E+04  0.7818609E-02  0.8124106E-01
        1   -1    0    0  501    0  0.00000000000E+00  0.00000000000E+00  0.16286886621E+04  0.16286886621E+04  0.50400001928E-02 0. -1.
       -1   -1    0    0    0  501  0.00000000000E+00  0.00000000000E+00 -0.18342110233E+04  0.18342110233E+04  0.50400001928E-02 0.  1.
    10030    2    1    2    0    0  0.00000000000E+00  0.00000000000E+00 -0.20552236123E+03  0.34628996854E+04  0.34567954510E+04 0.  0.
        2    1    3    3  502    0  0.10110298690E+04 -0.10246607431E+04 -0.10611363290E+04  0.17883292043E+04  0.25500000920E-02 0.  1.
       -2    1    3    3    0  502 -0.10110298690E+04  0.10246607431E+04  0.85561396773E+03  0.16745704811E+04  0.25500000920E-02 0. -1.
</event>
<event>
 5   0  0.1184616E-06  0.3763145E+04  0.7818609E-02  0.8054111E-01
        2   -1    0    0  501    0  0.00000000000E+00  0.00000000000E+00  0.24057076363E+04  0.24057076363E+04  0.25500000920E-02 0.  1.
       -2   -1    0    0    0  501  0.00000000000E+00  0.00000000000E+00 -0.14716311990E+04  0.14716311990E+04  0.25500000920E-02 0. -1.
    10030    2    1    2    0    0  0.00000000000E+00  0.00000000000E+00  0.93407643727E+03  0.38773388354E+04  0.37631446496E+04 0.  0.
        5    1    3    3  502    0  0.16485813014E+04  0.71579172509E+03  0.10408159445E+04  0.20768962471E+04  0.46999998093E+01 0.  1.
       -5    1    3    3    0  502 -0.16485813014E+04 -0.71579172509E+03 -0.10673950720E+03  0.18004425882E+04  0.46999998093E+01 0. -1.
</event>
<event>
 5   0  0.1341932E-06  0.3942461E+04  0.7818609E-02  0.8016256E-01
        2   -1    0    0  501    0  0.00000000000E+00  0.00000000000E+00  0.16427062291E+04  0.16427062291E+04  0.25500000920E-02 0.  1.
       -2   -1    0    0    0  501  0.00000000000E+00  0.00000000000E+00 -0.23654568047E+04  0.23654568047E+04  0.25500000920E-02 0. -1.
    10030    2    1    2    0    0  0.00000000000E+00  0.00000000000E+00 -0.72275057555E+03  0.40081630338E+04  0.39424614787E+04 0.  0.
        2    1    3    3  502    0 -0.11920256364E+03  0.19567934774E+04 -0.15178277058E+03  0.19662878665E+04  0.25500000920E-02 0. -1.
       -2    1    3    3    0  502  0.11920256364E+03 -0.19567934774E+04 -0.57096780498E+03  0.20418751673E+04  0.25500000920E-02 0.  1.
</event>
<event>
 5   0  0.9095699E-07  0.1909029E+04  0.7818609E-02  0.8650375E-01
       -1   -1    0    0    0  501  0.00000000000E+00  0.00000000000E+00  0.83528565424E+03  0.83528565425E+03  0.50400001928E-02 0. -1.
        1   -1    0    0  501    0  0.00000000000E+00  0.00000000000E+00 -0.10907626099E+04  0.10907626099E+04  0.50400001928E-02 0.  1.
    10030    2    1    2    0    0  0.00000000000E+00  0.00000000000E+00 -0.25547695566E+03  0.19260482642E+04  0.19090294500E+04 0.  0.
        1    1    3    3  502    0 -0.53206117684E+03 -0.16092342888E+03  0.65513847622E+03  0.85918092909E+03  0.50400001928E-02 0. -1.
       -1    1    3    3    0  502  0.53206117684E+03  0.16092342888E+03 -0.91061543188E+03  0.10668673351E+04  0.50400001928E-02 0.  1.
</event>
<event>
 5   0  0.5284458E-07  0.3821265E+04  0.7818609E-02  0.8041607E-01
        1   -1    0    0  501    0  0.00000000000E+00  0.00000000000E+00  0.29877905732E+04  0.29877905732E+04  0.50400001928E-02 0. -1.
       -1   -1    0    0    0  501  0.00000000000E+00  0.00000000000E+00 -0.12218112116E+04  0.12218112117E+04  0.50400001928E-02 0.  1.
    10030    2    1    2    0    0  0.00000000000E+00  0.00000000000E+00  0.17659793616E+04  0.42096017849E+04  0.38212647228E+04 0.  0.
        5    1    3    3  502    0 -0.16412301223E+04 -0.97694807003E+03  0.93729527566E+03  0.21275827527E+04  0.46999998093E+01 0.  1.
       -5    1    3    3    0  502  0.16412301223E+04  0.97694807003E+03  0.82868408590E+03  0.20820190321E+04  0.46999998093E+01 0. -1.
</event>
<event>
 5   0  0.1341932E-06  0.3789420E+04  0.7818609E-02  0.8048429E-01
       -2   -1    0    0    0  501  0.00000000000E+00  0.00000000000E+00  0.16490816445E+04  0.16490816445E+04  0.25500000920E-02 0. -1.
        2   -1    0    0  501    0  0.00000000000E+00  0.00000000000E+00 -0.21769248919E+04  0.21769248919E+04  0.25500000920E-02 0.  1.
    10030    2    1    2    0    0  0.00000000000E+00  0.00000000000E+00 -0.52784324741E+03  0.38260065364E+04  0.37894204732E+04 0.  0.
        2    1    3    3  502    0  0.58624458027E+02 -0.11081003578E+04 -0.18145238161E+04  0.21269273399E+04  0.25500000920E-02 0.  1.
       -2    1    3    3    0  502 -0.58624458027E+02  0.11081003578E+04  0.12866805687E+04  0.16990791965E+04  0.25500000920E-02 0. -1.
</event>
<event>
 5   0  0.1341932E-06  0.3735751E+04  0.7818609E-02  0.8060085E-01
        2   -1    0    0  501    0  0.00000000000E+00  0.00000000000E+00  0.30615140200E+04  0.30615140200E+04  0.25500000920E-02 0.  1.
       -2   -1    0    0    0  501  0.00000000000E+00  0.00000000000E+00 -0.11396185014E+04  0.11396185014E+04  0.25500000920E-02 0. -1.
    10030    2    1    2    0    0  0.00000000000E+00  0.00000000000E+00  0.19218955186E+04  0.42011325213E+04  0.37357505374E+04 0.  0.
        2    1    3    3  502    0 -0.17517476646E+04 -0.89037704171E+02  0.16831408542E+04  0.24309485244E+04  0.25500000920E-02 0.  1.
       -2    1    3    3    0  502  0.17517476646E+04  0.89037704171E+02  0.23875466438E+03  0.17701839969E+04  0.25500000920E-02 0. -1.
</event>
<event>
 5   0  0.8030324E-07  0.2405408E+04  0.7818609E-02  0.8437482E-01
        1   -1    0    0  501    0  0.00000000000E+00  0.00000000000E+00  0.20910750498E+04  0.20910750498E+04  0.50400001928E-02 0.  1.
       -1   -1    0    0    0  501  0.00000000000E+00  0.00000000000E+00 -0.69174783495E+03  0.69174783497E+03  0.50400001928E-02 0. -1.
    10030    2    1    2    0    0  0.00000000000E+00  0.00000000000E+00  0.13993272148E+04  0.27828228848E+04  0.24054077729E+04 0.  0.
        1    1    3    3  502    0 -0.51228455387E+03  0.93458903218E+03  0.13444275444E+04  0.17156274495E+04  0.50400001928E-02 0.  1.
       -1    1    3    3    0  502  0.51228455387E+03 -0.93458903218E+03  0.54899670401E+02  0.10671954353E+04  0.50400001928E-02 0. -1.
</event>
<event>
 5   0  0.4795023E-07  0.3730283E+04  0.7818609E-02  0.8061284E-01
       -1   -1    0    0    0  501  0.00000000000E+00  0.00000000000E+00  0.15432943260E+04  0.15432943260E+04  0.50400001928E-02 0.  1.
        1   -1    0    0  501    0  0.00000000000E+00  0.00000000000E+00 -0.22541088321E+04  0.22541088321E+04  0.50400001928E-02 0. -1.
    10030    2    1    2    0    0  0.00000000000E+00  0.00000000000E+00 -0.71081450612E+03  0.37974031581E+04  0.37302832980E+04 0.  0.
        3    1    3    3  502    0  0.12224187941E+04  0.30359544266E+03  0.10449442765E+04  0.16365776645E+04  0.10100000352E+00 0.  1.
       -3    1    3    3    0  502 -0.12224187941E+04 -0.30359544266E+03 -0.17557587826E+04  0.21608254936E+04  0.10100000352E+00 0. -1.
</event>
<event>
 5   0  0.4795023E-07  0.2112971E+04  0.7818609E-02  0.8555551E-01
        1   -1    0    0  501    0  0.00000000000E+00  0.00000000000E+00  0.75881762371E+03  0.75881762372E+03  0.50400001928E-02 0.  1.
       -1   -1    0    0    0  501  0.00000000000E+00  0.00000000000E+00 -0.14709226692E+04  0.14709226692E+04  0.50400001928E-02 0. -1.
    10030    2    1    2    0    0  0.00000000000E+00  0.00000000000E+00 -0.71210504545E+03  0.22297402929E+04  0.21129714096E+04 0.  0.
        3    1    3    3  502    0  0.60826352184E+03 -0.56500428874E+03  0.33346925620E+03  0.89465977518E+03  0.10100000352E+00 0.  1.
       -3    1    3    3    0  502 -0.60826352184E+03  0.56500428874E+03 -0.10455743016E+04  0.13350805177E+04  0.10100000352E+00 0. -1.
</event>
<event>
 5   0  0.1214844E-06  0.3765306E+04  0.7818609E-02  0.8053641E-01
       -2   -1    0    0    0  501  0.00000000000E+00  0.00000000000E+00  0.18519592351E+04  0.18519592351E+04  0.25500000920E-02 0.  1.
        2   -1    0    0  501    0  0.00000000000E+00  0.00000000000E+00 -0.19138557525E+04  0.19138557525E+04  0.25500000920E-02 0. -1.
    10030    2    1    2    0    0  0.00000000000E+00  0.00000000000E+00 -0.61896517360E+02  0.37658149875E+04  0.37653062746E+04 0.  0.
        4    1    3    3  502    0 -0.18350847900E+04 -0.42038375097E+03 -0.42019442241E+02  0.18830894644E+04  0.12699999809E+01 0.  1.
       -4    1    3    3    0  502  0.18350847900E+04  0.42038375097E+03 -0.19877075119E+02  0.18827255231E+04  0.12699999809E+01 0. -1.
</event>
<event>
 5   0  0.1337854E-06  0.2049754E+04  0.7818609E-02  0.8583706E-01
       -2   -1    0    0    0  501  0.00000000000E+00  0.00000000000E+00  0.32006571324E+03  0.32006571325E+03  0.25500000920E-02 0.  1.
        2   -1    0    0  501    0  0.00000000000E+00  0.00000000000E+00 -0.32817427979E+04  0.32817427979E+04  0.25500000920E-02 0. -1.
    10030    2    1    2    0    0  0.00000000000E+00  0.00000000000E+00 -0.29616770847E+04  0.36018085112E+04  0.20497544724E+04 0.  0.
        3    1    3    3  502    0  0.97961403804E+03 -0.29042903808E+03 -0.16212010823E+04  0.19163208628E+04  0.10100000352E+00 0.  1.
       -3    1    3    3    0  502 -0.97961403804E+03  0.29042903808E+03 -0.13404760024E+04  0.16854876484E+04  0.10100000352E+00 0. -1.
</event>
<event>
 5   0  0.1372748E-06  0.2493832E+04  0.7818609E-02  0.8405186E-01
        2   -1    0    0  501    0  0.00000000000E+00  0.00000000000E+00  0.17472130074E+04  0.17472130074E+04  0.25500000920E-02 0.  1.
       -2   -1    0    0    0  501  0.00000000000E+00  0.00000000000E+00 -0.88987439954E+03  0.88987439954E+03  0.25500000920E-02 0. -1.
    10030    2    1    2    0    0  0.00000000000E+00  0.00000000000E+00  0.85733860787E+03  0.26370874070E+04  0.24938324930E+04 0.  0.
        1    1    3    3  502    0  0.69403266151E+03  0.60777924029E+03 -0.45840127538E+03  0.10301498286E+04  0.50400001928E-02 0.  1.
       -1    1    3    3    0  502 -0.69403266151E+03 -0.60777924029E+03  0.13157398832E+04  0.16069375783E+04  0.50400001928E-02 0. -1.
</event>
<event>
 5   0  0.1337854E-06  0.3785833E+04  0.7818609E-02  0.8049202E-01
        2   -1    0    0  501    0  0.00000000000E+00  0.00000000000E+00  0.18886032516E+04  0.18886032516E+04  0.25500000920E-02 0.  1.
       -2   -1    0    0    0  501  0.00000000000E+00  0.00000000000E+00 -0.18972394467E+04  0.18972394467E+04  0.25500000920E-02 0. -1.
    10030    2    1    2    0    0  0.00000000000E+00  0.00000000000E+00 -0.86361951047E+01  0.37858426983E+04  0.37858328479E+04 0.  0.
        3    1    3    3  502    0 -0.19114089811E+03 -0.15315914096E+04 -0.11001427814E+04  0.18954211244E+04  0.10100000352E+00 0. -1.
       -3    1    3    3    0  502  0.19114089811E+03  0.15315914096E+04  0.10915065863E+04  0.18904215739E+04  0.10100000352E+00 0.  1.
</event>
<event>
 5   0  0.1184616E-06  0.3813816E+04  0.7818609E-02  0.8043196E-01
       -2   -1    0    0    0  501  0.00000000000E+00  0.00000000000E+00  0.27810977487E+04  0.27810977487E+04  0.25500000920E-02 0.  1.
        2   -1    0    0  501    0  0.00000000000E+00  0.00000000000E+00 -0.13075049435E+04  0.13075049435E+04  0.25500000920E-02 0. -1.
    10030    2    1    2    0    0  0.00000000000E+00  0.00000000000E+00  0.14735928052E+04  0.40886026922E+04  0.38138164900E+04 0.  0.
        5    1    3    3  502    0  0.89389836235E+03 -0.55784246854E+03  0.24406597228E+04  0.26583988554E+04  0.46999998093E+01 0.  1.
       -5    1    3    3    0  502 -0.89389836235E+03  0.55784246854E+03 -0.96706691758E+03  0.14302038369E+04  0.46999998093E+01 0. -1.
</event>
<event>
 5   0  0.1184616E-06  0.2226226E+04  0.7818609E-02  0.8507591E-01
        2   -1    0    0  501    0  0.00000000000E+00  0.00000000000E+00  0.28590993484E+04  0.28590993484E+04  0.25500000920E-02 0. -1.
       -2   -1    0    0    0  501  0.00000000000E+00  0.00000000000E+00 -0.43336024832E+03  0.43336024832E+03  0.25500000920E-02 0.  1.
    10030    2    1    2    0    0  0.00000000000E+00  0.00000000000E+00  0.24257391000E+04  0.32924595967E+04  0.22262255084E+04 0.  0.
        5    1    3    3  502    0  0.58628010112E+01  0.89717346436E+03  0.21872259361E+04  0.23640926342E+04  0.46999998093E+01 0. -1.
       -5    1    3    3    0  502 -0.58628010112E+01 -0.89717346436E+03  0.23851316391E+03  0.92836696244E+03  0.46999998093E+01 0.  1.
</event>
<event>
 5   0  0.5284458E-07  0.3599450E+04  0.7818609E-02  0.8090618E-01
        1   -1    0    0  501    0  0.00000000000E+00  0.00000000000E+00  0.16249458243E+04  0.16249458243E+04  0.50400001928E-02 0. -1.
       -1   -1    0    0    0  501  0.00000000000E+00  0.00000000000E+00 -0.19933034322E+04  0.19933034322E+04  0.50400001928E-02 0.  1.
    10030    2    1    2    0    0  0.00000000000E+00  0.00000000000E+00 -0.36835760786E+03  0.36182492565E+04  0.35994500073E+04 0.  0.
        5    1    3    3  502    0 -0.18750875835E+03  0.19122253349E+03 -0.19731541622E+04  0.19912521260E+04  0.46999998093E+01 0.  1.
       -5    1    3    3    0  502  0.18750875835E+03 -0.19122253349E+03  0.16047965543E+04  0.16269971304E+04  0.46999998093E+01 0. -1.
</event>
<event>
 5   0  0.1372748E-06  0.3743596E+04  0.7818609E-02  0.8058368E-01
       -2   -1    0    0    0  501  0.00000000000E+00  0.00000000000E+00  0.12558146636E+04  0.12558146636E+04  0.25500000920E-02 0.  1.
        2   -1    0    0  501    0  0.00000000000E+00  0.00000000000E+00 -0.27899245634E+04  0.27899245634E+04  0.25500000920E-02 0. -1.
    10030    2    1    2    0    0  0.00000000000E+00  0.00000000000E+00 -0.15341098998E+04  0.40457392270E+04  0.37435962267E+04 0.  0.
        1    1    3    3  502    0 -0.16592933632E+04  0.32309348100E+03 -0.16356550435E+04  0.23522353803E+04  0.50400001928E-02 0. -1.
       -1    1    3    3    0  502  0.16592933632E+04 -0.32309348100E+03  0.10154514375E+03  0.16935038467E+04  0.50400001928E-02 0.  1.
</event>
<event>
 5   0  0.5284458E-07  0.3832548E+04  0.7818609E-02  0.8039206E-01
        1   -1    0    0  501    0  0.00000000000E+00  0.00000000000E+00  0.17626076103E+04  0.17626076103E+04  0.50400001928E-02 0.  1.
       -1   -1    0    0    0  501  0.00000000000E+00  0.00000000000E+00 -0.20833373391E+04  0.20833373391E+04  0.50400001928E-02 0. -1.
    10030    2    1    2    0    0  0.00000000000E+00  0.00000000000E+00 -0.32072972883E+03  0.38459449494E+04  0.38325481073E+04 0.  0.
        5    1    3    3  502    0  0.15183726478E+04  0.60403517793E+03 -0.11647481924E+04  0.20067322780E+04  0.46999998093E+01 0. -1.
       -5    1    3    3    0  502 -0.15183726478E+04 -0.60403517793E+03  0.84401846358E+03  0.18392126714E+04  0.46999998093E+01 0.  1.
</event>
<event>
 5   0  0.4255250E-07  0.3815578E+04  0.7818609E-02  0.8042820E-01
        1   -1    0    0  501    0  0.00000000000E+00  0.00000000000E+00  0.24499005082E+04  0.24499005082E+04  0.50400001928E-02 0.  1.
       -1   -1    0    0    0  501  0.00000000000E+00  0.00000000000E+00 -0.14856352683E+04  0.14856352684E+04  0.50400001928E-02 0. -1.
    10030    2    1    2    0    0  0.00000000000E+00  0.00000000000E+00  0.96426523981E+03  0.39355357765E+04  0.38155778587E+04 0.  0.
        2    1    3    3  502    0 -0.44279902376E+03 -0.31437058959E+03  0.23684985521E+04  0.24299558091E+04  0.25500000920E-02 0.  1.
       -2    1    3    3    0  502  0.44279902376E+03  0.31437058959E+03 -0.14042333122E+04  0.15055799674E+04  0.25500000920E-02 0. -1.
</event>
<event>
 5   0  0.8030324E-07  0.3571778E+04  0.7818609E-02  0.8096987E-01
       -1   -1    0    0    0  501  0.00000000000E+00  0.00000000000E+00  0.16108023514E+04  0.16108023514E+04  0.50400001928E-02 0. -1.
        1   -1    0    0  501    0  0.00000000000E+00  0.00000000000E+00 -0.19800069108E+04  0.19800069108E+04  0.50400001928E-02 0.  1.
    10030    2    1    2    0    0  0.00000000000E+00  0.00000000000E+00 -0.36920455941E+03  0.35908092622E+04  0.35717781497E+04 0.  0.
        1    1    3    3  502    0  0.16314992842E+04 -0.10511347391E+03 -0.90715356969E+03  0.18696968620E+04  0.50400001928E-02 0.  1.
       -1    1    3    3    0  502 -0.16314992842E+04  0.10511347391E+03  0.53794901028E+03  0.17211124002E+04  0.50400001928E-02 0. -1.
</event>
<event>
 5   0  0.1214844E-06  0.3580208E+04  0.7818609E-02  0.8095040E-01
       -2   -1    0    0    0  501  0.00000000000E+00  0.00000000000E+00  0.19727297578E+04  0.19727297578E+04  0.25500000920E-02 0. -1.
        2   -1    0    0  501    0  0.00000000000E+00  0.00000000000E+00 -0.16243846673E+04  0.16243846673E+04  0.25500000920E-02 0.  1.
    10030    2    1    2    0    0  0.00000000000E+00  0.00000000000E+00  0.34834509049E+03  0.35971144250E+04  0.35802077991E+04 0.  0.
        4    1    3    3  502    0  0.15775622495E+04 -0.80485841376E+03 -0.87770397378E+02  0.17731906194E+04  0.12699999809E+01 0.  1.
       -4    1    3    3    0  502 -0.15775622495E+04  0.80485841376E+03  0.43611548787E+03  0.18239238056E+04  0.12699999809E+01 0. -1.
</event>
<event>
 5   0  0.1184616E-06  0.1887513E+04  0.7818609E-02  0.8661097E-01
        2   -1    0    0  501    0  0.00000000000E+00  0.00000000000E+00  0.10547142303E+04  0.10547142303E+04  0.25500000920E-02 0. -1.
       -2   -1    0    0    0  501  0.00000000000E+00  0.00000000000E+00 -0.84447195884E+03  0.84447195885E+03  0.25500000920E-02 0.  1.
    10030    2    1    2    0    0  0.00000000000E+00  0.00000000000E+00  0.21024227146E+03  0.18991861892E+04  0.18875132763E+04 0.  0.
        5    1    3    3  502    0 -0.40829039092E+03 -0.35155262780E+03  0.88474464226E+03  0.10358983857E+04  0.46999998093E+01 0. -1.
       -5    1    3    3    0  502  0.40829039092E+03  0.35155262780E+03 -0.67450237080E+03  0.86328780348E+03  0.46999998093E+01 0.  1.
</event>
<event>
 5   0  0.1372748E-06  0.2042088E+04  0.7818609E-02  0.8587192E-01
       -2   -1    0    0    0  501  0.00000000000E+00  0.00000000000E+00  0.12770858518E+04  0.12770858518E+04  0.25500000920E-02 0.  1.
        2   -1    0    0  501    0  0.00000000000E+00  0.00000000000E+00 -0.81633547263E+03  0.81633547264E+03  0.25500000920E-02 0. -1.
    10030    2    1    2    0    0  0.00000000000E+00  0.00000000000E+00  0.46075037920E+03  0.20934213245E+04  0.20420876401E+04 0.  0.
        1    1    3    3  502    0 -0.88393981245E+03 -0.21974935899E+03 -0.24262468960E+03  0.94260602207E+03  0.50400001928E-02 0. -1.
       -1    1    3    3    0  502  0.88393981245E+03  0.21974935899E+03  0.70337506879E+03  0.11508153024E+04  0.50400001928E-02 0.  1.
</event>
<event>
 5   0  0.4255250E-07  0.3774807E+04  0.7818609E-02  0.8051583E-01
       -1   -1    0    0    0  501  0.00000000000E+00  0.00000000000E+00  0.13272463870E+04  0.13272463870E+04  0.50400001928E-02 0.  1.
        1   -1    0    0  501    0  0.00000000000E+00  0.00000000000E+00 -0.26839717456E+04  0.26839717456E+04  0.50400001928E-02 0. -1.
    10030    2    1    2    0    0  0.00000000000E+00  0.00000000000E+00 -0.13567253586E+04  0.40112181326E+04  0.37748069101E+04 0.  0.
        2    1    3    3  502    0 -0.13517416642E+04 -0.86412639703E+03 -0.17347951013E+04  0.23629291145E+04  0.25500000920E-02 0. -1.
       -2    1    3    3    0  502  0.13517416642E+04  0.86412639703E+03  0.37806974269E+03  0.16482890181E+04  0.25500000920E-02 0.  1.
</event>
<event>
 5   0  0.1184616E-06  0.2494720E+04  0.7818609E-02  0.8404869E-01
        2   -1    0    0  501    0  0.00000000000E+00  0.00000000000E+00  0.17017173675E+04  0.17017173675E+04  0.25500000920E-02 0. -1.
       -2   -1    0    0    0  501  0.00000000000E+00  0.00000000000E+00 -0.91431543449E+03  0.91431543450E+03  0.25500000920E-02 0.  1.
    10030    2    1    2    0    0  0.00000000000E+00  0.00000000000E+00  0.78740193303E+03  0.26160328020E+04  0.24947195869E+04 0.  0.
        5    1    3    3  502    0  0.12207129889E+04 -0.18629841898E+03  0.20896062111E+03  0.12524112477E+04  0.46999998093E+01 0.  1.
       -5    1    3    3    0  502 -0.12207129889E+04  0.18629841898E+03  0.57844131192E+03  0.13636215543E+04  0.46999998093E+01 0. -1.
</event>
<event>
 5   0  0.1372748E-06  0.3143955E+04  0.7818609E-02  0.8203777E-01
        2   -1    0    0  501    0  0.00000000000E+00  0.00000000000E+00  0.26217190853E+04  0.26217190853E+04  0.25500000920E-02 0.  1.
       -2   -1    0    0    0  501  0.00000000000E+00  0.00000000000E+00 -0.94255452477E+03  0.94255452477E+03  0.25500000920E-02 0. -1.
    10030    2    1    2    0    0  0.00000000000E+00  0.00000000000E+00  0.16791645606E+04  0.35642736101E+04  0.31439549530E+04 0.  0.
        1    1    3    3  502    0 -0.13062025369E+04 -0.59491939775E+03  0.11276426249E+03  0.14397256462E+04  0.50400001928E-02 0. -1.
       -1    1    3    3    0  502  0.13062025369E+04  0.59491939775E+03  0.15664002981E+04  0.21245479639E+04  0.50400001928E-02 0.  1.
</event>
<event>
 5   0  0.1372748E-06  0.3778138E+04  0.7818609E-02  0.8050863E-01
       -2   -1    0    0    0  501  0.00000000000E+00  0.00000000000E+00  0.18768804869E+04  0.18768804869E+04  0.25500000920E-02 0. -1.
        2   -1    0    0  501    0  0.00000000000E+00  0.00000000000E+00 -0.19013367057E+04  0.19013367057E+04  0.25500000920E-02 0.  1.
    10030    2    1    2    0    0  0.00000000000E+00  0.00000000000E+00 -0.24456218777E+02  0.37782171927E+04  0.37781380399E+04 0.  0.
        1    1    3    3  502    0 -0.35832014923E+03  0.13764198828E+04 -0.12554985961E+04  0.18971562266E+04  0.50400001928E-02 0.  1.
       -1    1    3    3    0  502  0.35832014923E+03 -0.13764198828E+04  0.12310423774E+04  0.18810609661E+04  0.50400001928E-02 0. -1.
</event>
<event>
 5   0  0.1337854E-06  0.2157933E+04  0.7818609E-02  0.8536144E-01
       -2   -1    0    0    0  501  0.00000000000E+00  0.00000000000E+00  0.78385539649E+03  0.78385539649E+03  0.25500000920E-02 0.  1.
        2   -1    0    0  501    0  0.00000000000E+00  0.00000000000E+00 -0.14851825913E+04  0.14851825913E+04  0.25500000920E-02 0. -1.
    10030    2    1    2    0    0  0.00000000000E+00  0.00000000000E+00 -0.70132719479E+03  0.22690379878E+04  0.21579327042E+04 0.  0.
        3    1    3    3  502    0  0.89064357927E+03 -0.14534244673E+03 -0.97255207490E+03  0.13267358293E+04  0.10100000352E+00 0. -1.
       -3    1    3    3    0  502 -0.89064357927E+03  0.14534244673E+03  0.27122488011E+03  0.94230215850E+03  0.10100000352E+00 0.  1.
</event>
<event>
 5   0  0.8030324E-07  0.2164259E+04  0.7818609E-02  0.8533453E-01
       -1   -1    0    0    0  501  0.00000000000E+00  0.00000000000E+00  0.73652021103E+03  0.73652021104E+03  0.50400001928E-02 0. -1.
        1   -1    0    0  501    0  0.00000000000E+00  0.00000000000E+00 -0.15899147578E+04  0.15899147578E+04  0.50400001928E-02 0.  1.
    10030    2    1    2    0    0  0.00000000000E+00  0.00000000000E+00 -0.85339454679E+03  0.23264349689E+04  0.21642590907E+04 0.  0.
        1    1    3    3  502    0 -0.85851447744E+03  0.40775949529E+03 -0.98285411680E+03  0.13672297279E+04  0.50400001928E-02 0.  1.
       -1    1    3    3    0  502  0.85851447744E+03 -0.40775949529E+03  0.12945957001E+03  0.95920524095E+03  0.50400001928E-02 0. -1.
</event>
<event>
 5   0  0.1079205E-06  0.3800368E+04  0.7818609E-02  0.8046076E-01
        1   -1    0    0  501    0  0.00000000000E+00  0.00000000000E+00  0.16157401472E+04  0.16157401472E+04  0.50400001928E-02 0. -1.
       -1   -1    0    0    0  501  0.00000000000E+00  0.00000000000E+00 -0.22347027559E+04  0.22347027559E+04  0.50400001928E-02 0.  1.
    10030    2    1    2    0    0  0.00000000000E+00  0.00000000000E+00 -0.61896260873E+03  0.38504429031E+04  0.38003678558E+04 0.  0.
        4    1    3    3  502    0 -0.13756250561E+04 -0.88962399811E+03 -0.12849350756E+04  0.20820266363E+04  0.12699999809E+01 0.  1.
       -4    1    3    3    0  502  0.13756250561E+04  0.88962399811E+03  0.66597246690E+03  0.17684162668E+04  0.12699999809E+01 0. -1.
</event>
<event>
 5   0  0.4795023E-07  0.3778625E+04  0.7818609E-02  0.8050757E-01
        1   -1    0    0  501    0  0.00000000000E+00  0.00000000000E+00  0.20131427956E+04  0.20131427956E+04  0.50400001928E-02 0. -1.
       -1   -1    0    0    0  501  0.00000000000E+00  0.00000000000E+00 -0.17730993124E+04  0.17730993124E+04  0.50400001928E-02 0.  1.
    10030    2    1    2    0    0  0.00000000000E+00  0.00000000000E+00  0.24004348322E+03  0.37862421081E+04  0.37786252033E+04 0.  0.
        3    1    3    3  502    0 -0.55181847151E+03  0.59938304834E+03  0.18280805641E+04  0.20014100587E+04  0.10100000352E+00 0. -1.
       -3    1    3    3    0  502  0.55181847151E+03 -0.59938304834E+03 -0.15880370808E+04  0.17848320494E+04  0.10100000352E+00 0.  1.
</event>
<event>
 5   0  0.1184616E-06  0.1979873E+04  0.7818609E-02  0.8616089E-01
        2   -1    0    0  501    0  0.00000000000E+00  0.00000000000E+00  0.22435365291E+04  0.22435365291E+04  0.25500000920E-02 0.  1.
       -2   -1    0    0    0  501  0.00000000000E+00  0.00000000000E+00 -0.43679895013E+03  0.43679895013E+03  0.25500000920E-02 0. -1.
    10030    2    1    2    0    0  0.00000000000E+00  0.00000000000E+00  0.18067375790E+04  0.26803354792E+04  0.19798731277E+04 0.  0.
        5    1    3    3  502    0 -0.92490325735E+03  0.22228207192E+03  0.12743594353E+04  0.15902419361E+04  0.46999998093E+01 0.  1.
       -5    1    3    3    0  502  0.92490325735E+03 -0.22228207192E+03  0.53237814367E+03  0.10900935431E+04  0.46999998093E+01 0. -1.
</event>
<event>
 5   0  0.4795023E-07  0.3851232E+04  0.7818609E-02  0.8035249E-01
       -1   -1    0    0    0  501  0.00000000000E+00  0.00000000000E+00  0.28088038789E+04  0.28088038789E+04  0.50400001928E-02 0. -1.
        1   -1    0    0  501    0  0.00000000000E+00  0.00000000000E+00 -0.13201337287E+04  0.13201337287E+04  0.50400001928E-02 0.  1.
    10030    2    1    2    0    0  0.00000000000E+00  0.00000000000E+00  0.14886701502E+04  0.41289376076E+04  0.38512318745E+04 0.  0.
        3    1    3    3  502    0 -0.18776686550E+04  0.30780061340E+03  0.42699114520E+03  0.19500518567E+04  0.10100000352E+00 0.  1.
       -3    1    3    3    0  502  0.18776686550E+04 -0.30780061340E+03  0.10616790050E+04  0.21788857509E+04  0.10100000352E+00 0. -1.
</event>
<event>
 5   0  0.1184616E-06  0.3235364E+04  0.7818609E-02  0.8179540E-01
        2   -1    0    0  501    0  0.00000000000E+00  0.00000000000E+00  0.23470013295E+04  0.23470013295E+04  0.25500000920E-02 0.  1.
       -2   -1    0    0    0  501  0.00000000000E+00  0.00000000000E+00 -0.11149947874E+04  0.11149947874E+04  0.25500000920E-02 0. -1.
    10030    2    1    2    0    0  0.00000000000E+00  0.00000000000E+00  0.12320065421E+04  0.34619961168E+04  0.32353635025E+04 0.  0.
        5    1    3    3  502    0 -0.12020050013E+04  0.51228718869E+03 -0.40454372931E+03  0.13678201291E+04  0.46999998093E+01 0. -1.
       -5    1    3    3    0  502  0.12020050013E+04 -0.51228718869E+03  0.16365502714E+04  0.20941759877E+04  0.46999998093E+01 0.  1.
</event>
<event>
 5   0  0.1372748E-06  0.2729819E+04  0.7818609E-02  0.8325394E-01
       -2   -1    0    0    0  501  0.00000000000E+00  0.00000000000E+00  0.11754364246E+04  0.11754364246E+04  0.25500000920E-02 0.  1.
        2   -1    0    0  501    0  0.00000000000E+00  0.00000000000E+00 -0.15849247573E+04  0.15849247573E+04  0.25500000920E-02 0. -1.
    10030    2    1    2    0    0  0.00000000000E+00  0.00000000000E+00 -0.40948833275E+03  0.27603611819E+04  0.27298192540E+04 0.  0.
        1    1    3    3  502    0  0.45320055683E+03  0.15143180254E+02  0.10970436822E+04  0.11870656684E+04  0.50400001928E-02 0.  1.
       -1    1    3    3    0  502 -0.45320055683E+03 -0.15143180254E+02 -0.15065320149E+04  0.15732955134E+04  0.50400001928E-02 0. -1.
</event>
<event>
 5   0  0.1214844E-06  0.3778368E+04  0.7818609E-02  0.8050813E-01
        2   -1    0    0  501    0  0.00000000000E+00  0.00000000000E+00  0.12562004032E+04  0.12562004032E+04  0.25500000920E-02 0. -1.
       -2   -1    0    0    0  501  0.00000000000E+00  0.00000000000E+00 -0.28411193721E+04  0.28411193721E+04  0.25500000920E-02 0.  1.
    10030    2    1    2    0    0  0.00000000000E+00  0.00000000000E+00 -0.15849189689E+04  0.40973197753E+04  0.37783675315E+04 0.  0.
        4    1    3    3  502    0  0.15317488089E+04  0.36411891342E+03  0.33979514566E+03  0.16106828833E+04  0.12699999809E+01 0. -1.
       -4    1    3    3    0  502 -0.15317488089E+04 -0.36411891342E+03 -0.19247141146E+04  0.24866368920E+04  0.12699999809E+01 0.  1.
</event>
<event>
 5   0  0.1184616E-06  0.2042477E+04  0.7818609E-02  0.8587015E-01
        2   -1    0    0  501    0  0.00000000000E+00  0.00000000000E+00  0.98879074142E+03  0.98879074142E+03  0.25500000920E-02 0. -1.
       -2   -1    0    0    0  501  0.00000000000E+00  0.00000000000E+00 -0.10547511938E+04  0.10547511938E+04  0.25500000920E-02 0.  1.
    10030    2    1    2    0    0  0.00000000000E+00  0.00000000000E+00 -0.65960452414E+02  0.20435419353E+04  0.20424771382E+04 0.  0.
        5    1    3    3  502    0 -0.27790614910E+03 -0.62068456135E+03  0.72927321718E+03  0.99716732182E+03  0.46999998093E+01 0. -1.
       -5    1    3    3    0  502  0.27790614910E+03  0.62068456135E+03 -0.79523366960E+03  0.10463746134E+04  0.46999998093E+01 0.  1.
</event>
<event>
 5   0  0.8030324E-07  0.3409363E+04  0.7818609E-02  0.8135612E-01
        1   -1    0    0  501    0  0.00000000000E+00  0.00000000000E+00  0.24520354923E+04  0.24520354923E+04  0.50400001928E-02 0. -1.
       -1   -1    0    0    0  501  0.00000000000E+00  0.00000000000E+00 -0.11851131301E+04  0.11851131301E+04  0.50400001928E-02 0.  1.
    10030    2    1    2    0    0  0.00000000000E+00  0.00000000000E+00  0.12669223622E+04  0.36371486224E+04  0.34093632586E+04 0.  0.
        1    1    3    3  502    0 -0.94532957462E+03 -0.79586263876E+03  0.18861789274E+04  0.22549315490E+04  0.50400001928E-02 0. -1.
       -1    1    3    3    0  502  0.94532957462E+03  0.79586263876E+03 -0.61925656520E+03  0.13822170734E+04  0.50400001928E-02 0.  1.
</event>
<event>
 5   0  0.1372748E-06  0.3904371E+04  0.7818609E-02  0.8024121E-01
        2   -1    0    0  501    0  0.00000000000E+00  0.00000000000E+00  0.24711718441E+04  0.24711718441E+04  0.25500000920E-02 0. -1.
       -2   -1    0    0    0  501  0.00000000000E+00  0.00000000000E+00 -0.15421950970E+04  0.15421950970E+04  0.25500000920E-02 0.  1.
    10030    2    1    2    0    0  0.00000000000E+00  0.00000000000E+00  0.92897674705E+03  0.40133669411E+04  0.39043714484E+04 0.  0.
        1    1    3    3  502    0  0.89321033101E+03 -0.17213622815E+04  0.23437214313E+03  0.19534183118E+04  0.50400001928E-02 0.  1.
       -1    1    3    3    0  502 -0.89321033101E+03  0.17213622815E+04  0.69460460393E+03  0.20599486293E+04  0.50400001928E-02 0. -1.
</event>
<event>
 5   0  0.8030324E-07  0.3465464E+04  0.7818609E-02  0.8122024E-01
        1   -1    0    0  501    0  0.00000000000E+00  0.00000000000E+00  0.20748106341E+04  0.20748106341E+04  0.50400001928E-02 0.  1.
       -1   -1    0    0    0  501  0.00000000000E+00  0.00000000000E+00 -0.14470526963E+04  0.14470526963E+04  0.50400001928E-02 0. -1.
    10030    2    1    2    0    0  0.00000000000E+00  0.00000000000E+00  0.62775793782E+03  0.35218633304E+04  0.34654640799E+04 0.  0.
        1    1    3    3  502    0  0.51512608763E+03 -0.14556866806E+03  0.19886722282E+04  0.20594568106E+04  0.50400001928E-02 0.  1.
       -1    1    3    3    0  502 -0.51512608763E+03  0.14556866806E+03 -0.13609142904E+04  0.14624065198E+04  0.50400001928E-02 0. -1.
</event>
<event>
 5   0  0.4255250E-07  0.2472328E+04  0.7818609E-02  0.8412911E-01
        1   -1    0    0  501    0  0.00000000000E+00  0.00000000000E+00  0.13690834409E+04  0.13690834409E+04  0.50400001928E-02 0. -1.
       -1   -1    0    0    0  501  0.00000000000E+00  0.00000000000E+00 -0.11161490591E+04  0.11161490591E+04  0.50400001928E-02 0.  1.
    10030    2    1    2    0    0  0.00000000000E+00  0.00000000000E+00  0.25293438180E+03  0.24852325001E+04  0.24723278055E+04 0.  0.
        2    1    3    3  502    0 -0.37007044704E+03  0.88374123966E+03  0.91166567005E+03  0.13225297760E+04  0.25500000920E-02 0. -1.
       -2    1    3    3    0  502  0.37007044704E+03 -0.88374123966E+03 -0.65873128825E+03  0.11627027241E+04  0.25500000920E-02 0.  1.
</event>
<event>
 5   0  0.4255250E-07  0.3829464E+04  0.7818609E-02  0.8039861E-01
       -1   -1    0    0    0  501  0.00000000000E+00  0.00000000000E+00  0.99177554252E+03  0.99177554253E+03  0.50400001928E-02 0. -1.
        1   -1    0    0  501    0  0.00000000000E+00  0.00000000000E+00 -0.36966016369E+04  0.36966016369E+04  0.50400001928E-02 0.  1.
    10030    2    1    2    0    0  0.00000000000E+00  0.00000000000E+00 -0.27048260944E+04  0.46883771794E+04  0.38294642413E+04 0.  0.
        2    1    3    3  502    0  0.17887168561E+04 -0.51068186297E+03 -0.19079431152E+04  0.26646858890E+04  0.25500000920E-02 0. -1.
       -2    1    3    3    0  502 -0.17887168561E+04  0.51068186297E+03 -0.79688297920E+03  0.20236912904E+04  0.25500000920E-02 0.  1.
</event>
<event>
 5   0  0.4795023E-07  0.2126365E+04  0.7818609E-02  0.8549717E-01
       -1   -1    0    0    0  501  0.00000000000E+00  0.00000000000E+00  0.75812303918E+03  0.75812303919E+03  0.50400001928E-02 0.  1.
        1   -1    0    0  501    0  0.00000000000E+00  0.00000000000E+00 -0.14909944925E+04  0.14909944925E+04  0.50400001928E-02 0. -1.
    10030    2    1    2    0    0  0.00000000000E+00  0.00000000000E+00 -0.73287145328E+03  0.22491175317E+04  0.21263652330E+04 0.  0.
        3    1    3    3  502    0  0.13660349279E+03  0.63572611934E+03 -0.12561541121E+04  0.14144721194E+04  0.10100000352E+00 0. -1.
       -3    1    3    3    0  502 -0.13660349279E+03 -0.63572611934E+03  0.52328265878E+03  0.83464541228E+03  0.10100000352E+00 0.  1.
</event>
<event>
 5   0  0.8030324E-07  0.3791873E+04  0.7818609E-02  0.8047901E-01
        1   -1    0    0  501    0  0.00000000000E+00  0.00000000000E+00  0.18692343318E+04  0.18692343318E+04  0.50400001928E-02 0.  1.
       -1   -1    0    0    0  501  0.00000000000E+00  0.00000000000E+00 -0.19230196595E+04  0.19230196595E+04  0.50400001928E-02 0. -1.
    10030    2    1    2    0    0  0.00000000000E+00  0.00000000000E+00 -0.53785327670E+02  0.37922539913E+04  0.37918725550E+04 0.  0.
        1    1    3    3  502    0  0.14924024992E+03  0.96805273669E+03 -0.16503783592E+04  0.19191528031E+04  0.50400001928E-02 0. -1.
       -1    1    3    3    0  502 -0.14924024992E+03 -0.96805273669E+03  0.15965930315E+04  0.18731011883E+04  0.50400001928E-02 0.  1.
</event>
<event>
 5   0  0.1214844E-06  0.3857046E+04  0.7818609E-02  0.8034023E-01
        2   -1    0    0  501    0  0.00000000000E+00  0.00000000000E+00  0.16287004910E+04  0.16287004910E+04  0.25500000920E-02 0. -1.
       -2   -1    0    0    0  501  0.00000000000E+00  0.00000000000E+00 -0.22835393387E+04  0.22835393387E+04  0.25500000920E-02 0.  1.
    10030    2    1    2    0    0  0.00000000000E+00  0.00000000000E+00 -0.65483884765E+03  0.39122398297E+04  0.38570463530E+04 0.  0.
        4    1    3    3  502    0  0.20239144302E+03  0.57393742394E+02  0.16170268894E+04  0.16306544428E+04  0.12699999809E+01 0. -1.
       -4    1    3    3    0  502 -0.20239144302E+03 -0.57393742394E+02 -0.22718657370E+04  0.22815853869E+04  0.12699999809E+01 0.  1.
</event>
<event>
 5   0  0.1214844E-06  0.2894580E+04  0.7818609E-02  0.8274492E-01
        2   -1    0    0  501    0  0.00000000000E+00  0.00000000000E+00  0.72034367147E+03  0.72034367148E+03  0.25500000920E-02 0. -1.
       -2   -1    0    0    0  501  0.00000000000E+00  0.00000000000E+00 -0.29078452650E+04  0.29078452650E+04  0.25500000920E-02 0.  1.
    10030    2    1    2    0    0  0.00000000000E+00  0.00000000000E+00 -0.21875015935E+04  0.36281889365E+04  0.28945797168E+04 0.  0.
        4    1    3    3  502    0 -0.12345504158E+04  0.58781621347E+03 -0.16883156071E+04  0.21725684873E+04  0.12699999809E+01 0.  1.
       -4    1    3    3    0  502  0.12345504158E+04 -0.58781621347E+03 -0.49918598639E+03  0.14556204491E+04  0.12699999809E+01 0. -1.
</event>
<event>
 5   0  0.1341932E-06  0.3735008E+04  0.7818609E-02  0.8060248E-01
       -2   -1    0    0    0  501  0.00000000000E+00  0.00000000000E+00  0.23478823849E+04  0.23478823849E+04  0.25500000920E-02 0.  1.
        2   -1    0    0  501    0  0.00000000000E+00  0.00000000000E+00 -0.14854110433E+04  0.14854110433E+04  0.25500000920E-02 0. -1.
    10030    2    1    2    0    0  0.00000000000E+00  0.00000000000E+00  0.86247134161E+03  0.38332934283E+04  0.37350075893E+04 0.  0.
        2    1    3    3  502    0 -0.11774230235E+04 -0.11398955914E+04  0.13502794743E+04  0.21234268517E+04  0.25500000920E-02 0.  1.
       -2    1    3    3    0  502  0.11774230235E+04  0.11398955914E+04 -0.48780813271E+03  0.17098665766E+04  0.25500000920E-02 0. -1.
</event>
<event>
 5   0  0.1372748E-06  0.3634947E+04  0.7818609E-02  0.8082533E-01
        2   -1    0    0  501    0  0.00000000000E+00  0.00000000000E+00  0.17026296806E+04  0.17026296806E+04  0.25500000920E-02 0. -1.
       -2   -1    0    0    0  501  0.00000000000E+00  0.00000000000E+00 -0.19400635336E+04  0.19400635336E+04  0.25500000920E-02 0.  1.
    10030    2    1    2    0    0  0.00000000000E+00  0.00000000000E+00 -0.23743385305E+03  0.36426932142E+04  0.36349469072E+04 0.  0.
        1    1    3    3  502    0 -0.99324196942E+03  0.87985639662E+03 -0.13633511483E+04  0.19024729281E+04  0.50400001928E-02 0.  1.
       -1    1    3    3    0  502  0.99324196942E+03 -0.87985639662E+03  0.11259172953E+04  0.17402202861E+04  0.50400001928E-02 0. -1.
</event>
<event>
 5   0  0.1214844E-06  0.3877533E+04  0.7818609E-02  0.8029718E-01
       -2   -1    0    0    0  501  0.00000000000E+00  0.00000000000E+00  0.14031188781E+04  0.14031188781E+04  0.25500000920E-02 0.  1.
        2   -1    0    0  501    0  0.00000000000E+00  0.00000000000E+00 -0.26789000645E+04  0.26789000645E+04  0.25500000920E-02 0. -1.
    10030    2    1    2    0    0  0.00000000000E+00  0.00000000000E+00 -0.12757811864E+04  0.40820189426E+04  0.38775328512E+04 0.  0.
        4    1    3    3  502    0 -0.15807329261E+03 -0.19191101564E+04 -0.87526492493E+03  0.21151976882E+04  0.12699999809E+01 0.  1.
       -4    1    3    3    0  502  0.15807329261E+03  0.19191101564E+04 -0.40051626152E+03  0.19668212544E+04  0.12699999809E+01 0. -1.
</event>
<event>
 5   0  0.4255250E-07  0.4056001E+04  0.7818609E-02  0.7993344E-01
       -3   -1    0    0    0  501  0.00000000000E+00  0.00000000000E+00  0.19871789658E+04  0.19871789683E+04  0.10100000352E+00 0. -1.
        3   -1    0    0  501    0  0.00000000000E+00  0.00000000000E+00 -0.20696610328E+04  0.20696610352E+04  0.10100000352E+00 0.  1.
    10030    2    1    2    0    0  0.00000000000E+00  0.00000000000E+00 -0.82482067000E+02  0.40568400036E+04  0.40560014205E+04 0.  0.
        5    1    3    3  502    0  0.23639746617E+03 -0.52807192701E+02  0.19726529506E+04  0.19874743055E+04  0.46999998093E+01 0. -1.
       -5    1    3    3    0  502 -0.23639746617E+03  0.52807192701E+02 -0.20551350176E+04  0.20693656980E+04  0.46999998093E+01 0.  1.
</event>
<event>
 5   0  0.1214844E-06  0.2026748E+04  0.7818609E-02  0.8594216E-01
        2   -1    0    0  501    0  0.00000000000E+00  0.00000000000E+00  0.12670313041E+04  0.12670313041E+04  0.25500000920E-02 0.  1.
       -2   -1    0    0    0  501  0.00000000000E+00  0.00000000000E+00 -0.81049853568E+03  0.81049853568E+03  0.25500000920E-02 0. -1.
    10030    2    1    2    0    0  0.00000000000E+00  0.00000000000E+00  0.45653276845E+03  0.20775298398E+04  0.20267481508E+04 0.  0.
        4    1    3    3  502    0  0.72777444648E+03 -0.47890988763E+03 -0.30230773665E+03  0.92217238408E+03  0.12699999809E+01 0. -1.
       -4    1    3    3    0  502 -0.72777444648E+03  0.47890988763E+03  0.75884050510E+03  0.11553574557E+04  0.12699999809E+01 0.  1.
</event>
<event>
 5   0  0.1184616E-06  0.3798628E+04  0.7818609E-02  0.8046449E-01
        2   -1    0    0  501    0  0.00000000000E+00  0.00000000000E+00  0.18048506141E+04  0.18048506141E+04  0.25500000920E-02 0.  1.
       -2   -1    0    0    0  501  0.00000000000E+00  0.00000000000E+00 -0.19987216792E+04  0.19987216792E+04  0.25500000920E-02 0. -1.
    10030    2    1    2    0    0  0.00000000000E+00  0.00000000000E+00 -0.19387106504E+03  0.38035722933E+04  0.37986281998E+04 0.  0.
        5    1    3    3  502    0  0.21365106794E+03  0.18218978265E+04  0.39606033658E+03  0.18766577603E+04  0.46999998093E+01 0.  1.
       -5    1    3    3    0  502 -0.21365106794E+03 -0.18218978265E+04 -0.58993140161E+03  0.19269145330E+04  0.46999998093E+01 0. -1.
</event>
<event>
 5   0  0.1372748E-06  0.3025633E+04  0.7818609E-02  0.8236449E-01
        2   -1    0    0  501    0  0.00000000000E+00  0.00000000000E+00  0.30843814360E+04  0.30843814360E+04  0.25500000920E-02 0.  1.
       -2   -1    0    0    0  501  0.00000000000E+00  0.00000000000E+00 -0.74200068700E+03  0.74200068701E+03  0.25500000920E-02 0. -1.
    10030    2    1    2    0    0  0.00000000000E+00  0.00000000000E+00  0.23423807490E+04  0.38263821230E+04  0.30256325914E+04 0.  0.
        1    1    3    3  502    0 -0.90533106238E+03  0.90238954565E+03  0.21944534971E+04  0.25395978768E+04  0.50400001928E-02 0.  1.
       -1    1    3    3    0  502  0.90533106238E+03 -0.90238954565E+03  0.14792725191E+03  0.12867842463E+04  0.50400001928E-02 0. -1.
</event>
<event>
 5   0  0.8030324E-07  0.2086418E+04  0.7818609E-02  0.8567250E-01
       -1   -1    0    0    0  501  0.00000000000E+00  0.00000000000E+00  0.29783459605E+04  0.29783459605E+04  0.50400001928E-02 0.  1.
        1   -1    0    0  501    0  0.00000000000E+00  0.00000000000E+00 -0.36539925261E+03  0.36539925264E+03  0.50400001928E-02 0. -1.
    10030    2    1    2    0    0  0.00000000000E+00  0.00000000000E+00  0.26129467079E+04  0.33437452131E+04  0.20864183550E+04 0.  0.
        1    1    3    3  502    0 -0.50845369247E+03 -0.51573757826E+03  0.10314352500E+03  0.73153878488E+03  0.50400001928E-02 0. -1.
       -1    1    3    3    0  502  0.50845369247E+03  0.51573757826E+03  0.25098031829E+04  0.26122064282E+04  0.50400001928E-02 0.  1.
</event>
<event>
 5   0  0.1372748E-06  0.3795554E+04  0.7818609E-02  0.8047110E-01
        2   -1    0    0  501    0  0.00000000000E+00  0.00000000000E+00  0.17979421860E+04  0.17979421860E+04  0.25500000920E-02 0.  1.
       -2   -1    0    0    0  501  0.00000000000E+00  0.00000000000E+00 -0.20031551657E+04  0.20031551657E+04  0.25500000920E-02 0. -1.
    10030    2    1    2    0    0  0.00000000000E+00  0.00000000000E+00 -0.20521297972E+03  0.38010973516E+04  0.37955538080E+04 0.  0.
        1    1    3    3  502    0  0.76457607933E+03 -0.55327800111E+03 -0.17514813979E+04  0.19895678463E+04  0.50400001928E-02 0. -1.
       -1    1    3    3    0  502 -0.76457607933E+03  0.55327800111E+03  0.15462684182E+04  0.18115295054E+04  0.50400001928E-02 0.  1.
</event>
<event>
 5   0  0.4255250E-07  0.2630980E+04  0.7818609E-02  0.8357753E-01
       -1   -1    0    0    0  501  0.00000000000E+00  0.00000000000E+00  0.64735315360E+03  0.64735315362E+03  0.50400001928E-02 0.  1.
        1   -1    0    0  501    0  0.00000000000E+00  0.00000000000E+00 -0.26732148374E+04  0.26732148374E+04  0.50400001928E-02 0. -1.
    10030    2    1    2    0    0  0.00000000000E+00  0.00000000000E+00 -0.20258616838E+04  0.33205679910E+04  0.26309800876E+04 0.  0.
        2    1    3    3  502    0 -0.12631211946E+04  0.33547834457E+03 -0.82364406449E+03  0.15448010930E+04  0.25500000920E-02 0. -1.
       -2    1    3    3    0  502  0.12631211946E+04 -0.33547834457E+03 -0.12022176193E+04  0.17757668980E+04  0.25500000920E-02 0.  1.
</event>
<event>
 5   0  0.1337854E-06  0.3766122E+04  0.7818609E-02  0.8053464E-01
        2   -1    0    0  501    0  0.00000000000E+00  0.00000000000E+00  0.17621319625E+04  0.17621319625E+04  0.25500000920E-02 0. -1.
       -2   -1    0    0    0  501  0.00000000000E+00  0.00000000000E+00 -0.20122890658E+04  0.20122890658E+04  0.25500000920E-02 0.  1.
    10030    2    1    2    0    0  0.00000000000E+00  0.00000000000E+00 -0.25015710331E+03  0.37744210284E+04  0.37661220802E+04 0.  0.
        3    1    3    3  502    0  0.14765959936E+04 -0.11197419525E+04 -0.46012212152E+03  0.19094161792E+04  0.10100000352E+00 0.  1.
       -3    1    3    3    0  502 -0.14765959936E+04  0.11197419525E+04  0.20996501820E+03  0.18650048492E+04  0.10100000352E+00 0. -1.
</event>
<event>
 5   0  0.8030324E-07  0.3782828E+04  0.7818609E-02  0.8049850E-01
        1   -1    0    0  501    0  0.00000000000E+00  0.00000000000E+00  0.16387920419E+04  0.16387920419E+04  0.50400001928E-02 0.  1.
       -1   -1    0    0    0  501  0.00000000000E+00  0.00000000000E+00 -0.21829782755E+04  0.21829782755E+04  0.50400001928E-02 0. -1.
    10030    2    1    2    0    0  0.00000000000E+00  0.00000000000E+00 -0.54418623360E+03  0.38217703174E+04  0.37828282676E+04 0.  0.
        1    1    3    3  502    0  0.79906001024E+03 -0.69762437729E+03  0.13100004578E+04  0.16856090505E+04  0.50400001928E-02 0.  1.
       -1    1    3    3    0  502 -0.79906001024E+03  0.69762437729E+03 -0.18541866914E+04  0.21361612669E+04  0.50400001928E-02 0. -1.
</event>
<event>
 5   0  0.8030324E-07  0.3740586E+04  0.7818609E-02  0.8059026E-01
       -1   -1    0    0    0  501  0.00000000000E+00  0.00000000000E+00  0.20138372274E+04  0.20138372274E+04  0.50400001928E-02 0. -1.
        1   -1    0    0  501    0  0.00000000000E+00  0.00000000000E+00 -0.17369808722E+04  0.17369808722E+04  0.50400001928E-02 0.  1.
    10030    2    1    2    0    0  0.00000000000E+00  0.00000000000E+00  0.27685635514E+03  0.37508180996E+04  0.37405864480E+04 0.  0.
        1    1    3    3  502    0  0.13953750317E+03 -0.78145520202E+03 -0.15596778772E+04  0.17500680067E+04  0.50400001928E-02 0.  1.
       -1    1    3    3    0  502 -0.13953750317E+03  0.78145520202E+03  0.18365342323E+04  0.20007500929E+04  0.50400001928E-02 0. -1.
</event>
<event>
 5   0  0.1372748E-06  0.3833945E+04  0.7818609E-02  0.8038909E-01
       -2   -1    0    0    0  501  0.00000000000E+00  0.00000000000E+00  0.17755771135E+04  0.17755771135E+04  0.25500000920E-02 0. -1.
        2   -1    0    0  501    0  0.00000000000E+00  0.00000000000E+00 -0.20696274256E+04  0.20696274256E+04  0.25500000920E-02 0.  1.
    10030    2    1    2    0    0  0.00000000000E+00  0.00000000000E+00 -0.29405031208E+03  0.38452045391E+04  0.38339447520E+04 0.  0.
        1    1    3    3  502    0  0.30259021159E+03  0.18929311829E+04 -0.14119509441E+03  0.19221564333E+04  0.50400001928E-02 0.  1.
       -1    1    3    3    0  502 -0.30259021159E+03 -0.18929311829E+04 -0.15285521767E+03  0.19230481057E+04  0.50400001928E-02 0. -1.
</event>
<event>
 5   0  0.1214844E-06  0.3791363E+04  0.7818609E-02  0.8048011E-01
       -2   -1    0    0    0  501  0.00000000000E+00  0.00000000000E+00  0.15782350829E+04  0.15782350829E+04  0.25500000920E-02 0. -1.
        2   -1    0    0  501    0  0.00000000000E+00  0.00000000000E+00 -0.22769794252E+04  0.22769794252E+04  0.25500000920E-02 0.  1.
    10030    2    1    2    0    0  0.00000000000E+00  0.00000000000E+00 -0.69874434233E+03  0.38552145081E+04  0.37913632440E+04 0.  0.
        4    1    3    3  502    0 -0.15000980435E+04 -0.11125922770E+04 -0.19170322689E+02  0.18677593071E+04  0.12699999809E+01 0.  1.
       -4    1    3    3    0  502  0.15000980435E+04  0.11125922770E+04 -0.67957401964E+03  0.19874552010E+04  0.12699999809E+01 0. -1.
</event>
<event>
 5   0  0.1372748E-06  0.1943406E+04  0.7818609E-02  0.8633547E-01
        2   -1    0    0  501    0  0.00000000000E+00  0.00000000000E+00  0.74456542605E+03  0.74456542606E+03  0.25500000920E-02 0.  1.
       -2   -1    0    0    0  501  0.00000000000E+00  0.00000000000E+00 -0.12681313333E+04  0.12681313333E+04  0.25500000920E-02 0. -1.
    10030    2    1    2    0    0  0.00000000000E+00  0.00000000000E+00 -0.52356590726E+03  0.20126967594E+04  0.19434060270E+04 0.  0.
        1    1    3    3  502    0  0.88828928476E+03  0.13756997586E+03  0.12046102390E+03  0.90691466521E+03  0.50400001928E-02 0. -1.
       -1    1    3    3    0  502 -0.88828928476E+03 -0.13756997586E+03 -0.64402693116E+03  0.11057820942E+04  0.50400001928E-02 0.  1.
</event>
<event>
 5   0  0.1337854E-06  0.3746336E+04  0.7818609E-02  0.8057770E-01
        2   -1    0    0  501    0  0.00000000000E+00  0.00000000000E+00  0.24608303974E+04  0.24608303974E+04  0.25500000920E-02 0.  1.
       -2   -1    0    0    0  501  0.00000000000E+00  0.00000000000E+00 -0.14258435576E+04  0.14258435576E+04  0.25500000920E-02 0. -1.
    10030    2    1    2    0    0  0.00000000000E+00  0.00000000000E+00  0.10349868398E+04  0.38866739550E+04  0.37463364336E+04 0.  0.
        3    1    3    3  502    0 -0.14252681789E+04 -0.91147813184E+03  0.13517153292E+04  0.21654828811E+04  0.10100000352E+00 0.  1.
       -3    1    3    3    0  502  0.14252681789E+04  0.91147813184E+03 -0.31672848947E+03  0.17211910739E+04  0.10100000352E+00 0. -1.
</event>
<event>
 5   0  0.4795023E-07  0.3715919E+04  0.7818609E-02  0.8064443E-01
       -1   -1    0    0    0  501  0.00000000000E+00  0.00000000000E+00  0.21083834129E+04  0.21083834129E+04  0.50400001928E-02 0. -1.
        1   -1    0    0  501    0  0.00000000000E+00  0.00000000000E+00 -0.16372796136E+04  0.16372796136E+04  0.50400001928E-02 0.  1.
    10030    2    1    2    0    0  0.00000000000E+00  0.00000000000E+00  0.47110379931E+03  0.37456630265E+04  0.37159188256E+04 0.  0.
        3    1    3    3  502    0 -0.35056020502E+03 -0.43853779449E+01 -0.16036355842E+04  0.16415111288E+04  0.10100000352E+00 0.  1.
       -3    1    3    3    0  502  0.35056020502E+03  0.43853779449E+01  0.20747393835E+04  0.21041518977E+04  0.10100000352E+00 0. -1.
</event>
<event>
 5   0  0.8030324E-07  0.3777583E+04  0.7818609E-02  0.8050983E-01
       -1   -1    0    0    0  501  0.00000000000E+00  0.00000000000E+00  0.16000287548E+04  0.16000287548E+04  0.50400001928E-02 0. -1.
        1   -1    0    0  501    0  0.00000000000E+00  0.00000000000E+00 -0.22296680051E+04  0.22296680051E+04  0.50400001928E-02 0.  1.
    10030    2    1    2    0    0  0.00000000000E+00  0.00000000000E+00 -0.62963925034E+03  0.38296967599E+04  0.37775827836E+04 0.  0.
        1    1    3    3  502    0 -0.10418532027E+04  0.89217959825E+03 -0.16312285667E+04  0.21312787636E+04  0.50400001928E-02 0.  1.
       -1    1    3    3    0  502  0.10418532027E+04 -0.89217959825E+03  0.10015893163E+04  0.16984179963E+04  0.50400001928E-02 0. -1.
</event>
<event>
 5   0  0.5284458E-07  0.2141943E+04  0.7818609E-02  0.8542989E-01
       -1   -1    0    0    0  501  0.00000000000E+00  0.00000000000E+00  0.76143324808E+03  0.76143324810E+03  0.50400001928E-02 0.  1.
        1   -1    0    0  501    0  0.00000000000E+00  0.00000000000E+00 -0.15063435687E+04  0.15063435688E+04  0.50400001928E-02 0. -1.
    10030    2    1    2    0    0  0.00000000000E+00  0.00000000000E+00 -0.74491032066E+03  0.22677768168E+04  0.21419431144E+04 0.  0.
        5    1    3    3  502    0 -0.14643742822E+03 -0.91411015085E+03  0.19761589846E+03  0.94663373149E+03  0.46999998093E+01 0.  1.
       -5    1    3    3    0  502  0.14643742822E+03  0.91411015085E+03 -0.94252621912E+03  0.13211430854E+04  0.46999998093E+01 0. -1.
</event>
<event>
 5   0  0.4255250E-07  0.3620371E+04  0.7818609E-02  0.8085841E-01
       -3   -1    0    0    0  501  0.00000000000E+00  0.00000000000E+00  0.19742281420E+04  0.19742281446E+04  0.10100000352E+00 0.  1.
        3   -1    0    0  501    0  0.00000000000E+00  0.00000000000E+00 -0.16597738234E+04  0.16597738264E+04  0.10100000352E+00 0. -1.
    10030    2    1    2    0    0  0.00000000000E+00  0.00000000000E+00  0.31445431862E+03  0.36340019710E+04  0.36203713631E+04 0.  0.
        3    1    3    3  502    0  0.16384176752E+04 -0.71030700941E+03  0.45469349068E+03  0.18427410851E+04  0.10100000352E+00 0. -1.
       -3    1    3    3    0  502 -0.16384176752E+04  0.71030700941E+03 -0.14023917206E+03  0.17912608859E+04  0.10100000352E+00 0.  1.
</event>
<event>
 5   0  0.1214844E-06  0.3914256E+04  0.7818609E-02  0.8022071E-01
        2   -1    0    0  501    0  0.00000000000E+00  0.00000000000E+00  0.32847728142E+04  0.32847728142E+04  0.25500000920E-02 0.  1.
       -2   -1    0    0    0  501  0.00000000000E+00  0.00000000000E+00 -0.11660927888E+04  0.11660927888E+04  0.25500000920E-02 0. -1.
    10030    2    1    2    0    0  0.00000000000E+00  0.00000000000E+00  0.21186800254E+04  0.44508656030E+04  0.39142559402E+04 0.  0.
        4    1    3    3  502    0 -0.85449335573E+03 -0.38522112623E+03  0.30129518996E+04  0.31553819061E+04  0.12699999809E+01 0.  1.
       -4    1    3    3    0  502  0.85449335573E+03  0.38522112623E+03 -0.89427187416E+03  0.12954836969E+04  0.12699999809E+01 0. -1.
</event>
<event>
 5   0  0.1372748E-06  0.3881170E+04  0.7818609E-02  0.8028957E-01
       -2   -1    0    0    0  501  0.00000000000E+00  0.00000000000E+00  0.16779183366E+04  0.16779183366E+04  0.25500000920E-02 0. -1.
        2   -1    0    0  501    0  0.00000000000E+00  0.00000000000E+00 -0.22443707932E+04  0.22443707932E+04  0.25500000920E-02 0.  1.
    10030    2    1    2    0    0  0.00000000000E+00  0.00000000000E+00 -0.56645245658E+03  0.39222891298E+04  0.38811703947E+04 0.  0.
        1    1    3    3  502    0 -0.57241753877E+03  0.15201214326E+04 -0.13562852111E+04  0.21161145013E+04  0.50400001928E-02 0.  1.
       -1    1    3    3    0  502  0.57241753877E+03 -0.15201214326E+04  0.78983275453E+03  0.18061746286E+04  0.50400001928E-02 0. -1.
</event>
<event>
 5   0  0.4255250E-07  0.3837033E+04  0.7818609E-02  0.8038254E-01
        1   -1    0    0  501    0  0.00000000000E+00  0.00000000000E+00  0.32332567148E+04  0.32332567149E+04  0.50400001928E-02 0.  1.
       -1   -1    0    0    0  501  0.00000000000E+00  0.00000000000E+00 -0.11383892651E+04  0.11383892652E+04  0.50400001928E-02 0. -1.
    10030    2    1    2    0    0  0.00000000000E+00  0.00000000000E+00  0.20948674497E+04  0.43716459800E+04  0.38370325699E+04 0.  0.
        2    1    3    3  502    0  0.20819989066E+03  0.12034105089E+04  0.27331649051E+04  0.29936156142E+04  0.25500000920E-02 0.  1.
       -2    1    3    3    0  502 -0.20819989066E+03 -0.12034105089E+04 -0.63829745536E+03  0.13780303658E+04  0.25500000920E-02 0. -1.
</event>
<event>
 5   0  0.1184616E-06  0.3743289E+04  0.7818609E-02  0.8058436E-01
       -2   -1    0    0    0  501  0.00000000000E+00  0.00000000000E+00  0.15188443661E+04  0.15188443661E+04  0.25500000920E-02 0.  1.
        2   -1    0    0  501    0  0.00000000000E+00  0.00000000000E+00 -0.23063942910E+04  0.23063942910E+04  0.25500000920E-02 0. -1.
    10030    2    1    2    0    0  0.00000000000E+00  0.00000000000E+00 -0.78754992493E+03  0.38252386570E+04  0.37432894490E+04 0.  0.
        5    1    3    3  502    0  0.87739990945E+03 -0.69240995961E+03 -0.19278969586E+04  0.22284682915E+04  0.46999998093E+01 0. -1.
       -5    1    3    3    0  502 -0.87739990945E+03  0.69240995961E+03  0.11403470336E+04  0.15967703656E+04  0.46999998093E+01 0.  1.
</event>
<event>
 5   0  0.4255250E-07  0.3736097E+04  0.7818609E-02  0.8060009E-01
       -1   -1    0    0    0  501  0.00000000000E+00  0.00000000000E+00  0.12412887490E+04  0.12412887490E+04  0.50400001928E-02 0.  1.
        1   -1    0    0  501    0  0.00000000000E+00  0.00000000000E+00 -0.28112752203E+04  0.28112752203E+04  0.50400001928E-02 0. -1.
    10030    2    1    2    0    0  0.00000000000E+00  0.00000000000E+00 -0.15699864713E+04  0.40525639693E+04  0.37360965198E+04 0.  0.
        2    1    3    3  502    0 -0.79621655400E+02  0.12389159528E+04 -0.22990616421E+04  0.26128407491E+04  0.25500000920E-02 0. -1.
       -2    1    3    3    0  502  0.79621655400E+02 -0.12389159528E+04  0.72907517078E+03  0.14397232202E+04  0.25500000920E-02 0.  1.
</event>
<event>
 5   0  0.1341932E-06  0.3733251E+04  0.7818609E-02  0.8060633E-01
       -2   -1    0    0    0  501  0.00000000000E+00  0.00000000000E+00  0.15057688624E+04  0.15057688624E+04  0.25500000920E-02 0. -1.
        2   -1    0    0  501    0  0.00000000000E+00  0.00000000000E+00 -0.23139615515E+04  0.23139615515E+04  0.25500000920E-02 0.  1.
    10030    2    1    2    0    0  0.00000000000E+00  0.00000000000E+00 -0.80819268920E+03  0.38197304139E+04  0.37332512656E+04 0.  0.
        2    1    3    3  502    0 -0.17979620250E+04 -0.27208371387E+03  0.27084994573E+02  0.18186342644E+04  0.25500000920E-02 0. -1.
       -2    1    3    3    0  502  0.17979620250E+04  0.27208371387E+03 -0.83527768377E+03  0.20010961495E+04  0.25500000920E-02 0.  1.
</event>
<event>
 5   0  0.1337854E-06  0.2035716E+04  0.7818609E-02  0.8590102E-01
        2   -1    0    0  501    0  0.00000000000E+00  0.00000000000E+00  0.26466809292E+04  0.26466809292E+04  0.25500000920E-02 0.  1.
       -2   -1    0    0    0  501  0.00000000000E+00  0.00000000000E+00 -0.39144678363E+03  0.39144678364E+03  0.25500000920E-02 0. -1.
    10030    2    1    2    0    0  0.00000000000E+00  0.00000000000E+00  0.22552341456E+04  0.30381277128E+04  0.20357158319E+04 0.  0.
        3    1    3    3  502    0 -0.58899905248E+02 -0.77892890208E+03  0.21015066067E+04  0.22419922974E+04  0.10100000352E+00 0.  1.
       -3    1    3    3    0  502  0.58899905248E+02  0.77892890208E+03  0.15372753887E+03  0.79613541546E+03  0.10100000352E+00 0. -1.
</event>
<event>
 5   0  0.1372748E-06  0.2071320E+04  0.7818609E-02  0.8573984E-01
       -2   -1    0    0    0  501  0.00000000000E+00  0.00000000000E+00  0.15730961122E+04  0.15730961122E+04  0.25500000920E-02 0.  1.
        2   -1    0    0  501    0  0.00000000000E+00  0.00000000000E+00 -0.68183454920E+03  0.68183454921E+03  0.25500000920E-02 0. -1.
    10030    2    1    2    0    0  0.00000000000E+00  0.00000000000E+00  0.89126156302E+03  0.22549306614E+04  0.20713196552E+04 0.  0.
        1    1    3    3  502    0 -0.72345685186E+03 -0.65406681485E+03  0.82493873178E+03  0.12773868349E+04  0.50400001928E-02 0.  1.
       -1    1    3    3    0  502  0.72345685186E+03  0.65406681485E+03  0.66322831238E+02  0.97754382652E+03  0.50400001928E-02 0. -1.
</event>
<event>
 5   0  0.1214844E-06  0.3771140E+04  0.7818609E-02  0.8052377E-01
       -2   -1    0    0    0  501  0.00000000000E+00  0.00000000000E+00  0.11945514282E+04  0.11945514282E+04  0.25500000920E-02 0.  1.
        2   -1    0    0  501    0  0.00000000000E+00  0.00000000000E+00 -0.29763262726E+04  0.29763262726E+04  0.25500000920E-02 0. -1.
    10030    2    1    2    0    0  0.00000000000E+00  0.00000000000E+00 -0.17817748444E+04  0.41708777008E+04  0.37711403049E+04 0.  0.
        4    1    3    3  502    0  0.36306916232E+03  0.98953183767E+03 -0.26200633823E+04  0.28241328252E+04  0.12699999809E+01 0. -1.
       -4    1    3    3    0  502 -0.36306916232E+03 -0.98953183767E+03  0.83828853784E+03  0.13467448756E+04  0.12699999809E+01 0.  1.
</event>
<event>
 5   0  0.1079205E-06  0.4067533E+04  0.7818609E-02  0.7991060E-01
        1   -1    0    0  501    0  0.00000000000E+00  0.00000000000E+00  0.13213332140E+04  0.13213332140E+04  0.50400001928E-02 0.  1.
       -1   -1    0    0    0  501  0.00000000000E+00  0.00000000000E+00 -0.31303278952E+04  0.31303278952E+04  0.50400001928E-02 0. -1.
    10030    2    1    2    0    0  0.00000000000E+00  0.00000000000E+00 -0.18089946812E+04  0.44516611093E+04  0.40675330208E+04 0.  0.
        4    1    3    3  502    0 -0.13854010304E+04  0.49645333761E+03  0.63177602879E+03  0.16015444093E+04  0.12699999809E+01 0.  1.
       -4    1    3    3    0  502  0.13854010304E+04 -0.49645333761E+03 -0.24407707100E+04  0.28501167000E+04  0.12699999809E+01 0. -1.
</event>
<event>
 5   0  0.1337854E-06  0.3841951E+04  0.7818609E-02  0.8037212E-01
       -2   -1    0    0    0  501  0.00000000000E+00  0.00000000000E+00  0.19334193444E+04  0.19334193444E+04  0.25500000920E-02 0. -1.
        2   -1    0    0  501    0  0.00000000000E+00  0.00000000000E+00 -0.19086118551E+04  0.19086118551E+04  0.25500000920E-02 0.  1.
    10030    2    1    2    0    0  0.00000000000E+00  0.00000000000E+00  0.24807489367E+02  0.38420311995E+04  0.38419511093E+04 0.  0.
        3    1    3    3  502    0 -0.77241585733E+03 -0.30180487007E+03 -0.17203858604E+04  0.19098272055E+04  0.10100000352E+00 0.  1.
       -3    1    3    3    0  502  0.77241585733E+03  0.30180487007E+03  0.17451933497E+04  0.19322039940E+04  0.10100000352E+00 0. -1.
</event>
<event>
 5   0  0.1341932E-06  0.3831252E+04  0.7818609E-02  0.8039481E-01
        2   -1    0    0  501    0  0.00000000000E+00  0.00000000000E+00  0.19573574409E+04  0.19573574409E+04  0.25500000920E-02 0.  1.
       -2   -1    0    0    0  501  0.00000000000E+00  0.00000000000E+00 -0.18747843761E+04  0.18747843761E+04  0.25500000920E-02 0. -1.
    10030    2    1    2    0    0  0.00000000000E+00  0.00000000000E+00  0.82573064816E+02  0.38321418170E+04  0.38312520922E+04 0.  0.
        2    1    3    3  502    0 -0.14062135732E+04  0.12897321631E+04 -0.12839213452E+03  0.19124147579E+04  0.25500000920E-02 0. -1.
       -2    1    3    3    0  502  0.14062135732E+04 -0.12897321631E+04  0.21096519933E+03  0.19197270591E+04  0.25500000920E-02 0.  1.
</event>
<event>
 5   0  0.1184616E-06  0.1926669E+04  0.7818609E-02  0.8641694E-01
       -2   -1    0    0    0  501  0.00000000000E+00  0.00000000000E+00  0.10202027211E+04  0.10202027211E+04  0.25500000920E-02 0.  1.
        2   -1    0    0  501    0  0.00000000000E+00  0.00000000000E+00 -0.90963611345E+03  0.90963611345E+03  0.25500000920E-02 0. -1.
    10030    2    1    2    0    0  0.00000000000E+00  0.00000000000E+00  0.11056660763E+03  0.19298388345E+04  0.19266688746E+04 0.  0.
        5    1    3    3  502    0  0.95417788393E+02  0.82131603463E+03  0.55039057541E+03  0.99328568830E+03  0.46999998093E+01 0. -1.
       -5    1    3    3    0  502 -0.95417788393E+02 -0.82131603463E+03 -0.43982396778E+03  0.93655314623E+03  0.46999998093E+01 0.  1.
</event>
<event>
 5   0  0.8030324E-07  0.3778120E+04  0.7818609E-02  0.8050867E-01
        1   -1    0    0  501    0  0.00000000000E+00  0.00000000000E+00  0.20884670350E+04  0.20884670350E+04  0.50400001928E-02 0.  1.
       -1   -1    0    0    0  501  0.00000000000E+00  0.00000000000E+00 -0.17086919311E+04  0.17086919311E+04  0.50400001928E-02 0. -1.
    10030    2    1    2    0    0  0.00000000000E+00  0.00000000000E+00  0.37977510398E+03  0.37971589661E+04  0.37781195169E+04 0.  0.
        1    1    3    3  502    0  0.26758892210E+03  0.21258279973E+03 -0.16773640790E+04  0.17118252048E+04  0.50400001928E-02 0. -1.
       -1    1    3    3    0  502 -0.26758892210E+03 -0.21258279973E+03  0.20571391830E+04  0.20853337614E+04  0.50400001928E-02 0.  1.
</event>
<event>
 5   0  0.4795023E-07  0.2563763E+04  0.7818609E-02  0.8380615E-01
        1   -1    0    0  501    0  0.00000000000E+00  0.00000000000E+00  0.64262342178E+03  0.64262342180E+03  0.50400001928E-02 0.  1.
       -1   -1    0    0    0  501  0.00000000000E+00  0.00000000000E+00 -0.25570504611E+04  0.25570504611E+04  0.50400001928E-02 0. -1.
    10030    2    1    2    0    0  0.00000000000E+00  0.00000000000E+00 -0.19144270393E+04  0.31996738829E+04  0.25637632629E+04 0.  0.
        3    1    3    3  502    0  0.30699098031E+03  0.14569507358E+03  0.58538866176E+03  0.67686809053E+03  0.10100000352E+00 0.  1.
       -3    1    3    3    0  502 -0.30699098031E+03 -0.14569507358E+03 -0.24998157011E+04  0.25228057924E+04  0.10100000352E+00 0. -1.
</event>
<event>
 5   0  0.1341932E-06  0.3785351E+04  0.7818609E-02  0.8049306E-01
        2   -1    0    0  501    0  0.00000000000E+00  0.00000000000E+00  0.24815186237E+04  0.24815186237E+04  0.25500000920E-02 0.  1.
       -2   -1    0    0    0  501  0.00000000000E+00  0.00000000000E+00 -0.14435594299E+04  0.14435594299E+04  0.25500000920E-02 0. -1.
    10030    2    1    2    0    0  0.00000000000E+00  0.00000000000E+00  0.10379591938E+04  0.39250780536E+04  0.37853505041E+04 0.  0.
        2    1    3    3  502    0 -0.32955802919E+03  0.88893647102E+03  0.22175562645E+04  0.24117156405E+04  0.25500000920E-02 0.  1.
       -2    1    3    3    0  502  0.32955802919E+03 -0.88893647102E+03 -0.11795970708E+04  0.15133624131E+04  0.25500000920E-02 0. -1.
</event>
<event>
 5   0  0.8030324E-07  0.3741702E+04  0.7818609E-02  0.8058782E-01
        1   -1    0    0  501    0  0.00000000000E+00  0.00000000000E+00  0.15556731263E+04  0.15556731263E+04  0.50400001928E-02 0. -1.
       -1   -1    0    0    0  501  0.00000000000E+00  0.00000000000E+00 -0.22498841144E+04  0.22498841144E+04  0.50400001928E-02 0.  1.
    10030    2    1    2    0    0  0.00000000000E+00  0.00000000000E+00 -0.69421098813E+03  0.38055572407E+04  0.37417024222E+04 0.  0.
        1    1    3    3  502    0  0.14017430370E+04  0.32811123000E+02 -0.16068406973E+04  0.21325799254E+04  0.50400001928E-02 0.  1.
       -1    1    3    3    0  502 -0.14017430370E+04 -0.32811123000E+02  0.91262970919E+03  0.16729773153E+04  0.50400001928E-02 0. -1.
</event>
<event>
 5   0  0.1214844E-06  0.2092230E+04  0.7818609E-02  0.8564674E-01
       -2   -1    0    0    0  501  0.00000000000E+00  0.00000000000E+00  0.57969942525E+03  0.57969942526E+03  0.25500000920E-02 0.  1.
        2   -1    0    0  501    0  0.00000000000E+00  0.00000000000E+00 -0.18878001533E+04  0.18878001533E+04  0.25500000920E-02 0. -1.
    10030    2    1    2    0    0  0.00000000000E+00  0.00000000000E+00 -0.13081007281E+04  0.24674995786E+04  0.20922300675E+04 0.  0.
        4    1    3    3  502    0  0.83177069927E+03  0.58911560842E+03 -0.37632253971E+03  0.10865173551E+04  0.12699999809E+01 0.  1.
       -4    1    3    3    0  502 -0.83177069927E+03 -0.58911560842E+03 -0.93177818838E+03  0.13809822235E+04  0.12699999809E+01 0. -1.
</event>
<event>
 5   0  0.1184616E-06  0.3638381E+04  0.7818609E-02  0.8081756E-01
       -2   -1    0    0    0  501  0.00000000000E+00  0.00000000000E+00  0.29919621286E+04  0.29919621286E+04  0.25500000920E-02 0.  1.
        2   -1    0    0  501    0  0.00000000000E+00  0.00000000000E+00 -0.11061147697E+04  0.11061147697E+04  0.25500000920E-02 0. -1.
    10030    2    1    2    0    0  0.00000000000E+00  0.00000000000E+00  0.18858473588E+04  0.40980768983E+04  0.36383806843E+04 0.  0.
        5    1    3    3  502    0  0.13023261281E+04 -0.51221850585E+03 -0.36626213577E+03  0.14465791315E+04  0.46999998093E+01 0. -1.
       -5    1    3    3    0  502 -0.13023261281E+04  0.51221850585E+03  0.22521094946E+04  0.26514977668E+04  0.46999998093E+01 0.  1.
</event>
<event>
 5   0  0.1372748E-06  0.3864968E+04  0.7818609E-02  0.8032355E-01
        2   -1    0    0  501    0  0.00000000000E+00  0.00000000000E+00  0.21139024122E+04  0.21139024122E+04  0.25500000920E-02 0. -1.
       -2   -1    0    0    0  501  0.00000000000E+00  0.00000000000E+00 -0.17666353737E+04  0.17666353737E+04  0.25500000920E-02 0.  1.
    10030    2    1    2    0    0  0.00000000000E+00  0.00000000000E+00  0.34726703850E+03  0.38805377860E+04  0.38649681904E+04 0.  0.
        1    1    3    3  502    0 -0.57774990940E+03 -0.18181101871E+04 -0.13611398661E+03  0.19125497713E+04  0.50400001928E-02 0.  1.
       -1    1    3    3    0  502  0.57774990940E+03  0.18181101871E+04  0.48338102511E+03  0.19679880147E+04  0.50400001928E-02 0. -1.
</event>
<event>
 5   0  0.5284458E-07  0.3834779E+04  0.7818609E-02  0.8038732E-01
       -1   -1    0    0    0  501  0.00000000000E+00  0.00000000000E+00  0.18635413949E+04  0.18635413949E+04  0.50400001928E-02 0. -1.
        1   -1    0    0  501    0  0.00000000000E+00  0.00000000000E+00 -0.19727934741E+04  0.19727934741E+04  0.50400001928E-02 0.  1.
    10030    2    1    2    0    0  0.00000000000E+00  0.00000000000E+00 -0.10925207923E+03  0.38363348690E+04  0.38347788998E+04 0.  0.
        5    1    3    3  502    0 -0.10886848605E+04 -0.73400802765E+02 -0.16318880358E+04  0.19630850860E+04  0.46999998093E+01 0.  1.
       -5    1    3    3    0  502  0.10886848605E+04  0.73400802765E+02  0.15226359566E+04  0.18732497831E+04  0.46999998093E+01 0. -1.
</event>
<event>
 5   0  0.4255250E-07  0.2984464E+04  0.7818609E-02  0.8248181E-01
        1   -1    0    0  501    0  0.00000000000E+00  0.00000000000E+00  0.18541373815E+04  0.18541373815E+04  0.50400001928E-02 0.  1.
       -1   -1    0    0    0  501  0.00000000000E+00  0.00000000000E+00 -0.12009661449E+04  0.12009661450E+04  0.50400001928E-02 0. -1.
    10030    2    1    2    0    0  0.00000000000E+00  0.00000000000E+00  0.65317123652E+03  0.30551035264E+04  0.29844639205E+04 0.  0.
        2    1    3    3  502    0  0.12056661363E+04  0.68537201157E+03 -0.23726058010E+03  0.14070032727E+04  0.25500000920E-02 0. -1.
       -2    1    3    3    0  502 -0.12056661363E+04 -0.68537201157E+03  0.89043181663E+03  0.16481002538E+04  0.25500000920E-02 0.  1.
</event>
<event>
 5   0  0.8030324E-07  0.3872744E+04  0.7818609E-02  0.8030722E-01
        1   -1    0    0  501    0  0.00000000000E+00  0.00000000000E+00  0.14485703033E+04  0.14485703033E+04  0.50400001928E-02 0. -1.
       -1   -1    0    0    0  501  0.00000000000E+00  0.00000000000E+00 -0.25884392997E+04  0.25884392997E+04  0.50400001928E-02 0.  1.
    10030    2    1    2    0    0  0.00000000000E+00  0.00000000000E+00 -0.11398689963E+04  0.40370096030E+04  0.38727438859E+04 0.  0.
        1    1    3    3  502    0  0.53135366537E+03 -0.20367700968E+03  0.13594404565E+04  0.14737365425E+04  0.50400001928E-02 0. -1.
       -1    1    3    3    0  502 -0.53135366537E+03  0.20367700968E+03 -0.24993094528E+04  0.25632730605E+04  0.50400001928E-02 0.  1.
</event>
<event>
 5   0  0.1079205E-06  0.3903106E+04  0.7818609E-02  0.8024384E-01
        1   -1    0    0  501    0  0.00000000000E+00  0.00000000000E+00  0.15269042692E+04  0.15269042692E+04  0.50400001928E-02 0.  1.
       -1   -1    0    0    0  501  0.00000000000E+00  0.00000000000E+00 -0.24943013438E+04  0.24943013438E+04  0.50400001928E-02 0. -1.
    10030    2    1    2    0    0  0.00000000000E+00  0.00000000000E+00 -0.96739707465E+03  0.40212056130E+04  0.39031061326E+04 0.  0.
        4    1    3    3  502    0  0.57498543724E+03 -0.70870655934E+03  0.12935139745E+04  0.15830518802E+04  0.12699999809E+01 0.  1.
       -4    1    3    3    0  502 -0.57498543724E+03  0.70870655934E+03 -0.22609110491E+04  0.24381537329E+04  0.12699999809E+01 0. -1.
</event>
<event>
 5   0  0.5284458E-07  0.3186657E+04  0.7818609E-02  0.8192350E-01
       -1   -1    0    0    0  501  0.00000000000E+00  0.00000000000E+00  0.13673097628E+04  0.13673097628E+04  0.50400001928E-02 0. -1.
        1   -1    0    0  501    0  0.00000000000E+00  0.00000000000E+00 -0.18567080794E+04  0.18567080794E+04  0.50400001928E-02 0.  1.
    10030    2    1    2    0    0  0.00000000000E+00  0.00000000000E+00 -0.48939831660E+03  0.32240178423E+04  0.31866566076E+04 0.  0.
        5    1    3    3  502    0  0.68851671951E+03  0.86055324305E+03 -0.14088706498E+04  0.17887274122E+04  0.46999998093E+01 0.  1.
       -5    1    3    3    0  502 -0.68851671951E+03 -0.86055324305E+03  0.91947233321E+03  0.14352904301E+04  0.46999998093E+01 0. -1.
</event>
<event>
 5   0  0.1184616E-06  0.3726313E+04  0.7818609E-02  0.8062156E-01
        2   -1    0    0  501    0  0.00000000000E+00  0.00000000000E+00  0.18213647912E+04  0.18213647912E+04  0.25500000920E-02 0. -1.
       -2   -1    0    0    0  501  0.00000000000E+00  0.00000000000E+00 -0.19059066739E+04  0.19059066739E+04  0.25500000920E-02 0.  1.
    10030    2    1    2    0    0  0.00000000000E+00  0.00000000000E+00 -0.84541882748E+02  0.37272714651E+04  0.37263125533E+04 0.  0.
        5    1    3    3  502    0  0.75087931123E+03  0.15836816933E+04  0.58992158730E+03  0.18492963567E+04  0.46999998093E+01 0.  1.
       -5    1    3    3    0  502 -0.75087931123E+03 -0.15836816933E+04 -0.67446347005E+03  0.18779751085E+04  0.46999998093E+01 0. -1.
</event>
<event>
 5   0  0.1341932E-06  0.2462926E+04  0.7818609E-02  0.8416314E-01
        2   -1    0    0  501    0  0.00000000000E+00  0.00000000000E+00  0.15412418640E+04  0.15412418640E+04  0.25500000920E-02 0. -1.
       -2   -1    0    0    0  501  0.00000000000E+00  0.00000000000E+00 -0.98394752405E+03  0.98394752405E+03  0.25500000920E-02 0.  1.
    10030    2    1    2    0    0  0.00000000000E+00  0.00000000000E+00  0.55729433993E+03  0.25251893880E+04  0.24629259965E+04 0.  0.
        2    1    3    3  502    0 -0.39555368448E+03  0.35614976323E+03  0.14172141946E+04  0.15138696920E+04  0.25500000920E-02 0. -1.
       -2    1    3    3    0  502  0.39555368448E+03 -0.35614976323E+03 -0.85991985463E+03  0.10113196960E+04  0.25500000920E-02 0.  1.
</event>
<event>
 5   0  0.4255250E-07  0.3788745E+04  0.7818609E-02  0.8048574E-01
        1   -1    0    0  501    0  0.00000000000E+00  0.00000000000E+00  0.14353119863E+04  0.14353119863E+04  0.50400001928E-02 0.  1.
       -1   -1    0    0    0  501  0.00000000000E+00  0.00000000000E+00 -0.25002564728E+04  0.25002564728E+04  0.50400001928E-02 0. -1.
    10030    2    1    2    0    0  0.00000000000E+00  0.00000000000E+00 -0.10649444865E+04  0.39355684592E+04  0.37887454833E+04 0.  0.
        2    1    3    3  502    0  0.17776899204E+04  0.40601845627E+03 -0.10658042278E+04  0.21121011084E+04  0.25500000920E-02 0. -1.
       -2    1    3    3    0  502 -0.17776899204E+04 -0.40601845627E+03  0.85974130558E+00  0.18234673507E+04  0.25500000920E-02 0.  1.
</event>
<event>
 5   0  0.4795023E-07  0.2099274E+04  0.7818609E-02  0.8561563E-01
        1   -1    0    0  501    0  0.00000000000E+00  0.00000000000E+00  0.30418683368E+04  0.30418683368E+04  0.50400001928E-02 0.  1.
       -1   -1    0    0    0  501  0.00000000000E+00  0.00000000000E+00 -0.36219119979E+03  0.36219119983E+03  0.50400001928E-02 0. -1.
    10030    2    1    2    0    0  0.00000000000E+00  0.00000000000E+00  0.26796771370E+04  0.34040595366E+04  0.20992741056E+04 0.  0.
        3    1    3    3  502    0  0.49948033988E+03  0.69764201898E+03  0.23202381935E+04  0.24738007765E+04  0.10100000352E+00 0. -1.
       -3    1    3    3    0  502 -0.49948033988E+03 -0.69764201898E+03  0.35943894342E+03  0.93025876014E+03  0.10100000352E+00 0.  1.
</event>
<event>
 5   0  0.5284458E-07  0.1886724E+04  0.7818609E-02  0.8661493E-01
       -1   -1    0    0    0  501  0.00000000000E+00  0.00000000000E+00  0.93727470215E+03  0.93727470216E+03  0.50400001928E-02 0.  1.
        1   -1    0    0  501    0  0.00000000000E+00  0.00000000000E+00 -0.94948850143E+03  0.94948850144E+03  0.50400001928E-02 0. -1.
    10030    2    1    2    0    0  0.00000000000E+00  0.00000000000E+00 -0.12213799281E+02  0.18867632036E+04  0.18867236707E+04 0.  0.
        5    1    3    3  502    0 -0.79151997820E+02 -0.92140366792E+03 -0.19228197012E+03  0.94458679010E+03  0.46999998093E+01 0.  1.
       -5    1    3    3    0  502  0.79151997820E+02  0.92140366792E+03  0.18006817084E+03  0.94217641350E+03  0.46999998093E+01 0. -1.
</event>
<event>
 5   0  0.4795023E-07  0.3847991E+04  0.7818609E-02  0.8035934E-01
        1   -1    0    0  501    0  0.00000000000E+00  0.00000000000E+00  0.13085118335E+04  0.13085118335E+04  0.50400001928E-02 0. -1.
       -1   -1    0    0    0  501  0.00000000000E+00  0.00000000000E+00 -0.28289840181E+04  0.28289840181E+04  0.50400001928E-02 0.  1.
    10030    2    1    2    0    0  0.00000000000E+00  0.00000000000E+00 -0.15204721847E+04  0.41374958516E+04  0.38479911977E+04 0.  0.
        3    1    3    3  502    0 -0.47631683806E+03  0.18200372214E+04 -0.32700054951E+03  0.19095398889E+04  0.10100000352E+00 0. -1.
       -3    1    3    3    0  502  0.47631683806E+03 -0.18200372214E+04 -0.11934716352E+04  0.22279559627E+04  0.10100000352E+00 0.  1.
</event>
<event>
 5   0  0.1079205E-06  0.3789401E+04  0.7818609E-02  0.8048433E-01
       -1   -1    0    0    0  501  0.00000000000E+00  0.00000000000E+00  0.29426199433E+04  0.29426199434E+04  0.50400001928E-02 0.  1.
        1   -1    0    0  501    0  0.00000000000E+00  0.00000000000E+00 -0.12199640289E+04  0.12199640289E+04  0.50400001928E-02 0. -1.
    10030    2    1    2    0    0  0.00000000000E+00  0.00000000000E+00  0.17226559145E+04  0.41625839722E+04  0.37894012622E+04 0.  0.
        4    1    3    3  502    0 -0.11333515146E+04  0.14950041882E+03 -0.79845153233E+03  0.13944039922E+04  0.12699999809E+01 0. -1.
       -4    1    3    3    0  502  0.11333515146E+04 -0.14950041882E+03  0.25211074468E+04  0.27681799801E+04  0.12699999809E+01 0.  1.
</event>
<event>
 5   0  0.8030324E-07  0.3720590E+04  0.7818609E-02  0.8063414E-01
        1   -1    0    0  501    0  0.00000000000E+00  0.00000000000E+00  0.14338977072E+04  0.14338977072E+04  0.50400001928E-02 0. -1.
       -1   -1    0    0    0  501  0.00000000000E+00  0.00000000000E+00 -0.24134894462E+04  0.24134894462E+04  0.50400001928E-02 0.  1.
    10030    2    1    2    0    0  0.00000000000E+00  0.00000000000E+00 -0.97959173900E+03  0.38473871534E+04  0.37205897292E+04 0.  0.
        1    1    3    3  502    0  0.15476471931E+04  0.10320393783E+04 -0.50995036356E+03  0.19288251569E+04  0.50400001928E-02 0. -1.
       -1    1    3    3    0  502 -0.15476471931E+04 -0.10320393783E+04 -0.46964137544E+03  0.19185619964E+04  0.50400001928E-02 0.  1.
</event>
<event>
 5   0  0.5284458E-07  0.3866891E+04  0.7818609E-02  0.8031951E-01
       -1   -1    0    0    0  501  0.00000000000E+00  0.00000000000E+00  0.18190386028E+04  0.18190386029E+04  0.50400001928E-02 0.  1.
        1   -1    0    0  501    0  0.00000000000E+00  0.00000000000E+00 -0.20550480011E+04  0.20550480011E+04  0.50400001928E-02 0. -1.
    10030    2    1    2    0    0  0.00000000000E+00  0.00000000000E+00 -0.23600939828E+03  0.38740866040E+04  0.38668910741E+04 0.  0.
        5    1    3    3  502    0  0.12173102751E+04  0.19733192247E+03 -0.16098710996E+04  0.20279278194E+04  0.46999998093E+01 0. -1.
       -5    1    3    3    0  502 -0.12173102751E+04 -0.19733192247E+03  0.13738617013E+04  0.18461587846E+04  0.46999998093E+01 0.  1.
</event>
<event>
 5   0  0.1341932E-06  0.2100149E+04  0.7818609E-02  0.8561178E-01
        2   -1    0    0  501    0  0.00000000000E+00  0.00000000000E+00  0.61890562304E+03  0.61890562304E+03  0.25500000920E-02 0.  1.
       -2   -1    0    0    0  501  0.00000000000E+00  0.00000000000E+00 -0.17816235486E+04  0.17816235486E+04  0.25500000920E-02 0. -1.
    10030    2    1    2    0    0  0.00000000000E+00  0.00000000000E+00 -0.11627179255E+04  0.24005291716E+04  0.21001493589E+04 0.  0.
        2    1    3    3  502    0 -0.27765367880E+03 -0.89790192826E+02  0.57162867954E+03  0.64180463645E+03  0.25500000920E-02 0.  1.
       -2    1    3    3    0  502  0.27765367880E+03  0.89790192826E+02 -0.17343466051E+04  0.17587245352E+04  0.25500000920E-02 0. -1.
</event>
<event>
 5   0  0.1372748E-06  0.3654305E+04  0.7818609E-02  0.8078164E-01
        2   -1    0    0  501    0  0.00000000000E+00  0.00000000000E+00  0.15466313116E+04  0.15466313116E+04  0.25500000920E-02 0.  1.
       -2   -1    0    0    0  501  0.00000000000E+00  0.00000000000E+00 -0.21585535209E+04  0.21585535209E+04  0.25500000920E-02 0. -1.
    10030    2    1    2    0    0  0.00000000000E+00  0.00000000000E+00 -0.61192220934E+03  0.37051848324E+04  0.36543051121E+04 0.  0.
        1    1    3    3  502    0  0.15478419254E+03  0.17967896039E+04 -0.84900674911E+01  0.18034641966E+04  0.50400001928E-02 0.  1.
       -1    1    3    3    0  502 -0.15478419254E+03 -0.17967896039E+04 -0.60343214185E+03  0.19017206359E+04  0.50400001928E-02 0. -1.
</event>
<event>
 5   0  0.5284458E-07  0.2300111E+04  0.7818609E-02  0.8477877E-01
       -1   -1    0    0    0  501  0.00000000000E+00  0.00000000000E+00  0.29950004312E+04  0.29950004312E+04  0.50400001928E-02 0. -1.
        1   -1    0    0  501    0  0.00000000000E+00  0.00000000000E+00 -0.44161183587E+03  0.44161183590E+03  0.50400001928E-02 0.  1.
    10030    2    1    2    0    0  0.00000000000E+00  0.00000000000E+00  0.25533885954E+04  0.34366122671E+04  0.23001109877E+04 0.  0.
        5    1    3    3  502    0  0.52431309469E+03  0.86889500129E+03  0.20850639892E+04  0.23189214462E+04  0.46999998093E+01 0.  1.
       -5    1    3    3    0  502 -0.52431309469E+03 -0.86889500129E+03  0.46832460617E+03  0.11176908210E+04  0.46999998093E+01 0. -1.
</event>
<event>
 5   0  0.1372748E-06  0.2406416E+04  0.7818609E-02  0.8437105E-01
        2   -1    0    0  501    0  0.00000000000E+00  0.00000000000E+00  0.13872032771E+04  0.13872032771E+04  0.25500000920E-02 0.  1.
       -2   -1    0    0    0  501  0.00000000000E+00  0.00000000000E+00 -0.10436177902E+04  0.10436177902E+04  0.25500000920E-02 0. -1.
    10030    2    1    2    0    0  0.00000000000E+00  0.00000000000E+00  0.34358548692E+03  0.24308210674E+04  0.24064164384E+04 0.  0.
        1    1    3    3  502    0 -0.10693569077E+04 -0.79592828492E+02 -0.37949913507E+03  0.11374879375E+04  0.50400001928E-02 0. -1.
       -1    1    3    3    0  502  0.10693569077E+04  0.79592828492E+02  0.72308462199E+03  0.12933331299E+04  0.50400001928E-02 0.  1.
</event>
<event>
 5   0  0.4795023E-07  0.3572605E+04  0.7818609E-02  0.8096796E-01
        1   -1    0    0  501    0  0.00000000000E+00  0.00000000000E+00  0.24141300111E+04  0.24141300111E+04  0.50400001928E-02 0.  1.
       -1   -1    0    0    0  501  0.00000000000E+00  0.00000000000E+00 -0.13217502047E+04  0.13217502047E+04  0.50400001928E-02 0. -1.
    10030    2    1    2    0    0  0.00000000000E+00  0.00000000000E+00  0.10923798064E+04  0.37358802158E+04  0.35726051203E+04 0.  0.
        3    1    3    3  502    0 -0.13585107734E+04  0.24059189707E+03  0.17327003545E+04  0.22148784417E+04  0.10100000352E+00 0.  1.
       -3    1    3    3    0  502  0.13585107734E+04 -0.24059189707E+03 -0.64032054810E+03  0.15210017742E+04  0.10100000352E+00 0. -1.
</event>
<event>
 5   0  0.1184616E-06  0.2466536E+04  0.7818609E-02  0.8415005E-01
        2   -1    0    0  501    0  0.00000000000E+00  0.00000000000E+00  0.90328929960E+03  0.90328929960E+03  0.25500000920E-02 0.  1.
       -2   -1    0    0    0  501  0.00000000000E+00  0.00000000000E+00 -0.16837902985E+04  0.16837902985E+04  0.25500000920E-02 0. -1.
    10030    2    1    2    0    0  0.00000000000E+00  0.00000000000E+00 -0.78050099889E+03  0.25870795981E+04  0.24665358375E+04 0.  0.
        5    1    3    3  502    0 -0.83198443728E+03 -0.64981374216E+03  0.27845901122E+03  0.10917955460E+04  0.46999998093E+01 0.  1.
       -5    1    3    3    0  502  0.83198443728E+03  0.64981374216E+03 -0.10589600101E+04  0.14952840521E+04  0.46999998093E+01 0. -1.
</event>
<event>
 5   0  0.4255250E-07  0.3765751E+04  0.7818609E-02  0.8053545E-01
       -1   -1    0    0    0  501  0.00000000000E+00  0.00000000000E+00  0.11162494428E+04  0.11162494428E+04  0.50400001928E-02 0. -1.
        1   -1    0    0  501    0  0.00000000000E+00  0.00000000000E+00 -0.31760110401E+04  0.31760110401E+04  0.50400001928E-02 0.  1.
    10030    2    1    2    0    0  0.00000000000E+00  0.00000000000E+00 -0.20597615973E+04  0.42922604829E+04  0.37657512153E+04 0.  0.
        2    1    3    3  502    0  0.65074858914E+03 -0.31825509257E+03  0.95105785814E+03  0.11955212586E+04  0.25500000920E-02 0. -1.
       -2    1    3    3    0  502 -0.65074858914E+03  0.31825509257E+03 -0.30108194555E+04  0.30967392244E+04  0.25500000920E-02 0.  1.
</event>
<event>
 5   0  0.1337854E-06  0.3785843E+04  0.7818609E-02  0.8049200E-01
       -2   -1    0    0    0  501  0.00000000000E+00  0.00000000000E+00  0.23086347204E+04  0.23086347204E+04  0.25500000920E-02 0.  1.
        2   -1    0    0  501    0  0.00000000000E+00  0.00000000000E+00 -0.15520649841E+04  0.15520649841E+04  0.25500000920E-02 0. -1.
    10030    2    1    2    0    0  0.00000000000E+00  0.00000000000E+00  0.75656973631E+03  0.38606997044E+04  0.37858426330E+04 0.  0.
        3    1    3    3  502    0 -0.31166720246E+03  0.56958727234E+03 -0.14349576560E+04  0.15750141557E+04  0.10100000352E+00 0. -1.
       -3    1    3    3    0  502  0.31166720246E+03 -0.56958727234E+03  0.21915273924E+04  0.22856855487E+04  0.10100000352E+00 0.  1.
</event>
<event>
 5   0  0.1341932E-06  0.3773491E+04  0.7818609E-02  0.8051868E-01
        2   -1    0    0  501    0  0.00000000000E+00  0.00000000000E+00  0.18700386131E+04  0.18700386131E+04  0.25500000920E-02 0. -1.
       -2   -1    0    0    0  501  0.00000000000E+00  0.00000000000E+00 -0.19036012032E+04  0.19036012032E+04  0.25500000920E-02 0.  1.
    10030    2    1    2    0    0  0.00000000000E+00  0.00000000000E+00 -0.33562590143E+02  0.37736398163E+04  0.37734905612E+04 0.  0.
        2    1    3    3  502    0  0.11958844809E+04 -0.18749113402E+03  0.14305199284E+04  0.18739476733E+04  0.25500000920E-02 0. -1.
       -2    1    3    3    0  502 -0.11958844809E+04  0.18749113402E+03 -0.14640825185E+04  0.18996921429E+04  0.25500000920E-02 0.  1.
</event>
<event>
 5   0  0.4255250E-07  0.1896441E+04  0.7818609E-02  0.8656630E-01
        1   -1    0    0  501    0  0.00000000000E+00  0.00000000000E+00  0.17211566459E+04  0.17211566459E+04  0.50400001928E-02 0.  1.
       -1   -1    0    0    0  501  0.00000000000E+00  0.00000000000E+00 -0.52239427286E+03  0.52239427288E+03  0.50400001928E-02 0. -1.
    10030    2    1    2    0    0  0.00000000000E+00  0.00000000000E+00  0.11987623730E+04  0.22435509188E+04  0.18964412720E+04 0.  0.
        2    1    3    3  502    0  0.79365537848E+03 -0.43794727552E+03  0.92858673228E+03  0.12976748419E+04  0.25500000920E-02 0.  1.
       -2    1    3    3    0  502 -0.79365537848E+03  0.43794727552E+03  0.27017564072E+03  0.94587607685E+03  0.25500000920E-02 0. -1.
</event>
<event>
 5   0  0.1247524E-06  0.2280357E+04  0.7818609E-02  0.8485707E-01
        2   -1    0    0  501    0  0.00000000000E+00  0.00000000000E+00  0.15263531268E+04  0.15263531268E+04  0.25500000920E-02 0.  1.
       -2   -1    0    0    0  501  0.00000000000E+00  0.00000000000E+00 -0.85170757717E+03  0.85170757717E+03  0.25500000920E-02 0. -1.
    10030    2    1    2    0    0  0.00000000000E+00  0.00000000000E+00  0.67464554967E+03  0.23780607040E+04  0.22803565717E+04 0.  0.
        5    1    3    3  502    0  0.28533483091E+03  0.98171986334E+03 -0.18907648003E+03  0.10396931572E+04  0.46999998093E+01 0. -1.
       -5    1    3    3    0  502 -0.28533483091E+03 -0.98171986334E+03  0.86372202970E+03  0.13383675468E+04  0.46999998093E+01 0.  1.
</event>
<event>
 5   0  0.1184616E-06  0.3804017E+04  0.7818609E-02  0.8045293E-01
        2   -1    0    0  501    0  0.00000000000E+00  0.00000000000E+00  0.19520718601E+04  0.19520718601E+04  0.25500000920E-02 0. -1.
       -2   -1    0    0    0  501  0.00000000000E+00  0.00000000000E+00 -0.18532287893E+04  0.18532287893E+04  0.25500000920E-02 0.  1.
    10030    2    1    2    0    0  0.00000000000E+00  0.00000000000E+00  0.98843070781E+02  0.38053006494E+04  0.38040167034E+04 0.  0.
        5    1    3    3  502    0 -0.18318863249E+04  0.49554307170E+03 -0.78070439081E+02  0.18993387077E+04  0.46999998093E+01 0. -1.
       -5    1    3    3    0  502  0.18318863249E+04 -0.49554307170E+03  0.17691350986E+03  0.19059619417E+04  0.46999998093E+01 0.  1.
</event>
<event>
 5   0  0.1337854E-06  0.3829255E+04  0.7818609E-02  0.8039906E-01
        2   -1    0    0  501    0  0.00000000000E+00  0.00000000000E+00  0.22099654762E+04  0.22099654762E+04  0.25500000920E-02 0.  1.
       -2   -1    0    0    0  501  0.00000000000E+00  0.00000000000E+00 -0.16587579826E+04  0.16587579826E+04  0.25500000920E-02 0. -1.
    10030    2    1    2    0    0  0.00000000000E+00  0.00000000000E+00  0.55120749359E+03  0.38687234588E+04  0.38292546925E+04 0.  0.
        3    1    3    3  502    0  0.85732143671E+02 -0.16052276951E+04 -0.77516034916E+03  0.17846510949E+04  0.10100000352E+00 0. -1.
       -3    1    3    3    0  502 -0.85732143671E+02  0.16052276951E+04  0.13263678427E+04  0.20840723639E+04  0.10100000352E+00 0.  1.
</event>
<event>
 5   0  0.1372748E-06  0.2399284E+04  0.7818609E-02  0.8439771E-01
        2   -1    0    0  501    0  0.00000000000E+00  0.00000000000E+00  0.17424075104E+04  0.17424075104E+04  0.25500000920E-02 0.  1.
       -2   -1    0    0    0  501  0.00000000000E+00  0.00000000000E+00 -0.82594999332E+03  0.82594999332E+03  0.25500000920E-02 0. -1.
    10030    2    1    2    0    0  0.00000000000E+00  0.00000000000E+00  0.91645751707E+03  0.25683575037E+04  0.23992844530E+04 0.  0.
        1    1    3    3  502    0 -0.27659383276E+03 -0.73182737640E+03  0.14317463939E+04  0.16315554522E+04  0.50400001928E-02 0.  1.
       -1    1    3    3    0  502  0.27659383276E+03  0.73182737640E+03 -0.51528887680E+03  0.93680205153E+03  0.50400001928E-02 0. -1.
</event>
<event>
 5   0  0.4795023E-07  0.3441951E+04  0.7818609E-02  0.8127686E-01
       -1   -1    0    0    0  501  0.00000000000E+00  0.00000000000E+00  0.23201644760E+04  0.23201644760E+04  0.50400001928E-02 0. -1.
        1   -1    0    0  501    0  0.00000000000E+00  0.00000000000E+00 -0.12765286970E+04  0.12765286970E+04  0.50400001928E-02 0.  1.
    10030    2    1    2    0    0  0.00000000000E+00  0.00000000000E+00  0.10436357790E+04  0.35966931730E+04  0.34419509208E+04 0.  0.
        3    1    3    3  502    0  0.13015461221E+04 -0.44975853597E+03  0.16004306527E+04  0.21113226501E+04  0.10100000352E+00 0. -1.
       -3    1    3    3    0  502 -0.13015461221E+04  0.44975853597E+03 -0.55679487372E+03  0.14853705229E+04  0.10100000352E+00 0.  1.
</event>
<event>
 5   0  0.1341932E-06  0.3834514E+04  0.7818609E-02  0.8038789E-01
        2   -1    0    0  501    0  0.00000000000E+00  0.00000000000E+00  0.24745019984E+04  0.24745019984E+04  0.25500000920E-02 0.  1.
       -2   -1    0    0    0  501  0.00000000000E+00  0.00000000000E+00 -0.14855004880E+04  0.14855004880E+04  0.25500000920E-02 0. -1.
    10030    2    1    2    0    0  0.00000000000E+00  0.00000000000E+00  0.98900151037E+03  0.39600024865E+04  0.38345137508E+04 0.  0.
        2    1    3    3  502    0 -0.13750237611E+04 -0.11512381802E+04 -0.20580195964E+03  0.18051022514E+04  0.25500000920E-02 0. -1.
       -2    1    3    3    0  502  0.13750237611E+04  0.11512381802E+04  0.11948034700E+04  0.21549002351E+04  0.25500000920E-02 0.  1.
</event>
<event>
 5   0  0.4255250E-07  0.2277220E+04  0.7818609E-02  0.8486957E-01
        1   -1    0    0  501    0  0.00000000000E+00  0.00000000000E+00  0.10878233266E+04  0.10878233266E+04  0.50400001928E-02 0. -1.
       -1   -1    0    0    0  501  0.00000000000E+00  0.00000000000E+00 -0.11917678980E+04  0.11917678980E+04  0.50400001928E-02 0.  1.
    10030    2    1    2    0    0  0.00000000000E+00  0.00000000000E+00 -0.10394457138E+03  0.22795912246E+04  0.22772201644E+04 0.  0.
        2    1    3    3  502    0 -0.20023180005E+03  0.54573187898E+03  0.92808584121E+03  0.10951070204E+04  0.25500000920E-02 0. -1.
       -2    1    3    3    0  502  0.20023180005E+03 -0.54573187898E+03 -0.10320304126E+04  0.11844842042E+04  0.25500000920E-02 0.  1.
</event>
<event>
 5   0  0.1372748E-06  0.3518311E+04  0.7818609E-02  0.8109464E-01
        2   -1    0    0  501    0  0.00000000000E+00  0.00000000000E+00  0.10586870517E+04  0.10586870517E+04  0.25500000920E-02 0. -1.
       -2   -1    0    0    0  501  0.00000000000E+00  0.00000000000E+00 -0.29230806039E+04  0.29230806039E+04  0.25500000920E-02 0.  1.
    10030    2    1    2    0    0  0.00000000000E+00  0.00000000000E+00 -0.18643935522E+04  0.39817676556E+04  0.35183107234E+04 0.  0.
        1    1    3    3  502    0  0.13264185792E+03 -0.18487489732E+03 -0.29063567893E+04  0.29152499682E+04  0.50400001928E-02 0.  1.
       -1    1    3    3    0  502 -0.13264185792E+03  0.18487489732E+03  0.10419632371E+04  0.10665176875E+04  0.50400001928E-02 0. -1.
</event>
<event>
 5   0  0.1184616E-06  0.3648717E+04  0.7818609E-02  0.8079423E-01
        2   -1    0    0  501    0  0.00000000000E+00  0.00000000000E+00  0.24122344601E+04  0.24122344601E+04  0.25500000920E-02 0.  1.
       -2   -1    0    0    0  501  0.00000000000E+00  0.00000000000E+00 -0.13797517879E+04  0.13797517879E+04  0.25500000920E-02 0. -1.
    10030    2    1    2    0    0  0.00000000000E+00  0.00000000000E+00  0.10324826722E+04  0.37919862480E+04  0.36487174783E+04 0.  0.
        5    1    3    3  502    0 -0.17603330965E+03 -0.17870251646E+04  0.85109786827E+03  0.19871679185E+04  0.46999998093E+01 0.  1.
       -5    1    3    3    0  502  0.17603330965E+03  0.17870251646E+04  0.18138480393E+03  0.18048183294E+04  0.46999998093E+01 0. -1.
</event>
<event>
 5   0  0.4255250E-07  0.2227234E+04  0.7818609E-02  0.8507178E-01
       -3   -1    0    0    0  501  0.00000000000E+00  0.00000000000E+00  0.21080288019E+04  0.21080288044E+04  0.10100000352E+00 0.  1.
        3   -1    0    0  501    0  0.00000000000E+00  0.00000000000E+00 -0.58829497916E+03  0.58829498783E+03  0.10100000352E+00 0. -1.
    10030    2    1    2    0    0  0.00000000000E+00  0.00000000000E+00  0.15197338228E+04  0.26963237922E+04  0.22272339572E+04 0.  0.
        3    1    3    3  502    0 -0.73567625246E+03  0.76364326970E+03  0.34795125705E+03  0.11159931359E+04  0.10100000352E+00 0.  1.
       -3    1    3    3    0  502  0.73567625246E+03 -0.76364326970E+03  0.11717825657E+04  0.15803306563E+04  0.10100000352E+00 0. -1.
</event>
<event>
 5   0  0.1372748E-06  0.3738555E+04  0.7818609E-02  0.8059471E-01
       -2   -1    0    0    0  501  0.00000000000E+00  0.00000000000E+00  0.13266632228E+04  0.13266632228E+04  0.25500000920E-02 0.  1.
        2   -1    0    0  501    0  0.00000000000E+00  0.00000000000E+00 -0.26338245498E+04  0.26338245498E+04  0.25500000920E-02 0. -1.
    10030    2    1    2    0    0  0.00000000000E+00  0.00000000000E+00 -0.13071613270E+04  0.39604877725E+04  0.37385548895E+04 0.  0.
        1    1    3    3  502    0 -0.23130373747E+01  0.14960826341E+04  0.53362936869E+03  0.15884045144E+04  0.50400001928E-02 0.  1.
       -1    1    3    3    0  502  0.23130373747E+01 -0.14960826341E+04 -0.18407906957E+04  0.23720832581E+04  0.50400001928E-02 0. -1.
</event>
<event>
 5   0  0.1214844E-06  0.3818182E+04  0.7818609E-02  0.8042264E-01
       -2   -1    0    0    0  501  0.00000000000E+00  0.00000000000E+00  0.16139244004E+04  0.16139244004E+04  0.25500000920E-02 0. -1.
        2   -1    0    0  501    0  0.00000000000E+00  0.00000000000E+00 -0.22582397561E+04  0.22582397561E+04  0.25500000920E-02 0.  1.
    10030    2    1    2    0    0  0.00000000000E+00  0.00000000000E+00 -0.64431535569E+03  0.38721641565E+04  0.38181818942E+04 0.  0.
        4    1    3    3  502    0  0.14463936296E+04 -0.10070146555E+04  0.42203846191E+03  0.18122502930E+04  0.12699999809E+01 0. -1.
       -4    1    3    3    0  502 -0.14463936296E+04  0.10070146555E+04 -0.10663538176E+04  0.20599138636E+04  0.12699999809E+01 0.  1.
</event>
<event>
 5   0  0.4255250E-07  0.3774516E+04  0.7818609E-02  0.8051646E-01
       -1   -1    0    0    0  501  0.00000000000E+00  0.00000000000E+00  0.14175900955E+04  0.14175900955E+04  0.50400001928E-02 0. -1.
        1   -1    0    0  501    0  0.00000000000E+00  0.00000000000E+00 -0.25125337875E+04  0.25125337875E+04  0.50400001928E-02 0.  1.
    10030    2    1    2    0    0  0.00000000000E+00  0.00000000000E+00 -0.10949436920E+04  0.39301238830E+04  0.37745161342E+04 0.  0.
        2    1    3    3  502    0 -0.83613141282E+03 -0.29135242447E+03  0.11878931438E+04  0.14815843195E+04  0.25500000920E-02 0. -1.
       -2    1    3    3    0  502  0.83613141282E+03  0.29135242447E+03 -0.22828368358E+04  0.24485395635E+04  0.25500000920E-02 0.  1.
</event>
<event>
 5   0  0.1079205E-06  0.2427484E+04  0.7818609E-02  0.8429285E-01
        1   -1    0    0  501    0  0.00000000000E+00  0.00000000000E+00  0.21445434829E+04  0.21445434829E+04  0.50400001928E-02 0.  1.
       -1   -1    0    0    0  501  0.00000000000E+00  0.00000000000E+00 -0.68693835690E+03  0.68693835692E+03  0.50400001928E-02 0. -1.
    10030    2    1    2    0    0  0.00000000000E+00  0.00000000000E+00  0.14576051260E+04  0.28314818398E+04  0.24274836160E+04 0.  0.
        4    1    3    3  502    0 -0.37467257078E+03 -0.11538640303E+04  0.68538033357E+03  0.13933877961E+04  0.12699999809E+01 0.  1.
       -4    1    3    3    0  502  0.37467257078E+03  0.11538640303E+04  0.77222479240E+03  0.14380940437E+04  0.12699999809E+01 0. -1.
</event>
<event>
 5   0  0.1337854E-06  0.3743670E+04  0.7818609E-02  0.8058352E-01
       -2   -1    0    0    0  501  0.00000000000E+00  0.00000000000E+00  0.25467527408E+04  0.25467527408E+04  0.25500000920E-02 0.  1.
        2   -1    0    0  501    0  0.00000000000E+00  0.00000000000E+00 -0.13757777121E+04  0.13757777121E+04  0.25500000920E-02 0. -1.
    10030    2    1    2    0    0  0.00000000000E+00  0.00000000000E+00  0.11709750287E+04  0.39225304529E+04  0.37436696751E+04 0.  0.
        3    1    3    3  502    0 -0.12313367358E+04 -0.79617744062E+03  0.18045510008E+04  0.23251866588E+04  0.10100000352E+00 0.  1.
       -3    1    3    3    0  502  0.12313367358E+04  0.79617744062E+03 -0.63357597208E+03  0.15973437940E+04  0.10100000352E+00 0. -1.
</event>
<event>
 5   0  0.4795023E-07  0.2034276E+04  0.7818609E-02  0.8590761E-01
        1   -1    0    0  501    0  0.00000000000E+00  0.00000000000E+00  0.21615780635E+04  0.21615780635E+04  0.50400001928E-02 0.  1.
       -1   -1    0    0    0  501  0.00000000000E+00  0.00000000000E+00 -0.47861771785E+03  0.47861771787E+03  0.50400001928E-02 0. -1.
    10030    2    1    2    0    0  0.00000000000E+00  0.00000000000E+00  0.16829603456E+04  0.26401957814E+04  0.20342758512E+04 0.  0.
        3    1    3    3  502    0  0.62894362507E+03 -0.48372320789E+03  0.15518543519E+02  0.79359880340E+03  0.10100000352E+00 0. -1.
       -3    1    3    3    0  502 -0.62894362507E+03  0.48372320789E+03  0.16674418021E+04  0.18465969780E+04  0.10100000352E+00 0.  1.
</event>
<event>
 5   0  0.1184616E-06  0.1872174E+04  0.7818609E-02  0.8668833E-01
        2   -1    0    0  501    0  0.00000000000E+00  0.00000000000E+00  0.11719519316E+04  0.11719519316E+04  0.25500000920E-02 0.  1.
       -2   -1    0    0    0  501  0.00000000000E+00  0.00000000000E+00 -0.74769150311E+03  0.74769150312E+03  0.25500000920E-02 0. -1.
    10030    2    1    2    0    0  0.00000000000E+00  0.00000000000E+00  0.42426042849E+03  0.19196434347E+04  0.18721736045E+04 0.  0.
        5    1    3    3  502    0 -0.86000661658E+03  0.27163262195E+03  0.46916690898E+03  0.10166294017E+04  0.46999998093E+01 0.  1.
       -5    1    3    3    0  502  0.86000661658E+03 -0.27163262195E+03 -0.44906480495E+02  0.90301403304E+03  0.46999998093E+01 0. -1.
</event>
<event>
 5   0  0.4255250E-07  0.3754302E+04  0.7818609E-02  0.8056033E-01
       -1   -1    0    0    0  501  0.00000000000E+00  0.00000000000E+00  0.16858122243E+04  0.16858122243E+04  0.50400001928E-02 0. -1.
        1   -1    0    0  501    0  0.00000000000E+00  0.00000000000E+00 -0.20902065288E+04  0.20902065288E+04  0.50400001928E-02 0.  1.
    10030    2    1    2    0    0  0.00000000000E+00  0.00000000000E+00 -0.40439430447E+03  0.37760187531E+04  0.37543019151E+04 0.  0.
        2    1    3    3  502    0 -0.12483910953E+02  0.10661490233E+03 -0.20871170788E+04  0.20898756628E+04  0.25500000920E-02 0.  1.
       -2    1    3    3    0  502  0.12483910953E+02 -0.10661490233E+03  0.16827227743E+04  0.16861430902E+04  0.25500000920E-02 0. -1.
</event>
<event>
 5   0  0.1372748E-06  0.2054262E+04  0.7818609E-02  0.8581663E-01
       -2   -1    0    0    0  501  0.00000000000E+00  0.00000000000E+00  0.39591231146E+03  0.39591231147E+03  0.25500000920E-02 0.  1.
        2   -1    0    0  501    0  0.00000000000E+00  0.00000000000E+00 -0.26647276330E+04  0.26647276330E+04  0.25500000920E-02 0. -1.
    10030    2    1    2    0    0  0.00000000000E+00  0.00000000000E+00 -0.22688153216E+04  0.30606399445E+04  0.20542623753E+04 0.  0.
        1    1    3    3  502    0 -0.69614902543E+02 -0.43378511472E+02 -0.26598402550E+04  0.26611046789E+04  0.50400001928E-02 0. -1.
       -1    1    3    3    0  502  0.69614902543E+02  0.43378511472E+02  0.39102493340E+03  0.39953526563E+03  0.50400001928E-02 0.  1.
</event>
<event>
 5   0  0.1341932E-06  0.3687168E+04  0.7818609E-02  0.8070812E-01
       -2   -1    0    0    0  501  0.00000000000E+00  0.00000000000E+00  0.13547468232E+04  0.13547468232E+04  0.25500000920E-02 0.  1.
        2   -1    0    0  501    0  0.00000000000E+00  0.00000000000E+00 -0.25088092853E+04  0.25088092853E+04  0.25500000920E-02 0. -1.
    10030    2    1    2    0    0  0.00000000000E+00  0.00000000000E+00 -0.11540624621E+04  0.38635561085E+04  0.36871676985E+04 0.  0.
        2    1    3    3  502    0 -0.10629515124E+04  0.10883762143E+04 -0.16681791340E+04  0.22577090877E+04  0.25500000920E-02 0. -1.
       -2    1    3    3    0  502  0.10629515124E+04 -0.10883762143E+04  0.51411667193E+03  0.16058470208E+04  0.25500000920E-02 0.  1.
</event>
<event>
 5   0  0.8030324E-07  0.2144943E+04  0.7818609E-02  0.8541700E-01
       -1   -1    0    0    0  501  0.00000000000E+00  0.00000000000E+00  0.11683077071E+04  0.11683077071E+04  0.50400001928E-02 0. -1.
        1   -1    0    0  501    0  0.00000000000E+00  0.00000000000E+00 -0.98449665676E+03  0.98449665677E+03  0.50400001928E-02 0.  1.
    10030    2    1    2    0    0  0.00000000000E+00  0.00000000000E+00  0.18381105035E+03  0.21528043639E+04  0.21449429193E+04 0.  0.
        1    1    3    3  502    0  0.70762312744E+03 -0.33257536592E+03  0.82866556144E+03  0.11393083328E+04  0.50400001928E-02 0. -1.
       -1    1    3    3    0  502 -0.70762312744E+03  0.33257536592E+03 -0.64485451109E+03  0.10134960311E+04  0.50400001928E-02 0.  1.
</event>
<event>
 5   0  0.1214844E-06  0.3740380E+04  0.7818609E-02  0.8059072E-01
       -2   -1    0    0    0  501  0.00000000000E+00  0.00000000000E+00  0.11432504274E+04  0.11432504274E+04  0.25500000920E-02 0.  1.
        2   -1    0    0  501    0  0.00000000000E+00  0.00000000000E+00 -0.30593562501E+04  0.30593562501E+04  0.25500000920E-02 0. -1.
    10030    2    1    2    0    0  0.00000000000E+00  0.00000000000E+00 -0.19161058227E+04  0.42026066775E+04  0.37403798420E+04 0.  0.
        4    1    3    3  502    0  0.13670395938E+04  0.84315420562E+03  0.11841553901E+03  0.16105061684E+04  0.12699999809E+01 0. -1.
       -4    1    3    3    0  502 -0.13670395938E+04 -0.84315420562E+03 -0.20345213617E+04  0.25921005091E+04  0.12699999809E+01 0.  1.
</event>
<event>
 5   0  0.1184616E-06  0.3553332E+04  0.7818609E-02  0.8101266E-01
       -2   -1    0    0    0  501  0.00000000000E+00  0.00000000000E+00  0.12958263389E+04  0.12958263389E+04  0.25500000920E-02 0. -1.
        2   -1    0    0  501    0  0.00000000000E+00  0.00000000000E+00 -0.24359302986E+04  0.24359302986E+04  0.25500000920E-02 0.  1.
    10030    2    1    2    0    0  0.00000000000E+00  0.00000000000E+00 -0.11401039597E+04  0.37317566375E+04  0.35533323181E+04 0.  0.
        5    1    3    3  502    0 -0.18190091719E+03  0.56829775320E+03  0.11874384604E+04  0.13289403551E+04  0.46999998093E+01 0. -1.
       -5    1    3    3    0  502  0.18190091719E+03 -0.56829775320E+03 -0.23275424201E+04  0.24028162825E+04  0.46999998093E+01 0.  1.
</event>
<event>
 5   0  0.4795023E-07  0.3261401E+04  0.7818609E-02  0.8172787E-01
        1   -1    0    0  501    0  0.00000000000E+00  0.00000000000E+00  0.21490067236E+04  0.21490067236E+04  0.50400001928E-02 0.  1.
       -1   -1    0    0    0  501  0.00000000000E+00  0.00000000000E+00 -0.12374014175E+04  0.12374014175E+04  0.50400001928E-02 0. -1.
    10030    2    1    2    0    0  0.00000000000E+00  0.00000000000E+00  0.91160530616E+03  0.33864081411E+04  0.32614009051E+04 0.  0.
        3    1    3    3  502    0  0.11087783020E+04 -0.11745451082E+04  0.68853304704E+03  0.17558540091E+04  0.10100000352E+00 0.  1.
       -3    1    3    3    0  502 -0.11087783020E+04  0.11745451082E+04  0.22307225912E+03  0.16305541320E+04  0.10100000352E+00 0. -1.
</event>
<event>
 5   0  0.1214844E-06  0.3908151E+04  0.7818609E-02  0.8023336E-01
        2   -1    0    0  501    0  0.00000000000E+00  0.00000000000E+00  0.18912816266E+04  0.18912816266E+04  0.25500000920E-02 0. -1.
       -2   -1    0    0    0  501  0.00000000000E+00  0.00000000000E+00 -0.20189543461E+04  0.20189543461E+04  0.25500000920E-02 0.  1.
    10030    2    1    2    0    0  0.00000000000E+00  0.00000000000E+00 -0.12767271952E+03  0.39102359727E+04  0.39081511024E+04 0.  0.
        4    1    3    3  502    0 -0.32667847455E+03  0.11742341279E+04 -0.15920230996E+04  0.20050146571E+04  0.12699999809E+01 0.  1.
       -4    1    3    3    0  502  0.32667847455E+03 -0.11742341279E+04  0.14643503800E+04  0.19052213156E+04  0.12699999809E+01 0. -1.
</event>
<event>
 5   0  0.5284458E-07  0.3733257E+04  0.7818609E-02  0.8060631E-01
       -1   -1    0    0    0  501  0.00000000000E+00  0.00000000000E+00  0.12838361578E+04  0.12838361578E+04  0.50400001928E-02 0.  1.
        1   -1    0    0  501    0  0.00000000000E+00  0.00000000000E+00 -0.27139777357E+04  0.27139777357E+04  0.50400001928E-02 0. -1.
    10030    2    1    2    0    0  0.00000000000E+00  0.00000000000E+00 -0.14301415779E+04  0.39978138935E+04  0.37332574240E+04 0.  0.
        5    1    3    3  502    0  0.15463932032E+04  0.70979204250E+03  0.10687912860E+03  0.17048700597E+04  0.46999998093E+01 0.  1.
       -5    1    3    3    0  502 -0.15463932032E+04 -0.70979204250E+03 -0.15370207065E+04  0.22929438337E+04  0.46999998093E+01 0. -1.
</event>
<event>
 5   0  0.4255250E-07  0.3627215E+04  0.7818609E-02  0.8084286E-01
       -1   -1    0    0    0  501  0.00000000000E+00  0.00000000000E+00  0.19952036784E+04  0.19952036784E+04  0.50400001928E-02 0.  1.
        1   -1    0    0  501    0  0.00000000000E+00  0.00000000000E+00 -0.16485398356E+04  0.16485398356E+04  0.50400001928E-02 0. -1.
    10030    2    1    2    0    0  0.00000000000E+00  0.00000000000E+00  0.34666384274E+03  0.36437435140E+04  0.36272153198E+04 0.  0.
        2    1    3    3  502    0  0.95480109837E+03 -0.10775292057E+04 -0.93462556397E+03  0.17164612642E+04  0.25500000920E-02 0. -1.
       -2    1    3    3    0  502 -0.95480109837E+03  0.10775292057E+04  0.12812894067E+04  0.19272822498E+04  0.25500000920E-02 0.  1.
</event>
<event>
 5   0  0.4255250E-07  0.3853956E+04  0.7818609E-02  0.8034674E-01
        1   -1    0    0  501    0  0.00000000000E+00  0.00000000000E+00  0.18340752427E+04  0.18340752427E+04  0.50400001928E-02 0. -1.
       -1   -1    0    0    0  501  0.00000000000E+00  0.00000000000E+00 -0.20245861234E+04  0.20245861234E+04  0.50400001928E-02 0.  1.
    10030    2    1    2    0    0  0.00000000000E+00  0.00000000000E+00 -0.19051088064E+03  0.38586613661E+04  0.38539555190E+04 0.  0.
        2    1    3    3  502    0 -0.55494649908E+03 -0.30173466999E+03  0.17274712112E+04  0.18393385260E+04  0.25500000920E-02 0. -1.
       -2    1    3    3    0  502  0.55494649908E+03  0.30173466999E+03 -0.19179820918E+04  0.20193228401E+04  0.25500000920E-02 0.  1.
</event>
<event>
 5   0  0.4795023E-07  0.2417342E+04  0.7818609E-02  0.8433039E-01
        1   -1    0    0  501    0  0.00000000000E+00  0.00000000000E+00  0.19993051293E+04  0.19993051293E+04  0.50400001928E-02 0. -1.
       -1   -1    0    0    0  501  0.00000000000E+00  0.00000000000E+00 -0.73069655540E+03  0.73069655542E+03  0.50400001928E-02 0.  1.
    10030    2    1    2    0    0  0.00000000000E+00  0.00000000000E+00  0.12686085739E+04  0.27300016847E+04  0.24173418221E+04 0.  0.
        3    1    3    3  502    0 -0.52003171399E+03  0.75006337322E+03 -0.26055619181E+03  0.94916678550E+03  0.10100000352E+00 0.  1.
       -3    1    3    3    0  502  0.52003171399E+03 -0.75006337322E+03  0.15291647657E+04  0.17808348992E+04  0.10100000352E+00 0. -1.
</event>
<event>
 5   0  0.4255250E-07  0.3650363E+04  0.7818609E-02  0.8079052E-01
       -1   -1    0    0    0  501  0.00000000000E+00  0.00000000000E+00  0.20824046335E+04  0.20824046335E+04  0.50400001928E-02 0. -1.
        1   -1    0    0  501    0  0.00000000000E+00  0.00000000000E+00 -0.15997308668E+04  0.15997308668E+04  0.50400001928E-02 0.  1.
    10030    2    1    2    0    0  0.00000000000E+00  0.00000000000E+00  0.48267376673E+03  0.36821355003E+04  0.36503627049E+04 0.  0.
        2    1    3    3  502    0 -0.94016777561E+03 -0.15326821209E+04 -0.74851263021E+02  0.17996201381E+04  0.25500000920E-02 0.  1.
       -2    1    3    3    0  502  0.94016777561E+03  0.15326821209E+04  0.55752502976E+03  0.18825153622E+04  0.25500000920E-02 0. -1.
</event>
<event>
 5   0  0.1214844E-06  0.3882729E+04  0.7818609E-02  0.8028631E-01
        2   -1    0    0  501    0  0.00000000000E+00  0.00000000000E+00  0.32262341706E+04  0.32262341706E+04  0.25500000920E-02 0. -1.
       -2   -1    0    0    0  501  0.00000000000E+00  0.00000000000E+00 -0.11682028294E+04  0.11682028294E+04  0.25500000920E-02 0.  1.
    10030    2    1    2    0    0  0.00000000000E+00  0.00000000000E+00  0.20580313412E+04  0.43944370000E+04  0.38827288788E+04 0.  0.
        4    1    3    3  502    0 -0.16090835424E+04  0.96824699103E+03  0.15860616838E+04  0.24580979150E+04  0.12699999809E+01 0. -1.
       -4    1    3    3    0  502  0.16090835424E+04 -0.96824699103E+03  0.47196965736E+03  0.19363390850E+04  0.12699999809E+01 0.  1.
</event>
<event>
 5   0  0.1214844E-06  0.3766403E+04  0.7818609E-02  0.8053403E-01
       -2   -1    0    0    0  501  0.00000000000E+00  0.00000000000E+00  0.12960308700E+04  0.12960308700E+04  0.25500000920E-02 0.  1.
        2   -1    0    0  501    0  0.00000000000E+00  0.00000000000E+00 -0.27363908634E+04  0.27363908634E+04  0.25500000920E-02 0. -1.
    10030    2    1    2    0    0  0.00000000000E+00  0.00000000000E+00 -0.14403599934E+04  0.40324217334E+04  0.37664025443E+04 0.  0.
        4    1    3    3  502    0  0.10777763992E+03  0.19968500523E+03 -0.27217004150E+04  0.27311435119E+04  0.12699999809E+01 0. -1.
       -4    1    3    3    0  502 -0.10777763992E+03 -0.19968500523E+03  0.12813404215E+04  0.13012782215E+04  0.12699999809E+01 0.  1.
</event>
<event>
 5   0  0.1372748E-06  0.3787639E+04  0.7818609E-02  0.8048813E-01
        2   -1    0    0  501    0  0.00000000000E+00  0.00000000000E+00  0.22850926786E+04  0.22850926786E+04  0.25500000920E-02 0.  1.
       -2   -1    0    0    0  501  0.00000000000E+00  0.00000000000E+00 -0.15695438010E+04  0.15695438010E+04  0.25500000920E-02 0. -1.
    10030    2    1    2    0    0  0.00000000000E+00  0.00000000000E+00  0.71554887761E+03  0.38546364796E+04  0.37876393959E+04 0.  0.
        1    1    3    3  502    0 -0.53119175610E+03  0.67014306298E+03 -0.13618769682E+04  0.16080936798E+04  0.50400001928E-02 0. -1.
       -1    1    3    3    0  502  0.53119175610E+03 -0.67014306298E+03  0.20774258458E+04  0.22465427998E+04  0.50400001928E-02 0.  1.
</event>
<event>
 5   0  0.1079205E-06  0.2654203E+04  0.7818609E-02  0.8350019E-01
       -1   -1    0    0    0  501  0.00000000000E+00  0.00000000000E+00  0.10292216724E+04  0.10292216724E+04  0.50400001928E-02 0.  1.
        1   -1    0    0  501    0  0.00000000000E+00  0.00000000000E+00 -0.17111950258E+04  0.17111950258E+04  0.50400001928E-02 0. -1.
    10030    2    1    2    0    0  0.00000000000E+00  0.00000000000E+00 -0.68197335342E+03  0.27404166982E+04  0.26542034634E+04 0.  0.
        4    1    3    3  502    0  0.50607080035E+03  0.11951122957E+04 -0.62710959939E+03  0.14414121953E+04  0.12699999809E+01 0. -1.
       -4    1    3    3    0  502 -0.50607080035E+03 -0.11951122957E+04 -0.54863754029E+02  0.12990045029E+04  0.12699999809E+01 0.  1.
</event>
<event>
 5   0  0.1079205E-06  0.3803157E+04  0.7818609E-02  0.8045478E-01
        1   -1    0    0  501    0  0.00000000000E+00  0.00000000000E+00  0.16330859917E+04  0.16330859917E+04  0.50400001928E-02 0. -1.
       -1   -1    0    0    0  501  0.00000000000E+00  0.00000000000E+00 -0.22142131323E+04  0.22142131323E+04  0.50400001928E-02 0.  1.
    10030    2    1    2    0    0  0.00000000000E+00  0.00000000000E+00 -0.58112714060E+03  0.38472991241E+04  0.38031568199E+04 0.  0.
        4    1    3    3  502    0  0.64247087367E+03 -0.17320086861E+04  0.16564295155E+03  0.18547404434E+04  0.12699999809E+01 0. -1.
       -4    1    3    3    0  502 -0.64247087367E+03  0.17320086861E+04 -0.74677009215E+03  0.19925586806E+04  0.12699999809E+01 0.  1.
</event>
<event>
 5   0  0.1184616E-06  0.1943799E+04  0.7818609E-02  0.8633357E-01
        2   -1    0    0  501    0  0.00000000000E+00  0.00000000000E+00  0.70201287367E+03  0.70201287367E+03  0.25500000920E-02 0. -1.
       -2   -1    0    0    0  501  0.00000000000E+00  0.00000000000E+00 -0.13455428933E+04  0.13455428933E+04  0.25500000920E-02 0.  1.
    10030    2    1    2    0    0  0.00000000000E+00  0.00000000000E+00 -0.64353001962E+03  0.20475557670E+04  0.19437987891E+04 0.  0.
        5    1    3    3  502    0  0.14749248736E+03 -0.52550390635E+03  0.52530975440E+03  0.75754921786E+03  0.46999998093E+01 0. -1.
       -5    1    3    3    0  502 -0.14749248736E+03  0.52550390635E+03 -0.11688397740E+04  0.12900065491E+04  0.46999998093E+01 0.  1.
</event>
<event>
 5   0  0.1341932E-06  0.3694079E+04  0.7818609E-02  0.8069275E-01
        2   -1    0    0  501    0  0.00000000000E+00  0.00000000000E+00  0.22298488330E+04  0.22298488330E+04  0.25500000920E-02 0.  1.
       -2   -1    0    0    0  501  0.00000000000E+00  0.00000000000E+00 -0.15299489176E+04  0.15299489176E+04  0.25500000920E-02 0. -1.
    10030    2    1    2    0    0  0.00000000000E+00  0.00000000000E+00  0.69989991539E+03  0.37597977507E+04  0.36940789426E+04 0.  0.
        2    1    3    3  502    0  0.18082776113E+03  0.28614854238E+02  0.22205913213E+04  0.22281255138E+04  0.25500000920E-02 0.  1.
       -2    1    3    3    0  502 -0.18082776113E+03 -0.28614854238E+02 -0.15206914059E+04  0.15316722368E+04  0.25500000920E-02 0. -1.
</event>
<event>
 5   0  0.5284458E-07  0.3767800E+04  0.7818609E-02  0.8053100E-01
        1   -1    0    0  501    0  0.00000000000E+00  0.00000000000E+00  0.16521162843E+04  0.16521162843E+04  0.50400001928E-02 0. -1.
       -1   -1    0    0    0  501  0.00000000000E+00  0.00000000000E+00 -0.21482015856E+04  0.21482015856E+04  0.50400001928E-02 0.  1.
    10030    2    1    2    0    0  0.00000000000E+00  0.00000000000E+00 -0.49608530123E+03  0.38003178699E+04  0.37677997938E+04 0.  0.
        5    1    3    3  502    0 -0.11610073346E+04  0.12821645160E+04  0.50483963787E+03  0.18018793042E+04  0.46999998093E+01 0. -1.
       -5    1    3    3    0  502  0.11610073346E+04 -0.12821645160E+04 -0.10009249391E+04  0.19984385657E+04  0.46999998093E+01 0.  1.
</event>
<event>
 5   0  0.1337854E-06  0.3730419E+04  0.7818609E-02  0.8061254E-01
        2   -1    0    0  501    0  0.00000000000E+00  0.00000000000E+00  0.21720569698E+04  0.21720569698E+04  0.25500000920E-02 0. -1.
       -2   -1    0    0    0  501  0.00000000000E+00  0.00000000000E+00 -0.16017102301E+04  0.16017102301E+04  0.25500000920E-02 0.  1.
    10030    2    1    2    0    0  0.00000000000E+00  0.00000000000E+00  0.57034673968E+03  0.37737671998E+04  0.37304186729E+04 0.  0.
        3    1    3    3  502    0 -0.69796588118E+03  0.17201006026E+04  0.10111572625E+03  0.18590661243E+04  0.10100000352E+00 0.  1.
       -3    1    3    3    0  502  0.69796588118E+03 -0.17201006026E+04  0.46923101343E+03  0.19147010755E+04  0.10100000352E+00 0. -1.
</event>
<event>
 5   0  0.1214844E-06  0.3784372E+04  0.7818609E-02  0.8049517E-01
       -2   -1    0    0    0  501  0.00000000000E+00  0.00000000000E+00  0.22262155339E+04  0.22262155339E+04  0.25500000920E-02 0. -1.
        2   -1    0    0  501    0  0.00000000000E+00  0.00000000000E+00 -0.16082752979E+04  0.16082752979E+04  0.25500000920E-02 0.  1.
    10030    2    1    2    0    0  0.00000000000E+00  0.00000000000E+00  0.61794023601E+03  0.38344908317E+04  0.37843717845E+04 0.  0.
        4    1    3    3  502    0  0.39225935436E+03  0.12722299114E+04 -0.10534299362E+04  0.16976903698E+04  0.12699999809E+01 0.  1.
       -4    1    3    3    0  502 -0.39225935436E+03 -0.12722299114E+04  0.16713701722E+04  0.21368004619E+04  0.12699999809E+01 0. -1.
</event>
<event>
 5   0  0.1214844E-06  0.3834828E+04  0.7818609E-02  0.8038722E-01
        2   -1    0    0  501    0  0.00000000000E+00  0.00000000000E+00  0.12814160134E+04  0.12814160134E+04  0.25500000920E-02 0.  1.
       -2   -1    0    0    0  501  0.00000000000E+00  0.00000000000E+00 -0.28690735753E+04  0.28690735753E+04  0.25500000920E-02 0. -1.
    10030    2    1    2    0    0  0.00000000000E+00  0.00000000000E+00 -0.15876575619E+04  0.41504895887E+04  0.38348281959E+04 0.  0.
        4    1    3    3  502    0  0.15624274851E+04 -0.60010095286E+03  0.21868448539E+03  0.16879352229E+04  0.12699999809E+01 0.  1.
       -4    1    3    3    0  502 -0.15624274851E+04  0.60010095286E+03 -0.18063420473E+04  0.24625543658E+04  0.12699999809E+01 0. -1.
</event>
<event>
 5   0  0.4255250E-07  0.3998404E+04  0.7818609E-02  0.8004869E-01
       -1   -1    0    0    0  501  0.00000000000E+00  0.00000000000E+00  0.17418143098E+04  0.17418143098E+04  0.50400001928E-02 0.  1.
        1   -1    0    0  501    0  0.00000000000E+00  0.00000000000E+00 -0.22946234131E+04  0.22946234131E+04  0.50400001928E-02 0. -1.
    10030    2    1    2    0    0  0.00000000000E+00  0.00000000000E+00 -0.55280910329E+03  0.40364377229E+04  0.39984036297E+04 0.  0.
        2    1    3    3  502    0  0.64660991210E+03 -0.10091692120E+04  0.13389038112E+04  0.17969947948E+04  0.25500000920E-02 0.  1.
       -2    1    3    3    0  502 -0.64660991210E+03  0.10091692120E+04 -0.18917129145E+04  0.22394429280E+04  0.25500000920E-02 0. -1.
</event>
<event>
 5   0  0.1372748E-06  0.3763867E+04  0.7818609E-02  0.8053954E-01
        2   -1    0    0  501    0  0.00000000000E+00  0.00000000000E+00  0.25130845839E+04  0.25130845839E+04  0.25500000920E-02 0.  1.
       -2   -1    0    0    0  501  0.00000000000E+00  0.00000000000E+00 -0.14092937076E+04  0.14092937076E+04  0.25500000920E-02 0. -1.
    10030    2    1    2    0    0  0.00000000000E+00  0.00000000000E+00  0.11037908763E+04  0.39223782914E+04  0.37638673147E+04 0.  0.
        1    1    3    3  502    0  0.15937351522E+04  0.35834296930E+02 -0.49042601957E+03  0.16678709521E+04  0.50400001928E-02 0. -1.
       -1    1    3    3    0  502 -0.15937351522E+04 -0.35834296930E+02  0.15942168959E+04  0.22545073394E+04  0.50400001928E-02 0.  1.
</event>
<event>
 5   0  0.4795023E-07  0.3853801E+04  0.7818609E-02  0.8034707E-01
       -1   -1    0    0    0  501  0.00000000000E+00  0.00000000000E+00  0.22936479415E+04  0.22936479415E+04  0.50400001928E-02 0.  1.
        1   -1    0    0  501    0  0.00000000000E+00  0.00000000000E+00 -0.16187946139E+04  0.16187946139E+04  0.50400001928E-02 0. -1.
    10030    2    1    2    0    0  0.00000000000E+00  0.00000000000E+00  0.67485332757E+03  0.39124425554E+04  0.38538006871E+04 0.  0.
        3    1    3    3  502    0  0.13371875932E+04 -0.96257292523E+03  0.13517940310E+04  0.21311884966E+04  0.10100000352E+00 0.  1.
       -3    1    3    3    0  502 -0.13371875932E+04  0.96257292523E+03 -0.67694070339E+03  0.17812540588E+04  0.10100000352E+00 0. -1.
</event>
<event>
 5   0  0.1372748E-06  0.3400536E+04  0.7818609E-02  0.8137775E-01
       -2   -1    0    0    0  501  0.00000000000E+00  0.00000000000E+00  0.18802466448E+04  0.18802466448E+04  0.25500000920E-02 0.  1.
        2   -1    0    0  501    0  0.00000000000E+00  0.00000000000E+00 -0.15375169013E+04  0.15375169013E+04  0.25500000920E-02 0. -1.
    10030    2    1    2    0    0  0.00000000000E+00  0.00000000000E+00  0.34272974351E+03  0.34177635460E+04  0.34005358371E+04 0.  0.
        1    1    3    3  502    0 -0.10941279207E+04  0.11736688514E+04  0.73661655040E+03  0.17655646185E+04  0.50400001928E-02 0.  1.
       -1    1    3    3    0  502  0.10941279207E+04 -0.11736688514E+04 -0.39388680689E+03  0.16521989276E+04  0.50400001928E-02 0. -1.
</event>
<event>
 5   0  0.4255250E-07  0.2353864E+04  0.7818609E-02  0.8456981E-01
        3   -1    0    0  501    0  0.00000000000E+00  0.00000000000E+00  0.65782643388E+03  0.65782644163E+03  0.10100000352E+00 0.  1.
       -3   -1    0    0    0  501  0.00000000000E+00  0.00000000000E+00 -0.21056751103E+04  0.21056751127E+04  0.10100000352E+00 0. -1.
    10030    2    1    2    0    0  0.00000000000E+00  0.00000000000E+00 -0.14478486764E+04  0.27635015544E+04  0.23538638557E+04 0.  0.
        2    1    3    3  502    0  0.38109117433E+03 -0.11121625124E+04 -0.65926934255E+03  0.13478768502E+04  0.25500000920E-02 0.  1.
       -2    1    3    3    0  502 -0.38109117433E+03  0.11121625124E+04 -0.78857933388E+03  0.14156247042E+04  0.25500000920E-02 0. -1.
</event>
<event>
 5   0  0.8030324E-07  0.3803928E+04  0.7818609E-02  0.8045312E-01
        1   -1    0    0  501    0  0.00000000000E+00  0.00000000000E+00  0.24426360105E+04  0.24426360105E+04  0.50400001928E-02 0.  1.
       -1   -1    0    0    0  501  0.00000000000E+00  0.00000000000E+00 -0.14809684504E+04  0.14809684504E+04  0.50400001928E-02 0. -1.
    10030    2    1    2    0    0  0.00000000000E+00  0.00000000000E+00  0.96166756005E+03  0.39236044609E+04  0.38039279002E+04 0.  0.
        1    1    3    3  502    0  0.71047412923E+03 -0.66352908987E+03  0.21670198798E+04  0.23750830513E+04  0.50400001928E-02 0.  1.
       -1    1    3    3    0  502 -0.71047412923E+03  0.66352908987E+03 -0.12053523197E+04  0.15485214096E+04  0.50400001928E-02 0. -1.
</event>
<event>
 5   0  0.1184616E-06  0.3772878E+04  0.7818609E-02  0.8052000E-01
        2   -1    0    0  501    0  0.00000000000E+00  0.00000000000E+00  0.12680951316E+04  0.12680951316E+04  0.25500000920E-02 0. -1.
       -2   -1    0    0    0  501  0.00000000000E+00  0.00000000000E+00 -0.28062973207E+04  0.28062973207E+04  0.25500000920E-02 0.  1.
    10030    2    1    2    0    0  0.00000000000E+00  0.00000000000E+00 -0.15382021891E+04  0.40743924523E+04  0.37728779309E+04 0.  0.
        5    1    3    3  502    0  0.32597993433E+03  0.31299309544E+03  0.12087686047E+04  0.12904926288E+04  0.46999998093E+01 0. -1.
       -5    1    3    3    0  502 -0.32597993433E+03 -0.31299309544E+03 -0.27469707938E+04  0.27838998235E+04  0.46999998093E+01 0.  1.
</event>
<event>
 5   0  0.1372748E-06  0.3963070E+04  0.7818609E-02  0.8012038E-01
        2   -1    0    0  501    0  0.00000000000E+00  0.00000000000E+00  0.18179493340E+04  0.18179493340E+04  0.25500000920E-02 0. -1.
       -2   -1    0    0    0  501  0.00000000000E+00  0.00000000000E+00 -0.21598403763E+04  0.21598403763E+04  0.25500000920E-02 0.  1.
    10030    2    1    2    0    0  0.00000000000E+00  0.00000000000E+00 -0.34189104233E+03  0.39777897103E+04  0.39630697060E+04 0.  0.
        1    1    3    3  502    0 -0.89349178227E+03 -0.12898274724E+04 -0.13856048374E+04  0.20932948285E+04  0.50400001928E-02 0. -1.
       -1    1    3    3    0  502  0.89349178227E+03  0.12898274724E+04  0.10437137951E+04  0.18844948818E+04  0.50400001928E-02 0.  1.
</event>
<event>
 5   0  0.4255250E-07  0.3570031E+04  0.7818609E-02  0.8097391E-01
       -1   -1    0    0    0  501  0.00000000000E+00  0.00000000000E+00  0.13152436013E+04  0.13152436013E+04  0.50400001928E-02 0.  1.
        1   -1    0    0  501    0  0.00000000000E+00  0.00000000000E+00 -0.24225781711E+04  0.24225781711E+04  0.50400001928E-02 0. -1.
    10030    2    1    2    0    0  0.00000000000E+00  0.00000000000E+00 -0.11073345699E+04  0.37378217724E+04  0.35700310577E+04 0.  0.
        2    1    3    3  502    0  0.61171358050E+03  0.29287182600E+03  0.11750917167E+04  0.13567637797E+04  0.25500000920E-02 0.  1.
       -2    1    3    3    0  502 -0.61171358050E+03 -0.29287182600E+03 -0.22824262866E+04  0.23810579928E+04  0.25500000920E-02 0. -1.
</event>
<event>
 5   0  0.1337854E-06  0.3563526E+04  0.7818609E-02  0.8098898E-01
       -2   -1    0    0    0  501  0.00000000000E+00  0.00000000000E+00  0.20319479789E+04  0.20319479789E+04  0.25500000920E-02 0. -1.
        2   -1    0    0  501    0  0.00000000000E+00  0.00000000000E+00 -0.15623821259E+04  0.15623821259E+04  0.25500000920E-02 0.  1.
    10030    2    1    2    0    0  0.00000000000E+00  0.00000000000E+00  0.46956585302E+03  0.35943301048E+04  0.35635258961E+04 0.  0.
        3    1    3    3  502    0  0.96933922308E+03 -0.40205153939E+03  0.16871660126E+04  0.19869054165E+04  0.10100000352E+00 0. -1.
       -3    1    3    3    0  502 -0.96933922308E+03  0.40205153939E+03 -0.12176001596E+04  0.16074246883E+04  0.10100000352E+00 0.  1.
</event>
<event>
 5   0  0.1372748E-06  0.3985052E+04  0.7818609E-02  0.8007569E-01
        2   -1    0    0  501    0  0.00000000000E+00  0.00000000000E+00  0.18238581898E+04  0.18238581898E+04  0.25500000920E-02 0.  1.
       -2   -1    0    0    0  501  0.00000000000E+00  0.00000000000E+00 -0.21767925002E+04  0.21767925002E+04  0.25500000920E-02 0. -1.
    10030    2    1    2    0    0  0.00000000000E+00  0.00000000000E+00 -0.35293431037E+03  0.40006506901E+04  0.39850524860E+04 0.  0.
        1    1    3    3  502    0  0.13012728001E+04 -0.13249783209E+04  0.54835775356E+03  0.19363818520E+04  0.50400001928E-02 0. -1.
       -1    1    3    3    0  502 -0.13012728001E+04  0.13249783209E+04 -0.90129206393E+03  0.20642688380E+04  0.50400001928E-02 0.  1.
</event>
<event>
 5   0  0.4255250E-07  0.1920904E+04  0.7818609E-02  0.8644521E-01
       -1   -1    0    0    0  501  0.00000000000E+00  0.00000000000E+00  0.62604502319E+03  0.62604502321E+03  0.50400001928E-02 0.  1.
        1   -1    0    0  501    0  0.00000000000E+00  0.00000000000E+00 -0.14734844146E+04  0.14734844146E+04  0.50400001928E-02 0. -1.
    10030    2    1    2    0    0  0.00000000000E+00  0.00000000000E+00 -0.84743939139E+03  0.20995294378E+04  0.19209035213E+04 0.  0.
        2    1    3    3  502    0  0.55486002271E+03  0.34900236231E+03  0.34355290561E+03  0.74006816758E+03  0.25500000920E-02 0.  1.
       -2    1    3    3    0  502 -0.55486002271E+03 -0.34900236231E+03 -0.11909922970E+04  0.13594612702E+04  0.25500000920E-02 0. -1.
</event>
<event>
 5   0  0.4255250E-07  0.1984528E+04  0.7818609E-02  0.8613889E-01
        1   -1    0    0  501    0  0.00000000000E+00  0.00000000000E+00  0.12039202388E+04  0.12039202388E+04  0.50400001928E-02 0.  1.
       -1   -1    0    0    0  501  0.00000000000E+00  0.00000000000E+00 -0.81781783298E+03  0.81781783299E+03  0.50400001928E-02 0. -1.
    10030    2    1    2    0    0  0.00000000000E+00  0.00000000000E+00  0.38610240579E+03  0.20217380718E+04  0.19845275919E+04 0.  0.
        2    1    3    3  502    0  0.16399329192E+03  0.38836211255E+03  0.11081524165E+04  0.11856309326E+04  0.25500000920E-02 0.  1.
       -2    1    3    3    0  502 -0.16399329192E+03 -0.38836211255E+03 -0.72205001066E+03  0.83610713916E+03  0.25500000920E-02 0. -1.
</event>
<event>
 5   0  0.4255250E-07  0.2745869E+04  0.7818609E-02  0.8320274E-01
       -1   -1    0    0    0  501  0.00000000000E+00  0.00000000000E+00  0.11087197991E+04  0.11087197991E+04  0.50400001928E-02 0.  1.
        1   -1    0    0  501    0  0.00000000000E+00  0.00000000000E+00 -0.17001128417E+04  0.17001128417E+04  0.50400001928E-02 0. -1.
    10030    2    1    2    0    0  0.00000000000E+00  0.00000000000E+00 -0.59139304261E+03  0.28088326407E+04  0.27458687283E+04 0.  0.
        2    1    3    3  502    0 -0.10670106566E+04 -0.11366477276E+03  0.58039864973E+03  0.12199565625E+04  0.25500000920E-02 0. -1.
       -2    1    3    3    0  502  0.10670106566E+04  0.11366477276E+03 -0.11717916923E+04  0.15888760782E+04  0.25500000920E-02 0.  1.
</event>
<event>
 5   0  0.1337854E-06  0.3866512E+04  0.7818609E-02  0.8032030E-01
        2   -1    0    0  501    0  0.00000000000E+00  0.00000000000E+00  0.24293235316E+04  0.24293235316E+04  0.25500000920E-02 0. -1.
       -2   -1    0    0    0  501  0.00000000000E+00  0.00000000000E+00 -0.15384857257E+04  0.15384857257E+04  0.25500000920E-02 0.  1.
    10030    2    1    2    0    0  0.00000000000E+00  0.00000000000E+00  0.89083780587E+03  0.39678092573E+04  0.38665124216E+04 0.  0.
        3    1    3    3  502    0  0.81155798786E+03  0.17049457898E+04  0.19808653421E+02  0.18883481953E+04  0.10100000352E+00 0. -1.
       -3    1    3    3    0  502 -0.81155798786E+03 -0.17049457898E+04  0.87102915245E+03  0.20794610620E+04  0.10100000352E+00 0.  1.
</event>
<event>
 5   0  0.1341932E-06  0.3433541E+04  0.7818609E-02  0.8129723E-01
        2   -1    0    0  501    0  0.00000000000E+00  0.00000000000E+00  0.20265678978E+04  0.20265678978E+04  0.25500000920E-02 0.  1.
       -2   -1    0    0    0  501  0.00000000000E+00  0.00000000000E+00 -0.14543312780E+04  0.14543312780E+04  0.25500000920E-02 0. -1.
    10030    2    1    2    0    0  0.00000000000E+00  0.00000000000E+00  0.57223661983E+03  0.34808991757E+04  0.34335410763E+04 0.  0.
        2    1    3    3  502    0 -0.16411973096E+04  0.32018887080E+02  0.79579224822E+03  0.18242365857E+04  0.25500000920E-02 0.  1.
       -2    1    3    3    0  502  0.16411973096E+04 -0.32018887080E+02 -0.22355562839E+03  0.16566625900E+04  0.25500000920E-02 0. -1.
</event>
<event>
 5   0  0.1372748E-06  0.2787075E+04  0.7818609E-02  0.8307292E-01
       -2   -1    0    0    0  501  0.00000000000E+00  0.00000000000E+00  0.64345976903E+03  0.64345976904E+03  0.25500000920E-02 0.  1.
        2   -1    0    0  501    0  0.00000000000E+00  0.00000000000E+00 -0.30179772087E+04  0.30179772087E+04  0.25500000920E-02 0. -1.
    10030    2    1    2    0    0  0.00000000000E+00  0.00000000000E+00 -0.23745174397E+04  0.36614369778E+04  0.27870751103E+04 0.  0.
        1    1    3    3  502    0 -0.10273362490E+04  0.78762181439E+02 -0.24198641581E+04  0.26300885524E+04  0.50400001928E-02 0. -1.
       -1    1    3    3    0  502  0.10273362490E+04 -0.78762181439E+02  0.45346718381E+02  0.10313484254E+04  0.50400001928E-02 0.  1.
</event>
<event>
 5   0  0.4426789E-07  0.1909903E+04  0.7818609E-02  0.8649943E-01
        1   -1    0    0  501    0  0.00000000000E+00  0.00000000000E+00  0.89660297643E+03  0.89660297644E+03  0.50400001928E-02 0.  1.
       -1   -1    0    0    0  501  0.00000000000E+00  0.00000000000E+00 -0.10170972383E+04  0.10170972383E+04  0.50400001928E-02 0. -1.
    10030    2    1    2    0    0  0.00000000000E+00  0.00000000000E+00 -0.12049426188E+03  0.19137002148E+04  0.19099030459E+04 0.  0.
        2    1    3    3  502    0 -0.44099014483E+03  0.59900217383E+02  0.78634217616E+03  0.90354543987E+03  0.25500000920E-02 0.  1.
       -2    1    3    3    0  502  0.44099014483E+03 -0.59900217383E+02 -0.90683643805E+03  0.10101547749E+04  0.25500000920E-02 0. -1.
</event>
<event>
 5   0  0.1214844E-06  0.3688873E+04  0.7818609E-02  0.8070432E-01
        2   -1    0    0  501    0  0.00000000000E+00  0.00000000000E+00  0.22533545968E+04  0.22533545968E+04  0.25500000920E-02 0.  1.
       -2   -1    0    0    0  501  0.00000000000E+00  0.00000000000E+00 -0.15097247353E+04  0.15097247353E+04  0.25500000920E-02 0. -1.
    10030    2    1    2    0    0  0.00000000000E+00  0.00000000000E+00  0.74362986142E+03  0.37630793321E+04  0.36888725498E+04 0.  0.
        4    1    3    3  502    0 -0.48119385964E+03 -0.13020292971E+04 -0.86716072100E+03  0.16367031344E+04  0.12699999809E+01 0. -1.
       -4    1    3    3    0  502  0.48119385964E+03  0.13020292971E+04  0.16107905824E+04  0.21263761978E+04  0.12699999809E+01 0.  1.
</event>
<event>
 5   0  0.4795023E-07  0.2185152E+04  0.7818609E-02  0.8524634E-01
       -1   -1    0    0    0  501  0.00000000000E+00  0.00000000000E+00  0.98092162550E+03  0.98092162552E+03  0.50400001928E-02 0.  1.
        1   -1    0    0  501    0  0.00000000000E+00  0.00000000000E+00 -0.12169391526E+04  0.12169391526E+04  0.50400001928E-02 0. -1.
    10030    2    1    2    0    0  0.00000000000E+00  0.00000000000E+00 -0.23601752713E+03  0.21978607782E+04  0.21851516485E+04 0.  0.
        3    1    3    3  502    0 -0.78151019351E+03 -0.98805230656E+02 -0.87951272503E+03  0.11807045777E+04  0.10100000352E+00 0. -1.
       -3    1    3    3    0  502  0.78151019351E+03  0.98805230656E+02  0.64349519790E+03  0.10171562004E+04  0.10100000352E+00 0.  1.
</event>
<event>
 5   0  0.1079205E-06  0.3733096E+04  0.7818609E-02  0.8060667E-01
       -1   -1    0    0    0  501  0.00000000000E+00  0.00000000000E+00  0.18629683032E+04  0.18629683032E+04  0.50400001928E-02 0. -1.
        1   -1    0    0  501    0  0.00000000000E+00  0.00000000000E+00 -0.18701348970E+04  0.18701348970E+04  0.50400001928E-02 0.  1.
    10030    2    1    2    0    0  0.00000000000E+00  0.00000000000E+00 -0.71665937776E+01  0.37331032002E+04  0.37330963212E+04 0.  0.
        4    1    3    3  502    0 -0.11868591772E+04 -0.21340705802E+03 -0.14283045415E+04  0.18692866969E+04  0.12699999809E+01 0.  1.
       -4    1    3    3    0  502  0.11868591772E+04  0.21340705802E+03  0.14211379477E+04  0.18638165034E+04  0.12699999809E+01 0. -1.
</event>
<event>
 5   0  0.1337854E-06  0.3806405E+04  0.7818609E-02  0.8044782E-01
        2   -1    0    0  501    0  0.00000000000E+00  0.00000000000E+00  0.21262299069E+04  0.21262299069E+04  0.25500000920E-02 0.  1.
       -2   -1    0    0    0  501  0.00000000000E+00  0.00000000000E+00 -0.17035693163E+04  0.17035693163E+04  0.25500000920E-02 0. -1.
    10030    2    1    2    0    0  0.00000000000E+00  0.00000000000E+00  0.42266059063E+03  0.38297992232E+04  0.38064051433E+04 0.  0.
        3    1    3    3  502    0 -0.79329523545E+03  0.33805623344E+03 -0.14957352533E+04  0.17265060978E+04  0.10100000352E+00 0. -1.
       -3    1    3    3    0  502  0.79329523545E+03 -0.33805623344E+03  0.19183958439E+04  0.21032931255E+04  0.10100000352E+00 0.  1.
</event>
<event>
 5   0  0.1337854E-06  0.2478346E+04  0.7818609E-02  0.8410741E-01
       -2   -1    0    0    0  501  0.00000000000E+00  0.00000000000E+00  0.13721284712E+04  0.13721284712E+04  0.25500000920E-02 0.  1.
        2   -1    0    0  501    0  0.00000000000E+00  0.00000000000E+00 -0.11191005716E+04  0.11191005716E+04  0.25500000920E-02 0. -1.
    10030    2    1    2    0    0  0.00000000000E+00  0.00000000000E+00  0.25302789961E+03  0.24912290428E+04  0.24783460262E+04 0.  0.
        3    1    3    3  502    0 -0.94881321039E+03  0.57559402092E+03 -0.42770933181E+03  0.11893234496E+04  0.10100000352E+00 0.  1.
       -3    1    3    3    0  502  0.94881321039E+03 -0.57559402092E+03  0.68073723142E+03  0.13019055932E+04  0.10100000352E+00 0. -1.
</event>
<event>
 5   0  0.8030324E-07  0.2086704E+04  0.7818609E-02  0.8567123E-01
        1   -1    0    0  501    0  0.00000000000E+00  0.00000000000E+00  0.19713272049E+04  0.19713272049E+04  0.50400001928E-02 0. -1.
       -1   -1    0    0    0  501  0.00000000000E+00  0.00000000000E+00 -0.55220822240E+03  0.55220822242E+03  0.50400001928E-02 0.  1.
    10030    2    1    2    0    0  0.00000000000E+00  0.00000000000E+00  0.14191189825E+04  0.25235354274E+04  0.20867037084E+04 0.  0.
        1    1    3    3  502    0  0.33053248497E+03  0.35660098460E+03 -0.40681781944E+03  0.63396902454E+03  0.50400001928E-02 0.  1.
       -1    1    3    3    0  502 -0.33053248497E+03 -0.35660098460E+03  0.18259368020E+04  0.18895664028E+04  0.50400001928E-02 0. -1.
</event>
<event>
 5   0  0.1184616E-06  0.3716769E+04  0.7818609E-02  0.8064256E-01
        2   -1    0    0  501    0  0.00000000000E+00  0.00000000000E+00  0.23164763402E+04  0.23164763402E+04  0.25500000920E-02 0.  1.
       -2   -1    0    0    0  501  0.00000000000E+00  0.00000000000E+00 -0.14908816918E+04  0.14908816918E+04  0.25500000920E-02 0. -1.
    10030    2    1    2    0    0  0.00000000000E+00  0.00000000000E+00  0.82559464834E+03  0.38073580320E+04  0.37167685777E+04 0.  0.
        5    1    3    3  502    0 -0.24056253378E+03  0.16795031197E+04  0.11895458139E+04  0.20721106136E+04  0.46999998093E+01 0.  1.
       -5    1    3    3    0  502  0.24056253378E+03 -0.16795031197E+04 -0.36395116553E+03  0.17352474183E+04  0.46999998093E+01 0. -1.
</event>
<event>
 5   0  0.4795023E-07  0.3897374E+04  0.7818609E-02  0.8025576E-01
       -1   -1    0    0    0  501  0.00000000000E+00  0.00000000000E+00  0.21334288368E+04  0.21334288368E+04  0.50400001928E-02 0. -1.
        1   -1    0    0  501    0  0.00000000000E+00  0.00000000000E+00 -0.17799423057E+04  0.17799423057E+04  0.50400001928E-02 0.  1.
    10030    2    1    2    0    0  0.00000000000E+00  0.00000000000E+00  0.35348653104E+03  0.39133711425E+04  0.38973735991E+04 0.  0.
        3    1    3    3  502    0 -0.27558438674E+03 -0.50344754851E+03  0.20466369657E+04  0.21255891108E+04  0.10100000352E+00 0. -1.
       -3    1    3    3    0  502  0.27558438674E+03  0.50344754851E+03 -0.16931504347E+04  0.17877820317E+04  0.10100000352E+00 0.  1.
</event>
<event>
 5   0  0.1184616E-06  0.3789507E+04  0.7818609E-02  0.8048410E-01
       -2   -1    0    0    0  501  0.00000000000E+00  0.00000000000E+00  0.19689040910E+04  0.19689040910E+04  0.25500000920E-02 0. -1.
        2   -1    0    0  501    0  0.00000000000E+00  0.00000000000E+00 -0.18233956716E+04  0.18233956716E+04  0.25500000920E-02 0.  1.
    10030    2    1    2    0    0  0.00000000000E+00  0.00000000000E+00  0.14550841941E+03  0.37922997625E+04  0.37895071960E+04 0.  0.
        5    1    3    3  502    0  0.26604116435E+03  0.30741496584E+03 -0.17792276202E+04  0.18250903750E+04  0.46999998093E+01 0.  1.
       -5    1    3    3    0  502 -0.26604116435E+03 -0.30741496584E+03  0.19247360396E+04  0.19672093876E+04  0.46999998093E+01 0. -1.
</event>
<event>
 5   0  0.4255250E-07  0.3667056E+04  0.7818609E-02  0.8075302E-01
       -1   -1    0    0    0  501  0.00000000000E+00  0.00000000000E+00  0.15543437539E+04  0.15543437539E+04  0.50400001928E-02 0.  1.
        1   -1    0    0  501    0  0.00000000000E+00  0.00000000000E+00 -0.21628580829E+04  0.21628580829E+04  0.50400001928E-02 0. -1.
    10030    2    1    2    0    0  0.00000000000E+00  0.00000000000E+00 -0.60851432902E+03  0.37172018368E+04  0.36670560136E+04 0.  0.
        2    1    3    3  502    0  0.67886443102E+02 -0.65619591742E+02 -0.21603922353E+04  0.21624544181E+04  0.25500000920E-02 0. -1.
       -2    1    3    3    0  502 -0.67886443102E+02  0.65619591742E+02  0.15518779063E+04  0.15547474187E+04  0.25500000920E-02 0.  1.
</event>
<event>
 5   0  0.5284458E-07  0.3980352E+04  0.7818609E-02  0.8008522E-01
       -1   -1    0    0    0  501  0.00000000000E+00  0.00000000000E+00  0.24153122831E+04  0.24153122831E+04  0.50400001928E-02 0. -1.
        1   -1    0    0  501    0  0.00000000000E+00  0.00000000000E+00 -0.16398710664E+04  0.16398710664E+04  0.50400001928E-02 0.  1.
    10030    2    1    2    0    0  0.00000000000E+00  0.00000000000E+00  0.77544121675E+03  0.40551833495E+04  0.39803521097E+04 0.  0.
        5    1    3    3  502    0 -0.19248212332E+04  0.17254364938E+03  0.87212826265E+03  0.21202211882E+04  0.46999998093E+01 0. -1.
       -5    1    3    3    0  502  0.19248212332E+04 -0.17254364938E+03 -0.96687045899E+02  0.19349621612E+04  0.46999998093E+01 0.  1.
</event>
<event>
 5   0  0.1341932E-06  0.3704781E+04  0.7818609E-02  0.8066903E-01
       -2   -1    0    0    0  501  0.00000000000E+00  0.00000000000E+00  0.18771181867E+04  0.18771181867E+04  0.25500000920E-02 0.  1.
        2   -1    0    0  501    0  0.00000000000E+00  0.00000000000E+00 -0.18279888786E+04  0.18279888786E+04  0.25500000920E-02 0. -1.
    10030    2    1    2    0    0  0.00000000000E+00  0.00000000000E+00  0.49129308142E+02  0.37051070653E+04  0.37047813264E+04 0.  0.
        2    1    3    3  502    0  0.15089492493E+04 -0.34131859517E+03 -0.99431093874E+03  0.18390433555E+04  0.25500000920E-02 0. -1.
       -2    1    3    3    0  502 -0.15089492493E+04  0.34131859517E+03  0.10434402469E+04  0.18660637099E+04  0.25500000920E-02 0.  1.
</event>
<event>
 5   0  0.1372748E-06  0.3814474E+04  0.7818609E-02  0.8043056E-01
       -2   -1    0    0    0  501  0.00000000000E+00  0.00000000000E+00  0.17594734872E+04  0.17594734872E+04  0.25500000920E-02 0.  1.
        2   -1    0    0  501    0  0.00000000000E+00  0.00000000000E+00 -0.20674097298E+04  0.20674097298E+04  0.25500000920E-02 0. -1.
    10030    2    1    2    0    0  0.00000000000E+00  0.00000000000E+00 -0.30793624258E+03  0.38268832170E+04  0.38144738074E+04 0.  0.
        1    1    3    3  502    0  0.22420656240E+03  0.48641150199E+03 -0.19904115699E+04  0.20612139504E+04  0.50400001928E-02 0. -1.
       -1    1    3    3    0  502 -0.22420656240E+03 -0.48641150199E+03  0.16824753273E+04  0.17656692666E+04  0.50400001928E-02 0.  1.
</event>
<event>
 5   0  0.4795023E-07  0.3923341E+04  0.7818609E-02  0.8020192E-01
       -1   -1    0    0    0  501  0.00000000000E+00  0.00000000000E+00  0.17849763267E+04  0.17849763267E+04  0.50400001928E-02 0. -1.
        1   -1    0    0  501    0  0.00000000000E+00  0.00000000000E+00 -0.21558557344E+04  0.21558557344E+04  0.50400001928E-02 0.  1.
    10030    2    1    2    0    0  0.00000000000E+00  0.00000000000E+00 -0.37087940770E+03  0.39408320611E+04  0.39233411525E+04 0.  0.
        3    1    3    3  502    0  0.45148620168E+03  0.73589927731E+03 -0.19547590216E+04  0.21369301297E+04  0.10100000352E+00 0.  1.
       -3    1    3    3    0  502 -0.45148620168E+03 -0.73589927731E+03  0.15838796139E+04  0.18039019314E+04  0.10100000352E+00 0. -1.
</event>
<event>
 5   0  0.5284458E-07  0.3961766E+04  0.7818609E-02  0.8012304E-01
        1   -1    0    0  501    0  0.00000000000E+00  0.00000000000E+00  0.28017071343E+04  0.28017071343E+04  0.50400001928E-02 0.  1.
       -1   -1    0    0    0  501  0.00000000000E+00  0.00000000000E+00 -0.14005377939E+04  0.14005377939E+04  0.50400001928E-02 0. -1.
    10030    2    1    2    0    0  0.00000000000E+00  0.00000000000E+00  0.14011693404E+04  0.42022449283E+04  0.39617656312E+04 0.  0.
        5    1    3    3  502    0 -0.38494233214E+03  0.16042091342E+04 -0.46242205134E+03  0.17133370331E+04  0.46999998093E+01 0. -1.
       -5    1    3    3    0  502  0.38494233214E+03 -0.16042091342E+04  0.18635913917E+04  0.24889078952E+04  0.46999998093E+01 0.  1.
</event>
<event>
 5   0  0.5284458E-07  0.3787302E+04  0.7818609E-02  0.8048885E-01
       -1   -1    0    0    0  501  0.00000000000E+00  0.00000000000E+00  0.23247236423E+04  0.23247236423E+04  0.50400001928E-02 0. -1.
        1   -1    0    0  501    0  0.00000000000E+00  0.00000000000E+00 -0.15425116241E+04  0.15425116241E+04  0.50400001928E-02 0.  1.
    10030    2    1    2    0    0  0.00000000000E+00  0.00000000000E+00  0.78221201815E+03  0.38672352664E+04  0.37873015413E+04 0.  0.
        5    1    3    3  502    0  0.13723685445E+04  0.77783947637E+03 -0.67860225623E+03  0.17172515206E+04  0.46999998093E+01 0.  1.
       -5    1    3    3    0  502 -0.13723685445E+04 -0.77783947637E+03  0.14608142744E+04  0.21499837458E+04  0.46999998093E+01 0. -1.
</event>
<event>
 5   0  0.4255250E-07  0.2779683E+04  0.7818609E-02  0.8309604E-01
        1   -1    0    0  501    0  0.00000000000E+00  0.00000000000E+00  0.30301017564E+04  0.30301017564E+04  0.50400001928E-02 0.  1.
       -1   -1    0    0    0  501  0.00000000000E+00  0.00000000000E+00 -0.63749012476E+03  0.63749012478E+03  0.50400001928E-02 0. -1.
    10030    2    1    2    0    0  0.00000000000E+00  0.00000000000E+00  0.23926116317E+04  0.36675918812E+04  0.27796833969E+04 0.  0.
        2    1    3    3  502    0 -0.28742051159E+03 -0.29664577752E+02 -0.59742206397E+03  0.66362915862E+03  0.25500000920E-02 0. -1.
       -2    1    3    3    0  502  0.28742051159E+03  0.29664577752E+02  0.29900336956E+04  0.30039627226E+04  0.25500000920E-02 0.  1.
</event>
<event>
 5   0  0.1372748E-06  0.2684926E+04  0.7818609E-02  0.8339913E-01
        2   -1    0    0  501    0  0.00000000000E+00  0.00000000000E+00  0.23108440650E+04  0.23108440650E+04  0.25500000920E-02 0.  1.
       -2   -1    0    0    0  501  0.00000000000E+00  0.00000000000E+00 -0.77989113012E+03  0.77989113012E+03  0.25500000920E-02 0. -1.
    10030    2    1    2    0    0  0.00000000000E+00  0.00000000000E+00  0.15309529349E+04  0.30907351951E+04  0.26849259129E+04 0.  0.
        1    1    3    3  502    0  0.61703794157E+03  0.81285106218E+03  0.17695113303E+04  0.20427023814E+04  0.50400001928E-02 0.  1.
       -1    1    3    3    0  502 -0.61703794157E+03 -0.81285106218E+03 -0.23855839546E+03  0.10480328137E+04  0.50400001928E-02 0. -1.
</event>
<event>
 5   0  0.1337854E-06  0.3881551E+04  0.7818609E-02  0.8028877E-01
       -2   -1    0    0    0  501  0.00000000000E+00  0.00000000000E+00  0.23192081538E+04  0.23192081538E+04  0.25500000920E-02 0.  1.
        2   -1    0    0  501    0  0.00000000000E+00  0.00000000000E+00 -0.16240926058E+04  0.16240926058E+04  0.25500000920E-02 0. -1.
    10030    2    1    2    0    0  0.00000000000E+00  0.00000000000E+00  0.69511554803E+03  0.39433007596E+04  0.38815506252E+04 0.  0.
        3    1    3    3  502    0  0.10257845931E+04 -0.62069019504E+03 -0.12028660594E+04  0.16983454055E+04  0.10100000352E+00 0. -1.
       -3    1    3    3    0  502 -0.10257845931E+04  0.62069019504E+03  0.18979816074E+04  0.22449553541E+04  0.10100000352E+00 0.  1.
</event>
<event>
 5   0  0.5284458E-07  0.2374337E+04  0.7818609E-02  0.8449174E-01
       -1   -1    0    0    0  501  0.00000000000E+00  0.00000000000E+00  0.21643937935E+04  0.21643937935E+04  0.50400001928E-02 0.  1.
        1   -1    0    0  501    0  0.00000000000E+00  0.00000000000E+00 -0.65116095917E+03  0.65116095919E+03  0.50400001928E-02 0. -1.
    10030    2    1    2    0    0  0.00000000000E+00  0.00000000000E+00  0.15132328344E+04  0.28155547527E+04  0.23743367399E+04 0.  0.
        5    1    3    3  502    0 -0.67698448513E+03  0.30202954640E+03 -0.34295800775E+03  0.81680605108E+03  0.46999998093E+01 0. -1.
       -5    1    3    3    0  502  0.67698448513E+03 -0.30202954640E+03  0.18561908421E+04  0.19987487016E+04  0.46999998093E+01 0.  1.
</event>
<event>
 5   0  0.1214844E-06  0.3649886E+04  0.7818609E-02  0.8079159E-01
       -2   -1    0    0    0  501  0.00000000000E+00  0.00000000000E+00  0.14238029522E+04  0.14238029522E+04  0.25500000920E-02 0. -1.
        2   -1    0    0  501    0  0.00000000000E+00  0.00000000000E+00 -0.23390997316E+04  0.23390997316E+04  0.25500000920E-02 0.  1.
    10030    2    1    2    0    0  0.00000000000E+00  0.00000000000E+00 -0.91529677948E+03  0.37629026838E+04  0.36498860822E+04 0.  0.
        4    1    3    3  502    0 -0.39352056807E+03 -0.17177559000E+04 -0.94653832739E+03  0.20003700127E+04  0.12699999809E+01 0. -1.
       -4    1    3    3    0  502  0.39352056807E+03  0.17177559000E+04  0.31241547907E+02  0.17625326711E+04  0.12699999809E+01 0.  1.
</event>
<event>
 5   0  0.5284458E-07  0.3175834E+04  0.7818609E-02  0.8195229E-01
        1   -1    0    0  501    0  0.00000000000E+00  0.00000000000E+00  0.21055232540E+04  0.21055232540E+04  0.50400001928E-02 0. -1.
       -1   -1    0    0    0  501  0.00000000000E+00  0.00000000000E+00 -0.11975552771E+04  0.11975552771E+04  0.50400001928E-02 0.  1.
    10030    2    1    2    0    0  0.00000000000E+00  0.00000000000E+00  0.90796797688E+03  0.33030785312E+04  0.31758340536E+04 0.  0.
        5    1    3    3  502    0  0.23898870321E+03  0.35726671318E+03 -0.11358906551E+04  0.12145059798E+04  0.46999998093E+01 0.  1.
       -5    1    3    3    0  502 -0.23898870321E+03 -0.35726671318E+03  0.20438586320E+04  0.20885725514E+04  0.46999998093E+01 0. -1.
</event>
<event>
 5   0  0.5284458E-07  0.3225104E+04  0.7818609E-02  0.8182218E-01
       -1   -1    0    0    0  501  0.00000000000E+00  0.00000000000E+00  0.24407652215E+04  0.24407652215E+04  0.50400001928E-02 0. -1.
        1   -1    0    0  501    0  0.00000000000E+00  0.00000000000E+00 -0.10653726652E+04  0.10653726652E+04  0.50400001928E-02 0.  1.
    10030    2    1    2    0    0  0.00000000000E+00  0.00000000000E+00  0.13753925563E+04  0.35061378867E+04  0.32251043699E+04 0.  0.
        5    1    3    3  502    0  0.15349788969E+04  0.30368989266E+03  0.26397028148E+03  0.15868491310E+04  0.46999998093E+01 0.  1.
       -5    1    3    3    0  502 -0.15349788969E+04 -0.30368989266E+03  0.11114222748E+04  0.19192887557E+04  0.46999998093E+01 0. -1.
</event>
<event>
 5   0  0.1184616E-06  0.2791422E+04  0.7818609E-02  0.8305936E-01
       -2   -1    0    0    0  501  0.00000000000E+00  0.00000000000E+00  0.99719278542E+03  0.99719278542E+03  0.25500000920E-02 0. -1.
        2   -1    0    0  501    0  0.00000000000E+00  0.00000000000E+00 -0.19534929472E+04  0.19534929472E+04  0.25500000920E-02 0.  1.
    10030    2    1    2    0    0  0.00000000000E+00  0.00000000000E+00 -0.95630016177E+03  0.29506857326E+04  0.27914219124E+04 0.  0.
        5    1    3    3  502    0 -0.63341043675E+03 -0.11238451103E+03  0.83112557150E+03  0.10510142079E+04  0.46999998093E+01 0. -1.
       -5    1    3    3    0  502  0.63341043675E+03  0.11238451103E+03 -0.17874257333E+04  0.18996715247E+04  0.46999998093E+01 0.  1.
</event>
<event>
 5   0  0.8030324E-07  0.3884113E+04  0.7818609E-02  0.8028342E-01
        1   -1    0    0  501    0  0.00000000000E+00  0.00000000000E+00  0.22793021941E+04  0.22793021941E+04  0.50400001928E-02 0. -1.
       -1   -1    0    0    0  501  0.00000000000E+00  0.00000000000E+00 -0.16547094241E+04  0.16547094241E+04  0.50400001928E-02 0.  1.
    10030    2    1    2    0    0  0.00000000000E+00  0.00000000000E+00  0.62459277004E+03  0.39340116182E+04  0.38841126765E+04 0.  0.
        1    1    3    3  502    0 -0.12820153251E+04 -0.11181217294E+04  0.12612552262E+04  0.21176695307E+04  0.50400001928E-02 0. -1.
       -1    1    3    3    0  502  0.12820153251E+04  0.11181217294E+04 -0.63666245620E+03  0.18163420875E+04  0.50400001928E-02 0.  1.
</event>
<event>
 5   0  0.5284458E-07  0.2064423E+04  0.7818609E-02  0.8577079E-01
       -1   -1    0    0    0  501  0.00000000000E+00  0.00000000000E+00  0.14675247374E+04  0.14675247374E+04  0.50400001928E-02 0. -1.
        1   -1    0    0  501    0  0.00000000000E+00  0.00000000000E+00 -0.72602578493E+03  0.72602578495E+03  0.50400001928E-02 0.  1.
    10030    2    1    2    0    0  0.00000000000E+00  0.00000000000E+00  0.74149895249E+03  0.21935505224E+04  0.20644232119E+04 0.  0.
        5    1    3    3  502    0  0.67665114218E+03  0.42683150728E+03  0.10637698785E+04  0.13310410769E+04  0.46999998093E+01 0. -1.
       -5    1    3    3    0  502 -0.67665114218E+03 -0.42683150728E+03 -0.32227092606E+03  0.86250944551E+03  0.46999998093E+01 0.  1.
</event>
<event>
 5   0  0.1341932E-06  0.3783995E+04  0.7818609E-02  0.8049598E-01
        2   -1    0    0  501    0  0.00000000000E+00  0.00000000000E+00  0.17277957301E+04  0.17277957301E+04  0.25500000920E-02 0.  1.
       -2   -1    0    0    0  501  0.00000000000E+00  0.00000000000E+00 -0.20718043960E+04  0.20718043960E+04  0.25500000920E-02 0. -1.
    10030    2    1    2    0    0  0.00000000000E+00  0.00000000000E+00 -0.34400866587E+03  0.37996001261E+04  0.37839951316E+04 0.  0.
        2    1    3    3  502    0 -0.44357831591E+03 -0.42918438228E+03  0.16238605614E+04  0.17372058252E+04  0.25500000920E-02 0.  1.
       -2    1    3    3    0  502  0.44357831591E+03  0.42918438228E+03 -0.19678692273E+04  0.20623943008E+04  0.25500000920E-02 0. -1.
</event>
<event>
 5   0  0.8030324E-07  0.3824141E+04  0.7818609E-02  0.8040994E-01
        1   -1    0    0  501    0  0.00000000000E+00  0.00000000000E+00  0.17355547951E+04  0.17355547951E+04  0.50400001928E-02 0. -1.
       -1   -1    0    0    0  501  0.00000000000E+00  0.00000000000E+00 -0.21065385326E+04  0.21065385326E+04  0.50400001928E-02 0.  1.
    10030    2    1    2    0    0  0.00000000000E+00  0.00000000000E+00 -0.37098373752E+03  0.38420933277E+04  0.38241407146E+04 0.  0.
        1    1    3    3  502    0 -0.14376779771E+04  0.72974075901E+02 -0.14498790492E+04  0.20431329959E+04  0.50400001928E-02 0.  1.
       -1    1    3    3    0  502  0.14376779771E+04 -0.72974075901E+02  0.10788953117E+04  0.17989603318E+04  0.50400001928E-02 0. -1.
</event>
<event>
 5   0  0.1372748E-06  0.2436623E+04  0.7818609E-02  0.8425918E-01
       -2   -1    0    0    0  501  0.00000000000E+00  0.00000000000E+00  0.13352265962E+04  0.13352265962E+04  0.25500000920E-02 0.  1.
        2   -1    0    0  501    0  0.00000000000E+00  0.00000000000E+00 -0.11116334151E+04  0.11116334151E+04  0.25500000920E-02 0. -1.
    10030    2    1    2    0    0  0.00000000000E+00  0.00000000000E+00  0.22359318116E+03  0.24468600113E+04  0.24366226635E+04 0.  0.
        1    1    3    3  502    0  0.18280759484E+03  0.48398595873E+03  0.12194364690E+04  0.13246457364E+04  0.50400001928E-02 0.  1.
       -1    1    3    3    0  502 -0.18280759484E+03 -0.48398595873E+03 -0.99584328780E+03  0.11222142749E+04  0.50400001928E-02 0. -1.
</event>
<event>
 5   0  0.4255250E-07  0.1913832E+04  0.7818609E-02  0.8648002E-01
       -1   -1    0    0    0  501  0.00000000000E+00  0.00000000000E+00  0.59361753540E+03  0.59361753543E+03  0.50400001928E-02 0. -1.
        1   -1    0    0  501    0  0.00000000000E+00  0.00000000000E+00 -0.15425556681E+04  0.15425556681E+04  0.50400001928E-02 0.  1.
    10030    2    1    2    0    0  0.00000000000E+00  0.00000000000E+00 -0.94893813267E+03  0.21361732035E+04  0.19138318567E+04 0.  0.
        2    1    3    3  502    0  0.43313606219E+03 -0.63628125256E+03 -0.11090496456E+04  0.13499821470E+04  0.25500000920E-02 0.  1.
       -2    1    3    3    0  502 -0.43313606219E+03  0.63628125256E+03  0.16011151297E+03  0.78619105650E+03  0.25500000920E-02 0. -1.
</event>
<event>
 5   0  0.8030324E-07  0.2130024E+04  0.7818609E-02  0.8548132E-01
        1   -1    0    0  501    0  0.00000000000E+00  0.00000000000E+00  0.13156434787E+04  0.13156434787E+04  0.50400001928E-02 0.  1.
       -1   -1    0    0    0  501  0.00000000000E+00  0.00000000000E+00 -0.86212604119E+03  0.86212604121E+03  0.50400001928E-02 0. -1.
    10030    2    1    2    0    0  0.00000000000E+00  0.00000000000E+00  0.45351743753E+03  0.21777695199E+04  0.21300239472E+04 0.  0.
        1    1    3    3  502    0 -0.51523547545E+03 -0.42986156929E+03 -0.61882399432E+03  0.91279335005E+03  0.50400001928E-02 0. -1.
       -1    1    3    3    0  502  0.51523547545E+03  0.42986156929E+03  0.10723414318E+04  0.12649761699E+04  0.50400001928E-02 0.  1.
</event>
<event>
 5   0  0.1337854E-06  0.3843554E+04  0.7818609E-02  0.8036872E-01
       -2   -1    0    0    0  501  0.00000000000E+00  0.00000000000E+00  0.23256375907E+04  0.23256375907E+04  0.25500000920E-02 0. -1.
        2   -1    0    0  501    0  0.00000000000E+00  0.00000000000E+00 -0.15880489174E+04  0.15880489174E+04  0.25500000920E-02 0.  1.
    10030    2    1    2    0    0  0.00000000000E+00  0.00000000000E+00  0.73758867332E+03  0.39136865081E+04  0.38435536985E+04 0.  0.
        3    1    3    3  502    0 -0.77799478543E+03  0.10296863612E+04 -0.10811607265E+04  0.16835790493E+04  0.10100000352E+00 0.  1.
       -3    1    3    3    0  502  0.77799478543E+03 -0.10296863612E+04  0.18187493998E+04  0.22301074589E+04  0.10100000352E+00 0. -1.
</event>
<event>
 5   0  0.5284458E-07  0.2113883E+04  0.7818609E-02  0.8555152E-01
        1   -1    0    0  501    0  0.00000000000E+00  0.00000000000E+00  0.23615434930E+04  0.23615434930E+04  0.50400001928E-02 0. -1.
       -1   -1    0    0    0  501  0.00000000000E+00  0.00000000000E+00 -0.47304874111E+03  0.47304874114E+03  0.50400001928E-02 0.  1.
    10030    2    1    2    0    0  0.00000000000E+00  0.00000000000E+00  0.18884947519E+04  0.28345922341E+04  0.21138828506E+04 0.  0.
        5    1    3    3  502    0  0.14262188652E+03  0.10449998110E+04  0.10365434714E+04  0.14787866870E+04  0.46999998093E+01 0. -1.
       -5    1    3    3    0  502 -0.14262188652E+03 -0.10449998110E+04  0.85195128048E+03  0.13558055472E+04  0.46999998093E+01 0.  1.
</event>
<event>
 5   0  0.1341932E-06  0.3877182E+04  0.7818609E-02  0.8029792E-01
        2   -1    0    0  501    0  0.00000000000E+00  0.00000000000E+00  0.21190003001E+04  0.21190003001E+04  0.25500000920E-02 0.  1.
       -2   -1    0    0    0  501  0.00000000000E+00  0.00000000000E+00 -0.17735414203E+04  0.17735414203E+04  0.25500000920E-02 0. -1.
    10030    2    1    2    0    0  0.00000000000E+00  0.00000000000E+00  0.34545887975E+03  0.38925417204E+04  0.38771818641E+04 0.  0.
        2    1    3    3  502    0  0.55747215481E+03 -0.17975990813E+04 -0.29386666076E+03  0.19048609595E+04  0.25500000920E-02 0.  1.
       -2    1    3    3    0  502 -0.55747215481E+03  0.17975990813E+04  0.63932554052E+03  0.19876807609E+04  0.25500000920E-02 0. -1.
</event>
<event>
 5   0  0.1337854E-06  0.2031242E+04  0.7818609E-02  0.8592152E-01
       -2   -1    0    0    0  501  0.00000000000E+00  0.00000000000E+00  0.81433890156E+03  0.81433890156E+03  0.25500000920E-02 0. -1.
        2   -1    0    0  501    0  0.00000000000E+00  0.00000000000E+00 -0.12666550977E+04  0.12666550977E+04  0.25500000920E-02 0.  1.
    10030    2    1    2    0    0  0.00000000000E+00  0.00000000000E+00 -0.45231619611E+03  0.20809939992E+04  0.20312424975E+04 0.  0.
        3    1    3    3  502    0 -0.54875861298E+03  0.67415273470E+03 -0.76425461117E+03  0.11574554185E+04  0.10100000352E+00 0.  1.
       -3    1    3    3    0  502  0.54875861298E+03 -0.67415273470E+03  0.31193841506E+03  0.92353858069E+03  0.10100000352E+00 0. -1.
</event>
<event>
 5   0  0.1341932E-06  0.3777077E+04  0.7818609E-02  0.8051092E-01
        2   -1    0    0  501    0  0.00000000000E+00  0.00000000000E+00  0.20229177152E+04  0.20229177152E+04  0.25500000920E-02 0. -1.
       -2   -1    0    0    0  501  0.00000000000E+00  0.00000000000E+00 -0.17630858046E+04  0.17630858046E+04  0.25500000920E-02 0.  1.
    10030    2    1    2    0    0  0.00000000000E+00  0.00000000000E+00  0.25983191065E+03  0.37860035198E+04  0.37770769161E+04 0.  0.
        2    1    3    3  502    0 -0.52546726294E+03 -0.11480178373E+04 -0.12778664397E+04  0.17963862160E+04  0.25500000920E-02 0.  1.
       -2    1    3    3    0  502  0.52546726294E+03  0.11480178373E+04  0.15376983503E+04  0.19896173039E+04  0.25500000920E-02 0. -1.
</event>
<event>
 5   0  0.1341932E-06  0.2065424E+04  0.7818609E-02  0.8576629E-01
        2   -1    0    0  501    0  0.00000000000E+00  0.00000000000E+00  0.13470922246E+04  0.13470922246E+04  0.25500000920E-02 0. -1.
       -2   -1    0    0    0  501  0.00000000000E+00  0.00000000000E+00 -0.79170114798E+03  0.79170114798E+03  0.25500000920E-02 0.  1.
    10030    2    1    2    0    0  0.00000000000E+00  0.00000000000E+00  0.55539107661E+03  0.21387933726E+04  0.20654243735E+04 0.  0.
        2    1    3    3  502    0  0.20850339714E+03 -0.10032182897E+04  0.41100817792E+03  0.11040146402E+04  0.25500000920E-02 0. -1.
       -2    1    3    3    0  502 -0.20850339714E+03  0.10032182897E+04  0.14438289869E+03  0.10347787324E+04  0.25500000920E-02 0.  1.
</event>
<event>
 5   0  0.8030324E-07  0.2887334E+04  0.7818609E-02  0.8276656E-01
       -1   -1    0    0    0  501  0.00000000000E+00  0.00000000000E+00  0.18503713795E+04  0.18503713795E+04  0.50400001928E-02 0. -1.
        1   -1    0    0  501    0  0.00000000000E+00  0.00000000000E+00 -0.11263543329E+04  0.11263543329E+04  0.50400001928E-02 0.  1.
    10030    2    1    2    0    0  0.00000000000E+00  0.00000000000E+00  0.72401704658E+03  0.29767257123E+04  0.28873335939E+04 0.  0.
        1    1    3    3  502    0 -0.11646717446E+04 -0.60330553006E+03  0.98378600487E+03  0.16395952972E+04  0.50400001928E-02 0. -1.
       -1    1    3    3    0  502  0.11646717446E+04  0.60330553006E+03 -0.25976895829E+03  0.13371304151E+04  0.50400001928E-02 0.  1.
</event>
<event>
 5   0  0.1341932E-06  0.3866465E+04  0.7818609E-02  0.8032040E-01
        2   -1    0    0  501    0  0.00000000000E+00  0.00000000000E+00  0.21795567056E+04  0.21795567056E+04  0.25500000920E-02 0. -1.
       -2   -1    0    0    0  501  0.00000000000E+00  0.00000000000E+00 -0.17147469462E+04  0.17147469462E+04  0.25500000920E-02 0.  1.
    10030    2    1    2    0    0  0.00000000000E+00  0.00000000000E+00  0.46480975942E+03  0.38943036517E+04  0.38664651582E+04 0.  0.
        2    1    3    3  502    0 -0.12592848719E+04  0.67282221241E+03 -0.10803983309E+04  0.17904604636E+04  0.25500000920E-02 0.  1.
       -2    1    3    3    0  502  0.12592848719E+04 -0.67282221241E+03  0.15452080903E+04  0.21038431882E+04  0.25500000920E-02 0. -1.
</event>
<event>
 5   0  0.1341932E-06  0.3392949E+04  0.7818609E-02  0.8139639E-01
       -2   -1    0    0    0  501  0.00000000000E+00  0.00000000000E+00  0.18292994691E+04  0.18292994691E+04  0.25500000920E-02 0. -1.
        2   -1    0    0  501    0  0.00000000000E+00  0.00000000000E+00 -0.15732937321E+04  0.15732937321E+04  0.25500000920E-02 0.  1.
    10030    2    1    2    0    0  0.00000000000E+00  0.00000000000E+00  0.25600573698E+03  0.34025932012E+04  0.33929487995E+04 0.  0.
        2    1    3    3  502    0 -0.18993741420E+02  0.54035940601E+03  0.17405774300E+04  0.18226241630E+04  0.25500000920E-02 0. -1.
       -2    1    3    3    0  502  0.18993741420E+02 -0.54035940601E+03 -0.14845716930E+04  0.15799690382E+04  0.25500000920E-02 0.  1.
</event>
<event>
 5   0  0.1337854E-06  0.2604982E+04  0.7818609E-02  0.8366511E-01
       -2   -1    0    0    0  501  0.00000000000E+00  0.00000000000E+00  0.80442165253E+03  0.80442165253E+03  0.25500000920E-02 0. -1.
        2   -1    0    0  501    0  0.00000000000E+00  0.00000000000E+00 -0.21089472183E+04  0.21089472183E+04  0.25500000920E-02 0.  1.
    10030    2    1    2    0    0  0.00000000000E+00  0.00000000000E+00 -0.13045255658E+04  0.29133688709E+04  0.26049820011E+04 0.  0.
        3    1    3    3  502    0  0.36606233083E+03 -0.11545109290E+04 -0.11638821322E+03  0.12167347047E+04  0.10100000352E+00 0. -1.
       -3    1    3    3    0  502 -0.36606233083E+03  0.11545109290E+04 -0.11881373526E+04  0.16966341662E+04  0.10100000352E+00 0.  1.
</event>
<event>
 5   0  0.4255250E-07  0.2058499E+04  0.7818609E-02  0.8579748E-01
       -1   -1    0    0    0  501  0.00000000000E+00  0.00000000000E+00  0.11485911123E+04  0.11485911123E+04  0.50400001928E-02 0. -1.
        1   -1    0    0  501    0  0.00000000000E+00  0.00000000000E+00 -0.92230795895E+03  0.92230795896E+03  0.50400001928E-02 0.  1.
    10030    2    1    2    0    0  0.00000000000E+00  0.00000000000E+00  0.22628315338E+03  0.20708990713E+04  0.20584991858E+04 0.  0.
        2    1    3    3  502    0 -0.71730002720E+03  0.48688135342E+03  0.67126442560E+03  0.10964345445E+04  0.25500000920E-02 0. -1.
       -2    1    3    3    0  502  0.71730002720E+03 -0.48688135342E+03 -0.44498127222E+03  0.97446452678E+03  0.25500000920E-02 0.  1.
</event>
<event>
 5   0  0.4795023E-07  0.3402782E+04  0.7818609E-02  0.8137224E-01
        1   -1    0    0  501    0  0.00000000000E+00  0.00000000000E+00  0.21958079815E+04  0.21958079815E+04  0.50400001928E-02 0. -1.
       -1   -1    0    0    0  501  0.00000000000E+00  0.00000000000E+00 -0.13182991127E+04  0.13182991127E+04  0.50400001928E-02 0.  1.
    10030    2    1    2    0    0  0.00000000000E+00  0.00000000000E+00  0.87750886883E+03  0.35141070942E+04  0.34027822227E+04 0.  0.
        3    1    3    3  502    0  0.22049516539E+03  0.14286716327E+04  0.13653318954E+04  0.19884295177E+04  0.10100000352E+00 0. -1.
       -3    1    3    3    0  502 -0.22049516539E+03 -0.14286716327E+04 -0.48782302653E+03  0.15256775765E+04  0.10100000352E+00 0.  1.
</event>
<event>
 5   0  0.1341932E-06  0.3875784E+04  0.7818609E-02  0.8030085E-01
       -2   -1    0    0    0  501  0.00000000000E+00  0.00000000000E+00  0.28264623507E+04  0.28264623507E+04  0.25500000920E-02 0. -1.
        2   -1    0    0  501    0  0.00000000000E+00  0.00000000000E+00 -0.13286663563E+04  0.13286663563E+04  0.25500000920E-02 0.  1.
    10030    2    1    2    0    0  0.00000000000E+00  0.00000000000E+00  0.14977959944E+04  0.41551287070E+04  0.38757840150E+04 0.  0.
        2    1    3    3  502    0  0.22472771550E+03  0.23886253226E+03 -0.12986988200E+04  0.13394687307E+04  0.25500000920E-02 0.  1.
       -2    1    3    3    0  502 -0.22472771550E+03 -0.23886253226E+03  0.27964948144E+04  0.28156599763E+04  0.25500000920E-02 0. -1.
</event>
<event>
 5   0  0.1184616E-06  0.2330179E+04  0.7818609E-02  0.8466116E-01
        2   -1    0    0  501    0  0.00000000000E+00  0.00000000000E+00  0.27785003728E+04  0.27785003728E+04  0.25500000920E-02 0. -1.
       -2   -1    0    0    0  501  0.00000000000E+00  0.00000000000E+00 -0.48854909693E+03  0.48854909694E+03  0.25500000920E-02 0.  1.
    10030    2    1    2    0    0  0.00000000000E+00  0.00000000000E+00  0.22899512758E+04  0.32670494697E+04  0.23301792617E+04 0.  0.
        5    1    3    3  502    0  0.11295202853E+04 -0.99701073564E+02  0.15202861915E+04  0.18965886673E+04  0.46999998093E+01 0. -1.
       -5    1    3    3    0  502 -0.11295202853E+04  0.99701073564E+02  0.76966508433E+03  0.13704608024E+04  0.46999998093E+01 0.  1.
</event>
<event>
 5   0  0.4255250E-07  0.3478289E+04  0.7818609E-02  0.8118954E-01
        1   -1    0    0  501    0  0.00000000000E+00  0.00000000000E+00  0.21797531754E+04  0.21797531755E+04  0.50400001928E-02 0.  1.
       -1   -1    0    0    0  501  0.00000000000E+00  0.00000000000E+00 -0.13875994345E+04  0.13875994345E+04  0.50400001928E-02 0. -1.
    10030    2    1    2    0    0  0.00000000000E+00  0.00000000000E+00  0.79215374091E+03  0.35673526100E+04  0.34782893921E+04 0.  0.
        2    1    3    3  502    0  0.46617891691E+03 -0.16035530458E+04 -0.10207515065E+03  0.16730584238E+04  0.25500000920E-02 0. -1.
       -2    1    3    3    0  502 -0.46617891691E+03  0.16035530458E+04  0.89422889156E+03  0.18942941862E+04  0.25500000920E-02 0.  1.
</event>
<event>
 5   0  0.1214844E-06  0.3161877E+04  0.7818609E-02  0.8198959E-01
        2   -1    0    0  501    0  0.00000000000E+00  0.00000000000E+00  0.23391325910E+04  0.23391325910E+04  0.25500000920E-02 0.  1.
       -2   -1    0    0    0  501  0.00000000000E+00  0.00000000000E+00 -0.10685013534E+04  0.10685013534E+04  0.25500000920E-02 0. -1.
    10030    2    1    2    0    0  0.00000000000E+00  0.00000000000E+00  0.12706312376E+04  0.34076339444E+04  0.31618768725E+04 0.  0.
        4    1    3    3  502    0 -0.51857586759E+03 -0.11433032709E+03  0.22401392021E+04  0.23022201484E+04  0.12699999809E+01 0.  1.
       -4    1    3    3    0  502  0.51857586759E+03  0.11433032709E+03 -0.96950796450E+03  0.11054137959E+04  0.12699999809E+01 0. -1.
</event>
<event>
 5   0  0.5284458E-07  0.3771224E+04  0.7818609E-02  0.8052358E-01
       -1   -1    0    0    0  501  0.00000000000E+00  0.00000000000E+00  0.18109281196E+04  0.18109281196E+04  0.50400001928E-02 0.  1.
        1   -1    0    0  501    0  0.00000000000E+00  0.00000000000E+00 -0.19633761136E+04  0.19633761136E+04  0.50400001928E-02 0. -1.
    10030    2    1    2    0    0  0.00000000000E+00  0.00000000000E+00 -0.15244799400E+03  0.37743042331E+04  0.37712242115E+04 0.  0.
        5    1    3    3  502    0  0.52868778140E+03  0.15267947918E+04 -0.10490764394E+04  0.19264466181E+04  0.46999998093E+01 0. -1.
       -5    1    3    3    0  502 -0.52868778140E+03 -0.15267947918E+04  0.89662844536E+03  0.18478576151E+04  0.46999998093E+01 0.  1.
</event>
<event>
 5   0  0.4255250E-07  0.3844841E+04  0.7818609E-02  0.8036600E-01
       -1   -1    0    0    0  501  0.00000000000E+00  0.00000000000E+00  0.15849687524E+04  0.15849687524E+04  0.50400001928E-02 0.  1.
        1   -1    0    0  501    0  0.00000000000E+00  0.00000000000E+00 -0.23317181072E+04  0.23317181072E+04  0.50400001928E-02 0. -1.
    10030    2    1    2    0    0  0.00000000000E+00  0.00000000000E+00 -0.74674935486E+03  0.39166868596E+04  0.38448408754E+04 0.  0.
        2    1    3    3  502    0  0.86632999645E+02  0.14207501525E+04  0.94292577550E+03  0.17073796563E+04  0.25500000920E-02 0.  1.
       -2    1    3    3    0  502 -0.86632999645E+02 -0.14207501525E+04 -0.16896751304E+04  0.22093072033E+04  0.25500000920E-02 0. -1.
</event>
<event>
 5   0  0.1341932E-06  0.4104535E+04  0.7818609E-02  0.7983784E-01
        2   -1    0    0  501    0  0.00000000000E+00  0.00000000000E+00  0.17265834569E+04  0.17265834569E+04  0.25500000920E-02 0. -1.
       -2   -1    0    0    0  501  0.00000000000E+00  0.00000000000E+00 -0.24393847093E+04  0.24393847093E+04  0.25500000920E-02 0.  1.
    10030    2    1    2    0    0  0.00000000000E+00  0.00000000000E+00 -0.71280125245E+03  0.41659681662E+04  0.41045347040E+04 0.  0.
        2    1    3    3  502    0  0.11023824600E+04 -0.12625222097E+04 -0.15584371753E+04  0.22886537194E+04  0.25500000920E-02 0.  1.
       -2    1    3    3    0  502 -0.11023824600E+04  0.12625222097E+04  0.84563592282E+03  0.18773144468E+04  0.25500000920E-02 0. -1.
</event>
<event>
 5   0  0.1184616E-06  0.3790402E+04  0.7818609E-02  0.8048218E-01
       -2   -1    0    0    0  501  0.00000000000E+00  0.00000000000E+00  0.15502759623E+04  0.15502759623E+04  0.25500000920E-02 0. -1.
        2   -1    0    0  501    0  0.00000000000E+00  0.00000000000E+00 -0.23168690686E+04  0.23168690686E+04  0.25500000920E-02 0.  1.
    10030    2    1    2    0    0  0.00000000000E+00  0.00000000000E+00 -0.76659310624E+03  0.38671450309E+04  0.37904017860E+04 0.  0.
        5    1    3    3  502    0 -0.27795672273E+03 -0.47327694379E+03  0.14674077684E+04  0.15667031161E+04  0.46999998093E+01 0. -1.
       -5    1    3    3    0  502  0.27795672273E+03  0.47327694379E+03 -0.22340008747E+04  0.23004419148E+04  0.46999998093E+01 0.  1.
</event>
<event>
 5   0  0.8030324E-07  0.3356645E+04  0.7818609E-02  0.8148630E-01
       -1   -1    0    0    0  501  0.00000000000E+00  0.00000000000E+00  0.18599219116E+04  0.18599219116E+04  0.50400001928E-02 0. -1.
        1   -1    0    0  501    0  0.00000000000E+00  0.00000000000E+00 -0.15144541704E+04  0.15144541704E+04  0.50400001928E-02 0.  1.
    10030    2    1    2    0    0  0.00000000000E+00  0.00000000000E+00  0.34546774115E+03  0.33743760820E+04  0.33566450486E+04 0.  0.
        1    1    3    3  502    0  0.58586430187E+03 -0.15695307263E+04  0.27377757413E+03  0.16975328690E+04  0.50400001928E-02 0.  1.
       -1    1    3    3    0  502 -0.58586430187E+03  0.15695307263E+04  0.71690167022E+02  0.16768432130E+04  0.50400001928E-02 0. -1.
</event>
<event>
 5   0  0.1184616E-06  0.3797390E+04  0.7818609E-02  0.8046715E-01
       -2   -1    0    0    0  501  0.00000000000E+00  0.00000000000E+00  0.16714647308E+04  0.16714647308E+04  0.25500000920E-02 0. -1.
        2   -1    0    0  501    0  0.00000000000E+00  0.00000000000E+00 -0.21568161531E+04  0.21568161531E+04  0.25500000920E-02 0.  1.
    10030    2    1    2    0    0  0.00000000000E+00  0.00000000000E+00 -0.48535142233E+03  0.38282808839E+04  0.37973896986E+04 0.  0.
        5    1    3    3  502    0 -0.96552021225E+03 -0.67506815699E+03  0.12584210789E+04  0.17238306177E+04  0.46999998093E+01 0. -1.
       -5    1    3    3    0  502  0.96552021225E+03  0.67506815699E+03 -0.17437725012E+04  0.21044502662E+04  0.46999998093E+01 0.  1.
</event>
<event>
 5   0  0.5284458E-07  0.1887355E+04  0.7818609E-02  0.8661176E-01
       -1   -1    0    0    0  501  0.00000000000E+00  0.00000000000E+00  0.67362436183E+03  0.67362436184E+03  0.50400001928E-02 0. -1.
        1   -1    0    0  501    0  0.00000000000E+00  0.00000000000E+00 -0.13219942376E+04  0.13219942376E+04  0.50400001928E-02 0.  1.
    10030    2    1    2    0    0  0.00000000000E+00  0.00000000000E+00 -0.64836987576E+03  0.19956185994E+04  0.18873553186E+04 0.  0.
        5    1    3    3  502    0  0.15849635588E+03 -0.91997938446E+03 -0.47001768855E+03  0.10451898776E+04  0.46999998093E+01 0. -1.
       -5    1    3    3    0  502 -0.15849635588E+03  0.91997938446E+03 -0.17835218722E+03  0.95042872186E+03  0.46999998093E+01 0.  1.
</event>
<event>
 5   0  0.1341932E-06  0.2216669E+04  0.7818609E-02  0.8511522E-01
       -2   -1    0    0    0  501  0.00000000000E+00  0.00000000000E+00  0.61271868353E+03  0.61271868354E+03  0.25500000920E-02 0. -1.
        2   -1    0    0  501    0  0.00000000000E+00  0.00000000000E+00 -0.20048433398E+04  0.20048433398E+04  0.25500000920E-02 0.  1.
    10030    2    1    2    0    0  0.00000000000E+00  0.00000000000E+00 -0.13921246562E+04  0.26175620233E+04  0.22166686463E+04 0.  0.
        2    1    3    3  502    0 -0.10801913116E+04 -0.21185461986E+03 -0.84870488037E+03  0.13899624540E+04  0.25500000920E-02 0. -1.
       -2    1    3    3    0  502  0.10801913116E+04  0.21185461986E+03 -0.54341977586E+03  0.12275995693E+04  0.25500000920E-02 0.  1.
</event>
<event>
 5   0  0.1337854E-06  0.3826622E+04  0.7818609E-02  0.8040466E-01
        2   -1    0    0  501    0  0.00000000000E+00  0.00000000000E+00  0.27241449502E+04  0.27241449502E+04  0.25500000920E-02 0. -1.
       -2   -1    0    0    0  501  0.00000000000E+00  0.00000000000E+00 -0.13438196652E+04  0.13438196652E+04  0.25500000920E-02 0.  1.
    10030    2    1    2    0    0  0.00000000000E+00  0.00000000000E+00  0.13803252850E+04  0.40679646154E+04  0.38266222991E+04 0.  0.
        3    1    3    3  502    0 -0.14039682934E+04 -0.72168222689E+03 -0.45913637033E+03  0.16440068194E+04  0.10100000352E+00 0.  1.
       -3    1    3    3    0  502  0.14039682934E+04  0.72168222689E+03  0.18394616554E+04  0.24239577961E+04  0.10100000352E+00 0. -1.
</event>
<event>
 5   0  0.1372748E-06  0.3853820E+04  0.7818609E-02  0.8034703E-01
        2   -1    0    0  501    0  0.00000000000E+00  0.00000000000E+00  0.18224858174E+04  0.18224858174E+04  0.25500000920E-02 0. -1.
       -2   -1    0    0    0  501  0.00000000000E+00  0.00000000000E+00 -0.20373175048E+04  0.20373175048E+04  0.25500000920E-02 0.  1.
    10030    2    1    2    0    0  0.00000000000E+00  0.00000000000E+00 -0.21483168743E+03  0.38598033222E+04  0.38538200571E+04 0.  0.
        1    1    3    3  502    0  0.13913447835E+04 -0.11985819794E+04 -0.69188263893E+03  0.19624323310E+04  0.50400001928E-02 0.  1.
       -1    1    3    3    0  502 -0.13913447835E+04  0.11985819794E+04  0.47705095150E+03  0.18973709912E+04  0.50400001928E-02 0. -1.
</event>
<event>
 5   0  0.4795023E-07  0.1984109E+04  0.7818609E-02  0.8614087E-01
       -1   -1    0    0    0  501  0.00000000000E+00  0.00000000000E+00  0.12941970974E+04  0.12941970974E+04  0.50400001928E-02 0.  1.
        1   -1    0    0  501    0  0.00000000000E+00  0.00000000000E+00 -0.76044978611E+03  0.76044978612E+03  0.50400001928E-02 0. -1.
    10030    2    1    2    0    0  0.00000000000E+00  0.00000000000E+00  0.53374731130E+03  0.20546468835E+04  0.19841087732E+04 0.  0.
        3    1    3    3  502    0  0.69170348878E+03  0.57206179988E+03  0.70434175641E+03  0.11409670194E+04  0.10100000352E+00 0.  1.
       -3    1    3    3    0  502 -0.69170348878E+03 -0.57206179988E+03 -0.17059444512E+03  0.91367986416E+03  0.10100000352E+00 0. -1.
</event>
<event>
 5   0  0.1337854E-06  0.3767957E+04  0.7818609E-02  0.8053066E-01
       -2   -1    0    0    0  501  0.00000000000E+00  0.00000000000E+00  0.17597202354E+04  0.17597202354E+04  0.25500000920E-02 0. -1.
        2   -1    0    0  501    0  0.00000000000E+00  0.00000000000E+00 -0.20170108190E+04  0.20170108190E+04  0.25500000920E-02 0.  1.
    10030    2    1    2    0    0  0.00000000000E+00  0.00000000000E+00 -0.25729058359E+03  0.37767310543E+04  0.37679568751E+04 0.  0.
        3    1    3    3  502    0  0.24428993166E+03 -0.17930340404E+04  0.39671845185E+03  0.18525750136E+04  0.10100000352E+00 0.  1.
       -3    1    3    3    0  502 -0.24428993166E+03  0.17930340404E+04 -0.65400903544E+03  0.19241560408E+04  0.10100000352E+00 0. -1.
</event>
<event>
 5   0  0.8030324E-07  0.3822384E+04  0.7818609E-02  0.8041368E-01
        1   -1    0    0  501    0  0.00000000000E+00  0.00000000000E+00  0.17977019650E+04  0.17977019650E+04  0.50400001928E-02 0.  1.
       -1   -1    0    0    0  501  0.00000000000E+00  0.00000000000E+00 -0.20318466605E+04  0.20318466605E+04  0.50400001928E-02 0. -1.
    10030    2    1    2    0    0  0.00000000000E+00  0.00000000000E+00 -0.23414469543E+03  0.38295486255E+04  0.38223839337E+04 0.  0.
        1    1    3    3  502    0  0.32886058140E+03  0.38165647256E+03 -0.19641233333E+04  0.20277059485E+04  0.50400001928E-02 0. -1.
       -1    1    3    3    0  502 -0.32886058140E+03 -0.38165647256E+03  0.17299786379E+04  0.18018426770E+04  0.50400001928E-02 0.  1.
</event>
<event>
 5   0  0.1184616E-06  0.3843210E+04  0.7818609E-02  0.8036945E-01
        2   -1    0    0  501    0  0.00000000000E+00  0.00000000000E+00  0.18282462703E+04  0.18282462703E+04  0.25500000920E-02 0.  1.
       -2   -1    0    0    0  501  0.00000000000E+00  0.00000000000E+00 -0.20197309590E+04  0.20197309590E+04  0.25500000920E-02 0. -1.
    10030    2    1    2    0    0  0.00000000000E+00  0.00000000000E+00 -0.19148468869E+03  0.38479772293E+04  0.38432099047E+04 0.  0.
        5    1    3    3  502    0  0.69378317743E+03  0.82656610197E+03  0.14961975106E+04  0.18447698227E+04  0.46999998093E+01 0.  1.
       -5    1    3    3    0  502 -0.69378317743E+03 -0.82656610197E+03 -0.16876821992E+04  0.20032074066E+04  0.46999998093E+01 0. -1.
</event>
<event>
 5   0  0.1079205E-06  0.3832628E+04  0.7818609E-02  0.8039189E-01
       -1   -1    0    0    0  501  0.00000000000E+00  0.00000000000E+00  0.22015508652E+04  0.22015508652E+04  0.50400001928E-02 0.  1.
        1   -1    0    0  501    0  0.00000000000E+00  0.00000000000E+00 -0.16680330696E+04  0.16680330696E+04  0.50400001928E-02 0. -1.
    10030    2    1    2    0    0  0.00000000000E+00  0.00000000000E+00  0.53351779554E+03  0.38695839348E+04  0.38326281570E+04 0.  0.
        4    1    3    3  502    0 -0.13074495997E+04  0.13060820267E+03  0.16751196167E+04  0.21289693050E+04  0.12699999809E+01 0.  1.
       -4    1    3    3    0  502  0.13074495997E+04 -0.13060820267E+03 -0.11416018212E+04  0.17406146298E+04  0.12699999809E+01 0. -1.
</event>
<event>
 5   0  0.4255250E-07  0.3289549E+04  0.7818609E-02  0.8165560E-01
        3   -1    0    0  501    0  0.00000000000E+00  0.00000000000E+00  0.10780815196E+04  0.10780815243E+04  0.10100000352E+00 0.  1.
       -3   -1    0    0    0  501  0.00000000000E+00  0.00000000000E+00 -0.25093490629E+04  0.25093490649E+04  0.10100000352E+00 0. -1.
    10030    2    1    2    0    0  0.00000000000E+00  0.00000000000E+00 -0.14312675433E+04  0.35874305893E+04  0.32895488220E+04 0.  0.
        1    1    3    3  502    0  0.14521800162E+04 -0.77220713732E+03 -0.72908789890E+03  0.17990830516E+04  0.50400001928E-02 0. -1.
       -1    1    3    3    0  502 -0.14521800162E+04  0.77220713732E+03 -0.70217964439E+03  0.17883475376E+04  0.50400001928E-02 0.  1.
</event>
<event>
 5   0  0.1372748E-06  0.3418765E+04  0.7818609E-02  0.8133316E-01
        2   -1    0    0  501    0  0.00000000000E+00  0.00000000000E+00  0.16227145525E+04  0.16227145525E+04  0.25500000920E-02 0.  1.
       -2   -1    0    0    0  501  0.00000000000E+00  0.00000000000E+00 -0.18006789061E+04  0.18006789061E+04  0.25500000920E-02 0. -1.
    10030    2    1    2    0    0  0.00000000000E+00  0.00000000000E+00 -0.17796435357E+03  0.34233934585E+04  0.34187646103E+04 0.  0.
        1    1    3    3  502    0 -0.12041495066E+04  0.75523336329E+03  0.86184777266E+03  0.16622680442E+04  0.50400001928E-02 0.  1.
       -1    1    3    3    0  502  0.12041495066E+04 -0.75523336329E+03 -0.10398121262E+04  0.17611254144E+04  0.50400001928E-02 0. -1.
</event>
<event>
 5   0  0.1214844E-06  0.3556744E+04  0.7818609E-02  0.8100472E-01
        2   -1    0    0  501    0  0.00000000000E+00  0.00000000000E+00  0.27097576812E+04  0.27097576812E+04  0.25500000920E-02 0. -1.
       -2   -1    0    0    0  501  0.00000000000E+00  0.00000000000E+00 -0.11671181588E+04  0.11671181588E+04  0.25500000920E-02 0.  1.
    10030    2    1    2    0    0  0.00000000000E+00  0.00000000000E+00  0.15426395224E+04  0.38768758400E+04  0.35567442392E+04 0.  0.
        4    1    3    3  502    0  0.16523864514E+04 -0.44903031444E+03  0.12947462316E+04  0.21467134474E+04  0.12699999809E+01 0. -1.
       -4    1    3    3    0  502 -0.16523864514E+04  0.44903031444E+03  0.24789329075E+03  0.17301623926E+04  0.12699999809E+01 0.  1.
</event>
<event>
 5   0  0.1337854E-06  0.3711135E+04  0.7818609E-02  0.8065499E-01
       -2   -1    0    0    0  501  0.00000000000E+00  0.00000000000E+00  0.16196779044E+04  0.16196779044E+04  0.25500000920E-02 0.  1.
        2   -1    0    0  501    0  0.00000000000E+00  0.00000000000E+00 -0.21258125639E+04  0.21258125639E+04  0.25500000920E-02 0. -1.
    10030    2    1    2    0    0  0.00000000000E+00  0.00000000000E+00 -0.50613465944E+03  0.37454904683E+04  0.37111354805E+04 0.  0.
        3    1    3    3  502    0  0.43946126293E+03  0.33991997730E+03  0.15337626957E+04  0.16312877764E+04  0.10100000352E+00 0.  1.
       -3    1    3    3    0  502 -0.43946126293E+03 -0.33991997730E+03 -0.20398973552E+04  0.21142026919E+04  0.10100000352E+00 0. -1.
</event>
<event>
 5   0  0.4255250E-07  0.3911783E+04  0.7818609E-02  0.8022583E-01
       -1   -1    0    0    0  501  0.00000000000E+00  0.00000000000E+00  0.22745154158E+04  0.22745154158E+04  0.50400001928E-02 0. -1.
        1   -1    0    0  501    0  0.00000000000E+00  0.00000000000E+00 -0.16819019829E+04  0.16819019829E+04  0.50400001928E-02 0.  1.
    10030    2    1    2    0    0  0.00000000000E+00  0.00000000000E+00  0.59261343295E+03  0.39564173988E+04  0.39117832190E+04 0.  0.
        2    1    3    3  502    0 -0.14570041795E+04  0.56769076655E+03  0.14846073774E+04  0.21561987502E+04  0.25500000920E-02 0. -1.
       -2    1    3    3    0  502  0.14570041795E+04 -0.56769076655E+03 -0.89199394441E+03  0.18002186485E+04  0.25500000920E-02 0.  1.
</event>
<event>
 5   0  0.4255250E-07  0.3815474E+04  0.7818609E-02  0.8042842E-01
        1   -1    0    0  501    0  0.00000000000E+00  0.00000000000E+00  0.17332990041E+04  0.17332990041E+04  0.50400001928E-02 0. -1.
       -1   -1    0    0    0  501  0.00000000000E+00  0.00000000000E+00 -0.20997299109E+04  0.20997299109E+04  0.50400001928E-02 0.  1.
    10030    2    1    2    0    0  0.00000000000E+00  0.00000000000E+00 -0.36643090680E+03  0.38330289150E+04  0.38154736343E+04 0.  0.
        2    1    3    3  502    0 -0.86155537785E+03  0.11775223611E+04  0.10515137253E+04  0.17984764926E+04  0.25500000920E-02 0. -1.
       -2    1    3    3    0  502  0.86155537785E+03 -0.11775223611E+04 -0.14179446321E+04  0.20345524224E+04  0.25500000920E-02 0.  1.
</event>
<event>
 5   0  0.1184616E-06  0.3787321E+04  0.7818609E-02  0.8048881E-01
       -2   -1    0    0    0  501  0.00000000000E+00  0.00000000000E+00  0.15715148949E+04  0.15715148949E+04  0.25500000920E-02 0.  1.
        2   -1    0    0  501    0  0.00000000000E+00  0.00000000000E+00 -0.22818434143E+04  0.22818434143E+04  0.25500000920E-02 0. -1.
    10030    2    1    2    0    0  0.00000000000E+00  0.00000000000E+00 -0.71032851940E+03  0.38533583091E+04  0.37873214351E+04 0.  0.
        5    1    3    3  502    0 -0.62277632482E+03 -0.17456736983E+04  0.39807882148E+02  0.18538699439E+04  0.46999998093E+01 0. -1.
       -5    1    3    3    0  502  0.62277632482E+03  0.17456736983E+04 -0.75013640155E+03  0.19994883652E+04  0.46999998093E+01 0.  1.
</event>
<event>
 5   0  0.4795023E-07  0.1991216E+04  0.7818609E-02  0.8610738E-01
       -1   -1    0    0    0  501  0.00000000000E+00  0.00000000000E+00  0.36165949958E+03  0.36165949962E+03  0.50400001928E-02 0.  1.
        1   -1    0    0  501    0  0.00000000000E+00  0.00000000000E+00 -0.27407979203E+04  0.27407979203E+04  0.50400001928E-02 0. -1.
    10030    2    1    2    0    0  0.00000000000E+00  0.00000000000E+00 -0.23791384207E+04  0.31024574199E+04  0.19912163161E+04 0.  0.
        3    1    3    3  502    0  0.85021258313E+03 -0.19804735155E+03 -0.44372409661E+03  0.97927282924E+03  0.10100000352E+00 0. -1.
       -3    1    3    3    0  502 -0.85021258313E+03  0.19804735155E+03 -0.19354143241E+04  0.21231845907E+04  0.10100000352E+00 0.  1.
</event>
<event>
 5   0  0.1337854E-06  0.3122129E+04  0.7818609E-02  0.8209691E-01
       -2   -1    0    0    0  501  0.00000000000E+00  0.00000000000E+00  0.11363402390E+04  0.11363402390E+04  0.25500000920E-02 0.  1.
        2   -1    0    0  501    0  0.00000000000E+00  0.00000000000E+00 -0.21445359203E+04  0.21445359203E+04  0.25500000920E-02 0. -1.
    10030    2    1    2    0    0  0.00000000000E+00  0.00000000000E+00 -0.10081956813E+04  0.32808761593E+04  0.31221290558E+04 0.  0.
        3    1    3    3  502    0  0.54073522952E+03 -0.14224522475E+04 -0.13832279281E+03  0.15280373654E+04  0.10100000352E+00 0.  1.
       -3    1    3    3    0  502 -0.54073522952E+03  0.14224522475E+04 -0.86987288844E+03  0.17528387939E+04  0.10100000352E+00 0. -1.
</event>
<event>
 5   0  0.4255250E-07  0.3818388E+04  0.7818609E-02  0.8042220E-01
       -1   -1    0    0    0  501  0.00000000000E+00  0.00000000000E+00  0.16974818326E+04  0.16974818327E+04  0.50400001928E-02 0. -1.
        1   -1    0    0  501    0  0.00000000000E+00  0.00000000000E+00 -0.21473109257E+04  0.21473109257E+04  0.50400001928E-02 0.  1.
    10030    2    1    2    0    0  0.00000000000E+00  0.00000000000E+00 -0.44982909301E+03  0.38447927583E+04  0.38183877673E+04 0.  0.
        2    1    3    3  502    0 -0.35559377429E+03  0.15942689405E+04 -0.12201222160E+04  0.20388326584E+04  0.25500000920E-02 0.  1.
       -2    1    3    3    0  502  0.35559377429E+03 -0.15942689405E+04  0.77029312304E+03  0.18059600999E+04  0.25500000920E-02 0. -1.
</event>
<event>
 5   0  0.1065815E-06  0.1905005E+04  0.7818609E-02  0.8652369E-01
       -1   -1    0    0    0  501  0.00000000000E+00  0.00000000000E+00  0.95432287219E+03  0.95432287220E+03  0.50400001928E-02 0.  1.
        1   -1    0    0  501    0  0.00000000000E+00  0.00000000000E+00 -0.95068608281E+03  0.95068608282E+03  0.50400001928E-02 0. -1.
    10030    2    1    2    0    0  0.00000000000E+00  0.00000000000E+00  0.36367893835E+01  0.19050089550E+04  0.19050054836E+04 0.  0.
        1    1    3    3  502    0  0.91026464930E+02 -0.47351290382E+03  0.82325837722E+03  0.95407266132E+03  0.50400001928E-02 0.  1.
       -1    1    3    3    0  502 -0.91026464930E+02  0.47351290382E+03 -0.81962158783E+03  0.95093629370E+03  0.50400001928E-02 0. -1.
</event>
<event>
 5   0  0.1214844E-06  0.1998920E+04  0.7818609E-02  0.8607126E-01
        2   -1    0    0  501    0  0.00000000000E+00  0.00000000000E+00  0.82338969461E+03  0.82338969462E+03  0.25500000920E-02 0. -1.
       -2   -1    0    0    0  501  0.00000000000E+00  0.00000000000E+00 -0.12131804007E+04  0.12131804007E+04  0.25500000920E-02 0.  1.
    10030    2    1    2    0    0  0.00000000000E+00  0.00000000000E+00 -0.38979070610E+03  0.20365700953E+04  0.19989199480E+04 0.  0.
        4    1    3    3  502    0 -0.61268924483E+03  0.48429838487E+03  0.44053903964E+03  0.89666565378E+03  0.12699999809E+01 0. -1.
       -4    1    3    3    0  502  0.61268924483E+03 -0.48429838487E+03 -0.83032974574E+03  0.11399044416E+04  0.12699999809E+01 0.  1.
</event>
<event>
 5   0  0.1341932E-06  0.3824506E+04  0.7818609E-02  0.8040916E-01
       -2   -1    0    0    0  501  0.00000000000E+00  0.00000000000E+00  0.17787343153E+04  0.17787343153E+04  0.25500000920E-02 0. -1.
        2   -1    0    0  501    0  0.00000000000E+00  0.00000000000E+00 -0.20557946062E+04  0.20557946062E+04  0.25500000920E-02 0.  1.
    10030    2    1    2    0    0  0.00000000000E+00  0.00000000000E+00 -0.27706029089E+03  0.38345289214E+04  0.38245064576E+04 0.  0.
        2    1    3    3  502    0 -0.14402131055E+04 -0.11226514659E+04 -0.70760217837E+03  0.19583822267E+04  0.25500000920E-02 0.  1.
       -2    1    3    3    0  502  0.14402131055E+04  0.11226514659E+04  0.43054188748E+03  0.18761466947E+04  0.25500000920E-02 0. -1.
</event>
<event>
 5   0  0.4255250E-07  0.3824527E+04  0.7818609E-02  0.8040912E-01
        1   -1    0    0  501    0  0.00000000000E+00  0.00000000000E+00  0.17698024210E+04  0.17698024211E+04  0.50400001928E-02 0.  1.
       -1   -1    0    0    0  501  0.00000000000E+00  0.00000000000E+00 -0.20661919019E+04  0.20661919019E+04  0.50400001928E-02 0. -1.
    10030    2    1    2    0    0  0.00000000000E+00  0.00000000000E+00 -0.29638948088E+03  0.38359943230E+04  0.38245268625E+04 0.  0.
        2    1    3    3  502    0 -0.86474357836E+03 -0.13366165142E+04 -0.12108175920E+04  0.20001010983E+04  0.25500000920E-02 0.  1.
       -2    1    3    3    0  502  0.86474357836E+03  0.13366165142E+04  0.91442811107E+03  0.18358932247E+04  0.25500000920E-02 0. -1.
</event>
<event>
 5   0  0.4795023E-07  0.3662851E+04  0.7818609E-02  0.8076245E-01
        1   -1    0    0  501    0  0.00000000000E+00  0.00000000000E+00  0.20396204305E+04  0.20396204305E+04  0.50400001928E-02 0.  1.
       -1   -1    0    0    0  501  0.00000000000E+00  0.00000000000E+00 -0.16444824925E+04  0.16444824925E+04  0.50400001928E-02 0. -1.
    10030    2    1    2    0    0  0.00000000000E+00  0.00000000000E+00  0.39513793801E+03  0.36841029231E+04  0.36628513972E+04 0.  0.
        3    1    3    3  502    0  0.16683442056E+04 -0.34261917454E+03  0.87479548700E+03  0.19146872960E+04  0.10100000352E+00 0.  1.
       -3    1    3    3    0  502 -0.16683442056E+04  0.34261917454E+03 -0.47965754899E+03  0.17694156271E+04  0.10100000352E+00 0. -1.
</event>
<event>
 5   0  0.1341932E-06  0.3782188E+04  0.7818609E-02  0.8049988E-01
       -2   -1    0    0    0  501  0.00000000000E+00  0.00000000000E+00  0.12494245812E+04  0.12494245812E+04  0.25500000920E-02 0. -1.
        2   -1    0    0  501    0  0.00000000000E+00  0.00000000000E+00 -0.28623074295E+04  0.28623074295E+04  0.25500000920E-02 0.  1.
    10030    2    1    2    0    0  0.00000000000E+00  0.00000000000E+00 -0.16128828484E+04  0.41117320107E+04  0.37821883937E+04 0.  0.
        2    1    3    3  502    0  0.93064290267E+03 -0.19467508779E+02 -0.25960053752E+04  0.27578468239E+04  0.25500000920E-02 0.  1.
       -2    1    3    3    0  502 -0.93064290267E+03  0.19467508779E+02  0.98312252683E+03  0.13538851868E+04  0.25500000920E-02 0. -1.
</event>
<event>
 5   0  0.1214844E-06  0.3862356E+04  0.7818609E-02  0.8032904E-01
       -2   -1    0    0    0  501  0.00000000000E+00  0.00000000000E+00  0.16964194328E+04  0.16964194328E+04  0.25500000920E-02 0.  1.
        2   -1    0    0  501    0  0.00000000000E+00  0.00000000000E+00 -0.21984233142E+04  0.21984233142E+04  0.25500000920E-02 0. -1.
    10030    2    1    2    0    0  0.00000000000E+00  0.00000000000E+00 -0.50200388139E+03  0.38948427469E+04  0.38623557742E+04 0.  0.
        4    1    3    3  502    0 -0.10483684502E+04 -0.15996513287E+04  0.18614922147E+02  0.19126706222E+04  0.12699999809E+01 0.  1.
       -4    1    3    3    0  502  0.10483684502E+04  0.15996513287E+04 -0.52061880354E+03  0.19821721248E+04  0.12699999809E+01 0. -1.
</event>
<event>
 5   0  0.4255250E-07  0.3780783E+04  0.7818609E-02  0.8050291E-01
       -1   -1    0    0    0  501  0.00000000000E+00  0.00000000000E+00  0.14421377974E+04  0.14421377974E+04  0.50400001928E-02 0.  1.
        1   -1    0    0  501    0  0.00000000000E+00  0.00000000000E+00 -0.24779735694E+04  0.24779735694E+04  0.50400001928E-02 0. -1.
    10030    2    1    2    0    0  0.00000000000E+00  0.00000000000E+00 -0.10358357721E+04  0.39201113668E+04  0.37807826414E+04 0.  0.
        2    1    3    3  502    0  0.92197158762E+03  0.10518585530E+04 -0.18364499093E+04  0.23084597231E+04  0.25500000920E-02 0. -1.
       -2    1    3    3    0  502 -0.92197158762E+03 -0.10518585530E+04  0.80061413729E+03  0.16116516437E+04  0.25500000920E-02 0.  1.
</event>
<event>
 5   0  0.4795023E-07  0.2523055E+04  0.7818609E-02  0.8394818E-01
        1   -1    0    0  501    0  0.00000000000E+00  0.00000000000E+00  0.79127853020E+03  0.79127853021E+03  0.50400001928E-02 0. -1.
       -1   -1    0    0    0  501  0.00000000000E+00  0.00000000000E+00 -0.20112400424E+04  0.20112400424E+04  0.50400001928E-02 0.  1.
    10030    2    1    2    0    0  0.00000000000E+00  0.00000000000E+00 -0.12199615122E+04  0.28025185726E+04  0.25230545493E+04 0.  0.
        3    1    3    3  502    0  0.12339785488E+04 -0.95528156832E+02 -0.33875778728E+03  0.12831934913E+04  0.10100000352E+00 0. -1.
       -3    1    3    3    0  502 -0.12339785488E+04  0.95528156832E+02 -0.88120372493E+03  0.15193250813E+04  0.10100000352E+00 0.  1.
</event>
<event>
 5   0  0.8030324E-07  0.3798323E+04  0.7818609E-02  0.8046515E-01
        1   -1    0    0  501    0  0.00000000000E+00  0.00000000000E+00  0.26785948722E+04  0.26785948722E+04  0.50400001928E-02 0.  1.
       -1   -1    0    0    0  501  0.00000000000E+00  0.00000000000E+00 -0.13465322511E+04  0.13465322511E+04  0.50400001928E-02 0. -1.
    10030    2    1    2    0    0  0.00000000000E+00  0.00000000000E+00  0.13320626211E+04  0.40251271233E+04  0.37983229894E+04 0.  0.
        1    1    3    3  502    0  0.16832080001E+03  0.23862950821E+03  0.26546610329E+04  0.26706742844E+04  0.50400001928E-02 0.  1.
       -1    1    3    3    0  502 -0.16832080001E+03 -0.23862950821E+03 -0.13225984117E+04  0.13544528389E+04  0.50400001928E-02 0. -1.
</event>
<event>
 5   0  0.1214844E-06  0.3805168E+04  0.7818609E-02  0.8045047E-01
       -2   -1    0    0    0  501  0.00000000000E+00  0.00000000000E+00  0.18104633990E+04  0.18104633990E+04  0.25500000920E-02 0.  1.
        2   -1    0    0  501    0  0.00000000000E+00  0.00000000000E+00 -0.19993917826E+04  0.19993917826E+04  0.25500000920E-02 0. -1.
    10030    2    1    2    0    0  0.00000000000E+00  0.00000000000E+00 -0.18892838352E+03  0.38098551816E+04  0.38051678768E+04 0.  0.
        4    1    3    3  502    0 -0.10987672346E+04  0.12714705070E+04 -0.98769393014E+03  0.19492223061E+04  0.12699999809E+01 0. -1.
       -4    1    3    3    0  502  0.10987672346E+04 -0.12714705070E+04  0.79876554661E+03  0.18606328755E+04  0.12699999809E+01 0.  1.
</event>
<event>
 5   0  0.6320374E-07  0.1946615E+04  0.7818609E-02  0.8631995E-01
        1   -1    0    0  501    0  0.00000000000E+00  0.00000000000E+00  0.90394973836E+03  0.90394973838E+03  0.50400001928E-02 0. -1.
       -1   -1    0    0    0  501  0.00000000000E+00  0.00000000000E+00 -0.10479867189E+04  0.10479867189E+04  0.50400001928E-02 0.  1.
    10030    2    1    2    0    0  0.00000000000E+00  0.00000000000E+00 -0.14403698054E+03  0.19519364573E+04  0.19466148262E+04 0.  0.
        5    1    3    3  502    0  0.26262336030E+03  0.58054916696E+03  0.66572163491E+03  0.92152902820E+03  0.46999998093E+01 0. -1.
       -5    1    3    3    0  502 -0.26262336030E+03 -0.58054916696E+03 -0.80975861545E+03  0.10304074291E+04  0.46999998093E+01 0.  1.
</event>
<event>
 5   0  0.4795023E-07  0.1935884E+04  0.7818609E-02  0.8637198E-01
        1   -1    0    0  501    0  0.00000000000E+00  0.00000000000E+00  0.66705335247E+03  0.66705335248E+03  0.50400001928E-02 0.  1.
       -1   -1    0    0    0  501  0.00000000000E+00  0.00000000000E+00 -0.14045529354E+04  0.14045529354E+04  0.50400001928E-02 0. -1.
    10030    2    1    2    0    0  0.00000000000E+00  0.00000000000E+00 -0.73749958289E+03  0.20716062879E+04  0.19358840299E+04 0.  0.
        3    1    3    3  502    0 -0.97879759219E+02 -0.95258840752E+03 -0.51973227556E+03  0.10895534727E+04  0.10100000352E+00 0. -1.
       -3    1    3    3    0  502  0.97879759219E+02  0.95258840752E+03 -0.21776730733E+03  0.98205281515E+03  0.10100000352E+00 0.  1.
</event>
<event>
 5   0  0.4795023E-07  0.3977036E+04  0.7818609E-02  0.8009195E-01
        1   -1    0    0  501    0  0.00000000000E+00  0.00000000000E+00  0.25959461110E+04  0.25959461110E+04  0.50400001928E-02 0.  1.
       -1   -1    0    0    0  501  0.00000000000E+00  0.00000000000E+00 -0.15232228460E+04  0.15232228460E+04  0.50400001928E-02 0. -1.
    10030    2    1    2    0    0  0.00000000000E+00  0.00000000000E+00  0.10727232650E+04  0.41191689570E+04  0.39770362952E+04 0.  0.
        3    1    3    3  502    0  0.12825137554E+04  0.14828286631E+04  0.88078478937E+03  0.21492799334E+04  0.10100000352E+00 0.  1.
       -3    1    3    3    0  502 -0.12825137554E+04 -0.14828286631E+04  0.19193847567E+03  0.19698890236E+04  0.10100000352E+00 0. -1.
</event>
<event>
 5   0  0.1214844E-06  0.3421429E+04  0.7818609E-02  0.8132667E-01
        2   -1    0    0  501    0  0.00000000000E+00  0.00000000000E+00  0.21933387294E+04  0.21933387294E+04  0.25500000920E-02 0. -1.
       -2   -1    0    0    0  501  0.00000000000E+00  0.00000000000E+00 -0.13342875178E+04  0.13342875178E+04  0.25500000920E-02 0.  1.
    10030    2    1    2    0    0  0.00000000000E+00  0.00000000000E+00  0.85905121154E+03  0.35276262472E+04  0.34214292271E+04 0.  0.
        4    1    3    3  502    0  0.26753163232E+03  0.14289919766E+04 -0.50009846022E+03  0.15374301045E+04  0.12699999809E+01 0.  1.
       -4    1    3    3    0  502 -0.26753163232E+03 -0.14289919766E+04  0.13591496718E+04  0.19901961427E+04  0.12699999809E+01 0. -1.
</event>
<event>
 5   0  0.1337854E-06  0.3745216E+04  0.7818609E-02  0.8058015E-01
        2   -1    0    0  501    0  0.00000000000E+00  0.00000000000E+00  0.24541979116E+04  0.24541979116E+04  0.25500000920E-02 0.  1.
       -2   -1    0    0    0  501  0.00000000000E+00  0.00000000000E+00 -0.14288419681E+04  0.14288419681E+04  0.25500000920E-02 0. -1.
    10030    2    1    2    0    0  0.00000000000E+00  0.00000000000E+00  0.10253559435E+04  0.38830398797E+04  0.37452161349E+04 0.  0.
        3    1    3    3  502    0 -0.18035586105E+04 -0.30478532452E+03  0.92861855147E+03  0.20513532557E+04  0.10100000352E+00 0.  1.
       -3    1    3    3    0  502  0.18035586105E+04  0.30478532452E+03  0.96737392060E+02  0.18316866240E+04  0.10100000352E+00 0. -1.
</event>
<event>
 5   0  0.1184616E-06  0.3749881E+04  0.7818609E-02  0.8056997E-01
       -2   -1    0    0    0  501  0.00000000000E+00  0.00000000000E+00  0.15860786270E+04  0.15860786270E+04  0.25500000920E-02 0. -1.
        2   -1    0    0  501    0  0.00000000000E+00  0.00000000000E+00 -0.22164113738E+04  0.22164113738E+04  0.25500000920E-02 0.  1.
    10030    2    1    2    0    0  0.00000000000E+00  0.00000000000E+00 -0.63033274678E+03  0.38024900008E+04  0.37498814427E+04 0.  0.
        5    1    3    3  502    0 -0.14086689669E+04 -0.10620171404E+04  0.32868396457E+03  0.17945149493E+04  0.46999998093E+01 0. -1.
       -5    1    3    3    0  502  0.14086689669E+04  0.10620171404E+04 -0.95901671136E+03  0.20079750515E+04  0.46999998093E+01 0.  1.
</event>
<event>
 5   0  0.1337854E-06  0.3783569E+04  0.7818609E-02  0.8049690E-01
       -2   -1    0    0    0  501  0.00000000000E+00  0.00000000000E+00  0.22392970074E+04  0.22392970074E+04  0.25500000920E-02 0.  1.
        2   -1    0    0  501    0  0.00000000000E+00  0.00000000000E+00 -0.15982021123E+04  0.15982021123E+04  0.25500000920E-02 0. -1.
    10030    2    1    2    0    0  0.00000000000E+00  0.00000000000E+00  0.64109489510E+03  0.38374991197E+04  0.37835693240E+04 0.  0.
        3    1    3    3  502    0  0.13578745009E+04  0.11324422876E+04  0.10028925974E+04  0.20327425482E+04  0.10100000352E+00 0. -1.
       -3    1    3    3    0  502 -0.13578745009E+04 -0.11324422876E+04 -0.36179770234E+03  0.18047565716E+04  0.10100000352E+00 0.  1.
</event>
<event>
 5   0  0.1184616E-06  0.3838811E+04  0.7818609E-02  0.8037877E-01
       -2   -1    0    0    0  501  0.00000000000E+00  0.00000000000E+00  0.31313824485E+04  0.31313824485E+04  0.25500000920E-02 0. -1.
        2   -1    0    0  501    0  0.00000000000E+00  0.00000000000E+00 -0.11765149690E+04  0.11765149690E+04  0.25500000920E-02 0.  1.
    10030    2    1    2    0    0  0.00000000000E+00  0.00000000000E+00  0.19548674795E+04  0.43078974176E+04  0.38388114434E+04 0.  0.
        5    1    3    3  502    0 -0.14007439465E+04  0.11360019639E+04  0.17145994000E+04  0.24884648396E+04  0.46999998093E+01 0. -1.
       -5    1    3    3    0  502  0.14007439465E+04 -0.11360019639E+04  0.24026807951E+03  0.18194325779E+04  0.46999998093E+01 0.  1.
</event>
<event>
 5   0  0.1341932E-06  0.3472114E+04  0.7818609E-02  0.8120430E-01
        2   -1    0    0  501    0  0.00000000000E+00  0.00000000000E+00  0.14924445861E+04  0.14924445861E+04  0.25500000920E-02 0. -1.
       -2   -1    0    0    0  501  0.00000000000E+00  0.00000000000E+00 -0.20194346517E+04  0.20194346517E+04  0.25500000920E-02 0.  1.
    10030    2    1    2    0    0  0.00000000000E+00  0.00000000000E+00 -0.52699006557E+03  0.35118792378E+04  0.34721142337E+04 0.  0.
        2    1    3    3  502    0 -0.10740352674E+04 -0.23033086101E+03  0.10962563883E+04  0.15518963013E+04  0.25500000920E-02 0. -1.
       -2    1    3    3    0  502  0.10740352674E+04  0.23033086101E+03 -0.16232464539E+04  0.19599829365E+04  0.25500000920E-02 0.  1.
</event>
<event>
 5   0  0.1184616E-06  0.3797552E+04  0.7818609E-02  0.8046681E-01
        2   -1    0    0  501    0  0.00000000000E+00  0.00000000000E+00  0.10509605761E+04  0.10509605761E+04  0.25500000920E-02 0. -1.
       -2   -1    0    0    0  501  0.00000000000E+00  0.00000000000E+00 -0.34305278222E+04  0.34305278222E+04  0.25500000920E-02 0.  1.
    10030    2    1    2    0    0  0.00000000000E+00  0.00000000000E+00 -0.23795672461E+04  0.44814883983E+04  0.37975515777E+04 0.  0.
        5    1    3    3  502    0 -0.54707385426E+03  0.62404373177E+03 -0.32051664524E+04  0.33108661191E+04  0.46999998093E+01 0.  1.
       -5    1    3    3    0  502  0.54707385426E+03 -0.62404373177E+03  0.82559920625E+03  0.11706222792E+04  0.46999998093E+01 0. -1.
</event>
<event>
 5   0  0.4795023E-07  0.2047379E+04  0.7818609E-02  0.8584784E-01
        1   -1    0    0  501    0  0.00000000000E+00  0.00000000000E+00  0.99258123784E+03  0.99258123785E+03  0.50400001928E-02 0.  1.
       -1   -1    0    0    0  501  0.00000000000E+00  0.00000000000E+00 -0.10557723124E+04  0.10557723124E+04  0.50400001928E-02 0. -1.
    10030    2    1    2    0    0  0.00000000000E+00  0.00000000000E+00 -0.63191074531E+02  0.20483535502E+04  0.20473786056E+04 0.  0.
        3    1    3    3  502    0 -0.33234142522E+03  0.90730625960E+03 -0.36981613874E+03  0.10346107762E+04  0.10100000352E+00 0. -1.
       -3    1    3    3    0  502  0.33234142522E+03 -0.90730625960E+03  0.30662506421E+03  0.10137427740E+04  0.10100000352E+00 0.  1.
</event>
<event>
 5   0  0.1341932E-06  0.3337301E+04  0.7818609E-02  0.8153469E-01
       -2   -1    0    0    0  501  0.00000000000E+00  0.00000000000E+00  0.27069935693E+04  0.27069935693E+04  0.25500000920E-02 0. -1.
        2   -1    0    0  501    0  0.00000000000E+00  0.00000000000E+00 -0.10285926757E+04  0.10285926757E+04  0.25500000920E-02 0.  1.
    10030    2    1    2    0    0  0.00000000000E+00  0.00000000000E+00  0.16784008936E+04  0.37355862451E+04  0.33373005610E+04 0.  0.
        2    1    3    3  502    0 -0.13001316365E+04 -0.74843327644E+03  0.21313932325E+02  0.15003162751E+04  0.25500000920E-02 0.  1.
       -2    1    3    3    0  502  0.13001316365E+04  0.74843327644E+03  0.16570869613E+04  0.22352699700E+04  0.25500000920E-02 0. -1.
</event>
<event>
 5   0  0.5284458E-07  0.4209153E+04  0.7818609E-02  0.7963634E-01
       -1   -1    0    0    0  501  0.00000000000E+00  0.00000000000E+00  0.16301347739E+04  0.16301347739E+04  0.50400001928E-02 0. -1.
        1   -1    0    0  501    0  0.00000000000E+00  0.00000000000E+00 -0.27171013814E+04  0.27171013814E+04  0.50400001928E-02 0.  1.
    10030    2    1    2    0    0  0.00000000000E+00  0.00000000000E+00 -0.10869666075E+04  0.43472361552E+04  0.42091526206E+04 0.  0.
        5    1    3    3  502    0  0.13691113316E+04  0.17397152826E+03 -0.21844703987E+04  0.25839243301E+04  0.46999998093E+01 0.  1.
       -5    1    3    3    0  502 -0.13691113316E+04 -0.17397152826E+03  0.10975037912E+04  0.17633118251E+04  0.46999998093E+01 0. -1.
</event>
<event>
 5   0  0.1214844E-06  0.2089206E+04  0.7818609E-02  0.8566013E-01
       -2   -1    0    0    0  501  0.00000000000E+00  0.00000000000E+00  0.90693327522E+03  0.90693327522E+03  0.25500000920E-02 0. -1.
        2   -1    0    0  501    0  0.00000000000E+00  0.00000000000E+00 -0.12031703510E+04  0.12031703510E+04  0.25500000920E-02 0.  1.
    10030    2    1    2    0    0  0.00000000000E+00  0.00000000000E+00 -0.29623707582E+03  0.21101036263E+04  0.20892058081E+04 0.  0.
        4    1    3    3  502    0 -0.23235629727E+03  0.10065063698E+04  0.88356722397E+01  0.10330170393E+04  0.12699999809E+01 0. -1.
       -4    1    3    3    0  502  0.23235629727E+03 -0.10065063698E+04 -0.30507274806E+03  0.10770865870E+04  0.12699999809E+01 0.  1.
</event>
<event>
 5   0  0.4255250E-07  0.3782347E+04  0.7818609E-02  0.8049954E-01
        3   -1    0    0  501    0  0.00000000000E+00  0.00000000000E+00  0.14131309813E+04  0.14131309849E+04  0.10100000352E+00 0.  1.
       -3   -1    0    0    0  501  0.00000000000E+00  0.00000000000E+00 -0.25309316295E+04  0.25309316315E+04  0.10100000352E+00 0. -1.
    10030    2    1    2    0    0  0.00000000000E+00  0.00000000000E+00 -0.11178006482E+04  0.39440626164E+04  0.37823473707E+04 0.  0.
        5    1    3    3  502    0  0.11395744876E+04  0.86099071592E+03 -0.18514882337E+04  0.23383681907E+04  0.46999998093E+01 0. -1.
       -5    1    3    3    0  502 -0.11395744876E+04 -0.86099071592E+03  0.73368758554E+03  0.16056944257E+04  0.46999998093E+01 0.  1.
</event>
<event>
 5   0  0.8030324E-07  0.4282681E+04  0.7818609E-02  0.7949828E-01
        1   -1    0    0  501    0  0.00000000000E+00  0.00000000000E+00  0.19595632450E+04  0.19595632450E+04  0.50400001928E-02 0.  1.
       -1   -1    0    0    0  501  0.00000000000E+00  0.00000000000E+00 -0.23399799353E+04  0.23399799353E+04  0.50400001928E-02 0. -1.
    10030    2    1    2    0    0  0.00000000000E+00  0.00000000000E+00 -0.38041669025E+03  0.42995431803E+04  0.42826807844E+04 0.  0.
        1    1    3    3  502    0  0.20732465354E+04 -0.19408307689E+03  0.31107641933E+03  0.21054187175E+04  0.50400001928E-02 0.  1.
       -1    1    3    3    0  502 -0.20732465354E+04  0.19408307689E+03 -0.69149310959E+03  0.21941244628E+04  0.50400001928E-02 0. -1.
</event>
<event>
 5   0  0.4255250E-07  0.3775130E+04  0.7818609E-02  0.8051513E-01
        3   -1    0    0  501    0  0.00000000000E+00  0.00000000000E+00  0.13635986731E+04  0.13635986768E+04  0.10100000352E+00 0. -1.
       -3   -1    0    0    0  501  0.00000000000E+00  0.00000000000E+00 -0.26128663890E+04  0.26128663909E+04  0.10100000352E+00 0.  1.
    10030    2    1    2    0    0  0.00000000000E+00  0.00000000000E+00 -0.12492677159E+04  0.39764650677E+04  0.37751297473E+04 0.  0.
        3    1    3    3  502    0  0.11458496660E+04  0.12365377558E+04  0.26970896454E+03  0.17072609684E+04  0.10100000352E+00 0. -1.
       -3    1    3    3    0  502 -0.11458496660E+04 -0.12365377558E+04 -0.15189766805E+04  0.22692040993E+04  0.10100000352E+00 0.  1.
</event>
<event>
 5   0  0.1184616E-06  0.3798501E+04  0.7818609E-02  0.8046477E-01
        2   -1    0    0  501    0  0.00000000000E+00  0.00000000000E+00  0.24249170956E+04  0.24249170956E+04  0.25500000920E-02 0. -1.
       -2   -1    0    0    0  501  0.00000000000E+00  0.00000000000E+00 -0.14875361150E+04  0.14875361150E+04  0.25500000920E-02 0.  1.
    10030    2    1    2    0    0  0.00000000000E+00  0.00000000000E+00  0.93738098056E+03  0.39124532106E+04  0.37985006282E+04 0.  0.
        5    1    3    3  502    0 -0.16498467250E+04  0.92979203099E+03  0.32077803251E+03  0.19207883988E+04  0.46999998093E+01 0. -1.
       -5    1    3    3    0  502  0.16498467250E+04 -0.92979203099E+03  0.61660294806E+03  0.19916648118E+04  0.46999998093E+01 0.  1.
</event>
<event>
 5   0  0.8030324E-07  0.3787433E+04  0.7818609E-02  0.8048857E-01
        1   -1    0    0  501    0  0.00000000000E+00  0.00000000000E+00  0.24676725949E+04  0.24676725949E+04  0.50400001928E-02 0.  1.
       -1   -1    0    0    0  501  0.00000000000E+00  0.00000000000E+00 -0.14532569040E+04  0.14532569040E+04  0.50400001928E-02 0. -1.
    10030    2    1    2    0    0  0.00000000000E+00  0.00000000000E+00  0.10144156908E+04  0.39209294989E+04  0.37874330280E+04 0.  0.
        1    1    3    3  502    0 -0.13300546835E+04  0.20370043463E+03 -0.87228496368E+03  0.16035648992E+04  0.50400001928E-02 0. -1.
       -1    1    3    3    0  502  0.13300546835E+04 -0.20370043463E+03  0.18867006545E+04  0.23173645997E+04  0.50400001928E-02 0.  1.
</event>
<event>
 5   0  0.1184616E-06  0.3441893E+04  0.7818609E-02  0.8127700E-01
        2   -1    0    0  501    0  0.00000000000E+00  0.00000000000E+00  0.23396313633E+04  0.23396313633E+04  0.25500000920E-02 0.  1.
       -2   -1    0    0    0  501  0.00000000000E+00  0.00000000000E+00 -0.12658644917E+04  0.12658644917E+04  0.25500000920E-02 0. -1.
    10030    2    1    2    0    0  0.00000000000E+00  0.00000000000E+00  0.10737668716E+04  0.36054958551E+04  0.34418926576E+04 0.  0.
        5    1    3    3  502    0 -0.12221480750E+03 -0.10663099256E+04  0.19460705891E+04  0.22224234845E+04  0.46999998093E+01 0.  1.
       -5    1    3    3    0  502  0.12221480750E+03  0.10663099256E+04 -0.87230371754E+03  0.13830723706E+04  0.46999998093E+01 0. -1.
</event>
<event>
 5   0  0.1214844E-06  0.3776122E+04  0.7818609E-02  0.8051298E-01
        2   -1    0    0  501    0  0.00000000000E+00  0.00000000000E+00  0.20231489353E+04  0.20231489353E+04  0.25500000920E-02 0.  1.
       -2   -1    0    0    0  501  0.00000000000E+00  0.00000000000E+00 -0.17619934688E+04  0.17619934688E+04  0.25500000920E-02 0. -1.
    10030    2    1    2    0    0  0.00000000000E+00  0.00000000000E+00  0.26115546647E+03  0.37851424041E+04  0.37761224611E+04 0.  0.
        4    1    3    3  502    0 -0.98706282166E+03  0.15223493513E+03  0.17366862882E+04  0.20033844778E+04  0.12699999809E+01 0.  1.
       -4    1    3    3    0  502  0.98706282166E+03 -0.15223493513E+03 -0.14755308217E+04  0.17817579263E+04  0.12699999809E+01 0. -1.
</event>
<event>
 5   0  0.1079205E-06  0.2716540E+04  0.7818609E-02  0.8329658E-01
       -1   -1    0    0    0  501  0.00000000000E+00  0.00000000000E+00  0.11609583592E+04  0.11609583592E+04  0.50400001928E-02 0. -1.
        1   -1    0    0  501    0  0.00000000000E+00  0.00000000000E+00 -0.15891159632E+04  0.15891159632E+04  0.50400001928E-02 0.  1.
    10030    2    1    2    0    0  0.00000000000E+00  0.00000000000E+00 -0.42815760398E+03  0.27500743224E+04  0.27165400503E+04 0.  0.
        4    1    3    3  502    0  0.34290407184E+03 -0.12945607259E+04  0.15491760668E+02  0.13392954428E+04  0.12699999809E+01 0. -1.
       -4    1    3    3    0  502 -0.34290407184E+03  0.12945607259E+04 -0.44364936465E+03  0.14107788796E+04  0.12699999809E+01 0.  1.
</event>
<event>
 5   0  0.4255250E-07  0.3712350E+04  0.7818609E-02  0.8065230E-01
       -1   -1    0    0    0  501  0.00000000000E+00  0.00000000000E+00  0.11123909851E+04  0.11123909851E+04  0.50400001928E-02 0.  1.
        1   -1    0    0  501    0  0.00000000000E+00  0.00000000000E+00 -0.30972792797E+04  0.30972792797E+04  0.50400001928E-02 0. -1.
    10030    2    1    2    0    0  0.00000000000E+00  0.00000000000E+00 -0.19848882946E+04  0.42096702648E+04  0.37123499561E+04 0.  0.
        2    1    3    3  502    0 -0.12284646324E+04 -0.29376985846E+03  0.54989640172E+03  0.13776110247E+04  0.25500000920E-02 0.  1.
       -2    1    3    3    0  502  0.12284646324E+04  0.29376985846E+03 -0.25347846963E+04  0.28320592401E+04  0.25500000920E-02 0. -1.
</event>
<event>
 5   0  0.5284458E-07  0.3421496E+04  0.7818609E-02  0.8132650E-01
        1   -1    0    0  501    0  0.00000000000E+00  0.00000000000E+00  0.33350568201E+04  0.33350568201E+04  0.50400001928E-02 0. -1.
       -1   -1    0    0    0  501  0.00000000000E+00  0.00000000000E+00 -0.87754409374E+03  0.87754409375E+03  0.50400001928E-02 0.  1.
    10030    2    1    2    0    0  0.00000000000E+00  0.00000000000E+00  0.24575127263E+04  0.42126009138E+04  0.34214964064E+04 0.  0.
        5    1    3    3  502    0  0.34797267273E+03  0.13773284604E+03 -0.82651960277E+03  0.90731034470E+03  0.46999998093E+01 0.  1.
       -5    1    3    3    0  502 -0.34797267273E+03 -0.13773284604E+03  0.32840323291E+04  0.33052905691E+04  0.46999998093E+01 0. -1.
</event>
<event>
 5   0  0.1337854E-06  0.3879863E+04  0.7818609E-02  0.8029230E-01
        2   -1    0    0  501    0  0.00000000000E+00  0.00000000000E+00  0.21647209335E+04  0.21647209335E+04  0.25500000920E-02 0. -1.
       -2   -1    0    0    0  501  0.00000000000E+00  0.00000000000E+00 -0.17384849003E+04  0.17384849003E+04  0.25500000920E-02 0.  1.
    10030    2    1    2    0    0  0.00000000000E+00  0.00000000000E+00  0.42623603325E+03  0.39032058338E+04  0.38798632225E+04 0.  0.
        3    1    3    3  502    0 -0.17048758859E+04 -0.61454146334E+02  0.11422307583E+04  0.20530634461E+04  0.10100000352E+00 0. -1.
       -3    1    3    3    0  502  0.17048758859E+04  0.61454146334E+02 -0.71599472508E+03  0.18501423877E+04  0.10100000352E+00 0.  1.
</event>
<event>
 5   0  0.4255250E-07  0.2920947E+04  0.7818609E-02  0.8266672E-01
       -1   -1    0    0    0  501  0.00000000000E+00  0.00000000000E+00  0.10401088687E+04  0.10401088687E+04  0.50400001928E-02 0.  1.
        1   -1    0    0  501    0  0.00000000000E+00  0.00000000000E+00 -0.20507300003E+04  0.20507300003E+04  0.50400001928E-02 0. -1.
    10030    2    1    2    0    0  0.00000000000E+00  0.00000000000E+00 -0.10106211316E+04  0.30908388690E+04  0.29209467374E+04 0.  0.
        2    1    3    3  502    0  0.87122603517E+02 -0.10562615128E+04  0.55797448366E+03  0.11977538377E+04  0.25500000920E-02 0.  1.
       -2    1    3    3    0  502 -0.87122603517E+02  0.10562615128E+04 -0.15685956152E+04  0.18930850313E+04  0.25500000920E-02 0. -1.
</event>
<event>
 5   0  0.4255250E-07  0.2169698E+04  0.7818609E-02  0.8531147E-01
        1   -1    0    0  501    0  0.00000000000E+00  0.00000000000E+00  0.75296146682E+03  0.75296146684E+03  0.50400001928E-02 0. -1.
       -1   -1    0    0    0  501  0.00000000000E+00  0.00000000000E+00 -0.15630247783E+04  0.15630247783E+04  0.50400001928E-02 0.  1.
    10030    2    1    2    0    0  0.00000000000E+00  0.00000000000E+00 -0.81006331147E+03  0.23159862451E+04  0.21696980709E+04 0.  0.
        2    1    3    3  502    0  0.77129533130E+03  0.14077248478E+03 -0.12053742534E+04  0.14379292303E+04  0.25500000920E-02 0.  1.
       -2    1    3    3    0  502 -0.77129533130E+03 -0.14077248478E+03  0.39531094190E+03  0.87805701487E+03  0.25500000920E-02 0. -1.
</event>
<event>
 5   0  0.1184616E-06  0.3079461E+04  0.7818609E-02  0.8221397E-01
        2   -1    0    0  501    0  0.00000000000E+00  0.00000000000E+00  0.16620084705E+04  0.16620084705E+04  0.25500000920E-02 0.  1.
       -2   -1    0    0    0  501  0.00000000000E+00  0.00000000000E+00 -0.14264487876E+04  0.14264487876E+04  0.25500000920E-02 0. -1.
    10030    2    1    2    0    0  0.00000000000E+00  0.00000000000E+00  0.23555968289E+03  0.30884572581E+04  0.30794609709E+04 0.  0.
        5    1    3    3  502    0 -0.11859187910E+04  0.49146892047E+03 -0.73488195355E+03  0.14791952725E+04  0.46999998093E+01 0. -1.
       -5    1    3    3    0  502  0.11859187910E+04 -0.49146892047E+03  0.97044163644E+03  0.16092619856E+04  0.46999998093E+01 0.  1.
</event>
<event>
 5   0  0.1214844E-06  0.3933777E+04  0.7818609E-02  0.8018041E-01
        2   -1    0    0  501    0  0.00000000000E+00  0.00000000000E+00  0.17121439140E+04  0.17121439140E+04  0.25500000920E-02 0. -1.
       -2   -1    0    0    0  501  0.00000000000E+00  0.00000000000E+00 -0.22595354762E+04  0.22595354762E+04  0.25500000920E-02 0.  1.
    10030    2    1    2    0    0  0.00000000000E+00  0.00000000000E+00 -0.54739156220E+03  0.39716793902E+04  0.39337767674E+04 0.  0.
        4    1    3    3  502    0  0.75140577917E+03 -0.17423542654E+04  0.24921265871E+03  0.19137705174E+04  0.12699999809E+01 0. -1.
       -4    1    3    3    0  502 -0.75140577917E+03  0.17423542654E+04 -0.79660422091E+03  0.20579088728E+04  0.12699999809E+01 0.  1.
</event>
<event>
 5   0  0.4255250E-07  0.4284671E+04  0.7818609E-02  0.7949459E-01
       -1   -1    0    0    0  501  0.00000000000E+00  0.00000000000E+00  0.20307209254E+04  0.20307209254E+04  0.50400001928E-02 0.  1.
        1   -1    0    0  501    0  0.00000000000E+00  0.00000000000E+00 -0.22600846638E+04  0.22600846638E+04  0.50400001928E-02 0. -1.
    10030    2    1    2    0    0  0.00000000000E+00  0.00000000000E+00 -0.22936373836E+03  0.42908055892E+04  0.42846709185E+04 0.  0.
        2    1    3    3  502    0 -0.14764306754E+04 -0.38026745105E+03  0.13925146497E+04  0.20648360524E+04  0.25500000920E-02 0.  1.
       -2    1    3    3    0  502  0.14764306754E+04  0.38026745105E+03 -0.16218783880E+04  0.22259695369E+04  0.25500000920E-02 0. -1.
</event>
<event>
 5   0  0.5284458E-07  0.2356705E+04  0.7818609E-02  0.8455893E-01
        1   -1    0    0  501    0  0.00000000000E+00  0.00000000000E+00  0.16279997943E+04  0.16279997943E+04  0.50400001928E-02 0. -1.
       -1   -1    0    0    0  501  0.00000000000E+00  0.00000000000E+00 -0.85289608514E+03  0.85289608516E+03  0.50400001928E-02 0.  1.
    10030    2    1    2    0    0  0.00000000000E+00  0.00000000000E+00  0.77510370915E+03  0.24808958795E+04  0.23567050313E+04 0.  0.
        5    1    3    3  502    0  0.63523851697E+03 -0.14205369554E+03  0.14215473710E+04  0.15634980793E+04  0.46999998093E+01 0. -1.
       -5    1    3    3    0  502 -0.63523851697E+03  0.14205369554E+03 -0.64644366185E+03  0.91739780020E+03  0.46999998093E+01 0.  1.
</event>
<event>
 5   0  0.4255250E-07  0.3787045E+04  0.7818609E-02  0.8048941E-01
       -3   -1    0    0    0  501  0.00000000000E+00  0.00000000000E+00  0.13258294594E+04  0.13258294633E+04  0.10100000352E+00 0. -1.
        3   -1    0    0  501    0  0.00000000000E+00  0.00000000000E+00 -0.27042903914E+04  0.27042903933E+04  0.10100000352E+00 0.  1.
    10030    2    1    2    0    0  0.00000000000E+00  0.00000000000E+00 -0.13784609320E+04  0.40301198565E+04  0.37870452225E+04 0.  0.
        2    1    3    3  502    0 -0.37187437290E+03  0.17241214404E+03  0.12780491949E+04  0.13421722100E+04  0.25500000920E-02 0. -1.
       -2    1    3    3    0  502  0.37187437290E+03 -0.17241214404E+03 -0.26565101269E+04  0.26879476466E+04  0.25500000920E-02 0.  1.
</event>
<event>
 5   0  0.1341932E-06  0.2195968E+04  0.7818609E-02  0.8520108E-01
        2   -1    0    0  501    0  0.00000000000E+00  0.00000000000E+00  0.10948395910E+04  0.10948395910E+04  0.25500000920E-02 0. -1.
       -2   -1    0    0    0  501  0.00000000000E+00  0.00000000000E+00 -0.11011378233E+04  0.11011378233E+04  0.25500000920E-02 0.  1.
    10030    2    1    2    0    0  0.00000000000E+00  0.00000000000E+00 -0.62982322619E+01  0.21959774143E+04  0.21959683824E+04 0.  0.
        2    1    3    3  502    0  0.37946599706E+02  0.71365477669E+03 -0.83671489938E+03  0.11003794380E+04  0.25500000920E-02 0.  1.
       -2    1    3    3    0  502 -0.37946599706E+02 -0.71365477669E+03  0.83041666712E+03  0.10955979763E+04  0.25500000920E-02 0. -1.
</event>
<event>
 5   0  0.4795023E-07  0.3755659E+04  0.7818609E-02  0.8055738E-01
       -1   -1    0    0    0  501  0.00000000000E+00  0.00000000000E+00  0.24941040552E+04  0.24941040552E+04  0.50400001928E-02 0.  1.
        1   -1    0    0  501    0  0.00000000000E+00  0.00000000000E+00 -0.14138317048E+04  0.14138317048E+04  0.50400001928E-02 0. -1.
    10030    2    1    2    0    0  0.00000000000E+00  0.00000000000E+00  0.10802723504E+04  0.39079357601E+04  0.37556588708E+04 0.  0.
        3    1    3    3  502    0  0.37324903138E+02 -0.35239491208E+03 -0.13787243068E+04  0.14235364579E+04  0.10100000352E+00 0. -1.
       -3    1    3    3    0  502 -0.37324903138E+02  0.35239491208E+03  0.24589966572E+04  0.24843993022E+04  0.10100000352E+00 0.  1.
</event>
<event>
 5   0  0.1439024E-06  0.2206524E+04  0.7818609E-02  0.8515718E-01
        2   -1    0    0  501    0  0.00000000000E+00  0.00000000000E+00  0.11001957358E+04  0.11001957358E+04  0.25500000920E-02 0.  1.
       -2   -1    0    0    0  501  0.00000000000E+00  0.00000000000E+00 -0.11063365526E+04  0.11063365526E+04  0.25500000920E-02 0. -1.
    10030    2    1    2    0    0  0.00000000000E+00  0.00000000000E+00 -0.61408168141E+01  0.22065322884E+04  0.22065237434E+04 0.  0.
        5    1    3    3  502    0  0.52617030029E+03  0.28922927577E+03  0.92249025609E+03  0.11006902932E+04  0.46999998093E+01 0.  1.
       -5    1    3    3    0  502 -0.52617030029E+03 -0.28922927577E+03 -0.92863107290E+03  0.11058419952E+04  0.46999998093E+01 0. -1.
</event>
<event>
 5   0  0.5284458E-07  0.3881768E+04  0.7818609E-02  0.8028832E-01
        1   -1    0    0  501    0  0.00000000000E+00  0.00000000000E+00  0.16703266134E+04  0.16703266134E+04  0.50400001928E-02 0.  1.
       -1   -1    0    0    0  501  0.00000000000E+00  0.00000000000E+00 -0.22552662654E+04  0.22552662654E+04  0.50400001928E-02 0. -1.
    10030    2    1    2    0    0  0.00000000000E+00  0.00000000000E+00 -0.58493965196E+03  0.39255928788E+04  0.38817682895E+04 0.  0.
        5    1    3    3  502    0 -0.63609083633E+03  0.61824911400E+03  0.14533356519E+04  0.17026597212E+04  0.46999998093E+01 0.  1.
       -5    1    3    3    0  502  0.63609083633E+03 -0.61824911400E+03 -0.20382753038E+04  0.22229331576E+04  0.46999998093E+01 0. -1.
</event>
<event>
 5   0  0.1341932E-06  0.3760440E+04  0.7818609E-02  0.8054698E-01
       -2   -1    0    0    0  501  0.00000000000E+00  0.00000000000E+00  0.12834974459E+04  0.12834974459E+04  0.25500000920E-02 0.  1.
        2   -1    0    0  501    0  0.00000000000E+00  0.00000000000E+00 -0.27543700549E+04  0.27543700549E+04  0.25500000920E-02 0. -1.
    10030    2    1    2    0    0  0.00000000000E+00  0.00000000000E+00 -0.14708726091E+04  0.40378675008E+04  0.37604398310E+04 0.  0.
        2    1    3    3  502    0 -0.74781075478E+03 -0.47209590625E+03 -0.25171047743E+04  0.26679415126E+04  0.25500000920E-02 0. -1.
       -2    1    3    3    0  502  0.74781075478E+03  0.47209590625E+03  0.10462321653E+04  0.13699259883E+04  0.25500000920E-02 0.  1.
</event>
<event>
 5   0  0.1184616E-06  0.3734290E+04  0.7818609E-02  0.8060405E-01
       -2   -1    0    0    0  501  0.00000000000E+00  0.00000000000E+00  0.18809711211E+04  0.18809711211E+04  0.25500000920E-02 0. -1.
        2   -1    0    0  501    0  0.00000000000E+00  0.00000000000E+00 -0.18534210000E+04  0.18534210000E+04  0.25500000920E-02 0.  1.
    10030    2    1    2    0    0  0.00000000000E+00  0.00000000000E+00  0.27550121091E+02  0.37343921212E+04  0.37342904956E+04 0.  0.
        5    1    3    3  502    0 -0.10061865480E+03  0.25318552031E+01 -0.18507001906E+04  0.18534410725E+04  0.46999998093E+01 0.  1.
       -5    1    3    3    0  502  0.10061865480E+03 -0.25318552031E+01  0.18782503117E+04  0.18809510486E+04  0.46999998093E+01 0. -1.
</event>
<event>
 5   0  0.4795023E-07  0.3237865E+04  0.7818609E-02  0.8178888E-01
        1   -1    0    0  501    0  0.00000000000E+00  0.00000000000E+00  0.17679965326E+04  0.17679965326E+04  0.50400001928E-02 0.  1.
       -1   -1    0    0    0  501  0.00000000000E+00  0.00000000000E+00 -0.14824366573E+04  0.14824366573E+04  0.50400001928E-02 0. -1.
    10030    2    1    2    0    0  0.00000000000E+00  0.00000000000E+00  0.28555987538E+03  0.32504331899E+04  0.32378652658E+04 0.  0.
        3    1    3    3  502    0  0.11078605609E+03 -0.14306343030E+03 -0.14722536881E+04  0.14833312603E+04  0.10100000352E+00 0. -1.
       -3    1    3    3    0  502 -0.11078605609E+03  0.14306343030E+03  0.17578135635E+04  0.17671019296E+04  0.10100000352E+00 0.  1.
</event>
<event>
 5   0  0.4255250E-07  0.3598023E+04  0.7818609E-02  0.8090945E-01
       -1   -1    0    0    0  501  0.00000000000E+00  0.00000000000E+00  0.10587094801E+04  0.10587094801E+04  0.50400001928E-02 0. -1.
        1   -1    0    0  501    0  0.00000000000E+00  0.00000000000E+00 -0.30569690532E+04  0.30569690532E+04  0.50400001928E-02 0.  1.
    10030    2    1    2    0    0  0.00000000000E+00  0.00000000000E+00 -0.19982595731E+04  0.41156785334E+04  0.35980228555E+04 0.  0.
        2    1    3    3  502    0 -0.88860481155E+03  0.11390637940E+04  0.22719372056E+03  0.14624301093E+04  0.25500000920E-02 0. -1.
       -2    1    3    3    0  502  0.88860481155E+03 -0.11390637940E+04 -0.22254532937E+04  0.26532484241E+04  0.25500000920E-02 0.  1.
</event>
<event>
 5   0  0.1337854E-06  0.3768187E+04  0.7818609E-02  0.8053017E-01
        2   -1    0    0  501    0  0.00000000000E+00  0.00000000000E+00  0.19398447249E+04  0.19398447249E+04  0.25500000920E-02 0. -1.
       -2   -1    0    0    0  501  0.00000000000E+00  0.00000000000E+00 -0.18299442268E+04  0.18299442268E+04  0.25500000920E-02 0.  1.
    10030    2    1    2    0    0  0.00000000000E+00  0.00000000000E+00  0.10990049812E+03  0.37697889517E+04  0.37681866489E+04 0.  0.
        3    1    3    3  502    0  0.58506288435E+03  0.53404707314E+03 -0.16552510704E+04  0.18350370490E+04  0.10100000352E+00 0.  1.
       -3    1    3    3    0  502 -0.58506288435E+03 -0.53404707314E+03  0.17651515685E+04  0.19347519027E+04  0.10100000352E+00 0. -1.
</event>
<event>
 5   0  0.1372748E-06  0.2978691E+04  0.7818609E-02  0.8249842E-01
        2   -1    0    0  501    0  0.00000000000E+00  0.00000000000E+00  0.12988807701E+04  0.12988807701E+04  0.25500000920E-02 0.  1.
       -2   -1    0    0    0  501  0.00000000000E+00  0.00000000000E+00 -0.17077397660E+04  0.17077397660E+04  0.25500000920E-02 0. -1.
    10030    2    1    2    0    0  0.00000000000E+00  0.00000000000E+00 -0.40885899588E+03  0.30066205361E+04  0.29786912176E+04 0.  0.
        1    1    3    3  502    0 -0.27600822116E+03 -0.87660561078E+03  0.97853739358E+03  0.13424430586E+04  0.50400001928E-02 0.  1.
       -1    1    3    3    0  502  0.27600822116E+03  0.87660561078E+03 -0.13873963895E+04  0.16641774775E+04  0.50400001928E-02 0. -1.
</event>
<event>
 5   0  0.4795023E-07  0.2858438E+04  0.7818609E-02  0.8285352E-01
        1   -1    0    0  501    0  0.00000000000E+00  0.00000000000E+00  0.14705446754E+04  0.14705446754E+04  0.50400001928E-02 0. -1.
       -1   -1    0    0    0  501  0.00000000000E+00  0.00000000000E+00 -0.13890544482E+04  0.13890544482E+04  0.50400001928E-02 0.  1.
    10030    2    1    2    0    0  0.00000000000E+00  0.00000000000E+00  0.81490227221E+02  0.28595991236E+04  0.28584377710E+04 0.  0.
        3    1    3    3  502    0 -0.41470538649E+03 -0.13184859238E+04 -0.32310710122E+03  0.14194308359E+04  0.10100000352E+00 0.  1.
       -3    1    3    3    0  502  0.41470538649E+03  0.13184859238E+04  0.40459732844E+03  0.14401682878E+04  0.10100000352E+00 0. -1.
</event>
<event>
 5   0  0.1341932E-06  0.3711755E+04  0.7818609E-02  0.8065362E-01
       -2   -1    0    0    0  501  0.00000000000E+00  0.00000000000E+00  0.12530695102E+04  0.12530695102E+04  0.25500000920E-02 0.  1.
        2   -1    0    0  501    0  0.00000000000E+00  0.00000000000E+00 -0.27486757639E+04  0.27486757639E+04  0.25500000920E-02 0. -1.
    10030    2    1    2    0    0  0.00000000000E+00  0.00000000000E+00 -0.14956062537E+04  0.40017452740E+04  0.37117552684E+04 0.  0.
        2    1    3    3  502    0 -0.17721620137E+04  0.42324530405E+03 -0.11283485264E+04  0.21430971017E+04  0.25500000920E-02 0. -1.
       -2    1    3    3    0  502  0.17721620137E+04 -0.42324530405E+03 -0.36725772734E+03  0.18586481724E+04  0.25500000920E-02 0.  1.
</event>
<event>
 5   0  0.5284458E-07  0.3835534E+04  0.7818609E-02  0.8038572E-01
       -1   -1    0    0    0  501  0.00000000000E+00  0.00000000000E+00  0.16378604630E+04  0.16378604630E+04  0.50400001928E-02 0.  1.
        1   -1    0    0  501    0  0.00000000000E+00  0.00000000000E+00 -0.22455092605E+04  0.22455092605E+04  0.50400001928E-02 0. -1.
    10030    2    1    2    0    0  0.00000000000E+00  0.00000000000E+00 -0.60764879749E+03  0.38833697236E+04  0.38355342977E+04 0.  0.
        5    1    3    3  502    0  0.14926586887E+04 -0.11180663202E+04  0.14863431751E+03  0.18708865566E+04  0.46999998093E+01 0.  1.
       -5    1    3    3    0  502 -0.14926586887E+04  0.11180663202E+04 -0.75628311500E+03  0.20124831670E+04  0.46999998093E+01 0. -1.
</event>
<event>
 5   0  0.1214844E-06  0.2108085E+04  0.7818609E-02  0.8557690E-01
       -2   -1    0    0    0  501  0.00000000000E+00  0.00000000000E+00  0.67220042950E+03  0.67220042951E+03  0.25500000920E-02 0.  1.
        2   -1    0    0  501    0  0.00000000000E+00  0.00000000000E+00 -0.16527896708E+04  0.16527896708E+04  0.25500000920E-02 0. -1.
    10030    2    1    2    0    0  0.00000000000E+00  0.00000000000E+00 -0.98058924131E+03  0.23249901003E+04  0.21080853176E+04 0.  0.
        4    1    3    3  502    0 -0.66985263017E+03 -0.21611803094E+03  0.37503263524E+03  0.79753409948E+03  0.12699999809E+01 0.  1.
       -4    1    3    3    0  502  0.66985263017E+03  0.21611803094E+03 -0.13556218765E+04  0.15274560008E+04  0.12699999809E+01 0. -1.
</event>
<event>
 5   0  0.1372748E-06  0.1923769E+04  0.7818609E-02  0.8643115E-01
        2   -1    0    0  501    0  0.00000000000E+00  0.00000000000E+00  0.21174752080E+04  0.21174752080E+04  0.25500000920E-02 0. -1.
       -2   -1    0    0    0  501  0.00000000000E+00  0.00000000000E+00 -0.43694586950E+03  0.43694586951E+03  0.25500000920E-02 0.  1.
    10030    2    1    2    0    0  0.00000000000E+00  0.00000000000E+00  0.16805293385E+04  0.25544210775E+04  0.19237692647E+04 0.  0.
        1    1    3    3  502    0  0.51683408601E+03  0.73923174312E+03  0.39660354766E+03  0.98533010537E+03  0.50400001928E-02 0. -1.
       -1    1    3    3    0  502 -0.51683408601E+03 -0.73923174312E+03  0.12839257909E+04  0.15690909722E+04  0.50400001928E-02 0.  1.
</event>
<event>
 5   0  0.5284458E-07  0.3227638E+04  0.7818609E-02  0.8181556E-01
        1   -1    0    0  501    0  0.00000000000E+00  0.00000000000E+00  0.14187225745E+04  0.14187225745E+04  0.50400001928E-02 0.  1.
       -1   -1    0    0    0  501  0.00000000000E+00  0.00000000000E+00 -0.18357437219E+04  0.18357437219E+04  0.50400001928E-02 0. -1.
    10030    2    1    2    0    0  0.00000000000E+00  0.00000000000E+00 -0.41702114738E+03  0.32544662965E+04  0.32276375629E+04 0.  0.
        5    1    3    3  502    0  0.44482943828E+03 -0.15891113037E+03  0.13474503951E+04  0.14278552566E+04  0.46999998093E+01 0.  1.
       -5    1    3    3    0  502 -0.44482943828E+03  0.15891113037E+03 -0.17644715425E+04  0.18266110398E+04  0.46999998093E+01 0. -1.
</event>
<event>
 5   0  0.5284458E-07  0.2306881E+04  0.7818609E-02  0.8475213E-01
       -1   -1    0    0    0  501  0.00000000000E+00  0.00000000000E+00  0.70937825007E+03  0.70937825008E+03  0.50400001928E-02 0.  1.
        1   -1    0    0  501    0  0.00000000000E+00  0.00000000000E+00 -0.18754797010E+04  0.18754797010E+04  0.50400001928E-02 0. -1.
    10030    2    1    2    0    0  0.00000000000E+00  0.00000000000E+00 -0.11661014509E+04  0.25848579511E+04  0.23068805850E+04 0.  0.
        5    1    3    3  502    0 -0.17659246113E+02  0.64853602128E+03 -0.16516402528E+04  0.17744994884E+04  0.46999998093E+01 0. -1.
       -5    1    3    3    0  502  0.17659246113E+02 -0.64853602128E+03  0.48553880186E+03  0.81035846264E+03  0.46999998093E+01 0.  1.
</event>
<event>
 5   0  0.1341932E-06  0.3785013E+04  0.7818609E-02  0.8049379E-01
       -2   -1    0    0    0  501  0.00000000000E+00  0.00000000000E+00  0.17792147660E+04  0.17792147660E+04  0.25500000920E-02 0. -1.
        2   -1    0    0  501    0  0.00000000000E+00  0.00000000000E+00 -0.20130122665E+04  0.20130122665E+04  0.25500000920E-02 0.  1.
    10030    2    1    2    0    0  0.00000000000E+00  0.00000000000E+00 -0.23379750050E+03  0.37922270326E+04  0.37850131566E+04 0.  0.
        2    1    3    3  502    0 -0.12434226321E+03 -0.18204594708E+03 -0.20001032809E+04  0.20122164048E+04  0.25500000920E-02 0.  1.
       -2    1    3    3    0  502  0.12434226321E+03  0.18204594708E+03  0.17663057804E+04  0.17800106278E+04  0.25500000920E-02 0. -1.
</event>
<event>
 5   0  0.5284458E-07  0.2279335E+04  0.7818609E-02  0.8486114E-01
       -1   -1    0    0    0  501  0.00000000000E+00  0.00000000000E+00  0.11234241026E+04  0.11234241026E+04  0.50400001928E-02 0.  1.
        1   -1    0    0  501    0  0.00000000000E+00  0.00000000000E+00 -0.11561453336E+04  0.11561453336E+04  0.50400001928E-02 0. -1.
    10030    2    1    2    0    0  0.00000000000E+00  0.00000000000E+00 -0.32721231048E+02  0.22795694362E+04  0.22793345817E+04 0.  0.
        5    1    3    3  502    0 -0.57087973211E+03  0.58311482524E+03 -0.81198823237E+03  0.11512052586E+04  0.46999998093E+01 0. -1.
       -5    1    3    3    0  502  0.57087973211E+03 -0.58311482524E+03  0.77926700132E+03  0.11283641776E+04  0.46999998093E+01 0.  1.
</event>
<event>
 5   0  0.1372748E-06  0.2156037E+04  0.7818609E-02  0.8536953E-01
        2   -1    0    0  501    0  0.00000000000E+00  0.00000000000E+00  0.16271652809E+04  0.16271652809E+04  0.25500000920E-02 0.  1.
       -2   -1    0    0    0  501  0.00000000000E+00  0.00000000000E+00 -0.71420146568E+03  0.71420146569E+03  0.25500000920E-02 0. -1.
    10030    2    1    2    0    0  0.00000000000E+00  0.00000000000E+00  0.91296381524E+03  0.23413667466E+04  0.21560369464E+04 0.  0.
        1    1    3    3  502    0 -0.92559969460E+03  0.37832399605E+03  0.19041430236E+02  0.10001132020E+04  0.50400001928E-02 0. -1.
       -1    1    3    3    0  502  0.92559969460E+03 -0.37832399605E+03  0.89392238500E+03  0.13412535447E+04  0.50400001928E-02 0.  1.
</event>
<event>
 5   0  0.1214844E-06  0.3799163E+04  0.7818609E-02  0.8046335E-01
       -2   -1    0    0    0  501  0.00000000000E+00  0.00000000000E+00  0.13910545746E+04  0.13910545746E+04  0.25500000920E-02 0.  1.
        2   -1    0    0  501    0  0.00000000000E+00  0.00000000000E+00 -0.25940104119E+04  0.25940104119E+04  0.25500000920E-02 0. -1.
    10030    2    1    2    0    0  0.00000000000E+00  0.00000000000E+00 -0.12029558373E+04  0.39850649865E+04  0.37991630920E+04 0.  0.
        4    1    3    3  502    0 -0.95485864849E+03 -0.44772847676E+03 -0.22587221541E+04  0.24927982690E+04  0.12699999809E+01 0. -1.
       -4    1    3    3    0  502  0.95485864849E+03  0.44772847676E+03  0.10557663168E+04  0.14922667175E+04  0.12699999809E+01 0.  1.
</event>
<event>
 5   0  0.4255250E-07  0.3427181E+04  0.7818609E-02  0.8131267E-01
       -3   -1    0    0    0  501  0.00000000000E+00  0.00000000000E+00  0.15964902982E+04  0.15964903014E+04  0.10100000352E+00 0.  1.
        3   -1    0    0  501    0  0.00000000000E+00  0.00000000000E+00 -0.18392802003E+04  0.18392802031E+04  0.10100000352E+00 0. -1.
    10030    2    1    2    0    0  0.00000000000E+00  0.00000000000E+00 -0.24278990208E+03  0.34357705045E+04  0.34271813525E+04 0.  0.
        3    1    3    3  502    0 -0.50309726062E+03 -0.14161948192E+04 -0.94667030379E+03  0.17762036183E+04  0.10100000352E+00 0. -1.
       -3    1    3    3    0  502  0.50309726062E+03  0.14161948192E+04  0.70388040171E+03  0.16595668862E+04  0.10100000352E+00 0.  1.
</event>
<event>
 5   0  0.1337854E-06  0.3802453E+04  0.7818609E-02  0.8045629E-01
        2   -1    0    0  501    0  0.00000000000E+00  0.00000000000E+00  0.21662681035E+04  0.21662681035E+04  0.25500000920E-02 0. -1.
       -2   -1    0    0    0  501  0.00000000000E+00  0.00000000000E+00 -0.16686123141E+04  0.16686123141E+04  0.25500000920E-02 0.  1.
    10030    2    1    2    0    0  0.00000000000E+00  0.00000000000E+00  0.49765578935E+03  0.38348804176E+04  0.38024526996E+04 0.  0.
        3    1    3    3  502    0  0.96894310061E+03  0.83125435000E+03  0.16696815395E+04  0.21018256303E+04  0.10100000352E+00 0. -1.
       -3    1    3    3    0  502 -0.96894310061E+03 -0.83125435000E+03 -0.11720257502E+04  0.17330547873E+04  0.10100000352E+00 0.  1.
</event>
<event>
 5   0  0.1337854E-06  0.2189595E+04  0.7818609E-02  0.8522772E-01
        2   -1    0    0  501    0  0.00000000000E+00  0.00000000000E+00  0.25161367747E+04  0.25161367747E+04  0.25500000920E-02 0. -1.
       -2   -1    0    0    0  501  0.00000000000E+00  0.00000000000E+00 -0.47635775999E+03  0.47635776000E+03  0.25500000920E-02 0.  1.
    10030    2    1    2    0    0  0.00000000000E+00  0.00000000000E+00  0.20397790148E+04  0.29924945347E+04  0.21895947368E+04 0.  0.
        3    1    3    3  502    0 -0.41348150177E+03 -0.14902422964E+03  0.23902675209E+04  0.24303403064E+04  0.10100000352E+00 0. -1.
       -3    1    3    3    0  502  0.41348150177E+03  0.14902422964E+03 -0.35048850612E+03  0.56215422835E+03  0.10100000352E+00 0.  1.
</event>
<event>
 5   0  0.4255250E-07  0.2144782E+04  0.7818609E-02  0.8541769E-01
        1   -1    0    0  501    0  0.00000000000E+00  0.00000000000E+00  0.90838487185E+03  0.90838487187E+03  0.50400001928E-02 0. -1.
       -1   -1    0    0    0  501  0.00000000000E+00  0.00000000000E+00 -0.12660075430E+04  0.12660075430E+04  0.50400001928E-02 0.  1.
    10030    2    1    2    0    0  0.00000000000E+00  0.00000000000E+00 -0.35762267113E+03  0.21743924149E+04  0.21447816669E+04 0.  0.
        2    1    3    3  502    0 -0.42651826765E+03  0.36736316080E+03 -0.11041827159E+04  0.12393921876E+04  0.25500000920E-02 0.  1.
       -2    1    3    3    0  502  0.42651826765E+03 -0.36736316080E+03  0.74656004477E+03  0.93500022727E+03  0.25500000920E-02 0. -1.
</event>
<event>
 5   0  0.4795023E-07  0.3577253E+04  0.7818609E-02  0.8095722E-01
       -1   -1    0    0    0  501  0.00000000000E+00  0.00000000000E+00  0.22173829221E+04  0.22173829221E+04  0.50400001928E-02 0. -1.
        1   -1    0    0  501    0  0.00000000000E+00  0.00000000000E+00 -0.14427749472E+04  0.14427749472E+04  0.50400001928E-02 0.  1.
    10030    2    1    2    0    0  0.00000000000E+00  0.00000000000E+00  0.77460797494E+03  0.36601578694E+04  0.35772528725E+04 0.  0.
        3    1    3    3  502    0  0.74704290732E+03  0.55028726431E+01  0.20501079389E+04  0.21819821169E+04  0.10100000352E+00 0. -1.
       -3    1    3    3    0  502 -0.74704290732E+03 -0.55028726431E+01 -0.12754999640E+04  0.14781757525E+04  0.10100000352E+00 0.  1.
</event>
<event>
 5   0  0.1184616E-06  0.3725653E+04  0.7818609E-02  0.8062300E-01
        2   -1    0    0  501    0  0.00000000000E+00  0.00000000000E+00  0.24830870706E+04  0.24830870706E+04  0.25500000920E-02 0.  1.
       -2   -1    0    0    0  501  0.00000000000E+00  0.00000000000E+00 -0.13975037247E+04  0.13975037247E+04  0.25500000920E-02 0. -1.
    10030    2    1    2    0    0  0.00000000000E+00  0.00000000000E+00  0.10855833459E+04  0.38805907953E+04  0.37256534621E+04 0.  0.
        5    1    3    3  502    0  0.12747504757E+04  0.10141434307E+04  0.14840458253E+04  0.22036083533E+04  0.46999998093E+01 0.  1.
       -5    1    3    3    0  502 -0.12747504757E+04 -0.10141434307E+04 -0.39846247939E+03  0.16769824420E+04  0.46999998093E+01 0. -1.
</event>
<event>
 5   0  0.1337854E-06  0.2195259E+04  0.7818609E-02  0.8520404E-01
        2   -1    0    0  501    0  0.00000000000E+00  0.00000000000E+00  0.17566232994E+04  0.17566232994E+04  0.25500000920E-02 0. -1.
       -2   -1    0    0    0  501  0.00000000000E+00  0.00000000000E+00 -0.68585623781E+03  0.68585623782E+03  0.25500000920E-02 0.  1.
    10030    2    1    2    0    0  0.00000000000E+00  0.00000000000E+00  0.10707670616E+04  0.24424795372E+04  0.21952594811E+04 0.  0.
        3    1    3    3  502    0  0.16834020721E+03  0.10811127084E+04  0.63268442705E+03  0.12638958454E+04  0.10100000352E+00 0.  1.
       -3    1    3    3    0  502 -0.16834020721E+03 -0.10811127084E+04  0.43808263453E+03  0.11785836918E+04  0.10100000352E+00 0. -1.
</event>
<event>
 5   0  0.1214844E-06  0.3036716E+04  0.7818609E-02  0.8233323E-01
        2   -1    0    0  501    0  0.00000000000E+00  0.00000000000E+00  0.21826948372E+04  0.21826948372E+04  0.25500000920E-02 0.  1.
       -2   -1    0    0    0  501  0.00000000000E+00  0.00000000000E+00 -0.10562222885E+04  0.10562222885E+04  0.25500000920E-02 0. -1.
    10030    2    1    2    0    0  0.00000000000E+00  0.00000000000E+00  0.11264725487E+04  0.32389171257E+04  0.30367159473E+04 0.  0.
        4    1    3    3  502    0 -0.14822948196E+04 -0.27121618588E+03  0.76178502510E+03  0.16885124190E+04  0.12699999809E+01 0.  1.
       -4    1    3    3    0  502  0.14822948196E+04  0.27121618588E+03  0.36468752360E+03  0.15504047067E+04  0.12699999809E+01 0. -1.
</event>
<event>
 5   0  0.1337854E-06  0.3764413E+04  0.7818609E-02  0.8053835E-01
        2   -1    0    0  501    0  0.00000000000E+00  0.00000000000E+00  0.20944059294E+04  0.20944059294E+04  0.25500000920E-02 0. -1.
       -2   -1    0    0    0  501  0.00000000000E+00  0.00000000000E+00 -0.16915063544E+04  0.16915063544E+04  0.25500000920E-02 0.  1.
    10030    2    1    2    0    0  0.00000000000E+00  0.00000000000E+00  0.40289957499E+03  0.37859122838E+04  0.37644128033E+04 0.  0.
        3    1    3    3  502    0  0.18236489868E+04  0.66323896680E+02  0.66517586096E+03  0.19423062124E+04  0.10100000352E+00 0.  1.
       -3    1    3    3    0  502 -0.18236489868E+04 -0.66323896680E+02 -0.26227628597E+03  0.18436060715E+04  0.10100000352E+00 0. -1.
</event>
<event>
 5   0  0.8030324E-07  0.2465493E+04  0.7818609E-02  0.8415383E-01
        1   -1    0    0  501    0  0.00000000000E+00  0.00000000000E+00  0.69922813285E+03  0.69922813287E+03  0.50400001928E-02 0. -1.
       -1   -1    0    0    0  501  0.00000000000E+00  0.00000000000E+00 -0.21733448149E+04  0.21733448149E+04  0.50400001928E-02 0.  1.
    10030    2    1    2    0    0  0.00000000000E+00  0.00000000000E+00 -0.14741166821E+04  0.28725729478E+04  0.24654929219E+04 0.  0.
        1    1    3    3  502    0 -0.66458648205E+03  0.43769842396E+03 -0.18340019940E+04  0.19992044459E+04  0.50400001928E-02 0.  1.
       -1    1    3    3    0  502  0.66458648205E+03 -0.43769842396E+03  0.35988531189E+03  0.87336850195E+03  0.50400001928E-02 0. -1.
</event>
<event>
 5   0  0.8030324E-07  0.3859064E+04  0.7818609E-02  0.8033597E-01
        1   -1    0    0  501    0  0.00000000000E+00  0.00000000000E+00  0.13058083274E+04  0.13058083274E+04  0.50400001928E-02 0.  1.
       -1   -1    0    0    0  501  0.00000000000E+00  0.00000000000E+00 -0.28511794370E+04  0.28511794370E+04  0.50400001928E-02 0. -1.
    10030    2    1    2    0    0  0.00000000000E+00  0.00000000000E+00 -0.15453711096E+04  0.41569877644E+04  0.38590640585E+04 0.  0.
        1    1    3    3  502    0  0.15626590835E+04  0.59665635263E+03  0.26344053118E+03  0.16933112909E+04  0.50400001928E-02 0.  1.
       -1    1    3    3    0  502 -0.15626590835E+04 -0.59665635263E+03 -0.18088116408E+04  0.24636764735E+04  0.50400001928E-02 0. -1.
</event>
<event>
 5   0  0.1337854E-06  0.1949822E+04  0.7818609E-02  0.8630447E-01
       -2   -1    0    0    0  501  0.00000000000E+00  0.00000000000E+00  0.68197264522E+03  0.68197264523E+03  0.25500000920E-02 0.  1.
        2   -1    0    0  501    0  0.00000000000E+00  0.00000000000E+00 -0.13936797811E+04  0.13936797811E+04  0.25500000920E-02 0. -1.
    10030    2    1    2    0    0  0.00000000000E+00  0.00000000000E+00 -0.71170713584E+03  0.20756524263E+04  0.19498220297E+04 0.  0.
        3    1    3    3  502    0  0.89149218289E+03  0.14340065669E+03  0.35468742338E+02  0.90364821827E+03  0.10100000352E+00 0.  1.
       -3    1    3    3    0  502 -0.89149218289E+03 -0.14340065669E+03 -0.74717587818E+03  0.11720042080E+04  0.10100000352E+00 0. -1.
</event>
<event>
 5   0  0.5284458E-07  0.3750349E+04  0.7818609E-02  0.8056895E-01
       -1   -1    0    0    0  501  0.00000000000E+00  0.00000000000E+00  0.13191895100E+04  0.13191895100E+04  0.50400001928E-02 0. -1.
        1   -1    0    0  501    0  0.00000000000E+00  0.00000000000E+00 -0.26654845592E+04  0.26654845592E+04  0.50400001928E-02 0.  1.
    10030    2    1    2    0    0  0.00000000000E+00  0.00000000000E+00 -0.13462950492E+04  0.39846740692E+04  0.37503489275E+04 0.  0.
        5    1    3    3  502    0 -0.18519912020E+04  0.24724967733E+03 -0.84198962601E+03  0.20493834282E+04  0.46999998093E+01 0.  1.
       -5    1    3    3    0  502  0.18519912020E+04 -0.24724967733E+03 -0.50430542322E+03  0.19352906410E+04  0.46999998093E+01 0. -1.
</event>
<event>
 5   0  0.1184616E-06  0.3758499E+04  0.7818609E-02  0.8055120E-01
       -2   -1    0    0    0  501  0.00000000000E+00  0.00000000000E+00  0.12537222928E+04  0.12537222928E+04  0.25500000920E-02 0.  1.
        2   -1    0    0  501    0  0.00000000000E+00  0.00000000000E+00 -0.28168750736E+04  0.28168750736E+04  0.25500000920E-02 0. -1.
    10030    2    1    2    0    0  0.00000000000E+00  0.00000000000E+00 -0.15631527808E+04  0.40705973663E+04  0.37584992088E+04 0.  0.
        5    1    3    3  502    0  0.11623179971E+04  0.70127734835E+03 -0.21890191112E+04  0.25757716911E+04  0.46999998093E+01 0. -1.
       -5    1    3    3    0  502 -0.11623179971E+04 -0.70127734835E+03  0.62586633037E+03  0.14948256752E+04  0.46999998093E+01 0.  1.
</event>
<event>
 5   0  0.1337854E-06  0.3815328E+04  0.7818609E-02  0.8042873E-01
        2   -1    0    0  501    0  0.00000000000E+00  0.00000000000E+00  0.22373868523E+04  0.22373868523E+04  0.25500000920E-02 0. -1.
       -2   -1    0    0    0  501  0.00000000000E+00  0.00000000000E+00 -0.16265324002E+04  0.16265324002E+04  0.25500000920E-02 0.  1.
    10030    2    1    2    0    0  0.00000000000E+00  0.00000000000E+00  0.61085445209E+03  0.38639192525E+04  0.38153281416E+04 0.  0.
        3    1    3    3  502    0  0.17599536953E+04 -0.39337794909E+03 -0.32458801275E+03  0.18323593012E+04  0.10100000352E+00 0.  1.
       -3    1    3    3    0  502 -0.17599536953E+04  0.39337794909E+03  0.93544246484E+03  0.20315599513E+04  0.10100000352E+00 0. -1.
</event>
<event>
 5   0  0.5284458E-07  0.3860071E+04  0.7818609E-02  0.8033385E-01
       -1   -1    0    0    0  501  0.00000000000E+00  0.00000000000E+00  0.14810647399E+04  0.14810647399E+04  0.50400001928E-02 0. -1.
        1   -1    0    0  501    0  0.00000000000E+00  0.00000000000E+00 -0.25151074966E+04  0.25151074966E+04  0.50400001928E-02 0.  1.
    10030    2    1    2    0    0  0.00000000000E+00  0.00000000000E+00 -0.10340427567E+04  0.39961722365E+04  0.38600709995E+04 0.  0.
        5    1    3    3  502    0 -0.69747593188E+03  0.15388793207E+04 -0.14828643539E+04  0.22480060101E+04  0.46999998093E+01 0.  1.
       -5    1    3    3    0  502  0.69747593188E+03 -0.15388793207E+04  0.44882159720E+03  0.17481662265E+04  0.46999998093E+01 0. -1.
</event>
<event>
 5   0  0.1214844E-06  0.3797979E+04  0.7818609E-02  0.8046589E-01
        2   -1    0    0  501    0  0.00000000000E+00  0.00000000000E+00  0.22409255277E+04  0.22409255277E+04  0.25500000920E-02 0.  1.
       -2   -1    0    0    0  501  0.00000000000E+00  0.00000000000E+00 -0.16092284218E+04  0.16092284218E+04  0.25500000920E-02 0. -1.
    10030    2    1    2    0    0  0.00000000000E+00  0.00000000000E+00  0.63169710594E+03  0.38501539495E+04  0.37979789627E+04 0.  0.
        4    1    3    3  502    0 -0.15271203934E+04  0.34881710659E+03 -0.77239264159E+03  0.17465285785E+04  0.12699999809E+01 0. -1.
       -4    1    3    3    0  502  0.15271203934E+04 -0.34881710659E+03  0.14040897475E+04  0.21036253711E+04  0.12699999809E+01 0.  1.
</event>
<event>
 5   0  0.1184616E-06  0.3824156E+04  0.7818609E-02  0.8040991E-01
        2   -1    0    0  501    0  0.00000000000E+00  0.00000000000E+00  0.26130635316E+04  0.26130635316E+04  0.25500000920E-02 0.  1.
       -2   -1    0    0    0  501  0.00000000000E+00  0.00000000000E+00 -0.13991401786E+04  0.13991401786E+04  0.25500000920E-02 0. -1.
    10030    2    1    2    0    0  0.00000000000E+00  0.00000000000E+00  0.12139233530E+04  0.40122037102E+04  0.38241559468E+04 0.  0.
        5    1    3    3  502    0 -0.30682970201E+03  0.18868758208E+04  0.56532048756E+03  0.19935029904E+04  0.46999998093E+01 0.  1.
       -5    1    3    3    0  502  0.30682970201E+03 -0.18868758208E+04  0.64860286547E+03  0.20187007198E+04  0.46999998093E+01 0. -1.
</event>
<event>
 5   0  0.4255250E-07  0.2673083E+04  0.7818609E-02  0.8343792E-01
       -1   -1    0    0    0  501  0.00000000000E+00  0.00000000000E+00  0.10342971932E+04  0.10342971932E+04  0.50400001928E-02 0. -1.
        1   -1    0    0  501    0  0.00000000000E+00  0.00000000000E+00 -0.17271087359E+04  0.17271087359E+04  0.50400001928E-02 0.  1.
    10030    2    1    2    0    0  0.00000000000E+00  0.00000000000E+00 -0.69281154272E+03  0.27614059292E+04  0.26730834016E+04 0.  0.
        2    1    3    3  502    0  0.33771848912E+03 -0.63925175465E+03  0.81485739817E+03  0.10893526349E+04  0.25500000920E-02 0. -1.
       -2    1    3    3    0  502 -0.33771848912E+03  0.63925175465E+03 -0.15076689409E+04  0.16720532943E+04  0.25500000920E-02 0.  1.
</event>
<event>
 5   0  0.8030324E-07  0.3802877E+04  0.7818609E-02  0.8045538E-01
       -1   -1    0    0    0  501  0.00000000000E+00  0.00000000000E+00  0.26659282802E+04  0.26659282802E+04  0.50400001928E-02 0. -1.
        1   -1    0    0  501    0  0.00000000000E+00  0.00000000000E+00 -0.13561759151E+04  0.13561759152E+04  0.50400001928E-02 0.  1.
    10030    2    1    2    0    0  0.00000000000E+00  0.00000000000E+00  0.13097523650E+04  0.40221041953E+04  0.38028766612E+04 0.  0.
        1    1    3    3  502    0  0.19652879837E+03 -0.88186850038E+03 -0.11146391341E+04  0.14348296135E+04  0.50400001928E-02 0.  1.
       -1    1    3    3    0  502 -0.19652879837E+03  0.88186850038E+03  0.24243914991E+04  0.25872745818E+04  0.50400001928E-02 0. -1.
</event>
<event>
 5   0  0.5284458E-07  0.2848773E+04  0.7818609E-02  0.8288284E-01
       -1   -1    0    0    0  501  0.00000000000E+00  0.00000000000E+00  0.82155367488E+03  0.82155367489E+03  0.50400001928E-02 0.  1.
        1   -1    0    0  501    0  0.00000000000E+00  0.00000000000E+00 -0.24695613611E+04  0.24695613611E+04  0.50400001928E-02 0. -1.
    10030    2    1    2    0    0  0.00000000000E+00  0.00000000000E+00 -0.16480076862E+04  0.32911150360E+04  0.28487732178E+04 0.  0.
        5    1    3    3  502    0  0.11587381803E+04  0.38787936451E+03  0.21583339157E+02  0.12221344044E+04  0.46999998093E+01 0.  1.
       -5    1    3    3    0  502 -0.11587381803E+04 -0.38787936451E+03 -0.16695910254E+04  0.20689806316E+04  0.46999998093E+01 0. -1.
</event>
<event>
 5   0  0.1337854E-06  0.3639463E+04  0.7818609E-02  0.8081512E-01
        2   -1    0    0  501    0  0.00000000000E+00  0.00000000000E+00  0.18091825914E+04  0.18091825914E+04  0.25500000920E-02 0.  1.
       -2   -1    0    0    0  501  0.00000000000E+00  0.00000000000E+00 -0.18303420347E+04  0.18303420347E+04  0.25500000920E-02 0. -1.
    10030    2    1    2    0    0  0.00000000000E+00  0.00000000000E+00 -0.21159443313E+02  0.36395246262E+04  0.36394631173E+04 0.  0.
        3    1    3    3  502    0  0.36098005571E+03  0.10738701498E+04 -0.14346540816E+04  0.18280415868E+04  0.10100000352E+00 0. -1.
       -3    1    3    3    0  502 -0.36098005571E+03 -0.10738701498E+04  0.14134946383E+04  0.18114830393E+04  0.10100000352E+00 0.  1.
</event>
<event>
 5   0  0.4833838E-07  0.1873930E+04  0.7818609E-02  0.8667943E-01
        1   -1    0    0  501    0  0.00000000000E+00  0.00000000000E+00  0.72596524140E+03  0.72596524142E+03  0.50400001928E-02 0.  1.
       -1   -1    0    0    0  501  0.00000000000E+00  0.00000000000E+00 -0.12092914383E+04  0.12092914383E+04  0.50400001928E-02 0. -1.
    10030    2    1    2    0    0  0.00000000000E+00  0.00000000000E+00 -0.48332619687E+03  0.19352566797E+04  0.18739301491E+04 0.  0.
        3    1    3    3  502    0  0.78394832864E+03  0.45799348807E+03 -0.26354590774E+01  0.90793170060E+03  0.10100000352E+00 0. -1.
       -3    1    3    3    0  502 -0.78394832864E+03 -0.45799348807E+03 -0.48069073779E+03  0.10273249791E+04  0.10100000352E+00 0.  1.
</event>
<event>
 5   0  0.1372748E-06  0.3716764E+04  0.7818609E-02  0.8064257E-01
        2   -1    0    0  501    0  0.00000000000E+00  0.00000000000E+00  0.25148743856E+04  0.25148743856E+04  0.25500000920E-02 0.  1.
       -2   -1    0    0    0  501  0.00000000000E+00  0.00000000000E+00 -0.13732630976E+04  0.13732630976E+04  0.25500000920E-02 0. -1.
    10030    2    1    2    0    0  0.00000000000E+00  0.00000000000E+00  0.11416112880E+04  0.38881374832E+04  0.37167642857E+04 0.  0.
        1    1    3    3  502    0  0.10619908670E+04 -0.14134757039E+04 -0.28173295819E+02  0.17682001871E+04  0.50400001928E-02 0. -1.
       -1    1    3    3    0  502 -0.10619908670E+04  0.14134757039E+04  0.11697845838E+04  0.21199372961E+04  0.50400001928E-02 0.  1.
</event>
<event>
 5   0  0.5960829E-07  0.2067140E+04  0.7818609E-02  0.8575858E-01
       -1   -1    0    0    0  501  0.00000000000E+00  0.00000000000E+00  0.91667224925E+03  0.91667224927E+03  0.50400001928E-02 0.  1.
        1   -1    0    0  501    0  0.00000000000E+00  0.00000000000E+00 -0.11653755843E+04  0.11653755843E+04  0.50400001928E-02 0. -1.
    10030    2    1    2    0    0  0.00000000000E+00  0.00000000000E+00 -0.24870333505E+03  0.20820478336E+04  0.20671404965E+04 0.  0.
        5    1    3    3  502    0 -0.11761379212E+03  0.38833977317E+03 -0.10817880368E+04  0.11553909425E+04  0.46999998093E+01 0. -1.
       -5    1    3    3    0  502  0.11761379212E+03 -0.38833977317E+03  0.83308470173E+03  0.92665689107E+03  0.46999998093E+01 0.  1.
</event>
<event>
 5   0  0.4255250E-07  0.3573923E+04  0.7818609E-02  0.8096491E-01
       -1   -1    0    0    0  501  0.00000000000E+00  0.00000000000E+00  0.27927810376E+04  0.27927810376E+04  0.50400001928E-02 0. -1.
        1   -1    0    0  501    0  0.00000000000E+00  0.00000000000E+00 -0.11433877839E+04  0.11433877840E+04  0.50400001928E-02 0.  1.
    10030    2    1    2    0    0  0.00000000000E+00  0.00000000000E+00  0.16493932536E+04  0.39361688215E+04  0.35739231786E+04 0.  0.
        2    1    3    3  502    0 -0.15553639927E+03  0.54088051475E+03  0.26926232788E+04  0.27508114120E+04  0.25500000920E-02 0. -1.
       -2    1    3    3    0  502  0.15553639927E+03 -0.54088051475E+03 -0.10432300252E+04  0.11853574095E+04  0.25500000920E-02 0.  1.
</event>
<event>
 5   0  0.1184616E-06  0.2701642E+04  0.7818609E-02  0.8334472E-01
        2   -1    0    0  501    0  0.00000000000E+00  0.00000000000E+00  0.17474347083E+04  0.17474347084E+04  0.25500000920E-02 0.  1.
       -2   -1    0    0    0  501  0.00000000000E+00  0.00000000000E+00 -0.10442263069E+04  0.10442263069E+04  0.25500000920E-02 0. -1.
    10030    2    1    2    0    0  0.00000000000E+00  0.00000000000E+00  0.70320840149E+03  0.27916610152E+04  0.27016419392E+04 0.  0.
        5    1    3    3  502    0  0.37185984810E+03 -0.86517156074E+03 -0.64911373681E+03  0.11437536052E+04  0.46999998093E+01 0. -1.
       -5    1    3    3    0  502 -0.37185984810E+03  0.86517156074E+03  0.13523221383E+04  0.16479074100E+04  0.46999998093E+01 0.  1.
</event>
<event>
 5   0  0.1184616E-06  0.3613256E+04  0.7818609E-02  0.8087462E-01
        2   -1    0    0  501    0  0.00000000000E+00  0.00000000000E+00  0.18008492620E+04  0.18008492620E+04  0.25500000920E-02 0. -1.
       -2   -1    0    0    0  501  0.00000000000E+00  0.00000000000E+00 -0.18124248269E+04  0.18124248269E+04  0.25500000920E-02 0.  1.
    10030    2    1    2    0    0  0.00000000000E+00  0.00000000000E+00 -0.11575564963E+02  0.36132740889E+04  0.36132555470E+04 0.  0.
        5    1    3    3  502    0  0.20745617495E+03  0.14237649688E+04 -0.10983761417E+04  0.18101372847E+04  0.46999998093E+01 0. -1.
       -5    1    3    3    0  502 -0.20745617495E+03 -0.14237649688E+04  0.10868005767E+04  0.18031368042E+04  0.46999998093E+01 0.  1.
</event>
<event>
 5   0  0.1184616E-06  0.3733592E+04  0.7818609E-02  0.8060558E-01
        2   -1    0    0  501    0  0.00000000000E+00  0.00000000000E+00  0.24164286246E+04  0.24164286246E+04  0.25500000920E-02 0. -1.
       -2   -1    0    0    0  501  0.00000000000E+00  0.00000000000E+00 -0.14421808596E+04  0.14421808596E+04  0.25500000920E-02 0.  1.
    10030    2    1    2    0    0  0.00000000000E+00  0.00000000000E+00  0.97424776501E+03  0.38586094842E+04  0.37335918957E+04 0.  0.
        5    1    3    3  502    0 -0.16054202080E+04 -0.43322143646E+03  0.13639733370E+04  0.21506976104E+04  0.46999998093E+01 0. -1.
       -5    1    3    3    0  502  0.16054202080E+04  0.43322143646E+03 -0.38972557195E+03  0.17079118738E+04  0.46999998093E+01 0.  1.
</event>
<event>
 5   0  0.1079205E-06  0.2050187E+04  0.7818609E-02  0.8583509E-01
        1   -1    0    0  501    0  0.00000000000E+00  0.00000000000E+00  0.13854840524E+04  0.13854840524E+04  0.50400001928E-02 0. -1.
       -1   -1    0    0    0  501  0.00000000000E+00  0.00000000000E+00 -0.75844758980E+03  0.75844758981E+03  0.50400001928E-02 0.  1.
    10030    2    1    2    0    0  0.00000000000E+00  0.00000000000E+00  0.62703646258E+03  0.21439316422E+04  0.20501873478E+04 0.  0.
        4    1    3    3  502    0 -0.10196451306E+04 -0.26062653172E+02  0.42046869467E+03  0.11032456618E+04  0.12699999809E+01 0.  1.
       -4    1    3    3    0  502  0.10196451306E+04  0.26062653172E+02  0.20656776791E+03  0.10406859804E+04  0.12699999809E+01 0. -1.
</event>
<event>
 5   0  0.1341932E-06  0.3673284E+04  0.7818609E-02  0.8073908E-01
       -2   -1    0    0    0  501  0.00000000000E+00  0.00000000000E+00  0.13243017869E+04  0.13243017869E+04  0.25500000920E-02 0. -1.
        2   -1    0    0  501    0  0.00000000000E+00  0.00000000000E+00 -0.25471937561E+04  0.25471937561E+04  0.25500000920E-02 0.  1.
    10030    2    1    2    0    0  0.00000000000E+00  0.00000000000E+00 -0.12228919692E+04  0.38714955429E+04  0.36732836769E+04 0.  0.
        2    1    3    3  502    0 -0.43277218230E+03  0.87799883052E+03 -0.22493559058E+04  0.24531155087E+04  0.25500000920E-02 0.  1.
       -2    1    3    3    0  502  0.43277218230E+03 -0.87799883052E+03  0.10264639366E+04  0.14183800342E+04  0.25500000920E-02 0. -1.
</event>
<event>
 5   0  0.1337854E-06  0.2547393E+04  0.7818609E-02  0.8386294E-01
       -2   -1    0    0    0  501  0.00000000000E+00  0.00000000000E+00  0.14263890188E+04  0.14263890188E+04  0.25500000920E-02 0.  1.
        2   -1    0    0  501    0  0.00000000000E+00  0.00000000000E+00 -0.11373491540E+04  0.11373491540E+04  0.25500000920E-02 0. -1.
    10030    2    1    2    0    0  0.00000000000E+00  0.00000000000E+00  0.28903986480E+03  0.25637381729E+04  0.25473926622E+04 0.  0.
        3    1    3    3  502    0 -0.10805409507E+03  0.98457701889E+03  0.95042947449E+03  0.13727285929E+04  0.10100000352E+00 0.  1.
       -3    1    3    3    0  502  0.10805409507E+03 -0.98457701889E+03 -0.66138960969E+03  0.11910095800E+04  0.10100000352E+00 0. -1.
</event>
<event>
 5   0  0.4795023E-07  0.2096989E+04  0.7818609E-02  0.8562571E-01
       -1   -1    0    0    0  501  0.00000000000E+00  0.00000000000E+00  0.57278585005E+03  0.57278585007E+03  0.50400001928E-02 0.  1.
        1   -1    0    0  501    0  0.00000000000E+00  0.00000000000E+00 -0.19192880073E+04  0.19192880073E+04  0.50400001928E-02 0. -1.
    10030    2    1    2    0    0  0.00000000000E+00  0.00000000000E+00 -0.13465021573E+04  0.24920738574E+04  0.20969892826E+04 0.  0.
        3    1    3    3  502    0  0.64566085569E+03  0.47538721570E+03  0.12966627734E+03  0.81220951676E+03  0.10100000352E+00 0.  1.
       -3    1    3    3    0  502 -0.64566085569E+03 -0.47538721570E+03 -0.14761684346E+04  0.16798643407E+04  0.10100000352E+00 0. -1.
</event>
<event>
 5   0  0.1337854E-06  0.3282243E+04  0.7818609E-02  0.8167428E-01
       -2   -1    0    0    0  501  0.00000000000E+00  0.00000000000E+00  0.15729931498E+04  0.15729931498E+04  0.25500000920E-02 0. -1.
        2   -1    0    0  501    0  0.00000000000E+00  0.00000000000E+00 -0.17122009422E+04  0.17122009422E+04  0.25500000920E-02 0.  1.
    10030    2    1    2    0    0  0.00000000000E+00  0.00000000000E+00 -0.13920779247E+03  0.32851940920E+04  0.32822433506E+04 0.  0.
        3    1    3    3  502    0  0.10189442623E+04  0.32410402792E+03 -0.13157088881E+04  0.16953998699E+04  0.10100000352E+00 0.  1.
       -3    1    3    3    0  502 -0.10189442623E+04 -0.32410402792E+03  0.11765010956E+04  0.15897942221E+04  0.10100000352E+00 0. -1.
</event>
<event>
 5   0  0.8030324E-07  0.2149185E+04  0.7818609E-02  0.8539881E-01
       -1   -1    0    0    0  501  0.00000000000E+00  0.00000000000E+00  0.99893001776E+03  0.99893001777E+03  0.50400001928E-02 0. -1.
        1   -1    0    0  501    0  0.00000000000E+00  0.00000000000E+00 -0.11559855262E+04  0.11559855262E+04  0.50400001928E-02 0.  1.
    10030    2    1    2    0    0  0.00000000000E+00  0.00000000000E+00 -0.15705550842E+03  0.21549155440E+04  0.21491846288E+04 0.  0.
        1    1    3    3  502    0  0.42491797026E+03  0.41669847851E+03  0.81859591620E+03  0.10120732076E+04  0.50400001928E-02 0. -1.
       -1    1    3    3    0  502 -0.42491797026E+03 -0.41669847851E+03 -0.97565142462E+03  0.11428423364E+04  0.50400001928E-02 0.  1.
</event>
<event>
 5   0  0.1184616E-06  0.2267213E+04  0.7818609E-02  0.8490962E-01
        2   -1    0    0  501    0  0.00000000000E+00  0.00000000000E+00  0.49442904201E+03  0.49442904202E+03  0.25500000920E-02 0. -1.
       -2   -1    0    0    0  501  0.00000000000E+00  0.00000000000E+00 -0.25990859007E+04  0.25990859007E+04  0.25500000920E-02 0.  1.
    10030    2    1    2    0    0  0.00000000000E+00  0.00000000000E+00 -0.21046568587E+04  0.30935149427E+04  0.22672128722E+04 0.  0.
        5    1    3    3  502    0  0.65457023528E+03 -0.88718417187E+03 -0.69266125137E+03  0.13020597709E+04  0.46999998093E+01 0.  1.
       -5    1    3    3    0  502 -0.65457023528E+03  0.88718417187E+03 -0.14119956073E+04  0.17914551719E+04  0.46999998093E+01 0. -1.
</event>
<event>
 5   0  0.5284458E-07  0.3814470E+04  0.7818609E-02  0.8043057E-01
        1   -1    0    0  501    0  0.00000000000E+00  0.00000000000E+00  0.14481443960E+04  0.14481443960E+04  0.50400001928E-02 0.  1.
       -1   -1    0    0    0  501  0.00000000000E+00  0.00000000000E+00 -0.25118661842E+04  0.25118661842E+04  0.50400001928E-02 0. -1.
    10030    2    1    2    0    0  0.00000000000E+00  0.00000000000E+00 -0.10637217882E+04  0.39600105802E+04  0.38144697865E+04 0.  0.
        5    1    3    3  502    0 -0.11317341286E+04 -0.45393983160E+03  0.99059934659E+03  0.15710482692E+04  0.46999998093E+01 0.  1.
       -5    1    3    3    0  502  0.11317341286E+04  0.45393983160E+03 -0.20543211348E+04  0.23889623110E+04  0.46999998093E+01 0. -1.
</event>
<event>
 5   0  0.1341932E-06  0.2405593E+04  0.7818609E-02  0.8437413E-01
        2   -1    0    0  501    0  0.00000000000E+00  0.00000000000E+00  0.27503375137E+04  0.27503375137E+04  0.25500000920E-02 0. -1.
       -2   -1    0    0    0  501  0.00000000000E+00  0.00000000000E+00 -0.52601517878E+03  0.52601517879E+03  0.25500000920E-02 0.  1.
    10030    2    1    2    0    0  0.00000000000E+00  0.00000000000E+00  0.22243223349E+04  0.32763526924E+04  0.24055928824E+04 0.  0.
        2    1    3    3  502    0  0.63399129162E+03 -0.70644669879E+03  0.21182780374E+04  0.23212310828E+04  0.25500000920E-02 0. -1.
       -2    1    3    3    0  502 -0.63399129162E+03  0.70644669879E+03  0.10604429744E+03  0.95512160960E+03  0.25500000920E-02 0.  1.
</event>
<event>
 5   0  0.4255250E-07  0.3888839E+04  0.7818609E-02  0.8027354E-01
        1   -1    0    0  501    0  0.00000000000E+00  0.00000000000E+00  0.25990027218E+04  0.25990027218E+04  0.50400001928E-02 0.  1.
       -1   -1    0    0    0  501  0.00000000000E+00  0.00000000000E+00 -0.14546994905E+04  0.14546994905E+04  0.50400001928E-02 0. -1.
    10030    2    1    2    0    0  0.00000000000E+00  0.00000000000E+00  0.11443032313E+04  0.40537022123E+04  0.38888393823E+04 0.  0.
        2    1    3    3  502    0 -0.10857209201E+04 -0.11722414955E+04  0.17272010819E+04  0.23529053567E+04  0.25500000920E-02 0.  1.
       -2    1    3    3    0  502  0.10857209201E+04  0.11722414955E+04 -0.58289785059E+03  0.17007968557E+04  0.25500000920E-02 0. -1.
</event>
<event>
 5   0  0.1184616E-06  0.2268505E+04  0.7818609E-02  0.8490443E-01
        2   -1    0    0  501    0  0.00000000000E+00  0.00000000000E+00  0.13144741015E+04  0.13144741015E+04  0.25500000920E-02 0. -1.
       -2   -1    0    0    0  501  0.00000000000E+00  0.00000000000E+00 -0.97874065189E+03  0.97874065189E+03  0.25500000920E-02 0.  1.
    10030    2    1    2    0    0  0.00000000000E+00  0.00000000000E+00  0.33573344964E+03  0.22932147534E+04  0.22685054455E+04 0.  0.
        5    1    3    3  502    0 -0.10085339426E+04  0.11310761468E+03 -0.34418102787E+03  0.10716420652E+04  0.46999998093E+01 0.  1.
       -5    1    3    3    0  502  0.10085339426E+04 -0.11310761468E+03  0.67991447752E+03  0.12215726882E+04  0.46999998093E+01 0. -1.
</event>
<event>
 5   0  0.1372748E-06  0.3720867E+04  0.7818609E-02  0.8063353E-01
       -2   -1    0    0    0  501  0.00000000000E+00  0.00000000000E+00  0.22823828800E+04  0.22823828800E+04  0.25500000920E-02 0. -1.
        2   -1    0    0  501    0  0.00000000000E+00  0.00000000000E+00 -0.15164910269E+04  0.15164910269E+04  0.25500000920E-02 0.  1.
    10030    2    1    2    0    0  0.00000000000E+00  0.00000000000E+00  0.76589185315E+03  0.37988739069E+04  0.37208671879E+04 0.  0.
        1    1    3    3  502    0  0.11057801488E+04  0.13968988151E+04 -0.16413979492E+03  0.17891388737E+04  0.50400001928E-02 0.  1.
       -1    1    3    3    0  502 -0.11057801488E+04 -0.13968988151E+04  0.93003164807E+03  0.20097350332E+04  0.50400001928E-02 0. -1.
</event>
<event>
 5   0  0.1184616E-06  0.3859639E+04  0.7818609E-02  0.8033476E-01
       -2   -1    0    0    0  501  0.00000000000E+00  0.00000000000E+00  0.15343667436E+04  0.15343667436E+04  0.25500000920E-02 0.  1.
        2   -1    0    0  501    0  0.00000000000E+00  0.00000000000E+00 -0.24271927290E+04  0.24271927290E+04  0.25500000920E-02 0. -1.
    10030    2    1    2    0    0  0.00000000000E+00  0.00000000000E+00 -0.89282598538E+03  0.39615594726E+04  0.38596392596E+04 0.  0.
        5    1    3    3  502    0 -0.20791860891E+03  0.19180701221E+04 -0.40098858463E+03  0.19705423305E+04  0.46999998093E+01 0.  1.
       -5    1    3    3    0  502  0.20791860891E+03 -0.19180701221E+04 -0.49183740076E+03  0.19910171421E+04  0.46999998093E+01 0. -1.
</event>
<event>
 5   0  0.1184616E-06  0.2132770E+04  0.7818609E-02  0.8546944E-01
        2   -1    0    0  501    0  0.00000000000E+00  0.00000000000E+00  0.11130575217E+04  0.11130575217E+04  0.25500000920E-02 0.  1.
       -2   -1    0    0    0  501  0.00000000000E+00  0.00000000000E+00 -0.10216692703E+04  0.10216692703E+04  0.25500000920E-02 0. -1.
    10030    2    1    2    0    0  0.00000000000E+00  0.00000000000E+00  0.91388251425E+02  0.21347267920E+04  0.21327697166E+04 0.  0.
        5    1    3    3  502    0 -0.35732553697E+03  0.60519506338E+03  0.84843503272E+03  0.11017289589E+04  0.46999998093E+01 0.  1.
       -5    1    3    3    0  502  0.35732553697E+03 -0.60519506338E+03 -0.75704678129E+03  0.10329978331E+04  0.46999998093E+01 0. -1.
</event>
<event>
 5   0  0.1184616E-06  0.3694533E+04  0.7818609E-02  0.8069174E-01
        2   -1    0    0  501    0  0.00000000000E+00  0.00000000000E+00  0.10739796071E+04  0.10739796071E+04  0.25500000920E-02 0.  1.
       -2   -1    0    0    0  501  0.00000000000E+00  0.00000000000E+00 -0.31773358449E+04  0.31773358449E+04  0.25500000920E-02 0. -1.
    10030    2    1    2    0    0  0.00000000000E+00  0.00000000000E+00 -0.21033562378E+04  0.42513154520E+04  0.36945332059E+04 0.  0.
        5    1    3    3  502    0  0.91046261949E+03  0.11755078381E+04  0.20970117114E+03  0.15015850059E+04  0.46999998093E+01 0.  1.
       -5    1    3    3    0  502 -0.91046261949E+03 -0.11755078381E+04 -0.23130574089E+04  0.27497304460E+04  0.46999998093E+01 0. -1.
</event>
<event>
 5   0  0.1480346E-06  0.1876780E+04  0.7818609E-02  0.8666502E-01
        1   -1    0    0  501    0  0.00000000000E+00  0.00000000000E+00  0.11075697637E+04  0.11075697637E+04  0.50400001928E-02 0. -1.
       -1   -1    0    0    0  501  0.00000000000E+00  0.00000000000E+00 -0.79505218187E+03  0.79505218189E+03  0.50400001928E-02 0.  1.
    10030    2    1    2    0    0  0.00000000000E+00  0.00000000000E+00  0.31251758186E+03  0.19026219456E+04  0.18767799629E+04 0.  0.
        4    1    3    3  502    0 -0.25002464857E+02  0.37362872364E+03 -0.71602511460E+03  0.80803287310E+03  0.12699999809E+01 0.  1.
       -4    1    3    3    0  502  0.25002464857E+02 -0.37362872364E+03  0.10285426965E+04  0.10945890725E+04  0.12699999809E+01 0. -1.
</event>
<event>
 5   0  0.1372748E-06  0.3724732E+04  0.7818609E-02  0.8062503E-01
       -2   -1    0    0    0  501  0.00000000000E+00  0.00000000000E+00  0.12943796008E+04  0.12943796009E+04  0.25500000920E-02 0. -1.
        2   -1    0    0  501    0  0.00000000000E+00  0.00000000000E+00 -0.26795910471E+04  0.26795910471E+04  0.25500000920E-02 0.  1.
    10030    2    1    2    0    0  0.00000000000E+00  0.00000000000E+00 -0.13852114463E+04  0.39739706480E+04  0.37247324683E+04 0.  0.
        1    1    3    3  502    0  0.66966287476E+01  0.17699592275E+04 -0.13106867112E+04  0.22024305135E+04  0.50400001928E-02 0.  1.
       -1    1    3    3    0  502 -0.66966287476E+01 -0.17699592275E+04 -0.74524735135E+02  0.17715401345E+04  0.50400001928E-02 0. -1.
</event>
<event>
 5   0  0.4795023E-07  0.3819189E+04  0.7818609E-02  0.8042049E-01
        1   -1    0    0  501    0  0.00000000000E+00  0.00000000000E+00  0.15424689468E+04  0.15424689468E+04  0.50400001928E-02 0.  1.
       -1   -1    0    0    0  501  0.00000000000E+00  0.00000000000E+00 -0.23641002856E+04  0.23641002856E+04  0.50400001928E-02 0. -1.
    10030    2    1    2    0    0  0.00000000000E+00  0.00000000000E+00 -0.82163133873E+03  0.39065692324E+04  0.38191890646E+04 0.  0.
        3    1    3    3  502    0 -0.58566237027E+03 -0.17997657161E+04 -0.15124966058E+03  0.18986925804E+04  0.10100000352E+00 0.  1.
       -3    1    3    3    0  502  0.58566237027E+03  0.17997657161E+04 -0.67038167814E+03  0.20078766520E+04  0.10100000352E+00 0. -1.
</event>
<event>
 5   0  0.4795023E-07  0.3797097E+04  0.7818609E-02  0.8046778E-01
        1   -1    0    0  501    0  0.00000000000E+00  0.00000000000E+00  0.15545176933E+04  0.15545176933E+04  0.50400001928E-02 0. -1.
       -1   -1    0    0    0  501  0.00000000000E+00  0.00000000000E+00 -0.23187167350E+04  0.23187167351E+04  0.50400001928E-02 0.  1.
    10030    2    1    2    0    0  0.00000000000E+00  0.00000000000E+00 -0.76419904174E+03  0.38732344284E+04  0.37970968860E+04 0.  0.
        3    1    3    3  502    0  0.70337131471E+02 -0.14264075507E+04  0.89394389555E+03  0.16848505902E+04  0.10100000352E+00 0. -1.
       -3    1    3    3    0  502 -0.70337131471E+02  0.14264075507E+04 -0.16581429373E+04  0.21883838382E+04  0.10100000352E+00 0.  1.
</event>
<event>
 5   0  0.1079205E-06  0.1924713E+04  0.7818609E-02  0.8642652E-01
        1   -1    0    0  501    0  0.00000000000E+00  0.00000000000E+00  0.12288015131E+04  0.12288015131E+04  0.50400001928E-02 0. -1.
       -1   -1    0    0    0  501  0.00000000000E+00  0.00000000000E+00 -0.75368595245E+03  0.75368595247E+03  0.50400001928E-02 0.  1.
    10030    2    1    2    0    0  0.00000000000E+00  0.00000000000E+00  0.47511556065E+03  0.19824874656E+04  0.19247134216E+04 0.  0.
        4    1    3    3  502    0 -0.85613675031E+03  0.43949788728E+03  0.23699572420E+03  0.99110903252E+03  0.12699999809E+01 0.  1.
       -4    1    3    3    0  502  0.85613675031E+03 -0.43949788728E+03  0.23811983645E+03  0.99137843307E+03  0.12699999809E+01 0. -1.
</event>
<event>
 5   0  0.1214844E-06  0.3709637E+04  0.7818609E-02  0.8065830E-01
       -2   -1    0    0    0  501  0.00000000000E+00  0.00000000000E+00  0.20186233582E+04  0.20186233582E+04  0.25500000920E-02 0. -1.
        2   -1    0    0  501    0  0.00000000000E+00  0.00000000000E+00 -0.17043058174E+04  0.17043058174E+04  0.25500000920E-02 0.  1.
    10030    2    1    2    0    0  0.00000000000E+00  0.00000000000E+00  0.31431754085E+03  0.37229291756E+04  0.37096369270E+04 0.  0.
        4    1    3    3  502    0  0.16009274974E+04  0.91568273269E+03 -0.40794545407E+02  0.18447518875E+04  0.12699999809E+01 0. -1.
       -4    1    3    3    0  502 -0.16009274974E+04 -0.91568273269E+03  0.35511208625E+03  0.18781772881E+04  0.12699999809E+01 0.  1.
</event>
<event>
 5   0  0.1337854E-06  0.3812671E+04  0.7818609E-02  0.8043441E-01
       -2   -1    0    0    0  501  0.00000000000E+00  0.00000000000E+00  0.14290770918E+04  0.14290770918E+04  0.25500000920E-02 0. -1.
        2   -1    0    0  501    0  0.00000000000E+00  0.00000000000E+00 -0.25429805631E+04  0.25429805631E+04  0.25500000920E-02 0.  1.
    10030    2    1    2    0    0  0.00000000000E+00  0.00000000000E+00 -0.11139034713E+04  0.39720576549E+04  0.38126711202E+04 0.  0.
        3    1    3    3  502    0  0.56456853477E+01  0.18372599824E+04 -0.27207613085E+02  0.18374701034E+04  0.10100000352E+00 0. -1.
       -3    1    3    3    0  502 -0.56456853477E+01 -0.18372599824E+04 -0.10866958582E+04  0.21345875515E+04  0.10100000352E+00 0.  1.
</event>
<event>
 5   0  0.8030324E-07  0.3461410E+04  0.7818609E-02  0.8122997E-01
       -1   -1    0    0    0  501  0.00000000000E+00  0.00000000000E+00  0.22394163329E+04  0.22394163329E+04  0.50400001928E-02 0.  1.
        1   -1    0    0  501    0  0.00000000000E+00  0.00000000000E+00 -0.13375536564E+04  0.13375536564E+04  0.50400001928E-02 0. -1.
    10030    2    1    2    0    0  0.00000000000E+00  0.00000000000E+00  0.90186267648E+03  0.35769699892E+04  0.34614098308E+04 0.  0.
        1    1    3    3  502    0  0.37148585223E+03 -0.62150050233E+03  0.20753771457E+04  0.21980570760E+04  0.50400001928E-02 0.  1.
       -1    1    3    3    0  502 -0.37148585223E+03  0.62150050233E+03 -0.11735144692E+04  0.13789129132E+04  0.50400001928E-02 0. -1.
</event>
<event>
 5   0  0.1184616E-06  0.3817310E+04  0.7818609E-02  0.8042450E-01
       -2   -1    0    0    0  501  0.00000000000E+00  0.00000000000E+00  0.22316987687E+04  0.22316987687E+04  0.25500000920E-02 0. -1.
        2   -1    0    0  501    0  0.00000000000E+00  0.00000000000E+00 -0.16323726089E+04  0.16323726089E+04  0.25500000920E-02 0.  1.
    10030    2    1    2    0    0  0.00000000000E+00  0.00000000000E+00  0.59932615973E+03  0.38640713776E+04  0.38173100169E+04 0.  0.
        5    1    3    3  502    0 -0.15327450570E+04  0.25444957497E+03  0.14217957009E+04  0.21060809816E+04  0.46999998093E+01 0. -1.
       -5    1    3    3    0  502  0.15327450570E+04 -0.25444957497E+03 -0.82246954120E+03  0.17579903959E+04  0.46999998093E+01 0.  1.
</event>
<event>
 5   0  0.1337854E-06  0.2952109E+04  0.7818609E-02  0.8257540E-01
        2   -1    0    0  501    0  0.00000000000E+00  0.00000000000E+00  0.21706495882E+04  0.21706495882E+04  0.25500000920E-02 0. -1.
       -2   -1    0    0    0  501  0.00000000000E+00  0.00000000000E+00 -0.10037256461E+04  0.10037256461E+04  0.25500000920E-02 0.  1.
    10030    2    1    2    0    0  0.00000000000E+00  0.00000000000E+00  0.11669239420E+04  0.31743752343E+04  0.29521088465E+04 0.  0.
        3    1    3    3  502    0  0.10260367890E+04  0.10197766939E+04  0.26805031149E+03  0.14712399456E+04  0.10100000352E+00 0. -1.
       -3    1    3    3    0  502 -0.10260367890E+04 -0.10197766939E+04  0.89887363055E+03  0.17031352887E+04  0.10100000352E+00 0.  1.
</event>
<event>
 5   0  0.1214844E-06  0.3793043E+04  0.7818609E-02  0.8047649E-01
       -2   -1    0    0    0  501  0.00000000000E+00  0.00000000000E+00  0.25741262737E+04  0.25741262737E+04  0.25500000920E-02 0.  1.
        2   -1    0    0  501    0  0.00000000000E+00  0.00000000000E+00 -0.13972871882E+04  0.13972871882E+04  0.25500000920E-02 0. -1.
    10030    2    1    2    0    0  0.00000000000E+00  0.00000000000E+00  0.11768390855E+04  0.39714134620E+04  0.37930429279E+04 0.  0.
        4    1    3    3  502    0  0.86476032298E+03 -0.12988088655E+04 -0.54027085257E+03  0.16512447100E+04  0.12699999809E+01 0. -1.
       -4    1    3    3    0  502 -0.86476032298E+03  0.12988088655E+04  0.17171099381E+04  0.23201687520E+04  0.12699999809E+01 0.  1.
</event>
<event>
 5   0  0.1341932E-06  0.3795427E+04  0.7818609E-02  0.8047137E-01
       -2   -1    0    0    0  501  0.00000000000E+00  0.00000000000E+00  0.17431365056E+04  0.17431365056E+04  0.25500000920E-02 0. -1.
        2   -1    0    0  501    0  0.00000000000E+00  0.00000000000E+00 -0.20659984615E+04  0.20659984615E+04  0.25500000920E-02 0.  1.
    10030    2    1    2    0    0  0.00000000000E+00  0.00000000000E+00 -0.32286195593E+03  0.38091349671E+04  0.37954274272E+04 0.  0.
        2    1    3    3  502    0 -0.55440188353E+01 -0.54129173708E+03  0.16640085319E+04  0.17498433859E+04  0.25500000920E-02 0. -1.
       -2    1    3    3    0  502  0.55440188353E+01  0.54129173708E+03 -0.19868704879E+04  0.20592915812E+04  0.25500000920E-02 0.  1.
</event>
<event>
 5   0  0.1341932E-06  0.3596689E+04  0.7818609E-02  0.8091250E-01
       -2   -1    0    0    0  501  0.00000000000E+00  0.00000000000E+00  0.16461623748E+04  0.16461623748E+04  0.25500000920E-02 0. -1.
        2   -1    0    0  501    0  0.00000000000E+00  0.00000000000E+00 -0.19645958724E+04  0.19645958724E+04  0.25500000920E-02 0.  1.
    10030    2    1    2    0    0  0.00000000000E+00  0.00000000000E+00 -0.31843349765E+03  0.36107582472E+04  0.35966894816E+04 0.  0.
        2    1    3    3  502    0 -0.16954496299E+04 -0.52132400871E+03 -0.45654349511E+03  0.18316004293E+04  0.25500000920E-02 0. -1.
       -2    1    3    3    0  502  0.16954496299E+04  0.52132400871E+03  0.13810999747E+03  0.17791578179E+04  0.25500000920E-02 0.  1.
</event>
<event>
 5   0  0.1341932E-06  0.3843551E+04  0.7818609E-02  0.8036873E-01
       -2   -1    0    0    0  501  0.00000000000E+00  0.00000000000E+00  0.22188511334E+04  0.22188511334E+04  0.25500000920E-02 0.  1.
        2   -1    0    0  501    0  0.00000000000E+00  0.00000000000E+00 -0.16644743859E+04  0.16644743859E+04  0.25500000920E-02 0. -1.
    10030    2    1    2    0    0  0.00000000000E+00  0.00000000000E+00  0.55437674746E+03  0.38833255193E+04  0.38435508987E+04 0.  0.
        2    1    3    3  502    0 -0.65069473070E+03  0.13748925716E+04 -0.90948191904E+03  0.17722557877E+04  0.25500000920E-02 0. -1.
       -2    1    3    3    0  502  0.65069473070E+03 -0.13748925716E+04  0.14638586665E+04  0.21110697316E+04  0.25500000920E-02 0.  1.
</event>
<event>
 5   0  0.1337854E-06  0.3737370E+04  0.7818609E-02  0.8059730E-01
       -2   -1    0    0    0  501  0.00000000000E+00  0.00000000000E+00  0.20342911725E+04  0.20342911726E+04  0.25500000920E-02 0.  1.
        2   -1    0    0  501    0  0.00000000000E+00  0.00000000000E+00 -0.17165605584E+04  0.17165605584E+04  0.25500000920E-02 0. -1.
    10030    2    1    2    0    0  0.00000000000E+00  0.00000000000E+00  0.31773061412E+03  0.37508517310E+04  0.37373701937E+04 0.  0.
        3    1    3    3  502    0  0.61166656351E+03 -0.15557001893E+04 -0.67939904262E+03  0.18044173944E+04  0.10100000352E+00 0. -1.
       -3    1    3    3    0  502 -0.61166656351E+03  0.15557001893E+04  0.99712965674E+03  0.19464343366E+04  0.10100000352E+00 0.  1.
</event>
<event>
 5   0  0.1214844E-06  0.2689101E+04  0.7818609E-02  0.8338550E-01
       -2   -1    0    0    0  501  0.00000000000E+00  0.00000000000E+00  0.16072369687E+04  0.16072369687E+04  0.25500000920E-02 0. -1.
        2   -1    0    0  501    0  0.00000000000E+00  0.00000000000E+00 -0.11247976346E+04  0.11247976346E+04  0.25500000920E-02 0.  1.
    10030    2    1    2    0    0  0.00000000000E+00  0.00000000000E+00  0.48243933407E+03  0.27320346033E+04  0.26891012183E+04 0.  0.
        4    1    3    3  502    0 -0.13095722327E+04  0.30366759768E+03  0.26654321522E+03  0.13704890882E+04  0.12699999809E+01 0.  1.
       -4    1    3    3    0  502  0.13095722327E+04 -0.30366759768E+03  0.21589611885E+03  0.13615455150E+04  0.12699999809E+01 0. -1.
</event>
<event>
 5   0  0.1372748E-06  0.3911736E+04  0.7818609E-02  0.8022593E-01
       -2   -1    0    0    0  501  0.00000000000E+00  0.00000000000E+00  0.17341707996E+04  0.17341707996E+04  0.25500000920E-02 0. -1.
        2   -1    0    0  501    0  0.00000000000E+00  0.00000000000E+00 -0.22059070029E+04  0.22059070029E+04  0.25500000920E-02 0.  1.
    10030    2    1    2    0    0  0.00000000000E+00  0.00000000000E+00 -0.47173620330E+03  0.39400778026E+04  0.39117359375E+04 0.  0.
        1    1    3    3  502    0  0.16474756996E+04 -0.43600918362E+03  0.73084572182E+03  0.18542965399E+04  0.50400001928E-02 0. -1.
       -1    1    3    3    0  502 -0.16474756996E+04  0.43600918362E+03 -0.12025819251E+04  0.20857812626E+04  0.50400001928E-02 0.  1.
</event>
<event>
 5   0  0.4795023E-07  0.2149081E+04  0.7818609E-02  0.8539926E-01
       -1   -1    0    0    0  501  0.00000000000E+00  0.00000000000E+00  0.13409545692E+04  0.13409545692E+04  0.50400001928E-02 0.  1.
        1   -1    0    0  501    0  0.00000000000E+00  0.00000000000E+00 -0.86105604225E+03  0.86105604227E+03  0.50400001928E-02 0. -1.
    10030    2    1    2    0    0  0.00000000000E+00  0.00000000000E+00  0.47989852694E+03  0.22020106115E+04  0.21490807656E+04 0.  0.
        3    1    3    3  502    0  0.62114035167E+03 -0.76895040427E+03  0.67167810634E+03  0.11950947868E+04  0.10100000352E+00 0. -1.
       -3    1    3    3    0  502 -0.62114035167E+03  0.76895040427E+03 -0.19177957940E+03  0.10069158247E+04  0.10100000352E+00 0.  1.
</event>
<event>
 5   0  0.5284458E-07  0.3841444E+04  0.7818609E-02  0.8037319E-01
        1   -1    0    0  501    0  0.00000000000E+00  0.00000000000E+00  0.23631449713E+04  0.23631449713E+04  0.50400001928E-02 0.  1.
       -1   -1    0    0    0  501  0.00000000000E+00  0.00000000000E+00 -0.15611282329E+04  0.15611282329E+04  0.50400001928E-02 0. -1.
    10030    2    1    2    0    0  0.00000000000E+00  0.00000000000E+00  0.80201673842E+03  0.39242732042E+04  0.38414436521E+04 0.  0.
        5    1    3    3  502    0  0.68916709170E+03 -0.99786827197E+03 -0.11205561096E+04  0.16511694199E+04  0.46999998093E+01 0. -1.
       -5    1    3    3    0  502 -0.68916709170E+03  0.99786827197E+03  0.19225728480E+04  0.22731037843E+04  0.46999998093E+01 0.  1.
</event>
<event>
 5   0  0.4795023E-07  0.3652888E+04  0.7818609E-02  0.8078483E-01
       -1   -1    0    0    0  501  0.00000000000E+00  0.00000000000E+00  0.18576235148E+04  0.18576235148E+04  0.50400001928E-02 0. -1.
        1   -1    0    0  501    0  0.00000000000E+00  0.00000000000E+00 -0.17957880567E+04  0.17957880567E+04  0.50400001928E-02 0.  1.
    10030    2    1    2    0    0  0.00000000000E+00  0.00000000000E+00  0.61835458159E+02  0.36534115715E+04  0.36528882391E+04 0.  0.
        3    1    3    3  502    0  0.12328386315E+04 -0.64446639494E+03 -0.11527509111E+04  0.18066717186E+04  0.10100000352E+00 0.  1.
       -3    1    3    3    0  502 -0.12328386315E+04  0.64446639494E+03  0.12145863693E+04  0.18467398529E+04  0.10100000352E+00 0. -1.
</event>
<event>
 5   0  0.1214844E-06  0.3586227E+04  0.7818609E-02  0.8093654E-01
        2   -1    0    0  501    0  0.00000000000E+00  0.00000000000E+00  0.21829213344E+04  0.21829213344E+04  0.25500000920E-02 0.  1.
       -2   -1    0    0    0  501  0.00000000000E+00  0.00000000000E+00 -0.14729142244E+04  0.14729142244E+04  0.25500000920E-02 0. -1.
    10030    2    1    2    0    0  0.00000000000E+00  0.00000000000E+00  0.71000710999E+03  0.36558355588E+04  0.35862269221E+04 0.  0.
        4    1    3    3  502    0 -0.67063758704E+02 -0.22725736689E+03  0.21668914195E+04  0.21798081327E+04  0.12699999809E+01 0.  1.
       -4    1    3    3    0  502  0.67063758704E+02  0.22725736689E+03 -0.14568843095E+04  0.14760274262E+04  0.12699999809E+01 0. -1.
</event>
<event>
 5   0  0.1341932E-06  0.2336369E+04  0.7818609E-02  0.8463718E-01
        2   -1    0    0  501    0  0.00000000000E+00  0.00000000000E+00  0.89553905567E+03  0.89553905568E+03  0.25500000920E-02 0.  1.
       -2   -1    0    0    0  501  0.00000000000E+00  0.00000000000E+00 -0.15238360826E+04  0.15238360826E+04  0.25500000920E-02 0. -1.
    10030    2    1    2    0    0  0.00000000000E+00  0.00000000000E+00 -0.62829702688E+03  0.24193751382E+04  0.23363687435E+04 0.  0.
        2    1    3    3  502    0 -0.91788456763E+03 -0.72166849191E+03 -0.35201592668E+03  0.12195215063E+04  0.25500000920E-02 0.  1.
       -2    1    3    3    0  502  0.91788456763E+03  0.72166849191E+03 -0.27628110021E+03  0.11998536319E+04  0.25500000920E-02 0. -1.
</event>
<event>
 5   0  0.1341932E-06  0.3138907E+04  0.7818609E-02  0.8205141E-01
       -2   -1    0    0    0  501  0.00000000000E+00  0.00000000000E+00  0.24976424846E+04  0.24976424846E+04  0.25500000920E-02 0. -1.
        2   -1    0    0  501    0  0.00000000000E+00  0.00000000000E+00 -0.98620365644E+03  0.98620365644E+03  0.25500000920E-02 0.  1.
    10030    2    1    2    0    0  0.00000000000E+00  0.00000000000E+00  0.15114388282E+04  0.34838461411E+04  0.31389069122E+04 0.  0.
        2    1    3    3  502    0 -0.14865581855E+04 -0.46800399230E+03  0.96127771977E+03  0.18311029000E+04  0.25500000920E-02 0. -1.
       -2    1    3    3    0  502  0.14865581855E+04  0.46800399230E+03  0.55016110841E+03  0.16527432411E+04  0.25500000920E-02 0.  1.
</event>
<event>
 5   0  0.1372748E-06  0.3862215E+04  0.7818609E-02  0.8032934E-01
        2   -1    0    0  501    0  0.00000000000E+00  0.00000000000E+00  0.16267085272E+04  0.16267085272E+04  0.25500000920E-02 0. -1.
       -2   -1    0    0    0  501  0.00000000000E+00  0.00000000000E+00 -0.22924670881E+04  0.22924670881E+04  0.25500000920E-02 0.  1.
    10030    2    1    2    0    0  0.00000000000E+00  0.00000000000E+00 -0.66575856087E+03  0.39191756153E+04  0.38622147845E+04 0.  0.
        1    1    3    3  502    0 -0.19270362398E+04 -0.20850874051E+02 -0.20747539861E+03  0.19382851879E+04  0.50400001928E-02 0.  1.
       -1    1    3    3    0  502  0.19270362398E+04  0.20850874051E+02 -0.45828316227E+03  0.19808904274E+04  0.50400001928E-02 0. -1.
</event>
<event>
 5   0  0.1184616E-06  0.3711361E+04  0.7818609E-02  0.8065449E-01
       -2   -1    0    0    0  501  0.00000000000E+00  0.00000000000E+00  0.13891554060E+04  0.13891554060E+04  0.25500000920E-02 0. -1.
        2   -1    0    0  501    0  0.00000000000E+00  0.00000000000E+00 -0.24788808218E+04  0.24788808218E+04  0.25500000920E-02 0.  1.
    10030    2    1    2    0    0  0.00000000000E+00  0.00000000000E+00 -0.10897254158E+04  0.38680362278E+04  0.37113613106E+04 0.  0.
        5    1    3    3  502    0 -0.16950309594E+03 -0.18475394135E+04 -0.50593042848E+03  0.19230498882E+04  0.46999998093E+01 0. -1.
       -5    1    3    3    0  502  0.16950309594E+03  0.18475394135E+04 -0.58379498733E+03  0.19449863396E+04  0.46999998093E+01 0.  1.
</event>
<event>
 5   0  0.4255250E-07  0.2221161E+04  0.7818609E-02  0.8509672E-01
        1   -1    0    0  501    0  0.00000000000E+00  0.00000000000E+00  0.20042599317E+04  0.20042599317E+04  0.50400001928E-02 0. -1.
       -1   -1    0    0    0  501  0.00000000000E+00  0.00000000000E+00 -0.61538391604E+03  0.61538391606E+03  0.50400001928E-02 0.  1.
    10030    2    1    2    0    0  0.00000000000E+00  0.00000000000E+00  0.13888760157E+04  0.26196438478E+04  0.22211612509E+04 0.  0.
        2    1    3    3  502    0  0.88926441623E+03  0.64637647369E+03  0.88015399011E+03  0.14082843442E+04  0.25500000920E-02 0.  1.
       -2    1    3    3    0  502 -0.88926441623E+03 -0.64637647369E+03  0.50872202557E+03  0.12113595036E+04  0.25500000920E-02 0. -1.
</event>
<event>
 5   0  0.5284458E-07  0.2949039E+04  0.7818609E-02  0.8258435E-01
        1   -1    0    0  501    0  0.00000000000E+00  0.00000000000E+00  0.15123229731E+04  0.15123229731E+04  0.50400001928E-02 0. -1.
       -1   -1    0    0    0  501  0.00000000000E+00  0.00000000000E+00 -0.14376609140E+04  0.14376609140E+04  0.50400001928E-02 0.  1.
    10030    2    1    2    0    0  0.00000000000E+00  0.00000000000E+00  0.74662059130E+02  0.29499838872E+04  0.29490389132E+04 0.  0.
        5    1    3    3  502    0  0.16531091475E+03  0.13081341169E+04 -0.62291302102E+03  0.14582816217E+04  0.46999998093E+01 0.  1.
       -5    1    3    3    0  502 -0.16531091475E+03 -0.13081341169E+04  0.69757508015E+03  0.14917022655E+04  0.46999998093E+01 0. -1.
</event>
<event>
 5   0  0.4795023E-07  0.3867878E+04  0.7818609E-02  0.8031743E-01
       -1   -1    0    0    0  501  0.00000000000E+00  0.00000000000E+00  0.19332375456E+04  0.19332375456E+04  0.50400001928E-02 0. -1.
        1   -1    0    0  501    0  0.00000000000E+00  0.00000000000E+00 -0.19346404554E+04  0.19346404554E+04  0.50400001928E-02 0.  1.
    10030    2    1    2    0    0  0.00000000000E+00  0.00000000000E+00 -0.14029097958E+01  0.38678780010E+04  0.38678777466E+04 0.  0.
        3    1    3    3  502    0  0.58999998488E+03  0.13905365800E+04  0.12069523799E+04  0.19335009749E+04  0.10100000352E+00 0. -1.
       -3    1    3    3    0  502 -0.58999998488E+03 -0.13905365800E+04 -0.12083552897E+04  0.19343770260E+04  0.10100000352E+00 0.  1.
</event>
<event>
 5   0  0.4255250E-07  0.3707758E+04  0.7818609E-02  0.8066245E-01
        1   -1    0    0  501    0  0.00000000000E+00  0.00000000000E+00  0.26113107853E+04  0.26113107853E+04  0.50400001928E-02 0. -1.
       -1   -1    0    0    0  501  0.00000000000E+00  0.00000000000E+00 -0.13161463391E+04  0.13161463391E+04  0.50400001928E-02 0.  1.
    10030    2    1    2    0    0  0.00000000000E+00  0.00000000000E+00  0.12951644462E+04  0.39274571244E+04  0.37077578833E+04 0.  0.
        2    1    3    3  502    0  0.13502127912E+04 -0.40620614427E+03  0.19225601707E+04  0.23841802833E+04  0.25500000920E-02 0. -1.
       -2    1    3    3    0  502 -0.13502127912E+04  0.40620614427E+03 -0.62739572451E+03  0.15432768411E+04  0.25500000920E-02 0.  1.
</event>
<event>
 5   0  0.1337854E-06  0.3711044E+04  0.7818609E-02  0.8065519E-01
       -2   -1    0    0    0  501  0.00000000000E+00  0.00000000000E+00  0.15544186278E+04  0.15544186278E+04  0.25500000920E-02 0. -1.
        2   -1    0    0  501    0  0.00000000000E+00  0.00000000000E+00 -0.22149511198E+04  0.22149511198E+04  0.25500000920E-02 0.  1.
    10030    2    1    2    0    0  0.00000000000E+00  0.00000000000E+00 -0.66053249197E+03  0.37693697476E+04  0.37110436700E+04 0.  0.
        3    1    3    3  502    0 -0.18091742427E+04 -0.28323237457E+03 -0.26179451488E+02  0.18313976609E+04  0.10100000352E+00 0. -1.
       -3    1    3    3    0  502  0.18091742427E+04  0.28323237457E+03 -0.63435304049E+03  0.19379720867E+04  0.10100000352E+00 0.  1.
</event>
<event>
 5   0  0.4255250E-07  0.3721022E+04  0.7818609E-02  0.8063319E-01
        1   -1    0    0  501    0  0.00000000000E+00  0.00000000000E+00  0.28457515846E+04  0.28457515846E+04  0.50400001928E-02 0. -1.
       -1   -1    0    0    0  501  0.00000000000E+00  0.00000000000E+00 -0.12163748168E+04  0.12163748168E+04  0.50400001928E-02 0.  1.
    10030    2    1    2    0    0  0.00000000000E+00  0.00000000000E+00  0.16293767678E+04  0.40621264014E+04  0.37210216674E+04 0.  0.
        2    1    3    3  502    0  0.12717633913E+04  0.10661973180E+04  0.17328219622E+04  0.23993396585E+04  0.25500000920E-02 0. -1.
       -2    1    3    3    0  502 -0.12717633913E+04 -0.10661973180E+04 -0.10344519437E+03  0.16627867429E+04  0.25500000920E-02 0.  1.
</event>
<event>
 5   0  0.1184616E-06  0.1904058E+04  0.7818609E-02  0.8652839E-01
        2   -1    0    0  501    0  0.00000000000E+00  0.00000000000E+00  0.10005393980E+04  0.10005393980E+04  0.25500000920E-02 0.  1.
       -2   -1    0    0    0  501  0.00000000000E+00  0.00000000000E+00 -0.90587055224E+03  0.90587055224E+03  0.25500000920E-02 0. -1.
    10030    2    1    2    0    0  0.00000000000E+00  0.00000000000E+00  0.94668845759E+02  0.19064099502E+04  0.19040579582E+04 0.  0.
        5    1    3    3  502    0  0.20724947063E+03  0.32012073052E+03 -0.82604318636E+03  0.90983463383E+03  0.46999998093E+01 0. -1.
       -5    1    3    3    0  502 -0.20724947063E+03 -0.32012073052E+03  0.92071203212E+03  0.99657531641E+03  0.46999998093E+01 0.  1.
</event>
<event>
 5   0  0.1214844E-06  0.3725484E+04  0.7818609E-02  0.8062338E-01
       -2   -1    0    0    0  501  0.00000000000E+00  0.00000000000E+00  0.14580029482E+04  0.14580029482E+04  0.25500000920E-02 0.  1.
        2   -1    0    0  501    0  0.00000000000E+00  0.00000000000E+00 -0.23798361749E+04  0.23798361749E+04  0.25500000920E-02 0. -1.
    10030    2    1    2    0    0  0.00000000000E+00  0.00000000000E+00 -0.92183322670E+03  0.38378391230E+04  0.37254842150E+04 0.  0.
        4    1    3    3  502    0 -0.52695695807E+03 -0.82920421256E+03  0.11693863164E+04  0.15273274801E+04  0.12699999809E+01 0.  1.
       -4    1    3    3    0  502  0.52695695807E+03  0.82920421256E+03 -0.20912195431E+04  0.23105116429E+04  0.12699999809E+01 0. -1.
</event>
<event>
 5   0  0.5284458E-07  0.2775193E+04  0.7818609E-02  0.8311012E-01
       -1   -1    0    0    0  501  0.00000000000E+00  0.00000000000E+00  0.12277909143E+04  0.12277909144E+04  0.50400001928E-02 0.  1.
        1   -1    0    0  501    0  0.00000000000E+00  0.00000000000E+00 -0.15682018161E+04  0.15682018161E+04  0.50400001928E-02 0. -1.
    10030    2    1    2    0    0  0.00000000000E+00  0.00000000000E+00 -0.34041090172E+03  0.27959927304E+04  0.27751929242E+04 0.  0.
        5    1    3    3  502    0  0.24866193620E+03 -0.12103451261E+04  0.46590114844E+03  0.13205506628E+04  0.46999998093E+01 0.  1.
       -5    1    3    3    0  502 -0.24866193620E+03  0.12103451261E+04 -0.80631205016E+03  0.14754420677E+04  0.46999998093E+01 0. -1.
</event>
<event>
 5   0  0.8030324E-07  0.3825862E+04  0.7818609E-02  0.8040628E-01
       -1   -1    0    0    0  501  0.00000000000E+00  0.00000000000E+00  0.17076216609E+04  0.17076216609E+04  0.50400001928E-02 0. -1.
        1   -1    0    0  501    0  0.00000000000E+00  0.00000000000E+00 -0.21429243598E+04  0.21429243598E+04  0.50400001928E-02 0.  1.
    10030    2    1    2    0    0  0.00000000000E+00  0.00000000000E+00 -0.43530269886E+03  0.38505460207E+04  0.38258615001E+04 0.  0.
        1    1    3    3  502    0 -0.12815801730E+04  0.14683004673E+03  0.12040123569E+04  0.17645544928E+04  0.50400001928E-02 0. -1.
       -1    1    3    3    0  502  0.12815801730E+04 -0.14683004673E+03 -0.16393150557E+04  0.20859915279E+04  0.50400001928E-02 0.  1.
</event>
<event>
 5   0  0.1341932E-06  0.2233258E+04  0.7818609E-02  0.8504711E-01
        2   -1    0    0  501    0  0.00000000000E+00  0.00000000000E+00  0.83388563867E+03  0.83388563867E+03  0.25500000920E-02 0. -1.
       -2   -1    0    0    0  501  0.00000000000E+00  0.00000000000E+00 -0.14952419148E+04  0.14952419148E+04  0.25500000920E-02 0.  1.
    10030    2    1    2    0    0  0.00000000000E+00  0.00000000000E+00 -0.66135627613E+03  0.23291275535E+04  0.22332583900E+04 0.  0.
        2    1    3    3  502    0  0.26224547982E+03  0.72584112273E+03 -0.11723169286E+04  0.14035472946E+04  0.25500000920E-02 0.  1.
       -2    1    3    3    0  502 -0.26224547982E+03 -0.72584112273E+03  0.51096065249E+03  0.92558025883E+03  0.25500000920E-02 0. -1.
</event>
<event>
 5   0  0.4255250E-07  0.2333116E+04  0.7818609E-02  0.8464977E-01
        1   -1    0    0  501    0  0.00000000000E+00  0.00000000000E+00  0.21656152034E+04  0.21656152034E+04  0.50400001928E-02 0. -1.
       -1   -1    0    0    0  501  0.00000000000E+00  0.00000000000E+00 -0.62839296321E+03  0.62839296323E+03  0.50400001928E-02 0.  1.
    10030    2    1    2    0    0  0.00000000000E+00  0.00000000000E+00  0.15372222402E+04  0.27940081667E+04  0.23331158179E+04 0.  0.
        2    1    3    3  502    0 -0.17439752133E+03  0.17097489938E+03 -0.59743431134E+03  0.64542595860E+03  0.25500000920E-02 0.  1.
       -2    1    3    3    0  502  0.17439752133E+03 -0.17097489938E+03  0.21346565516E+04  0.21485822081E+04  0.25500000920E-02 0. -1.
</event>
<event>
 5   0  0.1184616E-06  0.2277869E+04  0.7818609E-02  0.8486699E-01
       -2   -1    0    0    0  501  0.00000000000E+00  0.00000000000E+00  0.59910127616E+03  0.59910127617E+03  0.25500000920E-02 0.  1.
        2   -1    0    0  501    0  0.00000000000E+00  0.00000000000E+00 -0.21651957071E+04  0.21651957071E+04  0.25500000920E-02 0. -1.
    10030    2    1    2    0    0  0.00000000000E+00  0.00000000000E+00 -0.15660944309E+04  0.27642969832E+04  0.22778687506E+04 0.  0.
        5    1    3    3  502    0  0.44827021460E+03  0.10451007408E+04 -0.85948783399E+03  0.14254554256E+04  0.46999998093E+01 0.  1.
       -5    1    3    3    0  502 -0.44827021460E+03 -0.10451007408E+04 -0.70660659693E+03  0.13388415576E+04  0.46999998093E+01 0. -1.
</event>
<event>
 5   0  0.4795023E-07  0.3369569E+04  0.7818609E-02  0.8145416E-01
       -1   -1    0    0    0  501  0.00000000000E+00  0.00000000000E+00  0.25439726269E+04  0.25439726269E+04  0.50400001928E-02 0.  1.
        1   -1    0    0  501    0  0.00000000000E+00  0.00000000000E+00 -0.11157741938E+04  0.11157741938E+04  0.50400001928E-02 0. -1.
    10030    2    1    2    0    0  0.00000000000E+00  0.00000000000E+00  0.14281984331E+04  0.36597468207E+04  0.33695691159E+04 0.  0.
        3    1    3    3  502    0  0.84340442586E+03  0.11429203340E+04  0.16981603676E+04  0.22138984981E+04  0.10100000352E+00 0.  1.
       -3    1    3    3    0  502 -0.84340442586E+03 -0.11429203340E+04 -0.26996193451E+03  0.14458483225E+04  0.10100000352E+00 0. -1.
</event>
<event>
 5   0  0.1337854E-06  0.3781374E+04  0.7818609E-02  0.8050164E-01
       -2   -1    0    0    0  501  0.00000000000E+00  0.00000000000E+00  0.23554492975E+04  0.23554492975E+04  0.25500000920E-02 0. -1.
        2   -1    0    0  501    0  0.00000000000E+00  0.00000000000E+00 -0.15176286299E+04  0.15176286299E+04  0.25500000920E-02 0.  1.
    10030    2    1    2    0    0  0.00000000000E+00  0.00000000000E+00  0.83782066759E+03  0.38730779274E+04  0.37813739779E+04 0.  0.
        3    1    3    3  502    0  0.98767367757E+03  0.12403456458E+04  0.14738101419E+04  0.21647339234E+04  0.10100000352E+00 0. -1.
       -3    1    3    3    0  502 -0.98767367757E+03 -0.12403456458E+04 -0.63598947429E+03  0.17083440040E+04  0.10100000352E+00 0.  1.
</event>
<event>
 5   0  0.1184616E-06  0.3776916E+04  0.7818609E-02  0.8051127E-01
       -2   -1    0    0    0  501  0.00000000000E+00  0.00000000000E+00  0.12228397366E+04  0.12228397366E+04  0.25500000920E-02 0.  1.
        2   -1    0    0  501    0  0.00000000000E+00  0.00000000000E+00 -0.29163865893E+04  0.29163865893E+04  0.25500000920E-02 0. -1.
    10030    2    1    2    0    0  0.00000000000E+00  0.00000000000E+00 -0.16935468527E+04  0.41392263259E+04  0.37769158893E+04 0.  0.
        5    1    3    3  502    0 -0.70999389022E+03  0.16047741225E+04 -0.82086065179E+02  0.17567445803E+04  0.46999998093E+01 0. -1.
       -5    1    3    3    0  502  0.70999389022E+03 -0.16047741225E+04 -0.16114607875E+04  0.23824817456E+04  0.46999998093E+01 0.  1.
</event>
<event>
 5   0  0.1282796E-06  0.2214017E+04  0.7818609E-02  0.8512617E-01
       -2   -1    0    0    0  501  0.00000000000E+00  0.00000000000E+00  0.82232448887E+03  0.82232448887E+03  0.25500000920E-02 0. -1.
        2   -1    0    0  501    0  0.00000000000E+00  0.00000000000E+00 -0.14902482174E+04  0.14902482174E+04  0.25500000920E-02 0.  1.
    10030    2    1    2    0    0  0.00000000000E+00  0.00000000000E+00 -0.66792372851E+03  0.23125727062E+04  0.22140168054E+04 0.  0.
        5    1    3    3  502    0 -0.12821201146E+03  0.44774570150E+02 -0.14815037730E+04  0.14877226224E+04  0.46999998093E+01 0.  1.
       -5    1    3    3    0  502  0.12821201146E+03 -0.44774570150E+02  0.81358004446E+03  0.82485008380E+03  0.46999998093E+01 0. -1.
</event>
<event>
 5   0  0.1337854E-06  0.3095305E+04  0.7818609E-02  0.8217027E-01
       -2   -1    0    0    0  501  0.00000000000E+00  0.00000000000E+00  0.22652391425E+04  0.22652391425E+04  0.25500000920E-02 0. -1.
        2   -1    0    0  501    0  0.00000000000E+00  0.00000000000E+00 -0.10573845956E+04  0.10573845956E+04  0.25500000920E-02 0.  1.
    10030    2    1    2    0    0  0.00000000000E+00  0.00000000000E+00  0.12078545469E+04  0.33226237381E+04  0.30953054613E+04 0.  0.
        3    1    3    3  502    0  0.42825749898E+03 -0.14137867802E+04  0.10847767589E+03  0.14812038893E+04  0.10100000352E+00 0.  1.
       -3    1    3    3    0  502 -0.42825749898E+03  0.14137867802E+04  0.10993768710E+04  0.18414198489E+04  0.10100000352E+00 0. -1.
</event>
<event>
 5   0  0.4795023E-07  0.3721022E+04  0.7818609E-02  0.8063319E-01
       -1   -1    0    0    0  501  0.00000000000E+00  0.00000000000E+00  0.17422201371E+04  0.17422201371E+04  0.50400001928E-02 0.  1.
        1   -1    0    0  501    0  0.00000000000E+00  0.00000000000E+00 -0.19868329253E+04  0.19868329253E+04  0.50400001928E-02 0. -1.
    10030    2    1    2    0    0  0.00000000000E+00  0.00000000000E+00 -0.24461278824E+03  0.37290530624E+04  0.37210215434E+04 0.  0.
        3    1    3    3  502    0  0.16955102040E+04  0.73226862518E+03 -0.34757620347E+03  0.18793034398E+04  0.10100000352E+00 0. -1.
       -3    1    3    3    0  502 -0.16955102040E+04 -0.73226862518E+03  0.10296341523E+03  0.18497496226E+04  0.10100000352E+00 0.  1.
</event>
<event>
 5   0  0.4255250E-07  0.3739240E+04  0.7818609E-02  0.8059321E-01
       -1   -1    0    0    0  501  0.00000000000E+00  0.00000000000E+00  0.21955945941E+04  0.21955945941E+04  0.50400001928E-02 0. -1.
        1   -1    0    0  501    0  0.00000000000E+00  0.00000000000E+00 -0.15920424407E+04  0.15920424407E+04  0.50400001928E-02 0.  1.
    10030    2    1    2    0    0  0.00000000000E+00  0.00000000000E+00  0.60355215348E+03  0.37876370348E+04  0.37392404450E+04 0.  0.
        2    1    3    3  502    0  0.13158016981E+04  0.12966592579E+04  0.10265900898E+02  0.18473669718E+04  0.25500000920E-02 0.  1.
       -2    1    3    3    0  502 -0.13158016981E+04 -0.12966592579E+04  0.59328625258E+03  0.19402700630E+04  0.25500000920E-02 0. -1.
</event>
<event>
 5   0  0.1341932E-06  0.2984776E+04  0.7818609E-02  0.8248091E-01
       -2   -1    0    0    0  501  0.00000000000E+00  0.00000000000E+00  0.10807870224E+04  0.10807870224E+04  0.25500000920E-02 0.  1.
        2   -1    0    0  501    0  0.00000000000E+00  0.00000000000E+00 -0.20607414317E+04  0.20607414317E+04  0.25500000920E-02 0. -1.
    10030    2    1    2    0    0  0.00000000000E+00  0.00000000000E+00 -0.97995440935E+03  0.31415284541E+04  0.29847764378E+04 0.  0.
        2    1    3    3  502    0  0.54238910749E+02  0.13376369609E+04  0.20421200770E+03  0.13542219326E+04  0.25500000920E-02 0.  1.
       -2    1    3    3    0  502 -0.54238910749E+02 -0.13376369609E+04 -0.11841664171E+04  0.17873065215E+04  0.25500000920E-02 0. -1.
</event>
<event>
 5   0  0.5284458E-07  0.3302333E+04  0.7818609E-02  0.8162302E-01
        1   -1    0    0  501    0  0.00000000000E+00  0.00000000000E+00  0.19253723636E+04  0.19253723636E+04  0.50400001928E-02 0.  1.
       -1   -1    0    0    0  501  0.00000000000E+00  0.00000000000E+00 -0.14160119648E+04  0.14160119648E+04  0.50400001928E-02 0. -1.
    10030    2    1    2    0    0  0.00000000000E+00  0.00000000000E+00  0.50936039875E+03  0.33413843284E+04  0.33023326929E+04 0.  0.
        5    1    3    3  502    0 -0.57565271868E+03 -0.86059208000E+03  0.15560991626E+04  0.18690803821E+04  0.46999998093E+01 0.  1.
       -5    1    3    3    0  502  0.57565271868E+03  0.86059208000E+03 -0.10467387639E+04  0.14723039464E+04  0.46999998093E+01 0. -1.
</event>
<event>
 5   0  0.8030324E-07  0.2760657E+04  0.7818609E-02  0.8315588E-01
        1   -1    0    0  501    0  0.00000000000E+00  0.00000000000E+00  0.18187716313E+04  0.18187716314E+04  0.50400001928E-02 0. -1.
       -1   -1    0    0    0  501  0.00000000000E+00  0.00000000000E+00 -0.10475787791E+04  0.10475787791E+04  0.50400001928E-02 0.  1.
    10030    2    1    2    0    0  0.00000000000E+00  0.00000000000E+00  0.77119285223E+03  0.28663504105E+04  0.27606568531E+04 0.  0.
        1    1    3    3  502    0  0.20460669435E+03 -0.11619801576E+04 -0.35824288075E+03  0.12330449090E+04  0.50400001928E-02 0. -1.
       -1    1    3    3    0  502 -0.20460669435E+03  0.11619801576E+04  0.11294357330E+04  0.16333055014E+04  0.50400001928E-02 0.  1.
</event>
<event>
 5   0  0.1214844E-06  0.2295875E+04  0.7818609E-02  0.8479549E-01
        2   -1    0    0  501    0  0.00000000000E+00  0.00000000000E+00  0.13628663700E+04  0.13628663700E+04  0.25500000920E-02 0.  1.
       -2   -1    0    0    0  501  0.00000000000E+00  0.00000000000E+00 -0.96690367797E+03  0.96690367798E+03  0.25500000920E-02 0. -1.
    10030    2    1    2    0    0  0.00000000000E+00  0.00000000000E+00  0.39596269201E+03  0.23297700480E+04  0.22958750016E+04 0.  0.
        4    1    3    3  502    0 -0.54285382209E+03  0.94615973327E+03 -0.16485921483E+03  0.11032174249E+04  0.12699999809E+01 0. -1.
       -4    1    3    3    0  502  0.54285382209E+03 -0.94615973327E+03  0.56082190684E+03  0.12265526230E+04  0.12699999809E+01 0.  1.
</event>
<event>
 5   0  0.8030324E-07  0.3681949E+04  0.7818609E-02  0.8071974E-01
        1   -1    0    0  501    0  0.00000000000E+00  0.00000000000E+00  0.23194388304E+04  0.23194388304E+04  0.50400001928E-02 0.  1.
       -1   -1    0    0    0  501  0.00000000000E+00  0.00000000000E+00 -0.14612103122E+04  0.14612103122E+04  0.50400001928E-02 0. -1.
    10030    2    1    2    0    0  0.00000000000E+00  0.00000000000E+00  0.85822851821E+03  0.37806491426E+04  0.36819494497E+04 0.  0.
        1    1    3    3  502    0  0.12494178010E+04  0.10507629213E+03  0.18132485080E+04  0.22045307937E+04  0.50400001928E-02 0.  1.
       -1    1    3    3    0  502 -0.12494178010E+04 -0.10507629213E+03 -0.95501998983E+03  0.15761183489E+04  0.50400001928E-02 0. -1.
</event>
<event>
 5   0  0.8030324E-07  0.3490886E+04  0.7818609E-02  0.8115953E-01
       -1   -1    0    0    0  501  0.00000000000E+00  0.00000000000E+00  0.17152063715E+04  0.17152063715E+04  0.50400001928E-02 0. -1.
        1   -1    0    0  501    0  0.00000000000E+00  0.00000000000E+00 -0.17762124163E+04  0.17762124163E+04  0.50400001928E-02 0.  1.
    10030    2    1    2    0    0  0.00000000000E+00  0.00000000000E+00 -0.61006044790E+02  0.34914187878E+04  0.34908857636E+04 0.  0.
        1    1    3    3  502    0 -0.30963894026E+03 -0.12721053845E+04 -0.11849939942E+04  0.17658819748E+04  0.50400001928E-02 0.  1.
       -1    1    3    3    0  502  0.30963894026E+03  0.12721053845E+04  0.11239879494E+04  0.17255368130E+04  0.50400001928E-02 0. -1.
</event>
<event>
 5   0  0.4795023E-07  0.3713914E+04  0.7818609E-02  0.8064885E-01
        1   -1    0    0  501    0  0.00000000000E+00  0.00000000000E+00  0.27900648057E+04  0.27900648057E+04  0.50400001928E-02 0.  1.
       -1   -1    0    0    0  501  0.00000000000E+00  0.00000000000E+00 -0.12359171032E+04  0.12359171032E+04  0.50400001928E-02 0. -1.
    10030    2    1    2    0    0  0.00000000000E+00  0.00000000000E+00  0.15541477025E+04  0.40259819089E+04  0.37139137375E+04 0.  0.
        3    1    3    3  502    0 -0.16147084382E+04  0.16694028251E+03  0.17545849771E+04  0.23903390660E+04  0.10100000352E+00 0.  1.
       -3    1    3    3    0  502  0.16147084382E+04 -0.16694028251E+03 -0.20043727459E+03  0.16356428429E+04  0.10100000352E+00 0. -1.
</event>
<event>
 5   0  0.1372748E-06  0.1970925E+04  0.7818609E-02  0.8620336E-01
       -2   -1    0    0    0  501  0.00000000000E+00  0.00000000000E+00  0.98112211302E+03  0.98112211302E+03  0.25500000920E-02 0.  1.
        2   -1    0    0  501    0  0.00000000000E+00  0.00000000000E+00 -0.98982166003E+03  0.98982166003E+03  0.25500000920E-02 0. -1.
    10030    2    1    2    0    0  0.00000000000E+00  0.00000000000E+00 -0.86995470090E+01  0.19709437731E+04  0.19709245735E+04 0.  0.
        1    1    3    3  502    0  0.29742803957E+03 -0.44886926343E+03 -0.82969947862E+03  0.98911489687E+03  0.50400001928E-02 0. -1.
       -1    1    3    3    0  502 -0.29742803957E+03  0.44886926343E+03  0.82099993161E+03  0.98182887618E+03  0.50400001928E-02 0.  1.
</event>
<event>
 5   0  0.5284458E-07  0.3774515E+04  0.7818609E-02  0.8051646E-01
        1   -1    0    0  501    0  0.00000000000E+00  0.00000000000E+00  0.23331769791E+04  0.23331769791E+04  0.50400001928E-02 0. -1.
       -1   -1    0    0    0  501  0.00000000000E+00  0.00000000000E+00 -0.15265630265E+04  0.15265630265E+04  0.50400001928E-02 0.  1.
    10030    2    1    2    0    0  0.00000000000E+00  0.00000000000E+00  0.80661395257E+03  0.38597400056E+04  0.37745154447E+04 0.  0.
        5    1    3    3  502    0 -0.27594854283E+03 -0.17643486241E+04 -0.22092361806E+03  0.17994174059E+04  0.46999998093E+01 0.  1.
       -5    1    3    3    0  502  0.27594854283E+03  0.17643486241E+04  0.10275375706E+04  0.20603225997E+04  0.46999998093E+01 0. -1.
</event>
<event>
 5   0  0.1341932E-06  0.1899890E+04  0.7818609E-02  0.8654911E-01
       -2   -1    0    0    0  501  0.00000000000E+00  0.00000000000E+00  0.47469833652E+03  0.47469833653E+03  0.25500000920E-02 0. -1.
        2   -1    0    0  501    0  0.00000000000E+00  0.00000000000E+00 -0.19009863541E+04  0.19009863541E+04  0.25500000920E-02 0.  1.
    10030    2    1    2    0    0  0.00000000000E+00  0.00000000000E+00 -0.14262880176E+04  0.23756846907E+04  0.18998895337E+04 0.  0.
        2    1    3    3  502    0 -0.63351002389E+03  0.63857893021E+03 -0.33124557936E+03  0.95856227462E+03  0.25500000920E-02 0.  1.
       -2    1    3    3    0  502  0.63351002389E+03 -0.63857893021E+03 -0.10950424383E+04  0.14171224161E+04  0.25500000920E-02 0. -1.
</event>
<event>
 5   0  0.1337854E-06  0.3290843E+04  0.7818609E-02  0.8165229E-01
        2   -1    0    0  501    0  0.00000000000E+00  0.00000000000E+00  0.26034199139E+04  0.26034199139E+04  0.25500000920E-02 0. -1.
       -2   -1    0    0    0  501  0.00000000000E+00  0.00000000000E+00 -0.10399441604E+04  0.10399441604E+04  0.25500000920E-02 0.  1.
    10030    2    1    2    0    0  0.00000000000E+00  0.00000000000E+00  0.15634757535E+04  0.36433640743E+04  0.32908426498E+04 0.  0.
        3    1    3    3  502    0  0.28476242285E+03 -0.36271084421E+03  0.25304167410E+04  0.25720920838E+04  0.10100000352E+00 0. -1.
       -3    1    3    3    0  502 -0.28476242285E+03  0.36271084421E+03 -0.96694098754E+03  0.10712719905E+04  0.10100000352E+00 0.  1.
</event>
<event>
 5   0  0.1214844E-06  0.3753997E+04  0.7818609E-02  0.8056100E-01
        2   -1    0    0  501    0  0.00000000000E+00  0.00000000000E+00  0.19905729677E+04  0.19905729677E+04  0.25500000920E-02 0. -1.
       -2   -1    0    0    0  501  0.00000000000E+00  0.00000000000E+00 -0.17699041089E+04  0.17699041089E+04  0.25500000920E-02 0.  1.
    10030    2    1    2    0    0  0.00000000000E+00  0.00000000000E+00  0.22066885879E+03  0.37604770765E+04  0.37539969496E+04 0.  0.
        4    1    3    3  502    0 -0.10491952102E+04  0.11238408307E+04 -0.96822880133E+03  0.18169472823E+04  0.12699999809E+01 0.  1.
       -4    1    3    3    0  502  0.10491952102E+04 -0.11238408307E+04  0.11888976601E+04  0.19435297942E+04  0.12699999809E+01 0. -1.
</event>
<event>
 5   0  0.1214844E-06  0.3827717E+04  0.7818609E-02  0.8040233E-01
       -2   -1    0    0    0  501  0.00000000000E+00  0.00000000000E+00  0.18504329551E+04  0.18504329551E+04  0.25500000920E-02 0.  1.
        2   -1    0    0  501    0  0.00000000000E+00  0.00000000000E+00 -0.19794577900E+04  0.19794577900E+04  0.25500000920E-02 0. -1.
    10030    2    1    2    0    0  0.00000000000E+00  0.00000000000E+00 -0.12902483493E+03  0.38298907452E+04  0.38277167753E+04 0.  0.
        4    1    3    3  502    0  0.14796283570E+04  0.11732197594E+04  0.24728555091E+03  0.19044412397E+04  0.12699999809E+01 0. -1.
       -4    1    3    3    0  502 -0.14796283570E+04 -0.11732197594E+04 -0.37631038583E+03  0.19254495055E+04  0.12699999809E+01 0.  1.
</event>
<event>
 5   0  0.1341932E-06  0.2323095E+04  0.7818609E-02  0.8468870E-01
        2   -1    0    0  501    0  0.00000000000E+00  0.00000000000E+00  0.11632214495E+04  0.11632214495E+04  0.25500000920E-02 0. -1.
       -2   -1    0    0    0  501  0.00000000000E+00  0.00000000000E+00 -0.11598759496E+04  0.11598759496E+04  0.25500000920E-02 0.  1.
    10030    2    1    2    0    0  0.00000000000E+00  0.00000000000E+00  0.33454998848E+01  0.23230973992E+04  0.23230949902E+04 0.  0.
        2    1    3    3  502    0 -0.37773439613E+03  0.99367292089E+03 -0.46643395807E+03  0.11608745776E+04  0.25500000920E-02 0. -1.
       -2    1    3    3    0  502  0.37773439613E+03 -0.99367292089E+03  0.46977945795E+03  0.11622228215E+04  0.25500000920E-02 0.  1.
</event>
<event>
 5   0  0.1337854E-06  0.2267593E+04  0.7818609E-02  0.8490809E-01
        2   -1    0    0  501    0  0.00000000000E+00  0.00000000000E+00  0.17750921155E+04  0.17750921155E+04  0.25500000920E-02 0.  1.
       -2   -1    0    0    0  501  0.00000000000E+00  0.00000000000E+00 -0.72418493247E+03  0.72418493248E+03  0.25500000920E-02 0. -1.
    10030    2    1    2    0    0  0.00000000000E+00  0.00000000000E+00  0.10509071831E+04  0.24992770480E+04  0.22675934061E+04 0.  0.
        3    1    3    3  502    0  0.22940066586E+03 -0.19364430532E+03  0.17304917127E+04  0.17563383388E+04  0.10100000352E+00 0.  1.
       -3    1    3    3    0  502 -0.22940066586E+03  0.19364430532E+03 -0.67958452964E+03  0.74293870919E+03  0.10100000352E+00 0. -1.
</event>
<event>
 5   0  0.5284458E-07  0.3816323E+04  0.7818609E-02  0.8042661E-01
       -1   -1    0    0    0  501  0.00000000000E+00  0.00000000000E+00  0.19598014350E+04  0.19598014350E+04  0.50400001928E-02 0. -1.
        1   -1    0    0  501    0  0.00000000000E+00  0.00000000000E+00 -0.18578824993E+04  0.18578824993E+04  0.50400001928E-02 0.  1.
    10030    2    1    2    0    0  0.00000000000E+00  0.00000000000E+00  0.10191893574E+03  0.38176839343E+04  0.38163232506E+04 0.  0.
        5    1    3    3  502    0  0.15626636022E+04 -0.31715317588E+03  0.10994529260E+04  0.19368331103E+04  0.46999998093E+01 0. -1.
       -5    1    3    3    0  502 -0.15626636022E+04  0.31715317588E+03 -0.99753399022E+03  0.18808508240E+04  0.46999998093E+01 0.  1.
</event>
<event>
 5   0  0.1214844E-06  0.2838198E+04  0.7818609E-02  0.8291506E-01
        2   -1    0    0  501    0  0.00000000000E+00  0.00000000000E+00  0.26086325674E+04  0.26086325674E+04  0.25500000920E-02 0. -1.
       -2   -1    0    0    0  501  0.00000000000E+00  0.00000000000E+00 -0.77199156910E+03  0.77199156910E+03  0.25500000920E-02 0.  1.
    10030    2    1    2    0    0  0.00000000000E+00  0.00000000000E+00  0.18366409983E+04  0.33806241365E+04  0.28381982658E+04 0.  0.
        4    1    3    3  502    0 -0.63617359749E+03  0.12551581386E+03 -0.58521065221E+03  0.87346676298E+03  0.12699999809E+01 0.  1.
       -4    1    3    3    0  502  0.63617359749E+03 -0.12551581386E+03  0.24218516505E+04  0.25071573736E+04  0.12699999809E+01 0. -1.
</event>
<event>
 5   0  0.1079205E-06  0.2355773E+04  0.7818609E-02  0.8456250E-01
       -1   -1    0    0    0  501  0.00000000000E+00  0.00000000000E+00  0.55322165676E+03  0.55322165679E+03  0.50400001928E-02 0.  1.
        1   -1    0    0  501    0  0.00000000000E+00  0.00000000000E+00 -0.25078856267E+04  0.25078856267E+04  0.50400001928E-02 0. -1.
    10030    2    1    2    0    0  0.00000000000E+00  0.00000000000E+00 -0.19546639700E+04  0.30611072835E+04  0.23557730293E+04 0.  0.
        4    1    3    3  502    0  0.83779760211E+03  0.74980241285E+03 -0.52104490105E+03  0.12391924315E+04  0.12699999809E+01 0.  1.
       -4    1    3    3    0  502 -0.83779760211E+03 -0.74980241285E+03 -0.14336190689E+04  0.18219148520E+04  0.12699999809E+01 0. -1.
</event>
<event>
 5   0  0.5284458E-07  0.3798986E+04  0.7818609E-02  0.8046372E-01
        1   -1    0    0  501    0  0.00000000000E+00  0.00000000000E+00  0.27410714332E+04  0.27410714332E+04  0.50400001928E-02 0. -1.
       -1   -1    0    0    0  501  0.00000000000E+00  0.00000000000E+00 -0.13163007733E+04  0.13163007733E+04  0.50400001928E-02 0.  1.
    10030    2    1    2    0    0  0.00000000000E+00  0.00000000000E+00  0.14247706599E+04  0.40573722065E+04  0.37989864160E+04 0.  0.
        5    1    3    3  502    0  0.13026141872E+04  0.13643165095E+04  0.47383504599E+03  0.19449177359E+04  0.46999998093E+01 0.  1.
       -5    1    3    3    0  502 -0.13026141872E+04 -0.13643165095E+04  0.95093561387E+03  0.21124544706E+04  0.46999998093E+01 0. -1.
</event>
<event>
 5   0  0.1341932E-06  0.3831928E+04  0.7818609E-02  0.8039338E-01
       -2   -1    0    0    0  501  0.00000000000E+00  0.00000000000E+00  0.15774630206E+04  0.15774630206E+04  0.25500000920E-02 0. -1.
        2   -1    0    0  501    0  0.00000000000E+00  0.00000000000E+00 -0.23271020078E+04  0.23271020078E+04  0.25500000920E-02 0.  1.
    10030    2    1    2    0    0  0.00000000000E+00  0.00000000000E+00 -0.74963898715E+03  0.39045650284E+04  0.38319276416E+04 0.  0.
        2    1    3    3  502    0 -0.16610297418E+04 -0.52537590232E+03  0.43771567027E+03  0.17962835661E+04  0.25500000920E-02 0.  1.
       -2    1    3    3    0  502  0.16610297418E+04  0.52537590232E+03 -0.11873546574E+04  0.21082814623E+04  0.25500000920E-02 0. -1.
</event>
<event>
 5   0  0.5284458E-07  0.3433246E+04  0.7818609E-02  0.8129794E-01
       -1   -1    0    0    0  501  0.00000000000E+00  0.00000000000E+00  0.20046758186E+04  0.20046758187E+04  0.50400001928E-02 0. -1.
        1   -1    0    0  501    0  0.00000000000E+00  0.00000000000E+00 -0.14699608343E+04  0.14699608343E+04  0.50400001928E-02 0.  1.
    10030    2    1    2    0    0  0.00000000000E+00  0.00000000000E+00  0.53471498437E+03  0.34746366529E+04  0.34332462416E+04 0.  0.
        5    1    3    3  502    0 -0.17035732398E+04 -0.20525834675E+03  0.31775823945E+03  0.17450745432E+04  0.46999998093E+01 0.  1.
       -5    1    3    3    0  502  0.17035732398E+04  0.20525834675E+03  0.21695674492E+03  0.17295621098E+04  0.46999998093E+01 0. -1.
</event>
<event>
 5   0  0.1214844E-06  0.2026311E+04  0.7818609E-02  0.8594417E-01
       -2   -1    0    0    0  501  0.00000000000E+00  0.00000000000E+00  0.99100664735E+03  0.99100664735E+03  0.25500000920E-02 0. -1.
        2   -1    0    0  501    0  0.00000000000E+00  0.00000000000E+00 -0.10357989401E+04  0.10357989401E+04  0.25500000920E-02 0.  1.
    10030    2    1    2    0    0  0.00000000000E+00  0.00000000000E+00 -0.44792292711E+02  0.20268055874E+04  0.20263105734E+04 0.  0.
        4    1    3    3  502    0  0.47055487892E+03 -0.70202617313E+03  0.53650630042E+03  0.10010510802E+04  0.12699999809E+01 0. -1.
       -4    1    3    3    0  502 -0.47055487892E+03  0.70202617313E+03 -0.58129859313E+03  0.10257545072E+04  0.12699999809E+01 0.  1.
</event>
<event>
 5   0  0.1372748E-06  0.3755608E+04  0.7818609E-02  0.8055749E-01
        2   -1    0    0  501    0  0.00000000000E+00  0.00000000000E+00  0.14847422636E+04  0.14847422636E+04  0.25500000920E-02 0. -1.
       -2   -1    0    0    0  501  0.00000000000E+00  0.00000000000E+00 -0.23749223169E+04  0.23749223169E+04  0.25500000920E-02 0.  1.
    10030    2    1    2    0    0  0.00000000000E+00  0.00000000000E+00 -0.89018005326E+03  0.38596645804E+04  0.37556078265E+04 0.  0.
        1    1    3    3  502    0 -0.33401940670E+03  0.13421194174E+04 -0.17504373831E+04  0.22308932128E+04  0.50400001928E-02 0.  1.
       -1    1    3    3    0  502  0.33401940670E+03 -0.13421194174E+04  0.86025732986E+03  0.16287713677E+04  0.50400001928E-02 0. -1.
</event>
<event>
 5   0  0.1583440E-06  0.1866793E+04  0.7818609E-02  0.8671564E-01
       -2   -1    0    0    0  501  0.00000000000E+00  0.00000000000E+00  0.89399696404E+03  0.89399696404E+03  0.25500000920E-02 0.  1.
        2   -1    0    0  501    0  0.00000000000E+00  0.00000000000E+00 -0.97453248540E+03  0.97453248540E+03  0.25500000920E-02 0. -1.
    10030    2    1    2    0    0  0.00000000000E+00  0.00000000000E+00 -0.80535521358E+02  0.18685294494E+04  0.18667930612E+04 0.  0.
        1    1    3    3  502    0 -0.69626888936E+03  0.30694119342E+03  0.50081420944E+03  0.91094354101E+03  0.50400001928E-02 0.  1.
       -1    1    3    3    0  502  0.69626888936E+03 -0.30694119342E+03 -0.58134973080E+03  0.95758590843E+03  0.50400001928E-02 0. -1.
</event>
<event>
 5   0  0.1337854E-06  0.2040297E+04  0.7818609E-02  0.8588009E-01
        2   -1    0    0  501    0  0.00000000000E+00  0.00000000000E+00  0.14050708808E+04  0.14050708808E+04  0.25500000920E-02 0. -1.
       -2   -1    0    0    0  501  0.00000000000E+00  0.00000000000E+00 -0.74067639900E+03  0.74067639900E+03  0.25500000920E-02 0.  1.
    10030    2    1    2    0    0  0.00000000000E+00  0.00000000000E+00  0.66439448175E+03  0.21457472798E+04  0.20402968807E+04 0.  0.
        3    1    3    3  502    0  0.26573251316E+03  0.98492700909E+03  0.33514351620E+03  0.10737859044E+04  0.10100000352E+00 0.  1.
       -3    1    3    3    0  502 -0.26573251316E+03 -0.98492700909E+03  0.32925096555E+03  0.10719613754E+04  0.10100000352E+00 0. -1.
</event>
<event>
 5   0  0.1184616E-06  0.3773523E+04  0.7818609E-02  0.8051861E-01
       -2   -1    0    0    0  501  0.00000000000E+00  0.00000000000E+00  0.17677695743E+04  0.17677695743E+04  0.25500000920E-02 0. -1.
        2   -1    0    0  501    0  0.00000000000E+00  0.00000000000E+00 -0.20137627985E+04  0.20137627985E+04  0.25500000920E-02 0.  1.
    10030    2    1    2    0    0  0.00000000000E+00  0.00000000000E+00 -0.24599322417E+03  0.37815323728E+04  0.37735228130E+04 0.  0.
        5    1    3    3  502    0 -0.11837443993E+04  0.23907796397E+03 -0.15757071117E+04  0.19852667498E+04  0.46999998093E+01 0.  1.
       -5    1    3    3    0  502  0.11837443993E+04 -0.23907796397E+03  0.13297138876E+04  0.17962656231E+04  0.46999998093E+01 0. -1.
</event>
<event>
 5   0  0.5284458E-07  0.3732160E+04  0.7818609E-02  0.8060872E-01
       -1   -1    0    0    0  501  0.00000000000E+00  0.00000000000E+00  0.27896060991E+04  0.27896060991E+04  0.50400001928E-02 0.  1.
        1   -1    0    0  501    0  0.00000000000E+00  0.00000000000E+00 -0.12482959182E+04  0.12482959183E+04  0.50400001928E-02 0. -1.
    10030    2    1    2    0    0  0.00000000000E+00  0.00000000000E+00  0.15413101808E+04  0.40379020173E+04  0.37321596466E+04 0.  0.
        5    1    3    3  502    0  0.14091472610E+04  0.48760141217E+02  0.20931495576E+04  0.25237612239E+04  0.46999998093E+01 0.  1.
       -5    1    3    3    0  502 -0.14091472610E+04 -0.48760141217E+02 -0.55183937679E+03  0.15141407934E+04  0.46999998093E+01 0. -1.
</event>
<event>
 5   0  0.8030324E-07  0.3458259E+04  0.7818609E-02  0.8123754E-01
       -1   -1    0    0    0  501  0.00000000000E+00  0.00000000000E+00  0.17776770297E+04  0.17776770297E+04  0.50400001928E-02 0.  1.
        1   -1    0    0  501    0  0.00000000000E+00  0.00000000000E+00 -0.16819080487E+04  0.16819080487E+04  0.50400001928E-02 0. -1.
    10030    2    1    2    0    0  0.00000000000E+00  0.00000000000E+00  0.95768981006E+02  0.34595850783E+04  0.34582592755E+04 0.  0.
        1    1    3    3  502    0 -0.77648571810E+03  0.84645744664E+03 -0.12450772627E+04  0.16940004928E+04  0.50400001928E-02 0. -1.
       -1    1    3    3    0  502  0.77648571810E+03 -0.84645744664E+03  0.13408462437E+04  0.17655845856E+04  0.50400001928E-02 0.  1.
</event>
<event>
 5   0  0.1214844E-06  0.1879336E+04  0.7818609E-02  0.8665211E-01
       -2   -1    0    0    0  501  0.00000000000E+00  0.00000000000E+00  0.64560061911E+03  0.64560061912E+03  0.25500000920E-02 0.  1.
        2   -1    0    0  501    0  0.00000000000E+00  0.00000000000E+00 -0.13676820567E+04  0.13676820567E+04  0.25500000920E-02 0. -1.
    10030    2    1    2    0    0  0.00000000000E+00  0.00000000000E+00 -0.72208143759E+03  0.20132826758E+04  0.18793364601E+04 0.  0.
        4    1    3    3  502    0  0.53865481041E+03 -0.68695054896E+03  0.11486269261E+02  0.87303127594E+03  0.12699999809E+01 0. -1.
       -4    1    3    3    0  502 -0.53865481041E+03  0.68695054896E+03 -0.73356770685E+03  0.11402513999E+04  0.12699999809E+01 0.  1.
</event>
<event>
 5   0  0.5284458E-07  0.2182714E+04  0.7818609E-02  0.8525658E-01
        1   -1    0    0  501    0  0.00000000000E+00  0.00000000000E+00  0.18995504830E+04  0.18995504830E+04  0.50400001928E-02 0. -1.
       -1   -1    0    0    0  501  0.00000000000E+00  0.00000000000E+00 -0.62702210973E+03  0.62702210975E+03  0.50400001928E-02 0.  1.
    10030    2    1    2    0    0  0.00000000000E+00  0.00000000000E+00  0.12725283732E+04  0.25265725927E+04  0.21827140458E+04 0.  0.
        5    1    3    3  502    0  0.99516411800E+03  0.39197391119E+03  0.38520163020E+03  0.11368366438E+04  0.46999998093E+01 0. -1.
       -5    1    3    3    0  502 -0.99516411800E+03 -0.39197391119E+03  0.88732674304E+03  0.13897359489E+04  0.46999998093E+01 0.  1.
</event>
<event>
 5   0  0.4255250E-07  0.3645832E+04  0.7818609E-02  0.8080073E-01
        1   -1    0    0  501    0  0.00000000000E+00  0.00000000000E+00  0.15436768908E+04  0.15436768908E+04  0.50400001928E-02 0. -1.
       -1   -1    0    0    0  501  0.00000000000E+00  0.00000000000E+00 -0.21526677317E+04  0.21526677317E+04  0.50400001928E-02 0.  1.
    10030    2    1    2    0    0  0.00000000000E+00  0.00000000000E+00 -0.60899084086E+03  0.36963446226E+04  0.36458323774E+04 0.  0.
        2    1    3    3  502    0  0.11507475709E+04  0.10308820404E+04  0.67642450853E+03  0.16865609592E+04  0.25500000920E-02 0. -1.
       -2    1    3    3    0  502 -0.11507475709E+04 -0.10308820404E+04 -0.12854153494E+04  0.20097836634E+04  0.25500000920E-02 0.  1.
</event>
<event>
 5   0  0.4255250E-07  0.3804741E+04  0.7818609E-02  0.8045138E-01
        3   -1    0    0  501    0  0.00000000000E+00  0.00000000000E+00  0.15789537773E+04  0.15789537805E+04  0.10100000352E+00 0. -1.
       -3   -1    0    0    0  501  0.00000000000E+00  0.00000000000E+00 -0.22920324668E+04  0.22920324690E+04  0.10100000352E+00 0.  1.
    10030    2    1    2    0    0  0.00000000000E+00  0.00000000000E+00 -0.71307868951E+03  0.38709862495E+04  0.38047409014E+04 0.  0.
        1    1    3    3  502    0  0.12628536121E+04  0.14164683932E+04 -0.49239852290E+03  0.19605198953E+04  0.50400001928E-02 0.  1.
       -1    1    3    3    0  502 -0.12628536121E+04 -0.14164683932E+04 -0.22068016661E+03  0.19104663542E+04  0.50400001928E-02 0. -1.
</event>
<event>
 5   0  0.5284458E-07  0.4008179E+04  0.7818609E-02  0.8002899E-01
        1   -1    0    0  501    0  0.00000000000E+00  0.00000000000E+00  0.32092569965E+04  0.32092569965E+04  0.50400001928E-02 0. -1.
       -1   -1    0    0    0  501  0.00000000000E+00  0.00000000000E+00 -0.12514965455E+04  0.12514965455E+04  0.50400001928E-02 0.  1.
    10030    2    1    2    0    0  0.00000000000E+00  0.00000000000E+00  0.19577604510E+04  0.44607535420E+04  0.40081786611E+04 0.  0.
        5    1    3    3  502    0  0.17066085698E+04 -0.88321904571E+03  0.34563060136E+03  0.19524526360E+04  0.46999998093E+01 0.  1.
       -5    1    3    3    0  502 -0.17066085698E+04  0.88321904571E+03  0.16121298497E+04  0.25083009061E+04  0.46999998093E+01 0. -1.
</event>
<event>
 5   0  0.5107778E-07  0.2018737E+04  0.7818609E-02  0.8597910E-01
       -1   -1    0    0    0  501  0.00000000000E+00  0.00000000000E+00  0.99476585656E+03  0.99476585658E+03  0.50400001928E-02 0.  1.
        1   -1    0    0  501    0  0.00000000000E+00  0.00000000000E+00 -0.10241855993E+04  0.10241855993E+04  0.50400001928E-02 0. -1.
    10030    2    1    2    0    0  0.00000000000E+00  0.00000000000E+00 -0.29419742738E+02  0.20189514559E+04  0.20187370953E+04 0.  0.
        2    1    3    3  502    0  0.46838024957E+03  0.19028665871E+03 -0.88843631142E+03  0.10222074888E+04  0.25500000920E-02 0. -1.
       -2    1    3    3    0  502 -0.46838024957E+03 -0.19028665871E+03  0.85901656868E+03  0.99674396710E+03  0.25500000920E-02 0.  1.
</event>
<event>
 5   0  0.4255250E-07  0.3719188E+04  0.7818609E-02  0.8063723E-01
        1   -1    0    0  501    0  0.00000000000E+00  0.00000000000E+00  0.28220761659E+04  0.28220761659E+04  0.50400001928E-02 0. -1.
       -1   -1    0    0    0  501  0.00000000000E+00  0.00000000000E+00 -0.12253710591E+04  0.12253710591E+04  0.50400001928E-02 0.  1.
    10030    2    1    2    0    0  0.00000000000E+00  0.00000000000E+00  0.15967051068E+04  0.40474472250E+04  0.37191883309E+04 0.  0.
        2    1    3    3  502    0 -0.67340255463E+03 -0.10935478051E+04 -0.66525626091E+03  0.14463345724E+04  0.25500000920E-02 0.  1.
       -2    1    3    3    0  502  0.67340255463E+03  0.10935478051E+04  0.22619613677E+04  0.26011126526E+04  0.25500000920E-02 0. -1.
</event>
<event>
 5   0  0.1184616E-06  0.3673250E+04  0.7818609E-02  0.8073916E-01
       -2   -1    0    0    0  501  0.00000000000E+00  0.00000000000E+00  0.18716054684E+04  0.18716054684E+04  0.25500000920E-02 0. -1.
        2   -1    0    0  501    0  0.00000000000E+00  0.00000000000E+00 -0.18022983602E+04  0.18022983603E+04  0.25500000920E-02 0.  1.
    10030    2    1    2    0    0  0.00000000000E+00  0.00000000000E+00  0.69307108166E+02  0.36739038287E+04  0.36732500415E+04 0.  0.
        5    1    3    3  502    0  0.73565191669E+03 -0.10567004068E+04  0.13446079665E+04  0.18616638165E+04  0.46999998093E+01 0. -1.
       -5    1    3    3    0  502 -0.73565191669E+03  0.10567004068E+04 -0.12753008583E+04  0.18122400121E+04  0.46999998093E+01 0.  1.
</event>
<event>
 5   0  0.5284458E-07  0.3539733E+04  0.7818609E-02  0.8104438E-01
        1   -1    0    0  501    0  0.00000000000E+00  0.00000000000E+00  0.21856825867E+04  0.21856825867E+04  0.50400001928E-02 0. -1.
       -1   -1    0    0    0  501  0.00000000000E+00  0.00000000000E+00 -0.14331574812E+04  0.14331574812E+04  0.50400001928E-02 0.  1.
    10030    2    1    2    0    0  0.00000000000E+00  0.00000000000E+00  0.75252510546E+03  0.36188400679E+04  0.35397329564E+04 0.  0.
        5    1    3    3  502    0  0.95482528546E+03 -0.58814877070E+03  0.17760941084E+04  0.21005100985E+04  0.46999998093E+01 0. -1.
       -5    1    3    3    0  502 -0.95482528546E+03  0.58814877070E+03 -0.10235690029E+04  0.15183299694E+04  0.46999998093E+01 0.  1.
</event>
<event>
 5   0  0.1184616E-06  0.3875339E+04  0.7818609E-02  0.8030178E-01
        2   -1    0    0  501    0  0.00000000000E+00  0.00000000000E+00  0.20477460611E+04  0.20477460611E+04  0.25500000920E-02 0.  1.
       -2   -1    0    0    0  501  0.00000000000E+00  0.00000000000E+00 -0.18335100687E+04  0.18335100687E+04  0.25500000920E-02 0. -1.
    10030    2    1    2    0    0  0.00000000000E+00  0.00000000000E+00  0.21423599246E+03  0.38812561298E+04  0.38753389638E+04 0.  0.
        5    1    3    3  502    0  0.66319007249E+03  0.40747971082E+02 -0.17158423583E+04  0.18400050429E+04  0.46999998093E+01 0. -1.
       -5    1    3    3    0  502 -0.66319007249E+03 -0.40747971082E+02  0.19300783508E+04  0.20412510869E+04  0.46999998093E+01 0.  1.
</event>
<event>
 5   0  0.5284458E-07  0.1942390E+04  0.7818609E-02  0.8634039E-01
       -1   -1    0    0    0  501  0.00000000000E+00  0.00000000000E+00  0.60420418529E+03  0.60420418531E+03  0.50400001928E-02 0.  1.
        1   -1    0    0  501    0  0.00000000000E+00  0.00000000000E+00 -0.15610948768E+04  0.15610948768E+04  0.50400001928E-02 0. -1.
    10030    2    1    2    0    0  0.00000000000E+00  0.00000000000E+00 -0.95689069149E+03  0.21652990621E+04  0.19423903400E+04 0.  0.
        5    1    3    3  502    0  0.57220151496E+03  0.37603066293E+03 -0.12462425881E+04  0.14219551018E+04  0.46999998093E+01 0.  1.
       -5    1    3    3    0  502 -0.57220151496E+03 -0.37603066293E+03  0.28935189663E+03  0.74334396027E+03  0.46999998093E+01 0. -1.
</event>
<event>
 5   0  0.1214844E-06  0.3711364E+04  0.7818609E-02  0.8065448E-01
       -2   -1    0    0    0  501  0.00000000000E+00  0.00000000000E+00  0.15721133187E+04  0.15721133187E+04  0.25500000920E-02 0. -1.
        2   -1    0    0  501    0  0.00000000000E+00  0.00000000000E+00 -0.21903997354E+04  0.21903997354E+04  0.25500000920E-02 0.  1.
    10030    2    1    2    0    0  0.00000000000E+00  0.00000000000E+00 -0.61828641668E+03  0.37625130541E+04  0.37113644916E+04 0.  0.
        4    1    3    3  502    0 -0.76246920599E+03 -0.13160025985E+04 -0.13869665455E+04  0.20583731295E+04  0.12699999809E+01 0.  1.
       -4    1    3    3    0  502  0.76246920599E+03  0.13160025985E+04  0.76868012880E+03  0.17041399246E+04  0.12699999809E+01 0. -1.
</event>
<event>
 5   0  0.1079205E-06  0.3770040E+04  0.7818609E-02  0.8052615E-01
        1   -1    0    0  501    0  0.00000000000E+00  0.00000000000E+00  0.23924555190E+04  0.23924555190E+04  0.50400001928E-02 0. -1.
       -1   -1    0    0    0  501  0.00000000000E+00  0.00000000000E+00 -0.14852106905E+04  0.14852106905E+04  0.50400001928E-02 0.  1.
    10030    2    1    2    0    0  0.00000000000E+00  0.00000000000E+00  0.90724482849E+03  0.38776662096E+04  0.37700400600E+04 0.  0.
        4    1    3    3  502    0 -0.55359601863E+03  0.60004808539E+02  0.23059308996E+04  0.23722116380E+04  0.12699999809E+01 0. -1.
       -4    1    3    3    0  502  0.55359601863E+03 -0.60004808539E+02 -0.13986860711E+04  0.15054545716E+04  0.12699999809E+01 0.  1.
</event>
<event>
 5   0  0.1214844E-06  0.3934778E+04  0.7818609E-02  0.8017835E-01
        2   -1    0    0  501    0  0.00000000000E+00  0.00000000000E+00  0.19520781094E+04  0.19520781094E+04  0.25500000920E-02 0.  1.
       -2   -1    0    0    0  501  0.00000000000E+00  0.00000000000E+00 -0.19828200143E+04  0.19828200143E+04  0.25500000920E-02 0. -1.
    10030    2    1    2    0    0  0.00000000000E+00  0.00000000000E+00 -0.30741904876E+02  0.39348981236E+04  0.39347780342E+04 0.  0.
        4    1    3    3  502    0  0.63276812001E+03  0.11071948363E+04 -0.15135294985E+04  0.19791536209E+04  0.12699999809E+01 0. -1.
       -4    1    3    3    0  502 -0.63276812001E+03 -0.11071948363E+04  0.14827875937E+04  0.19557445028E+04  0.12699999809E+01 0.  1.
</event>
<event>
 5   0  0.1341932E-06  0.3871961E+04  0.7818609E-02  0.8030886E-01
       -2   -1    0    0    0  501  0.00000000000E+00  0.00000000000E+00  0.20419056702E+04  0.20419056702E+04  0.25500000920E-02 0.  1.
        2   -1    0    0  501    0  0.00000000000E+00  0.00000000000E+00 -0.18355502842E+04  0.18355502842E+04  0.25500000920E-02 0. -1.
    10030    2    1    2    0    0  0.00000000000E+00  0.00000000000E+00  0.20635538597E+03  0.38774559544E+04  0.38719610191E+04 0.  0.
        2    1    3    3  502    0 -0.87339220259E+03 -0.17187084173E+04  0.28019951270E+03  0.19481489497E+04  0.25500000920E-02 0.  1.
       -2    1    3    3    0  502  0.87339220259E+03  0.17187084173E+04 -0.73844126732E+02  0.19293070047E+04  0.25500000920E-02 0. -1.
</event>
<event>
 5   0  0.4795023E-07  0.2676894E+04  0.7818609E-02  0.8342541E-01
        1   -1    0    0  501    0  0.00000000000E+00  0.00000000000E+00  0.18048911196E+04  0.18048911196E+04  0.50400001928E-02 0.  1.
       -1   -1    0    0    0  501  0.00000000000E+00  0.00000000000E+00 -0.99254725265E+03  0.99254725266E+03  0.50400001928E-02 0. -1.
    10030    2    1    2    0    0  0.00000000000E+00  0.00000000000E+00  0.81234386694E+03  0.27974383723E+04  0.26768935146E+04 0.  0.
        3    1    3    3  502    0  0.31219535611E+03 -0.89464157657E+03 -0.58169542600E+03  0.11118538887E+04  0.10100000352E+00 0.  1.
       -3    1    3    3    0  502 -0.31219535611E+03  0.89464157657E+03  0.13940392929E+04  0.16855844836E+04  0.10100000352E+00 0. -1.
</event>
<event>
 5   0  0.4795023E-07  0.3633209E+04  0.7818609E-02  0.8082927E-01
        1   -1    0    0  501    0  0.00000000000E+00  0.00000000000E+00  0.22869642612E+04  0.22869642612E+04  0.50400001928E-02 0. -1.
       -1   -1    0    0    0  501  0.00000000000E+00  0.00000000000E+00 -0.14429839052E+04  0.14429839052E+04  0.50400001928E-02 0.  1.
    10030    2    1    2    0    0  0.00000000000E+00  0.00000000000E+00  0.84398035604E+03  0.37299481664E+04  0.36332093916E+04 0.  0.
        3    1    3    3  502    0  0.84849959774E+03 -0.12815283860E+04 -0.57218805448E+03  0.16400200460E+04  0.10100000352E+00 0.  1.
       -3    1    3    3    0  502 -0.84849959774E+03  0.12815283860E+04  0.14161684105E+04  0.20899281204E+04  0.10100000352E+00 0. -1.
</event>
<event>
 5   0  0.1184616E-06  0.3273323E+04  0.7818609E-02  0.8169717E-01
       -2   -1    0    0    0  501  0.00000000000E+00  0.00000000000E+00  0.11655970815E+04  0.11655970815E+04  0.25500000920E-02 0.  1.
        2   -1    0    0  501    0  0.00000000000E+00  0.00000000000E+00 -0.22981019138E+04  0.22981019138E+04  0.25500000920E-02 0. -1.
    10030    2    1    2    0    0  0.00000000000E+00  0.00000000000E+00 -0.11325048323E+04  0.34636989952E+04  0.32733230110E+04 0.  0.
        5    1    3    3  502    0  0.39609033440E+03 -0.15237242282E+04 -0.93010350005E+02  0.15771163850E+04  0.46999998093E+01 0.  1.
       -5    1    3    3    0  502 -0.39609033440E+03  0.15237242282E+04 -0.10394944823E+04  0.18865826103E+04  0.46999998093E+01 0. -1.
</event>
<event>
 5   0  0.1337854E-06  0.3759788E+04  0.7818609E-02  0.8054840E-01
       -2   -1    0    0    0  501  0.00000000000E+00  0.00000000000E+00  0.13328900376E+04  0.13328900376E+04  0.25500000920E-02 0. -1.
        2   -1    0    0  501    0  0.00000000000E+00  0.00000000000E+00 -0.26513823481E+04  0.26513823481E+04  0.25500000920E-02 0.  1.
    10030    2    1    2    0    0  0.00000000000E+00  0.00000000000E+00 -0.13184923104E+04  0.39842723857E+04  0.37597878226E+04 0.  0.
        3    1    3    3  502    0  0.15450554369E+04 -0.27634714513E+03 -0.17556391518E+04  0.23549592118E+04  0.10100000352E+00 0.  1.
       -3    1    3    3    0  502 -0.15450554369E+04  0.27634714513E+03  0.43714684138E+03  0.16293131739E+04  0.10100000352E+00 0. -1.
</event>
<event>
 5   0  0.1184616E-06  0.3721051E+04  0.7818609E-02  0.8063313E-01
       -2   -1    0    0    0  501  0.00000000000E+00  0.00000000000E+00  0.17786551512E+04  0.17786551512E+04  0.25500000920E-02 0.  1.
        2   -1    0    0  501    0  0.00000000000E+00  0.00000000000E+00 -0.19461637933E+04  0.19461637933E+04  0.25500000920E-02 0. -1.
    10030    2    1    2    0    0  0.00000000000E+00  0.00000000000E+00 -0.16750864213E+03  0.37248189444E+04  0.37210505269E+04 0.  0.
        5    1    3    3  502    0 -0.17328135563E+04  0.56365485578E+03  0.29236886732E+03  0.18454948556E+04  0.46999998093E+01 0.  1.
       -5    1    3    3    0  502  0.17328135563E+04 -0.56365485578E+03 -0.45987750944E+03  0.18793240889E+04  0.46999998093E+01 0. -1.
</event>
<event>
 5   0  0.4255250E-07  0.3872005E+04  0.7818609E-02  0.8030877E-01
       -1   -1    0    0    0  501  0.00000000000E+00  0.00000000000E+00  0.17453374345E+04  0.17453374345E+04  0.50400001928E-02 0. -1.
        1   -1    0    0  501    0  0.00000000000E+00  0.00000000000E+00 -0.21474965271E+04  0.21474965271E+04  0.50400001928E-02 0.  1.
    10030    2    1    2    0    0  0.00000000000E+00  0.00000000000E+00 -0.40215909255E+03  0.38928339616E+04  0.38720052062E+04 0.  0.
        2    1    3    3  502    0 -0.11267157896E+04  0.15437512322E+04  0.10953180756E+03  0.19143284865E+04  0.25500000920E-02 0. -1.
       -2    1    3    3    0  502  0.11267157896E+04 -0.15437512322E+04 -0.51169090011E+03  0.19785054750E+04  0.25500000920E-02 0.  1.
</event>
<event>
 5   0  0.1214844E-06  0.3776017E+04  0.7818609E-02  0.8051321E-01
        2   -1    0    0  501    0  0.00000000000E+00  0.00000000000E+00  0.18857211316E+04  0.18857211316E+04  0.25500000920E-02 0. -1.
       -2   -1    0    0    0  501  0.00000000000E+00  0.00000000000E+00 -0.18902984857E+04  0.18902984857E+04  0.25500000920E-02 0.  1.
    10030    2    1    2    0    0  0.00000000000E+00  0.00000000000E+00 -0.45773541686E+01  0.37760196173E+04  0.37760168429E+04 0.  0.
        4    1    3    3  502    0 -0.10483715632E+04 -0.12231644319E+04  0.98227287462E+03  0.18868163067E+04  0.12699999809E+01 0. -1.
       -4    1    3    3    0  502  0.10483715632E+04  0.12231644319E+04 -0.98685022879E+03  0.18892033106E+04  0.12699999809E+01 0.  1.
</event>
<event>
 5   0  0.4795023E-07  0.2509476E+04  0.7818609E-02  0.8399617E-01
       -1   -1    0    0    0  501  0.00000000000E+00  0.00000000000E+00  0.62908176103E+03  0.62908176105E+03  0.50400001928E-02 0.  1.
        1   -1    0    0  501    0  0.00000000000E+00  0.00000000000E+00 -0.25026438139E+04  0.25026438139E+04  0.50400001928E-02 0. -1.
    10030    2    1    2    0    0  0.00000000000E+00  0.00000000000E+00 -0.18735620528E+04  0.31317255749E+04  0.25094761029E+04 0.  0.
        3    1    3    3  502    0  0.89408175707E+03  0.26357389647E+03 -0.19850036003E+04  0.21929643615E+04  0.10100000352E+00 0. -1.
       -3    1    3    3    0  502 -0.89408175707E+03 -0.26357389647E+03  0.11144154746E+03  0.93876121347E+03  0.10100000352E+00 0.  1.
</event>
<event>
 5   0  0.1337854E-06  0.3823779E+04  0.7818609E-02  0.8041071E-01
       -2   -1    0    0    0  501  0.00000000000E+00  0.00000000000E+00  0.26655463291E+04  0.26655463291E+04  0.25500000920E-02 0.  1.
        2   -1    0    0  501    0  0.00000000000E+00  0.00000000000E+00 -0.13713219632E+04  0.13713219632E+04  0.25500000920E-02 0. -1.
    10030    2    1    2    0    0  0.00000000000E+00  0.00000000000E+00  0.12942243659E+04  0.40368682923E+04  0.38237794000E+04 0.  0.
        3    1    3    3  502    0  0.78552363012E+02  0.74411368032E+03 -0.12103218867E+04  0.14229387628E+04  0.10100000352E+00 0. -1.
       -3    1    3    3    0  502 -0.78552363012E+02 -0.74411368032E+03  0.25045462527E+04  0.26139295294E+04  0.10100000352E+00 0.  1.
</event>
<event>
 5   0  0.4795023E-07  0.3787805E+04  0.7818609E-02  0.8048777E-01
       -1   -1    0    0    0  501  0.00000000000E+00  0.00000000000E+00  0.14974974797E+04  0.14974974797E+04  0.50400001928E-02 0. -1.
        1   -1    0    0  501    0  0.00000000000E+00  0.00000000000E+00 -0.23952407563E+04  0.23952407563E+04  0.50400001928E-02 0.  1.
    10030    2    1    2    0    0  0.00000000000E+00  0.00000000000E+00 -0.89774327662E+03  0.38927382360E+04  0.37878051670E+04 0.  0.
        3    1    3    3  502    0  0.58092089216E+03 -0.16131787000E+04  0.37780809327E+03  0.17557202416E+04  0.10100000352E+00 0. -1.
       -3    1    3    3    0  502 -0.58092089216E+03  0.16131787000E+04 -0.12755513699E+04  0.21370179944E+04  0.10100000352E+00 0.  1.
</event>
<event>
 5   0  0.1184616E-06  0.3838618E+04  0.7818609E-02  0.8037918E-01
        2   -1    0    0  501    0  0.00000000000E+00  0.00000000000E+00  0.17608915465E+04  0.17608915465E+04  0.25500000920E-02 0. -1.
       -2   -1    0    0    0  501  0.00000000000E+00  0.00000000000E+00 -0.20919779223E+04  0.20919779223E+04  0.25500000920E-02 0.  1.
    10030    2    1    2    0    0  0.00000000000E+00  0.00000000000E+00 -0.33108637577E+03  0.38528694688E+04  0.38386175839E+04 0.  0.
        5    1    3    3  502    0 -0.99442163790E+03 -0.74893261148E+03  0.13006849054E+04  0.18004382143E+04  0.46999998093E+01 0.  1.
       -5    1    3    3    0  502  0.99442163790E+03  0.74893261148E+03 -0.16317712812E+04  0.20524312545E+04  0.46999998093E+01 0. -1.
</event>
<event>
 5   0  0.1079205E-06  0.1921105E+04  0.7818609E-02  0.8644422E-01
        1   -1    0    0  501    0  0.00000000000E+00  0.00000000000E+00  0.76872257822E+03  0.76872257824E+03  0.50400001928E-02 0.  1.
       -1   -1    0    0    0  501  0.00000000000E+00  0.00000000000E+00 -0.12002528450E+04  0.12002528450E+04  0.50400001928E-02 0. -1.
    10030    2    1    2    0    0  0.00000000000E+00  0.00000000000E+00 -0.43153026676E+03  0.19689754232E+04  0.19211053709E+04 0.  0.
        4    1    3    3  502    0  0.95065666000E+03 -0.13547964750E+03 -0.23995468634E+03  0.98978921214E+03  0.12699999809E+01 0.  1.
       -4    1    3    3    0  502 -0.95065666000E+03  0.13547964750E+03 -0.19157558043E+03  0.97918621109E+03  0.12699999809E+01 0. -1.
</event>
<event>
 5   0  0.1341932E-06  0.2740023E+04  0.7818609E-02  0.8322134E-01
       -2   -1    0    0    0  501  0.00000000000E+00  0.00000000000E+00  0.19752095827E+04  0.19752095827E+04  0.25500000920E-02 0. -1.
        2   -1    0    0  501    0  0.00000000000E+00  0.00000000000E+00 -0.95024435559E+03  0.95024435559E+03  0.25500000920E-02 0.  1.
    10030    2    1    2    0    0  0.00000000000E+00  0.00000000000E+00  0.10249652271E+04  0.29254539383E+04  0.27400231802E+04 0.  0.
        2    1    3    3  502    0  0.62797822604E+03 -0.11983012609E+04  0.74308356453E+03  0.15435205694E+04  0.25500000920E-02 0. -1.
       -2    1    3    3    0  502 -0.62797822604E+03  0.11983012609E+04  0.28188166258E+03  0.13819333689E+04  0.25500000920E-02 0.  1.
</event>
<event>
 5   0  0.1337854E-06  0.2361258E+04  0.7818609E-02  0.8454152E-01
        2   -1    0    0  501    0  0.00000000000E+00  0.00000000000E+00  0.12482896980E+04  0.12482896980E+04  0.25500000920E-02 0.  1.
       -2   -1    0    0    0  501  0.00000000000E+00  0.00000000000E+00 -0.11166354869E+04  0.11166354869E+04  0.25500000920E-02 0. -1.
    10030    2    1    2    0    0  0.00000000000E+00  0.00000000000E+00  0.13165421106E+03  0.23649251850E+04  0.23612577791E+04 0.  0.
        3    1    3    3  502    0  0.53891485706E+03  0.92599763039E+02 -0.98216350093E+03  0.11241214757E+04  0.10100000352E+00 0. -1.
       -3    1    3    3    0  502 -0.53891485706E+03 -0.92599763039E+02  0.11138177120E+04  0.12408037093E+04  0.10100000352E+00 0.  1.
</event>
<event>
 5   0  0.1184616E-06  0.3482911E+04  0.7818609E-02  0.8117852E-01
        2   -1    0    0  501    0  0.00000000000E+00  0.00000000000E+00  0.15827885408E+04  0.15827885408E+04  0.25500000920E-02 0. -1.
       -2   -1    0    0    0  501  0.00000000000E+00  0.00000000000E+00 -0.19160275500E+04  0.19160275500E+04  0.25500000920E-02 0.  1.
    10030    2    1    2    0    0  0.00000000000E+00  0.00000000000E+00 -0.33323900922E+03  0.34988160908E+04  0.34829105357E+04 0.  0.
        5    1    3    3  502    0 -0.79575534323E+03 -0.10262946214E+04 -0.13321494874E+04  0.18604170400E+04  0.46999998093E+01 0.  1.
       -5    1    3    3    0  502  0.79575534323E+03  0.10262946214E+04  0.99891047816E+03  0.16383990507E+04  0.46999998093E+01 0. -1.
</event>
<event>
 5   0  0.1214844E-06  0.2971665E+04  0.7818609E-02  0.8251869E-01
       -2   -1    0    0    0  501  0.00000000000E+00  0.00000000000E+00  0.11190433182E+04  0.11190433182E+04  0.25500000920E-02 0. -1.
        2   -1    0    0  501    0  0.00000000000E+00  0.00000000000E+00 -0.19728443668E+04  0.19728443668E+04  0.25500000920E-02 0.  1.
    10030    2    1    2    0    0  0.00000000000E+00  0.00000000000E+00 -0.85380104854E+03  0.30918876850E+04  0.29716650595E+04 0.  0.
        4    1    3    3  502    0  0.71717881303E+03  0.40277614128E+03  0.86054493063E+03  0.11904256635E+04  0.12699999809E+01 0. -1.
       -4    1    3    3    0  502 -0.71717881303E+03 -0.40277614128E+03 -0.17143459792E+04  0.19014620215E+04  0.12699999809E+01 0.  1.
</event>
<event>
 5   0  0.1341932E-06  0.3978329E+04  0.7818609E-02  0.8008933E-01
       -2   -1    0    0    0  501  0.00000000000E+00  0.00000000000E+00  0.17776740350E+04  0.17776740350E+04  0.25500000920E-02 0.  1.
        2   -1    0    0  501    0  0.00000000000E+00  0.00000000000E+00 -0.22258159732E+04  0.22258159732E+04  0.25500000920E-02 0. -1.
    10030    2    1    2    0    0  0.00000000000E+00  0.00000000000E+00 -0.44814193822E+03  0.40034900083E+04  0.39783289267E+04 0.  0.
        2    1    3    3  502    0 -0.16867197569E+04 -0.40199488865E+03 -0.12049931765E+04  0.21115472962E+04  0.25500000920E-02 0. -1.
       -2    1    3    3    0  502  0.16867197569E+04  0.40199488865E+03  0.75685123830E+03  0.18919427120E+04  0.25500000920E-02 0.  1.
</event>
<event>
 5   0  0.4255250E-07  0.3827753E+04  0.7818609E-02  0.8040225E-01
       -1   -1    0    0    0  501  0.00000000000E+00  0.00000000000E+00  0.18352908544E+04  0.18352908544E+04  0.50400001928E-02 0.  1.
        1   -1    0    0  501    0  0.00000000000E+00  0.00000000000E+00 -0.19958274391E+04  0.19958274391E+04  0.50400001928E-02 0. -1.
    10030    2    1    2    0    0  0.00000000000E+00  0.00000000000E+00 -0.16053658467E+03  0.38311182936E+04  0.38277533076E+04 0.  0.
        2    1    3    3  502    0  0.43362392736E+03 -0.93325612360E+03 -0.16953557176E+04  0.19832366757E+04  0.25500000920E-02 0. -1.
       -2    1    3    3    0  502 -0.43362392736E+03  0.93325612360E+03  0.15348191330E+04  0.18478816178E+04  0.25500000920E-02 0.  1.
</event>
<event>
 5   0  0.1214844E-06  0.3712185E+04  0.7818609E-02  0.8065267E-01
        2   -1    0    0  501    0  0.00000000000E+00  0.00000000000E+00  0.15793959080E+04  0.15793959080E+04  0.25500000920E-02 0.  1.
       -2   -1    0    0    0  501  0.00000000000E+00  0.00000000000E+00 -0.21812635761E+04  0.21812635761E+04  0.25500000920E-02 0. -1.
    10030    2    1    2    0    0  0.00000000000E+00  0.00000000000E+00 -0.60186766805E+03  0.37606594841E+04  0.37121846755E+04 0.  0.
        4    1    3    3  502    0 -0.17569309541E+03 -0.33657806535E+03  0.15396356603E+04  0.15857592620E+04  0.12699999809E+01 0.  1.
       -4    1    3    3    0  502  0.17569309541E+03  0.33657806535E+03 -0.21415033283E+04  0.21749002221E+04  0.12699999809E+01 0. -1.
</event>
<event>
 5   0  0.1184616E-06  0.3685001E+04  0.7818609E-02  0.8071294E-01
       -2   -1    0    0    0  501  0.00000000000E+00  0.00000000000E+00  0.16414149796E+04  0.16414149796E+04  0.25500000920E-02 0. -1.
        2   -1    0    0  501    0  0.00000000000E+00  0.00000000000E+00 -0.20682206809E+04  0.20682206809E+04  0.25500000920E-02 0.  1.
    10030    2    1    2    0    0  0.00000000000E+00  0.00000000000E+00 -0.42680570131E+03  0.37096356606E+04  0.36850011706E+04 0.  0.
        5    1    3    3  502    0  0.10202185656E+04 -0.13505591169E+04  0.51942686622E+03  0.17705033774E+04  0.46999998093E+01 0.  1.
       -5    1    3    3    0  502 -0.10202185656E+04  0.13505591169E+04 -0.94623256753E+03  0.19391322832E+04  0.46999998093E+01 0. -1.
</event>
<event>
 5   0  0.1214844E-06  0.3842509E+04  0.7818609E-02  0.8037094E-01
       -2   -1    0    0    0  501  0.00000000000E+00  0.00000000000E+00  0.17084109453E+04  0.17084109453E+04  0.25500000920E-02 0.  1.
        2   -1    0    0  501    0  0.00000000000E+00  0.00000000000E+00 -0.21606151396E+04  0.21606151396E+04  0.25500000920E-02 0. -1.
    10030    2    1    2    0    0  0.00000000000E+00  0.00000000000E+00 -0.45220419427E+03  0.38690260849E+04  0.38425088435E+04 0.  0.
        4    1    3    3  502    0  0.12203650613E+04  0.12588168893E+04  0.56500825054E+03  0.18420496138E+04  0.12699999809E+01 0.  1.
       -4    1    3    3    0  502 -0.12203650613E+04 -0.12588168893E+04 -0.10172124448E+04  0.20269764711E+04  0.12699999809E+01 0. -1.
</event>
<event>
 5   0  0.1341932E-06  0.2083017E+04  0.7818609E-02  0.8568762E-01
        2   -1    0    0  501    0  0.00000000000E+00  0.00000000000E+00  0.15601164026E+04  0.15601164026E+04  0.25500000920E-02 0. -1.
       -2   -1    0    0    0  501  0.00000000000E+00  0.00000000000E+00 -0.69529393172E+03  0.69529393172E+03  0.25500000920E-02 0.  1.
    10030    2    1    2    0    0  0.00000000000E+00  0.00000000000E+00  0.86482247091E+03  0.22554103344E+04  0.20830165314E+04 0.  0.
        2    1    3    3  502    0  0.40086494340E+03  0.81190656380E+03  0.98964384611E+03  0.13413723992E+04  0.25500000920E-02 0. -1.
       -2    1    3    3    0  502 -0.40086494340E+03 -0.81190656380E+03 -0.12482137521E+03  0.91403793515E+03  0.25500000920E-02 0.  1.
</event>
<event>
 5   0  0.1184616E-06  0.3741043E+04  0.7818609E-02  0.8058927E-01
       -2   -1    0    0    0  501  0.00000000000E+00  0.00000000000E+00  0.13761185462E+04  0.13761185462E+04  0.25500000920E-02 0. -1.
        2   -1    0    0  501    0  0.00000000000E+00  0.00000000000E+00 -0.25425505583E+04  0.25425505583E+04  0.25500000920E-02 0.  1.
    10030    2    1    2    0    0  0.00000000000E+00  0.00000000000E+00 -0.11664320121E+04  0.39186691045E+04  0.37410431582E+04 0.  0.
        5    1    3    3  502    0 -0.44294224850E+03 -0.14183162322E+04 -0.17733906604E+04  0.23136022334E+04  0.46999998093E+01 0.  1.
       -5    1    3    3    0  502  0.44294224850E+03  0.14183162322E+04  0.60695864829E+03  0.16050668711E+04  0.46999998093E+01 0. -1.
</event>
<event>
 5   0  0.4795023E-07  0.3647877E+04  0.7818609E-02  0.8079612E-01
       -1   -1    0    0    0  501  0.00000000000E+00  0.00000000000E+00  0.29566401770E+04  0.29566401770E+04  0.50400001928E-02 0.  1.
        1   -1    0    0  501    0  0.00000000000E+00  0.00000000000E+00 -0.11251795079E+04  0.11251795079E+04  0.50400001928E-02 0. -1.
    10030    2    1    2    0    0  0.00000000000E+00  0.00000000000E+00  0.18314606691E+04  0.40818196848E+04  0.36478766094E+04 0.  0.
        3    1    3    3  502    0  0.55066295517E+02  0.18230234137E+04  0.89621212415E+03  0.20321522692E+04  0.10100000352E+00 0.  1.
       -3    1    3    3    0  502 -0.55066295517E+02 -0.18230234137E+04  0.93524854492E+03  0.20496674156E+04  0.10100000352E+00 0. -1.
</event>
<event>
 5   0  0.1337854E-06  0.3282773E+04  0.7818609E-02  0.8167293E-01
        2   -1    0    0  501    0  0.00000000000E+00  0.00000000000E+00  0.17349535047E+04  0.17349535047E+04  0.25500000920E-02 0. -1.
       -2   -1    0    0    0  501  0.00000000000E+00  0.00000000000E+00 -0.15528656063E+04  0.15528656063E+04  0.25500000920E-02 0.  1.
    10030    2    1    2    0    0  0.00000000000E+00  0.00000000000E+00  0.18208789840E+03  0.32878191109E+04  0.32827729899E+04 0.  0.
        3    1    3    3  502    0  0.60719684323E+03 -0.13508340505E+04  0.79973957642E+03  0.16831589463E+04  0.10100000352E+00 0. -1.
       -3    1    3    3    0  502 -0.60719684323E+03  0.13508340505E+04 -0.61765167802E+03  0.16046601646E+04  0.10100000352E+00 0.  1.
</event>
<event>
 5   0  0.4795023E-07  0.2885490E+04  0.7818609E-02  0.8277208E-01
        1   -1    0    0  501    0  0.00000000000E+00  0.00000000000E+00  0.13108998595E+04  0.13108998595E+04  0.50400001928E-02 0.  1.
       -1   -1    0    0    0  501  0.00000000000E+00  0.00000000000E+00 -0.15878506115E+04  0.15878506115E+04  0.50400001928E-02 0. -1.
    10030    2    1    2    0    0  0.00000000000E+00  0.00000000000E+00 -0.27695075199E+03  0.28987504710E+04  0.28854900059E+04 0.  0.
        3    1    3    3  502    0 -0.13549074096E+04 -0.15367682342E+03 -0.61193997610E+03  0.14946107183E+04  0.10100000352E+00 0.  1.
       -3    1    3    3    0  502  0.13549074096E+04  0.15367682342E+03  0.33498922410E+03  0.14041397527E+04  0.10100000352E+00 0. -1.
</event>
<event>
 5   0  0.1341932E-06  0.3789537E+04  0.7818609E-02  0.8048404E-01
        2   -1    0    0  501    0  0.00000000000E+00  0.00000000000E+00  0.21376457830E+04  0.21376457830E+04  0.25500000920E-02 0. -1.
       -2   -1    0    0    0  501  0.00000000000E+00  0.00000000000E+00 -0.16794863284E+04  0.16794863284E+04  0.25500000920E-02 0.  1.
    10030    2    1    2    0    0  0.00000000000E+00  0.00000000000E+00  0.45815945465E+03  0.38171321114E+04  0.37895365772E+04 0.  0.
        2    1    3    3  502    0  0.14954617533E+03 -0.14311954636E+04 -0.10125613162E+04  0.17595354309E+04  0.25500000920E-02 0.  1.
       -2    1    3    3    0  502 -0.14954617533E+03  0.14311954636E+04  0.14707207709E+04  0.20575966805E+04  0.25500000920E-02 0. -1.
</event>
<event>
 5   0  0.1184616E-06  0.3668383E+04  0.7818609E-02  0.8075005E-01
        2   -1    0    0  501    0  0.00000000000E+00  0.00000000000E+00  0.19575572478E+04  0.19575572478E+04  0.25500000920E-02 0. -1.
       -2   -1    0    0    0  501  0.00000000000E+00  0.00000000000E+00 -0.17186002306E+04  0.17186002306E+04  0.25500000920E-02 0.  1.
    10030    2    1    2    0    0  0.00000000000E+00  0.00000000000E+00  0.23895701722E+03  0.36761574785E+04  0.36683829340E+04 0.  0.
        5    1    3    3  502    0 -0.21020261136E+03 -0.72200025360E+03 -0.15570185483E+04  0.17291033380E+04  0.46999998093E+01 0.  1.
       -5    1    3    3    0  502  0.21020261136E+03  0.72200025360E+03  0.17959755655E+04  0.19470541404E+04  0.46999998093E+01 0. -1.
</event>
<event>
 5   0  0.5284458E-07  0.3868871E+04  0.7818609E-02  0.8031535E-01
       -1   -1    0    0    0  501  0.00000000000E+00  0.00000000000E+00  0.20508215587E+04  0.20508215587E+04  0.50400001928E-02 0. -1.
        1   -1    0    0  501    0  0.00000000000E+00  0.00000000000E+00 -0.18246542846E+04  0.18246542846E+04  0.50400001928E-02 0.  1.
    10030    2    1    2    0    0  0.00000000000E+00  0.00000000000E+00  0.22616727411E+03  0.38754758433E+04  0.38688708141E+04 0.  0.
        5    1    3    3  502    0  0.77989533977E+03  0.14194186633E+04 -0.94656550778E+03  0.18758983003E+04  0.46999998093E+01 0.  1.
       -5    1    3    3    0  502 -0.77989533977E+03 -0.14194186633E+04  0.11727327819E+04  0.19995775430E+04  0.46999998093E+01 0. -1.
</event>
<event>
 5   0  0.8030324E-07  0.3860272E+04  0.7818609E-02  0.8033343E-01
        1   -1    0    0  501    0  0.00000000000E+00  0.00000000000E+00  0.24514284300E+04  0.24514284300E+04  0.50400001928E-02 0. -1.
       -1   -1    0    0    0  501  0.00000000000E+00  0.00000000000E+00 -0.15196958280E+04  0.15196958280E+04  0.50400001928E-02 0.  1.
    10030    2    1    2    0    0  0.00000000000E+00  0.00000000000E+00  0.93173260200E+03  0.39711242579E+04  0.38602723000E+04 0.  0.
        1    1    3    3  502    0  0.12780692539E+04 -0.13202480504E+04 -0.14178161276E+03  0.18429915784E+04  0.50400001928E-02 0.  1.
       -1    1    3    3    0  502 -0.12780692539E+04  0.13202480504E+04  0.10735142148E+04  0.21281326795E+04  0.50400001928E-02 0. -1.
</event>
<event>
 5   0  0.4255250E-07  0.3827915E+04  0.7818609E-02  0.8040191E-01
        3   -1    0    0  501    0  0.00000000000E+00  0.00000000000E+00  0.20569667174E+04  0.20569667199E+04  0.10100000352E+00 0.  1.
       -3   -1    0    0    0  501  0.00000000000E+00  0.00000000000E+00 -0.17808911036E+04  0.17808911065E+04  0.10100000352E+00 0. -1.
    10030    2    1    2    0    0  0.00000000000E+00  0.00000000000E+00  0.27607561380E+03  0.38378578263E+04  0.38279152225E+04 0.  0.
        5    1    3    3  502    0  0.40336720065E+03  0.17170069835E+03  0.20059457482E+04  0.20532965356E+04  0.46999998093E+01 0.  1.
       -5    1    3    3    0  502 -0.40336720065E+03 -0.17170069835E+03 -0.17298701344E+04  0.17845612907E+04  0.46999998093E+01 0. -1.
</event>
<event>
 5   0  0.5284458E-07  0.3711388E+04  0.7818609E-02  0.8065443E-01
       -1   -1    0    0    0  501  0.00000000000E+00  0.00000000000E+00  0.17236893649E+04  0.17236893649E+04  0.50400001928E-02 0. -1.
        1   -1    0    0  501    0  0.00000000000E+00  0.00000000000E+00 -0.19978079453E+04  0.19978079453E+04  0.50400001928E-02 0.  1.
    10030    2    1    2    0    0  0.00000000000E+00  0.00000000000E+00 -0.27411858046E+03  0.37214973102E+04  0.37113880468E+04 0.  0.
        5    1    3    3  502    0  0.15596393015E+04 -0.98563042905E+03  0.62571230188E+02  0.18460442417E+04  0.46999998093E+01 0. -1.
       -5    1    3    3    0  502 -0.15596393015E+04  0.98563042905E+03 -0.33668981065E+03  0.18754530685E+04  0.46999998093E+01 0.  1.
</event>
<event>
 5   0  0.1184616E-06  0.3826549E+04  0.7818609E-02  0.8040481E-01
        2   -1    0    0  501    0  0.00000000000E+00  0.00000000000E+00  0.20993662573E+04  0.20993662573E+04  0.25500000920E-02 0. -1.
       -2   -1    0    0    0  501  0.00000000000E+00  0.00000000000E+00 -0.17436780559E+04  0.17436780559E+04  0.25500000920E-02 0.  1.
    10030    2    1    2    0    0  0.00000000000E+00  0.00000000000E+00  0.35568820140E+03  0.38430443131E+04  0.38265487709E+04 0.  0.
        5    1    3    3  502    0 -0.30681686201E+03  0.15028995114E+04 -0.97065601754E+03  0.18152241521E+04  0.46999998093E+01 0.  1.
       -5    1    3    3    0  502  0.30681686201E+03 -0.15028995114E+04  0.13263442189E+04  0.20278201610E+04  0.46999998093E+01 0. -1.
</event>
<event>
 5   0  0.1184616E-06  0.3796648E+04  0.7818609E-02  0.8046875E-01
       -2   -1    0    0    0  501  0.00000000000E+00  0.00000000000E+00  0.27083006382E+04  0.27083006382E+04  0.25500000920E-02 0.  1.
        2   -1    0    0  501    0  0.00000000000E+00  0.00000000000E+00 -0.13305888089E+04  0.13305888089E+04  0.25500000920E-02 0. -1.
    10030    2    1    2    0    0  0.00000000000E+00  0.00000000000E+00  0.13777118293E+04  0.40388894471E+04  0.37966482694E+04 0.  0.
        5    1    3    3  502    0 -0.95728908166E+03  0.10392180383E+03 -0.10514994945E+04  0.14257893968E+04  0.46999998093E+01 0. -1.
       -5    1    3    3    0  502  0.95728908166E+03 -0.10392180383E+03  0.24292113238E+04  0.26131000503E+04  0.46999998093E+01 0.  1.
</event>
<event>
 5   0  0.8030324E-07  0.2000998E+04  0.7818609E-02  0.8606154E-01
       -1   -1    0    0    0  501  0.00000000000E+00  0.00000000000E+00  0.71877258064E+03  0.71877258066E+03  0.50400001928E-02 0.  1.
        1   -1    0    0  501    0  0.00000000000E+00  0.00000000000E+00 -0.13926499781E+04  0.13926499781E+04  0.50400001928E-02 0. -1.
    10030    2    1    2    0    0  0.00000000000E+00  0.00000000000E+00 -0.67387739747E+03  0.21114225588E+04  0.20009983695E+04 0.  0.
        1    1    3    3  502    0 -0.35622590728E+03  0.24626936733E+03 -0.12886269048E+04  0.13594501822E+04  0.50400001928E-02 0. -1.
       -1    1    3    3    0  502  0.35622590728E+03 -0.24626936733E+03  0.61474950730E+03  0.75197237652E+03  0.50400001928E-02 0.  1.
</event>
<event>
 5   0  0.1337854E-06  0.2491689E+04  0.7818609E-02  0.8405952E-01
       -2   -1    0    0    0  501  0.00000000000E+00  0.00000000000E+00  0.76258940739E+03  0.76258940739E+03  0.25500000920E-02 0.  1.
        2   -1    0    0  501    0  0.00000000000E+00  0.00000000000E+00 -0.20353400990E+04  0.20353400990E+04  0.25500000920E-02 0. -1.
    10030    2    1    2    0    0  0.00000000000E+00  0.00000000000E+00 -0.12727506916E+04  0.27979295064E+04  0.24916892262E+04 0.  0.
        3    1    3    3  502    0 -0.11485214795E+03 -0.28579556177E+03  0.71916115984E+03  0.78234449128E+03  0.10100000352E+00 0.  1.
       -3    1    3    3    0  502  0.11485214795E+03  0.28579556177E+03 -0.19919118515E+04  0.20155850151E+04  0.10100000352E+00 0. -1.
</event>
<event>
 5   0  0.1184616E-06  0.2485213E+04  0.7818609E-02  0.8408272E-01
       -2   -1    0    0    0  501  0.00000000000E+00  0.00000000000E+00  0.86300084836E+03  0.86300084836E+03  0.25500000920E-02 0.  1.
        2   -1    0    0  501    0  0.00000000000E+00  0.00000000000E+00 -0.17891888521E+04  0.17891888521E+04  0.25500000920E-02 0. -1.
    10030    2    1    2    0    0  0.00000000000E+00  0.00000000000E+00 -0.92618800372E+03  0.26521897004E+04  0.24852134695E+04 0.  0.
        5    1    3    3  502    0 -0.23062903825E+03 -0.18232171810E+03 -0.17515298897E+04  0.17760377268E+04  0.46999998093E+01 0. -1.
       -5    1    3    3    0  502  0.23062903825E+03  0.18232171810E+03  0.82534188602E+03  0.87615197369E+03  0.46999998093E+01 0.  1.
</event>
<event>
 5   0  0.1214844E-06  0.3890891E+04  0.7818609E-02  0.8026926E-01
       -2   -1    0    0    0  501  0.00000000000E+00  0.00000000000E+00  0.18888718277E+04  0.18888718277E+04  0.25500000920E-02 0.  1.
        2   -1    0    0  501    0  0.00000000000E+00  0.00000000000E+00 -0.20037137638E+04  0.20037137638E+04  0.25500000920E-02 0. -1.
    10030    2    1    2    0    0  0.00000000000E+00  0.00000000000E+00 -0.11484193607E+03  0.38925855916E+04  0.38908911469E+04 0.  0.
        4    1    3    3  502    0  0.11165619505E+04  0.58742659364E+02 -0.16501556102E+04  0.19932828299E+04  0.12699999809E+01 0. -1.
       -4    1    3    3    0  502 -0.11165619505E+04 -0.58742659364E+02  0.15353136741E+04  0.18993027616E+04  0.12699999809E+01 0.  1.
</event>
<event>
 5   0  0.4795023E-07  0.2756005E+04  0.7818609E-02  0.8317059E-01
       -1   -1    0    0    0  501  0.00000000000E+00  0.00000000000E+00  0.80527742736E+03  0.80527742737E+03  0.50400001928E-02 0. -1.
        1   -1    0    0  501    0  0.00000000000E+00  0.00000000000E+00 -0.23580573771E+04  0.23580573771E+04  0.50400001928E-02 0.  1.
    10030    2    1    2    0    0  0.00000000000E+00  0.00000000000E+00 -0.15527799497E+04  0.31633348044E+04  0.27560046286E+04 0.  0.
        3    1    3    3  502    0 -0.12802542667E+04  0.35429900459E+03 -0.35573893030E+03  0.13751832492E+04  0.10100000352E+00 0. -1.
       -3    1    3    3    0  502  0.12802542667E+04 -0.35429900459E+03 -0.11970410194E+04  0.17881515552E+04  0.10100000352E+00 0.  1.
</event>
<event>
 5   0  0.4255250E-07  0.1907874E+04  0.7818609E-02  0.8650947E-01
       -1   -1    0    0    0  501  0.00000000000E+00  0.00000000000E+00  0.75678128212E+03  0.75678128214E+03  0.50400001928E-02 0.  1.
        1   -1    0    0  501    0  0.00000000000E+00  0.00000000000E+00 -0.12024556284E+04  0.12024556284E+04  0.50400001928E-02 0. -1.
    10030    2    1    2    0    0  0.00000000000E+00  0.00000000000E+00 -0.44567434630E+03  0.19592369106E+04  0.19078741177E+04 0.  0.
        2    1    3    3  502    0 -0.27853415524E+03 -0.29668146698E+02 -0.11592715698E+04  0.11926324024E+04  0.25500000920E-02 0. -1.
       -2    1    3    3    0  502  0.27853415524E+03  0.29668146698E+02  0.71359722353E+03  0.76660450820E+03  0.25500000920E-02 0.  1.
</event>
<event>
 5   0  0.1079205E-06  0.3752693E+04  0.7818609E-02  0.8056384E-01
       -1   -1    0    0    0  501  0.00000000000E+00  0.00000000000E+00  0.14731048801E+04  0.14731048801E+04  0.50400001928E-02 0. -1.
        1   -1    0    0  501    0  0.00000000000E+00  0.00000000000E+00 -0.23899699727E+04  0.23899699728E+04  0.50400001928E-02 0.  1.
    10030    2    1    2    0    0  0.00000000000E+00  0.00000000000E+00 -0.91686509268E+03  0.38630748528E+04  0.37526931290E+04 0.  0.
        4    1    3    3  502    0 -0.10026833380E+04  0.91814398637E+03 -0.17896493690E+04  0.22474894289E+04  0.12699999809E+01 0.  1.
       -4    1    3    3    0  502  0.10026833380E+04 -0.91814398637E+03  0.87278427637E+03  0.16155854239E+04  0.12699999809E+01 0. -1.
</event>
<event>
 5   0  0.8030324E-07  0.3755095E+04  0.7818609E-02  0.8055861E-01
       -1   -1    0    0    0  501  0.00000000000E+00  0.00000000000E+00  0.32123417005E+04  0.32123417005E+04  0.50400001928E-02 0. -1.
        1   -1    0    0  501    0  0.00000000000E+00  0.00000000000E+00 -0.10973880723E+04  0.10973880723E+04  0.50400001928E-02 0.  1.
    10030    2    1    2    0    0  0.00000000000E+00  0.00000000000E+00  0.21149536281E+04  0.43097297728E+04  0.37550954536E+04 0.  0.
        1    1    3    3  502    0 -0.22968422238E+02 -0.34092989537E+03 -0.10614009937E+04  0.11150483449E+04  0.50400001928E-02 0.  1.
       -1    1    3    3    0  502  0.22968422238E+02  0.34092989537E+03  0.31763546218E+04  0.31946814279E+04  0.50400001928E-02 0. -1.
</event>
<event>
 5   0  0.4795023E-07  0.4353691E+04  0.7818609E-02  0.7936764E-01
        1   -1    0    0  501    0  0.00000000000E+00  0.00000000000E+00  0.28785158961E+04  0.28785158961E+04  0.50400001928E-02 0.  1.
       -1   -1    0    0    0  501  0.00000000000E+00  0.00000000000E+00 -0.16462147450E+04  0.16462147450E+04  0.50400001928E-02 0. -1.
    10030    2    1    2    0    0  0.00000000000E+00  0.00000000000E+00  0.12323011511E+04  0.45247306411E+04  0.43536905319E+04 0.  0.
        3    1    3    3  502    0  0.50702891197E+03  0.35898635651E+03  0.27844279162E+04  0.28528912269E+04  0.10100000352E+00 0.  1.
       -3    1    3    3    0  502 -0.50702891197E+03 -0.35898635651E+03 -0.15521267651E+04  0.16718394142E+04  0.10100000352E+00 0. -1.
</event>
<event>
 5   0  0.1214844E-06  0.3629342E+04  0.7818609E-02  0.8083803E-01
       -2   -1    0    0    0  501  0.00000000000E+00  0.00000000000E+00  0.15900800754E+04  0.15900800754E+04  0.25500000920E-02 0. -1.
        2   -1    0    0  501    0  0.00000000000E+00  0.00000000000E+00 -0.20709847709E+04  0.20709847710E+04  0.25500000920E-02 0.  1.
    10030    2    1    2    0    0  0.00000000000E+00  0.00000000000E+00 -0.48090469559E+03  0.36610648463E+04  0.36293424312E+04 0.  0.
        4    1    3    3  502    0  0.11034632413E+04  0.13855581475E+04  0.15749228310E+03  0.17782598059E+04  0.12699999809E+01 0. -1.
       -4    1    3    3    0  502 -0.11034632413E+04 -0.13855581475E+04 -0.63839697869E+03  0.18828050404E+04  0.12699999809E+01 0.  1.
</event>
<event>
 5   0  0.1214844E-06  0.3658878E+04  0.7818609E-02  0.8077137E-01
       -2   -1    0    0    0  501  0.00000000000E+00  0.00000000000E+00  0.10653558368E+04  0.10653558368E+04  0.25500000920E-02 0.  1.
        2   -1    0    0  501    0  0.00000000000E+00  0.00000000000E+00 -0.31415295770E+04  0.31415295770E+04  0.25500000920E-02 0. -1.
    10030    2    1    2    0    0  0.00000000000E+00  0.00000000000E+00 -0.20761737402E+04  0.42068854138E+04  0.36588778997E+04 0.  0.
        4    1    3    3  502    0  0.86121216228E+03  0.62212886066E+03  0.67431128571E+03  0.12583433676E+04  0.12699999809E+01 0.  1.
       -4    1    3    3    0  502 -0.86121216228E+03 -0.62212886066E+03 -0.27504850259E+04  0.29485420462E+04  0.12699999809E+01 0. -1.
</event>
<event>
 5   0  0.4795023E-07  0.3716630E+04  0.7818609E-02  0.8064286E-01
        1   -1    0    0  501    0  0.00000000000E+00  0.00000000000E+00  0.21145127102E+04  0.21145127102E+04  0.50400001928E-02 0.  1.
       -1   -1    0    0    0  501  0.00000000000E+00  0.00000000000E+00 -0.16331582313E+04  0.16331582313E+04  0.50400001928E-02 0. -1.
    10030    2    1    2    0    0  0.00000000000E+00  0.00000000000E+00  0.48135447895E+03  0.37476709415E+04  0.37166295688E+04 0.  0.
        3    1    3    3  502    0  0.54575554863E+03  0.81896431330E+03  0.18301618739E+04  0.20779904139E+04  0.10100000352E+00 0.  1.
       -3    1    3    3    0  502 -0.54575554863E+03 -0.81896431330E+03 -0.13488073950E+04  0.16696805276E+04  0.10100000352E+00 0. -1.
</event>
<event>
 5   0  0.1372748E-06  0.2808906E+04  0.7818609E-02  0.8300509E-01
       -2   -1    0    0    0  501  0.00000000000E+00  0.00000000000E+00  0.19881951125E+04  0.19881951125E+04  0.25500000920E-02 0.  1.
        2   -1    0    0  501    0  0.00000000000E+00  0.00000000000E+00 -0.99209961467E+03  0.99209961467E+03  0.25500000920E-02 0. -1.
    10030    2    1    2    0    0  0.00000000000E+00  0.00000000000E+00  0.99609549782E+03  0.29802947272E+04  0.28089055555E+04 0.  0.
        1    1    3    3  502    0 -0.32755021740E+03 -0.27405654510E+03  0.19176271502E+04  0.19646093816E+04  0.50400001928E-02 0.  1.
       -1    1    3    3    0  502  0.32755021740E+03  0.27405654510E+03 -0.92153165241E+03  0.10156853456E+04  0.50400001928E-02 0. -1.
</event>
<event>
 5   0  0.5284458E-07  0.3733429E+04  0.7818609E-02  0.8060594E-01
       -1   -1    0    0    0  501  0.00000000000E+00  0.00000000000E+00  0.14216047362E+04  0.14216047362E+04  0.50400001928E-02 0.  1.
        1   -1    0    0  501    0  0.00000000000E+00  0.00000000000E+00 -0.24511899814E+04  0.24511899815E+04  0.50400001928E-02 0. -1.
    10030    2    1    2    0    0  0.00000000000E+00  0.00000000000E+00 -0.10295852452E+04  0.38727947177E+04  0.37334291407E+04 0.  0.
        5    1    3    3  502    0 -0.10143024892E+04 -0.17705522051E+03 -0.21299787017E+04  0.23657957330E+04  0.46999998093E+01 0. -1.
       -5    1    3    3    0  502  0.10143024892E+04  0.17705522051E+03  0.11003934565E+04  0.15069989847E+04  0.46999998093E+01 0.  1.
</event>
<event>
 5   0  0.1341932E-06  0.3884747E+04  0.7818609E-02  0.8028209E-01
       -2   -1    0    0    0  501  0.00000000000E+00  0.00000000000E+00  0.18874025571E+04  0.18874025571E+04  0.25500000920E-02 0. -1.
        2   -1    0    0  501    0  0.00000000000E+00  0.00000000000E+00 -0.19989450062E+04  0.19989450062E+04  0.25500000920E-02 0.  1.
    10030    2    1    2    0    0  0.00000000000E+00  0.00000000000E+00 -0.11154244911E+03  0.38863475634E+04  0.38847465381E+04 0.  0.
        2    1    3    3  502    0  0.71849661359E+03  0.10931900591E+03  0.17462556514E+04  0.18914536285E+04  0.25500000920E-02 0. -1.
       -2    1    3    3    0  502 -0.71849661359E+03 -0.10931900591E+03 -0.18577981005E+04  0.19948939348E+04  0.25500000920E-02 0.  1.
</event>
<event>
 5   0  0.4795023E-07  0.3704851E+04  0.7818609E-02  0.8066888E-01
       -1   -1    0    0    0  501  0.00000000000E+00  0.00000000000E+00  0.15608913572E+04  0.15608913572E+04  0.50400001928E-02 0.  1.
        1   -1    0    0  501    0  0.00000000000E+00  0.00000000000E+00 -0.21984110518E+04  0.21984110518E+04  0.50400001928E-02 0. -1.
    10030    2    1    2    0    0  0.00000000000E+00  0.00000000000E+00 -0.63751969456E+03  0.37593024090E+04  0.37048513117E+04 0.  0.
        3    1    3    3  502    0  0.31089019119E+03 -0.17883987269E+04 -0.69359137450E+03  0.19432168491E+04  0.10100000352E+00 0. -1.
       -3    1    3    3    0  502 -0.31089019119E+03  0.17883987269E+04  0.56071679940E+02  0.18160855599E+04  0.10100000352E+00 0.  1.
</event>
<event>
 5   0  0.4255250E-07  0.3962119E+04  0.7818609E-02  0.8012232E-01
       -3   -1    0    0    0  501  0.00000000000E+00  0.00000000000E+00  0.20670643543E+04  0.20670643568E+04  0.10100000352E+00 0. -1.
        3   -1    0    0  501    0  0.00000000000E+00  0.00000000000E+00 -0.18986327461E+04  0.18986327488E+04  0.10100000352E+00 0.  1.
    10030    2    1    2    0    0  0.00000000000E+00  0.00000000000E+00  0.16843160821E+03  0.39656971056E+04  0.39621186664E+04 0.  0.
        2    1    3    3  502    0 -0.18084814697E+03  0.60832696292E+03 -0.17941326137E+04  0.19030710921E+04  0.25500000920E-02 0.  1.
       -2    1    3    3    0  502  0.18084814697E+03 -0.60832696292E+03  0.19625642219E+04  0.20626260134E+04  0.25500000920E-02 0. -1.
</event>
<event>
 5   0  0.4795023E-07  0.3721910E+04  0.7818609E-02  0.8063124E-01
       -1   -1    0    0    0  501  0.00000000000E+00  0.00000000000E+00  0.20911104582E+04  0.20911104582E+04  0.50400001928E-02 0. -1.
        1   -1    0    0  501    0  0.00000000000E+00  0.00000000000E+00 -0.16561311585E+04  0.16561311585E+04  0.50400001928E-02 0.  1.
    10030    2    1    2    0    0  0.00000000000E+00  0.00000000000E+00  0.43497929962E+03  0.37472416167E+04  0.37219098247E+04 0.  0.
        3    1    3    3  502    0 -0.72115109715E+03  0.12343535495E+04 -0.98203253295E+03  0.17343804358E+04  0.10100000352E+00 0.  1.
       -3    1    3    3    0  502  0.72115109715E+03 -0.12343535495E+04  0.14170118326E+04  0.20128611810E+04  0.10100000352E+00 0. -1.
</event>
<event>
 5   0  0.1184616E-06  0.3826608E+04  0.7818609E-02  0.8040469E-01
       -2   -1    0    0    0  501  0.00000000000E+00  0.00000000000E+00  0.12549985837E+04  0.12549985837E+04  0.25500000920E-02 0. -1.
        2   -1    0    0  501    0  0.00000000000E+00  0.00000000000E+00 -0.29169211762E+04  0.29169211762E+04  0.25500000920E-02 0.  1.
    10030    2    1    2    0    0  0.00000000000E+00  0.00000000000E+00 -0.16619225925E+04  0.41719197599E+04  0.38266078686E+04 0.  0.
        5    1    3    3  502    0 -0.63806202270E+03  0.14002873060E+04 -0.20705701335E+04  0.25797694571E+04  0.46999998093E+01 0.  1.
       -5    1    3    3    0  502  0.63806202270E+03 -0.14002873060E+04  0.40864754098E+03  0.15921503028E+04  0.46999998093E+01 0. -1.
</event>
<event>
 5   0  0.1337854E-06  0.3729203E+04  0.7818609E-02  0.8061521E-01
        2   -1    0    0  501    0  0.00000000000E+00  0.00000000000E+00  0.18788831556E+04  0.18788831556E+04  0.25500000920E-02 0.  1.
       -2   -1    0    0    0  501  0.00000000000E+00  0.00000000000E+00 -0.18504284269E+04  0.18504284269E+04  0.25500000920E-02 0. -1.
    10030    2    1    2    0    0  0.00000000000E+00  0.00000000000E+00  0.28454728689E+02  0.37293115825E+04  0.37292030258E+04 0.  0.
        3    1    3    3  502    0 -0.55144757441E+03 -0.12889789107E+04  0.12435628408E+04  0.18740356477E+04  0.10100000352E+00 0.  1.
       -3    1    3    3    0  502  0.55144757441E+03  0.12889789107E+04 -0.12151081122E+04  0.18552759347E+04  0.10100000352E+00 0. -1.
</event>
<event>
 5   0  0.1372748E-06  0.1938696E+04  0.7818609E-02  0.8635831E-01
        2   -1    0    0  501    0  0.00000000000E+00  0.00000000000E+00  0.69815402329E+03  0.69815402329E+03  0.25500000920E-02 0. -1.
       -2   -1    0    0    0  501  0.00000000000E+00  0.00000000000E+00 -0.13458861604E+04  0.13458861604E+04  0.25500000920E-02 0.  1.
    10030    2    1    2    0    0  0.00000000000E+00  0.00000000000E+00 -0.64773213712E+03  0.20440401837E+04  0.19386963019E+04 0.  0.
        1    1    3    3  502    0 -0.96183382277E+03  0.10539705765E+03 -0.38537105499E+03  0.10415102940E+04  0.50400001928E-02 0.  1.
       -1    1    3    3    0  502  0.96183382277E+03 -0.10539705765E+03 -0.26236108213E+03  0.10025298897E+04  0.50400001928E-02 0. -1.
</event>
<event>
 5   0  0.4255250E-07  0.2998082E+04  0.7818609E-02  0.8244279E-01
       -1   -1    0    0    0  501  0.00000000000E+00  0.00000000000E+00  0.19000176534E+04  0.19000176534E+04  0.50400001928E-02 0.  1.
        1   -1    0    0  501    0  0.00000000000E+00  0.00000000000E+00 -0.11826859450E+04  0.11826859450E+04  0.50400001928E-02 0. -1.
    10030    2    1    2    0    0  0.00000000000E+00  0.00000000000E+00  0.71733170840E+03  0.30827035984E+04  0.29980821696E+04 0.  0.
        2    1    3    3  502    0  0.58658169139E+03 -0.58540207372E+03 -0.92573125904E+03  0.12424781819E+04  0.25500000920E-02 0. -1.
       -2    1    3    3    0  502 -0.58658169139E+03  0.58540207372E+03  0.16430629674E+04  0.18402254165E+04  0.25500000920E-02 0.  1.
</event>
<event>
 5   0  0.4795023E-07  0.3001272E+04  0.7818609E-02  0.8243368E-01
       -1   -1    0    0    0  501  0.00000000000E+00  0.00000000000E+00  0.13399843938E+04  0.13399843938E+04  0.50400001928E-02 0.  1.
        1   -1    0    0  501    0  0.00000000000E+00  0.00000000000E+00 -0.16805480724E+04  0.16805480724E+04  0.50400001928E-02 0. -1.
    10030    2    1    2    0    0  0.00000000000E+00  0.00000000000E+00 -0.34056367853E+03  0.30205324662E+04  0.30012718571E+04 0.  0.
        3    1    3    3  502    0 -0.22862169785E+03 -0.79077057159E+03 -0.14330539522E+04  0.16526432215E+04  0.10100000352E+00 0. -1.
       -3    1    3    3    0  502  0.22862169785E+03  0.79077057159E+03  0.10924902736E+04  0.13678892447E+04  0.10100000352E+00 0.  1.
</event>
<event>
 5   0  0.1184616E-06  0.3115473E+04  0.7818609E-02  0.8211504E-01
        2   -1    0    0  501    0  0.00000000000E+00  0.00000000000E+00  0.17689920331E+04  0.17689920331E+04  0.25500000920E-02 0. -1.
       -2   -1    0    0    0  501  0.00000000000E+00  0.00000000000E+00 -0.13717094835E+04  0.13717094835E+04  0.25500000920E-02 0.  1.
    10030    2    1    2    0    0  0.00000000000E+00  0.00000000000E+00  0.39728254963E+03  0.31407015166E+04  0.31154730928E+04 0.  0.
        5    1    3    3  502    0  0.14077570678E+04 -0.21367234405E+03 -0.43820627817E+03  0.14897928262E+04  0.46999998093E+01 0.  1.
       -5    1    3    3    0  502 -0.14077570678E+04  0.21367234405E+03  0.83548882781E+03  0.16509086904E+04  0.46999998093E+01 0. -1.
</event>
<event>
 5   0  0.4255250E-07  0.1989257E+04  0.7818609E-02  0.8611660E-01
       -3   -1    0    0    0  501  0.00000000000E+00  0.00000000000E+00  0.17498239332E+04  0.17498239362E+04  0.10100000352E+00 0. -1.
        3   -1    0    0  501    0  0.00000000000E+00  0.00000000000E+00 -0.56536300535E+03  0.56536301437E+03  0.10100000352E+00 0.  1.
    10030    2    1    2    0    0  0.00000000000E+00  0.00000000000E+00  0.11844609279E+04  0.23151869505E+04  0.19892568779E+04 0.  0.
        5    1    3    3  502    0  0.52563610972E+03  0.42308569483E+03  0.14426890013E+04  0.15926922080E+04  0.46999998093E+01 0. -1.
       -5    1    3    3    0  502 -0.52563610972E+03 -0.42308569483E+03 -0.25822807344E+03  0.72249474249E+03  0.46999998093E+01 0.  1.
</event>
<event>
 5   0  0.8030324E-07  0.2425715E+04  0.7818609E-02  0.8429938E-01
       -1   -1    0    0    0  501  0.00000000000E+00  0.00000000000E+00  0.72174732278E+03  0.72174732280E+03  0.50400001928E-02 0.  1.
        1   -1    0    0  501    0  0.00000000000E+00  0.00000000000E+00 -0.20381420234E+04  0.20381420234E+04  0.50400001928E-02 0. -1.
    10030    2    1    2    0    0  0.00000000000E+00  0.00000000000E+00 -0.13163947006E+04  0.27598893462E+04  0.24257151925E+04 0.  0.
        1    1    3    3  502    0  0.15932201508E+03 -0.68963246869E+03 -0.17787912995E+04  0.19144385427E+04  0.50400001928E-02 0. -1.
       -1    1    3    3    0  502 -0.15932201508E+03  0.68963246869E+03  0.46239659896E+03  0.84545080348E+03  0.50400001928E-02 0.  1.
</event>
<event>
 5   0  0.1184616E-06  0.3645921E+04  0.7818609E-02  0.8080053E-01
       -2   -1    0    0    0  501  0.00000000000E+00  0.00000000000E+00  0.14389898431E+04  0.14389898431E+04  0.25500000920E-02 0. -1.
        2   -1    0    0  501    0  0.00000000000E+00  0.00000000000E+00 -0.23093872258E+04  0.23093872258E+04  0.25500000920E-02 0.  1.
    10030    2    1    2    0    0  0.00000000000E+00  0.00000000000E+00 -0.87039738264E+03  0.37483770689E+04  0.36459208778E+04 0.  0.
        5    1    3    3  502    0 -0.38044054349E+03 -0.29629400158E+03 -0.22426227953E+04  0.22938840935E+04  0.46999998093E+01 0.  1.
       -5    1    3    3    0  502  0.38044054349E+03  0.29629400158E+03  0.13722254126E+04  0.14544929754E+04  0.46999998093E+01 0. -1.
</event>
<event>
 5   0  0.1184616E-06  0.3669220E+04  0.7818609E-02  0.8074818E-01
        2   -1    0    0  501    0  0.00000000000E+00  0.00000000000E+00  0.26760029466E+04  0.26760029466E+04  0.25500000920E-02 0.  1.
       -2   -1    0    0    0  501  0.00000000000E+00  0.00000000000E+00 -0.12577688203E+04  0.12577688203E+04  0.25500000920E-02 0. -1.
    10030    2    1    2    0    0  0.00000000000E+00  0.00000000000E+00  0.14182341263E+04  0.39337717669E+04  0.36692195733E+04 0.  0.
        5    1    3    3  502    0 -0.10347135041E+04  0.14504886914E+04  0.11779345665E+04  0.21359076320E+04  0.46999998093E+01 0. -1.
       -5    1    3    3    0  502  0.10347135041E+04 -0.14504886914E+04  0.24029955982E+03  0.17978641350E+04  0.46999998093E+01 0.  1.
</event>
<event>
 5   0  0.1214844E-06  0.2280132E+04  0.7818609E-02  0.8485796E-01
       -2   -1    0    0    0  501  0.00000000000E+00  0.00000000000E+00  0.25190763084E+04  0.25190763084E+04  0.25500000920E-02 0. -1.
        2   -1    0    0  501    0  0.00000000000E+00  0.00000000000E+00 -0.51596311195E+03  0.51596311196E+03  0.25500000920E-02 0.  1.
    10030    2    1    2    0    0  0.00000000000E+00  0.00000000000E+00  0.20031131964E+04  0.30350394204E+04  0.22801319710E+04 0.  0.
        4    1    3    3  502    0  0.24350738344E+03  0.10585369778E+04  0.14625650955E+04  0.18217833709E+04  0.12699999809E+01 0. -1.
       -4    1    3    3    0  502 -0.24350738344E+03 -0.10585369778E+04  0.54054810100E+03  0.12132560495E+04  0.12699999809E+01 0.  1.
</event>
<event>
 5   0  0.1372748E-06  0.2221749E+04  0.7818609E-02  0.8509430E-01
       -2   -1    0    0    0  501  0.00000000000E+00  0.00000000000E+00  0.44504166052E+03  0.44504166053E+03  0.25500000920E-02 0. -1.
        2   -1    0    0  501    0  0.00000000000E+00  0.00000000000E+00 -0.27728698726E+04  0.27728698726E+04  0.25500000920E-02 0.  1.
    10030    2    1    2    0    0  0.00000000000E+00  0.00000000000E+00 -0.23278282121E+04  0.32179115331E+04  0.22217494121E+04 0.  0.
        1    1    3    3  502    0 -0.34980163977E+03  0.53088425152E+02  0.36125493570E+03  0.50565274316E+03  0.50400001928E-02 0. -1.
       -1    1    3    3    0  502  0.34980163977E+03 -0.53088425152E+02 -0.26890831478E+04  0.27122587900E+04  0.50400001928E-02 0.  1.
</event>
<event>
 5   0  0.1372748E-06  0.2021435E+04  0.7818609E-02  0.8596664E-01
       -2   -1    0    0    0  501  0.00000000000E+00  0.00000000000E+00  0.14879303274E+04  0.14879303274E+04  0.25500000920E-02 0. -1.
        2   -1    0    0  501    0  0.00000000000E+00  0.00000000000E+00 -0.68655782052E+03  0.68655782053E+03  0.25500000920E-02 0.  1.
    10030    2    1    2    0    0  0.00000000000E+00  0.00000000000E+00  0.80137250689E+03  0.21744881479E+04  0.20214353343E+04 0.  0.
        1    1    3    3  502    0 -0.16144310383E+03  0.33066455629E+03 -0.61194224593E+03  0.71405618612E+03  0.50400001928E-02 0.  1.
       -1    1    3    3    0  502  0.16144310383E+03 -0.33066455629E+03  0.14133147528E+04  0.14604319618E+04  0.50400001928E-02 0. -1.
</event>
<event>
 5   0  0.4255250E-07  0.3591122E+04  0.7818609E-02  0.8092528E-01
       -1   -1    0    0    0  501  0.00000000000E+00  0.00000000000E+00  0.14138522674E+04  0.14138522674E+04  0.50400001928E-02 0.  1.
        1   -1    0    0  501    0  0.00000000000E+00  0.00000000000E+00 -0.22803226248E+04  0.22803226248E+04  0.50400001928E-02 0. -1.
    10030    2    1    2    0    0  0.00000000000E+00  0.00000000000E+00 -0.86647035741E+03  0.36941748923E+04  0.35911220050E+04 0.  0.
        2    1    3    3  502    0  0.10387441716E+04 -0.63865569238E+03 -0.17890747290E+04  0.21651002133E+04  0.25500000920E-02 0. -1.
       -2    1    3    3    0  502 -0.10387441716E+04  0.63865569238E+03  0.92260437162E+03  0.15290746790E+04  0.25500000920E-02 0.  1.
</event>
<event>
 5   0  0.1372748E-06  0.3753434E+04  0.7818609E-02  0.8056222E-01
       -2   -1    0    0    0  501  0.00000000000E+00  0.00000000000E+00  0.16899092791E+04  0.16899092791E+04  0.25500000920E-02 0.  1.
        2   -1    0    0  501    0  0.00000000000E+00  0.00000000000E+00 -0.20841746183E+04  0.20841746183E+04  0.25500000920E-02 0. -1.
    10030    2    1    2    0    0  0.00000000000E+00  0.00000000000E+00 -0.39426533919E+03  0.37740838974E+04  0.37534336423E+04 0.  0.
        1    1    3    3  502    0 -0.57962974461E+03  0.10796519922E+04 -0.16263771876E+04  0.20363501226E+04  0.50400001928E-02 0. -1.
       -1    1    3    3    0  502  0.57962974461E+03 -0.10796519922E+04  0.12321118485E+04  0.17377337748E+04  0.50400001928E-02 0.  1.
</event>
<event>
 5   0  0.5284458E-07  0.3535368E+04  0.7818609E-02  0.8105459E-01
        1   -1    0    0  501    0  0.00000000000E+00  0.00000000000E+00  0.19950477341E+04  0.19950477341E+04  0.50400001928E-02 0.  1.
       -1   -1    0    0    0  501  0.00000000000E+00  0.00000000000E+00 -0.15662319719E+04  0.15662319719E+04  0.50400001928E-02 0. -1.
    10030    2    1    2    0    0  0.00000000000E+00  0.00000000000E+00  0.42881576213E+03  0.35612797060E+04  0.35353684655E+04 0.  0.
        5    1    3    3  502    0  0.29544891371E+03  0.57442476463E+03 -0.14430791794E+04  0.15810608714E+04  0.46999998093E+01 0. -1.
       -5    1    3    3    0  502 -0.29544891371E+03 -0.57442476463E+03  0.18718949416E+04  0.19802188347E+04  0.46999998093E+01 0.  1.
</event>
<event>
 5   0  0.1214844E-06  0.3718350E+04  0.7818609E-02  0.8063907E-01
        2   -1    0    0  501    0  0.00000000000E+00  0.00000000000E+00  0.24066950944E+04  0.24066950944E+04  0.25500000920E-02 0.  1.
       -2   -1    0    0    0  501  0.00000000000E+00  0.00000000000E+00 -0.14362152189E+04  0.14362152189E+04  0.25500000920E-02 0. -1.
    10030    2    1    2    0    0  0.00000000000E+00  0.00000000000E+00  0.97047987550E+03  0.38429103133E+04  0.37183502373E+04 0.  0.
        4    1    3    3  502    0 -0.17318128411E+04  0.30150347459E+03  0.11108699621E+04  0.20794503474E+04  0.12699999809E+01 0.  1.
       -4    1    3    3    0  502  0.17318128411E+04 -0.30150347459E+03 -0.14039008659E+03  0.17634599659E+04  0.12699999809E+01 0. -1.
</event>
<event>
 5   0  0.8030324E-07  0.3838115E+04  0.7818609E-02  0.8038025E-01
        1   -1    0    0  501    0  0.00000000000E+00  0.00000000000E+00  0.21459162058E+04  0.21459162058E+04  0.50400001928E-02 0. -1.
       -1   -1    0    0    0  501  0.00000000000E+00  0.00000000000E+00 -0.17161811028E+04  0.17161811028E+04  0.50400001928E-02 0.  1.
    10030    2    1    2    0    0  0.00000000000E+00  0.00000000000E+00  0.42973510306E+03  0.38620973086E+04  0.38381145582E+04 0.  0.
        1    1    3    3  502    0 -0.12494418067E+04  0.10522040058E+04  0.12284065245E+04  0.20438250139E+04  0.50400001928E-02 0. -1.
       -1    1    3    3    0  502  0.12494418067E+04 -0.10522040058E+04 -0.79867142143E+03  0.18182722947E+04  0.50400001928E-02 0.  1.
</event>
<event>
 5   0  0.1337854E-06  0.2746701E+04  0.7818609E-02  0.8320009E-01
        2   -1    0    0  501    0  0.00000000000E+00  0.00000000000E+00  0.10715977266E+04  0.10715977266E+04  0.25500000920E-02 0.  1.
       -2   -1    0    0    0  501  0.00000000000E+00  0.00000000000E+00 -0.17600743507E+04  0.17600743507E+04  0.25500000920E-02 0. -1.
    10030    2    1    2    0    0  0.00000000000E+00  0.00000000000E+00 -0.68847662411E+03  0.28316720773E+04  0.27467010561E+04 0.  0.
        3    1    3    3  502    0 -0.81549585614E+03 -0.11045948831E+04 -0.37564913814E+03  0.14234730881E+04  0.10100000352E+00 0.  1.
       -3    1    3    3    0  502  0.81549585614E+03  0.11045948831E+04 -0.31282748596E+03  0.14081989893E+04  0.10100000352E+00 0. -1.
</event>
<event>
 5   0  0.1337854E-06  0.3835338E+04  0.7818609E-02  0.8038614E-01
        2   -1    0    0  501    0  0.00000000000E+00  0.00000000000E+00  0.25180302066E+04  0.25180302066E+04  0.25500000920E-02 0.  1.
       -2   -1    0    0    0  501  0.00000000000E+00  0.00000000000E+00 -0.14604488144E+04  0.14604488144E+04  0.25500000920E-02 0. -1.
    10030    2    1    2    0    0  0.00000000000E+00  0.00000000000E+00  0.10575813923E+04  0.39784790210E+04  0.38353379146E+04 0.  0.
        3    1    3    3  502    0 -0.44984416995E+03 -0.16288818471E+04  0.14691777586E+04  0.22392184229E+04  0.10100000352E+00 0.  1.
       -3    1    3    3    0  502  0.44984416995E+03  0.16288818471E+04 -0.41159636630E+03  0.17392605981E+04  0.10100000352E+00 0. -1.
</event>
<event>
 5   0  0.1337854E-06  0.4032992E+04  0.7818609E-02  0.7997924E-01
       -2   -1    0    0    0  501  0.00000000000E+00  0.00000000000E+00  0.13452209693E+04  0.13452209693E+04  0.25500000920E-02 0.  1.
        2   -1    0    0  501    0  0.00000000000E+00  0.00000000000E+00 -0.30227428281E+04  0.30227428281E+04  0.25500000920E-02 0. -1.
    10030    2    1    2    0    0  0.00000000000E+00  0.00000000000E+00 -0.16775218587E+04  0.43679637974E+04  0.40329924558E+04 0.  0.
        3    1    3    3  502    0 -0.11727163296E+04 -0.14732923475E+04 -0.57454215185E+02  0.18839200959E+04  0.10100000352E+00 0.  1.
       -3    1    3    3    0  502  0.11727163296E+04  0.14732923475E+04 -0.16200676435E+04  0.24840437014E+04  0.10100000352E+00 0. -1.
</event>
<event>
 5   0  0.4255250E-07  0.2959354E+04  0.7818609E-02  0.8255434E-01
        1   -1    0    0  501    0  0.00000000000E+00  0.00000000000E+00  0.21147441303E+04  0.21147441304E+04  0.50400001928E-02 0. -1.
       -1   -1    0    0    0  501  0.00000000000E+00  0.00000000000E+00 -0.10353236932E+04  0.10353236932E+04  0.50400001928E-02 0.  1.
    10030    2    1    2    0    0  0.00000000000E+00  0.00000000000E+00  0.10794204371E+04  0.31500678236E+04  0.29593544588E+04 0.  0.
        2    1    3    3  502    0  0.96105124129E+03 -0.10905726007E+04  0.24534448481E+03  0.14741648490E+04  0.25500000920E-02 0.  1.
       -2    1    3    3    0  502 -0.96105124129E+03  0.10905726007E+04  0.83407595234E+03  0.16759029745E+04  0.25500000920E-02 0. -1.
</event>
<event>
 5   0  0.1184616E-06  0.2712072E+04  0.7818609E-02  0.8331099E-01
       -2   -1    0    0    0  501  0.00000000000E+00  0.00000000000E+00  0.92227089521E+03  0.92227089522E+03  0.25500000920E-02 0.  1.
        2   -1    0    0  501    0  0.00000000000E+00  0.00000000000E+00 -0.19938102597E+04  0.19938102597E+04  0.25500000920E-02 0. -1.
    10030    2    1    2    0    0  0.00000000000E+00  0.00000000000E+00 -0.10715393645E+04  0.29160811549E+04  0.27120716607E+04 0.  0.
        5    1    3    3  502    0 -0.85835523112E+03  0.94935470755E+03 -0.53999069508E+02  0.12810097787E+04  0.46999998093E+01 0.  1.
       -5    1    3    3    0  502  0.85835523112E+03 -0.94935470755E+03 -0.10175402950E+04  0.16350713763E+04  0.46999998093E+01 0. -1.
</event>
<event>
 5   0  0.1184616E-06  0.3824049E+04  0.7818609E-02  0.8041014E-01
       -2   -1    0    0    0  501  0.00000000000E+00  0.00000000000E+00  0.16350046709E+04  0.16350046709E+04  0.25500000920E-02 0. -1.
        2   -1    0    0  501    0  0.00000000000E+00  0.00000000000E+00 -0.22359795532E+04  0.22359795532E+04  0.25500000920E-02 0.  1.
    10030    2    1    2    0    0  0.00000000000E+00  0.00000000000E+00 -0.60097488232E+03  0.38709842242E+04  0.38240486470E+04 0.  0.
        5    1    3    3  502    0 -0.18201624873E+03 -0.47254811790E+03 -0.21668587960E+04  0.22252484739E+04  0.46999998093E+01 0.  1.
       -5    1    3    3    0  502  0.18201624873E+03  0.47254811790E+03  0.15658839137E+04  0.16457357503E+04  0.46999998093E+01 0. -1.
</event>
<event>
 5   0  0.1214844E-06  0.1867146E+04  0.7818609E-02  0.8671385E-01
       -2   -1    0    0    0  501  0.00000000000E+00  0.00000000000E+00  0.13180229849E+04  0.13180229849E+04  0.25500000920E-02 0. -1.
        2   -1    0    0  501    0  0.00000000000E+00  0.00000000000E+00 -0.66126227475E+03  0.66126227476E+03  0.25500000920E-02 0.  1.
    10030    2    1    2    0    0  0.00000000000E+00  0.00000000000E+00  0.65676071010E+03  0.19792852596E+04  0.18671463544E+04 0.  0.
        4    1    3    3  502    0  0.37141534089E+03  0.32917146544E+03 -0.50984016402E+03  0.71150672158E+03  0.12699999809E+01 0.  1.
       -4    1    3    3    0  502 -0.37141534089E+03 -0.32917146544E+03  0.11666008741E+04  0.12677785380E+04  0.12699999809E+01 0. -1.
</event>
<event>
 5   0  0.1214844E-06  0.3682876E+04  0.7818609E-02  0.8071767E-01
       -2   -1    0    0    0  501  0.00000000000E+00  0.00000000000E+00  0.12960394073E+04  0.12960394073E+04  0.25500000920E-02 0. -1.
        2   -1    0    0  501    0  0.00000000000E+00  0.00000000000E+00 -0.26163504600E+04  0.26163504600E+04  0.25500000920E-02 0.  1.
    10030    2    1    2    0    0  0.00000000000E+00  0.00000000000E+00 -0.13203110527E+04  0.39123898673E+04  0.36828756696E+04 0.  0.
        4    1    3    3  502    0  0.14673161535E+03  0.18154034672E+04 -0.94849601026E+03  0.20535009642E+04  0.12699999809E+01 0.  1.
       -4    1    3    3    0  502 -0.14673161535E+03 -0.18154034672E+04 -0.37181504244E+03  0.18588889031E+04  0.12699999809E+01 0. -1.
</event>
<event>
 5   0  0.4255250E-07  0.2802395E+04  0.7818609E-02  0.8302525E-01
        1   -1    0    0  501    0  0.00000000000E+00  0.00000000000E+00  0.18786525936E+04  0.18786525936E+04  0.50400001928E-02 0.  1.
       -1   -1    0    0    0  501  0.00000000000E+00  0.00000000000E+00 -0.10450862702E+04  0.10450862702E+04  0.50400001928E-02 0. -1.
    10030    2    1    2    0    0  0.00000000000E+00  0.00000000000E+00  0.83356632337E+03  0.29237388638E+04  0.28023947131E+04 0.  0.
        2    1    3    3  502    0 -0.11532130732E+04 -0.79212853210E+03  0.33606362472E+03  0.14388560607E+04  0.25500000920E-02 0. -1.
       -2    1    3    3    0  502  0.11532130732E+04  0.79212853210E+03  0.49750269866E+03  0.14848828031E+04  0.25500000920E-02 0.  1.
</event>
<event>
 5   0  0.1337854E-06  0.3851619E+04  0.7818609E-02  0.8035168E-01
       -2   -1    0    0    0  501  0.00000000000E+00  0.00000000000E+00  0.18443768188E+04  0.18443768188E+04  0.25500000920E-02 0.  1.
        2   -1    0    0  501    0  0.00000000000E+00  0.00000000000E+00 -0.20108371509E+04  0.20108371509E+04  0.25500000920E-02 0. -1.
    10030    2    1    2    0    0  0.00000000000E+00  0.00000000000E+00 -0.16646033220E+03  0.38552139697E+04  0.38516185831E+04 0.  0.
        3    1    3    3  502    0  0.85338022595E+03  0.21699310786E+03  0.16310850489E+04  0.18535863254E+04  0.10100000352E+00 0.  1.
       -3    1    3    3    0  502 -0.85338022595E+03 -0.21699310786E+03 -0.17975453811E+04  0.20016276443E+04  0.10100000352E+00 0. -1.
</event>
<event>
 5   0  0.8030324E-07  0.3790284E+04  0.7818609E-02  0.8048243E-01
        1   -1    0    0  501    0  0.00000000000E+00  0.00000000000E+00  0.29552618995E+04  0.29552618995E+04  0.50400001928E-02 0.  1.
       -1   -1    0    0    0  501  0.00000000000E+00  0.00000000000E+00 -0.12153114505E+04  0.12153114506E+04  0.50400001928E-02 0. -1.
    10030    2    1    2    0    0  0.00000000000E+00  0.00000000000E+00  0.17399504489E+04  0.41705733500E+04  0.37902842246E+04 0.  0.
        1    1    3    3  502    0 -0.66919474350E+03  0.14371257409E+04  0.20126332293E+04  0.25620001006E+04  0.50400001928E-02 0.  1.
       -1    1    3    3    0  502  0.66919474350E+03 -0.14371257409E+04 -0.27268278037E+03  0.16085732494E+04  0.50400001928E-02 0. -1.
</event>
<event>
 5   0  0.1372748E-06  0.2452985E+04  0.7818609E-02  0.8419929E-01
        2   -1    0    0  501    0  0.00000000000E+00  0.00000000000E+00  0.18687810713E+04  0.18687810713E+04  0.25500000920E-02 0.  1.
       -2   -1    0    0    0  501  0.00000000000E+00  0.00000000000E+00 -0.80495462747E+03  0.80495462747E+03  0.25500000920E-02 0. -1.
    10030    2    1    2    0    0  0.00000000000E+00  0.00000000000E+00  0.10638264438E+04  0.26737356988E+04  0.24529850966E+04 0.  0.
        1    1    3    3  502    0  0.44055321182E+03  0.10834153660E+04  0.93448512374E+03  0.14970432306E+04  0.50400001928E-02 0.  1.
       -1    1    3    3    0  502 -0.44055321182E+03 -0.10834153660E+04  0.12934132010E+03  0.11766924682E+04  0.50400001928E-02 0. -1.
</event>
<event>
 5   0  0.1341932E-06  0.3782315E+04  0.7818609E-02  0.8049961E-01
       -2   -1    0    0    0  501  0.00000000000E+00  0.00000000000E+00  0.18540122884E+04  0.18540122884E+04  0.25500000920E-02 0.  1.
        2   -1    0    0  501    0  0.00000000000E+00  0.00000000000E+00 -0.19290472500E+04  0.19290472500E+04  0.25500000920E-02 0. -1.
    10030    2    1    2    0    0  0.00000000000E+00  0.00000000000E+00 -0.75034961626E+02  0.37830595384E+04  0.37823153260E+04 0.  0.
        2    1    3    3  502    0 -0.82231675902E+03  0.14743726679E+04  0.81499856685E+03  0.18746205696E+04  0.25500000920E-02 0.  1.
       -2    1    3    3    0  502  0.82231675902E+03 -0.14743726679E+04 -0.89003352848E+03  0.19084389688E+04  0.25500000920E-02 0. -1.
</event>
<event>
 5   0  0.8030324E-07  0.2572725E+04  0.7818609E-02  0.8377525E-01
       -1   -1    0    0    0  501  0.00000000000E+00  0.00000000000E+00  0.15506716278E+04  0.15506716278E+04  0.50400001928E-02 0.  1.
        1   -1    0    0  501    0  0.00000000000E+00  0.00000000000E+00 -0.10671041017E+04  0.10671041017E+04  0.50400001928E-02 0. -1.
    10030    2    1    2    0    0  0.00000000000E+00  0.00000000000E+00  0.48356752603E+03  0.26177757295E+04  0.25727246681E+04 0.  0.
        1    1    3    3  502    0 -0.22637936735E+03 -0.97637967461E+03  0.10622303401E+04  0.14604445153E+04  0.50400001928E-02 0.  1.
       -1    1    3    3    0  502  0.22637936735E+03  0.97637967461E+03 -0.57866281403E+03  0.11573312142E+04  0.50400001928E-02 0. -1.
</event>
<event>
 5   0  0.4255250E-07  0.3586802E+04  0.7818609E-02  0.8093522E-01
        1   -1    0    0  501    0  0.00000000000E+00  0.00000000000E+00  0.14376958139E+04  0.14376958139E+04  0.50400001928E-02 0.  1.
       -1   -1    0    0    0  501  0.00000000000E+00  0.00000000000E+00 -0.22371122823E+04  0.22371122823E+04  0.50400001928E-02 0. -1.
    10030    2    1    2    0    0  0.00000000000E+00  0.00000000000E+00 -0.79941646838E+03  0.36748080963E+04  0.35868018979E+04 0.  0.
        2    1    3    3  502    0  0.56911800916E+03  0.24530822432E+01 -0.21421383624E+04  0.22164516890E+04  0.25500000920E-02 0. -1.
       -2    1    3    3    0  502 -0.56911800916E+03 -0.24530822432E+01  0.13427218940E+04  0.14583564073E+04  0.25500000920E-02 0.  1.
</event>
<event>
 5   0  0.1214844E-06  0.2520975E+04  0.7818609E-02  0.8395551E-01
        2   -1    0    0  501    0  0.00000000000E+00  0.00000000000E+00  0.11886329140E+04  0.11886329140E+04  0.25500000920E-02 0.  1.
       -2   -1    0    0    0  501  0.00000000000E+00  0.00000000000E+00 -0.13366856908E+04  0.13366856908E+04  0.25500000920E-02 0. -1.
    10030    2    1    2    0    0  0.00000000000E+00  0.00000000000E+00 -0.14805277685E+03  0.25253186048E+04  0.25209748969E+04 0.  0.
        4    1    3    3  502    0 -0.11104526640E+04  0.58338974821E+03  0.50196465768E+02  0.12553764437E+04  0.12699999809E+01 0.  1.
       -4    1    3    3    0  502  0.11104526640E+04 -0.58338974821E+03 -0.19824924262E+03  0.12699421611E+04  0.12699999809E+01 0. -1.
</event>
<event>
 5   0  0.1214844E-06  0.3744334E+04  0.7818609E-02  0.8058207E-01
       -2   -1    0    0    0  501  0.00000000000E+00  0.00000000000E+00  0.25960559037E+04  0.25960559037E+04  0.25500000920E-02 0.  1.
        2   -1    0    0  501    0  0.00000000000E+00  0.00000000000E+00 -0.13501284446E+04  0.13501284446E+04  0.25500000920E-02 0. -1.
    10030    2    1    2    0    0  0.00000000000E+00  0.00000000000E+00  0.12459274591E+04  0.39461843484E+04  0.37443338096E+04 0.  0.
        4    1    3    3  502    0 -0.71975675331E+03 -0.12962445309E+03 -0.11933562868E+04  0.13996260654E+04  0.12699999809E+01 0. -1.
       -4    1    3    3    0  502  0.71975675331E+03  0.12962445309E+03  0.24392837459E+04  0.25465582830E+04  0.12699999809E+01 0.  1.
</event>
<event>
 5   0  0.8030324E-07  0.3916922E+04  0.7818609E-02  0.8021519E-01
        1   -1    0    0  501    0  0.00000000000E+00  0.00000000000E+00  0.15893416255E+04  0.15893416255E+04  0.50400001928E-02 0. -1.
       -1   -1    0    0    0  501  0.00000000000E+00  0.00000000000E+00 -0.24133071565E+04  0.24133071565E+04  0.50400001928E-02 0.  1.
    10030    2    1    2    0    0  0.00000000000E+00  0.00000000000E+00 -0.82396553105E+03  0.40026487820E+04  0.39169220156E+04 0.  0.
        1    1    3    3  502    0  0.48500623187E+03  0.57768069062E+03 -0.22589198418E+04  0.23815257456E+04  0.50400001928E-02 0.  1.
       -1    1    3    3    0  502 -0.48500623187E+03 -0.57768069062E+03  0.14349543107E+04  0.16211230364E+04  0.50400001928E-02 0. -1.
</event>
<event>
 5   0  0.4401523E-07  0.2242687E+04  0.7818609E-02  0.8500868E-01
        1   -1    0    0  501    0  0.00000000000E+00  0.00000000000E+00  0.18014826681E+04  0.18014826681E+04  0.50400001928E-02 0.  1.
       -1   -1    0    0    0  501  0.00000000000E+00  0.00000000000E+00 -0.69798699449E+03  0.69798699451E+03  0.50400001928E-02 0. -1.
    10030    2    1    2    0    0  0.00000000000E+00  0.00000000000E+00  0.11034956736E+04  0.24994696626E+04  0.22426872035E+04 0.  0.
        2    1    3    3  502    0 -0.10802277770E+04  0.25739282196E+03  0.72536768153E+03  0.13263865908E+04  0.25500000920E-02 0.  1.
       -2    1    3    3    0  502  0.10802277770E+04 -0.25739282196E+03  0.37812799210E+03  0.11730830718E+04  0.25500000920E-02 0. -1.
</event>
<event>
 5   0  0.1184616E-06  0.3832201E+04  0.7818609E-02  0.8039280E-01
        2   -1    0    0  501    0  0.00000000000E+00  0.00000000000E+00  0.14516391500E+04  0.14516391500E+04  0.25500000920E-02 0. -1.
       -2   -1    0    0    0  501  0.00000000000E+00  0.00000000000E+00 -0.25291686971E+04  0.25291686971E+04  0.25500000920E-02 0.  1.
    10030    2    1    2    0    0  0.00000000000E+00  0.00000000000E+00 -0.10775295472E+04  0.39808078471E+04  0.38322005676E+04 0.  0.
        5    1    3    3  502    0  0.74251179182E+03 -0.12017263694E+03  0.12918604733E+04  0.14948882220E+04  0.46999998093E+01 0. -1.
       -5    1    3    3    0  502 -0.74251179182E+03  0.12017263694E+03 -0.23693900205E+04  0.24859196251E+04  0.46999998093E+01 0.  1.
</event>
<event>
 5   0  0.1184616E-06  0.2017333E+04  0.7818609E-02  0.8598559E-01
        2   -1    0    0  501    0  0.00000000000E+00  0.00000000000E+00  0.74787766557E+03  0.74787766558E+03  0.25500000920E-02 0. -1.
       -2   -1    0    0    0  501  0.00000000000E+00  0.00000000000E+00 -0.13603941167E+04  0.13603941167E+04  0.25500000920E-02 0.  1.
    10030    2    1    2    0    0  0.00000000000E+00  0.00000000000E+00 -0.61251645117E+03  0.21082717823E+04  0.20173332658E+04 0.  0.
        5    1    3    3  502    0 -0.86674888421E+03 -0.33545466571E+03  0.10333102274E+03  0.93513787823E+03  0.46999998093E+01 0. -1.
       -5    1    3    3    0  502  0.86674888421E+03  0.33545466571E+03 -0.71584747391E+03  0.11731339041E+04  0.46999998093E+01 0.  1.
</event>
<event>
 5   0  0.1341932E-06  0.3666800E+04  0.7818609E-02  0.8075359E-01
       -2   -1    0    0    0  501  0.00000000000E+00  0.00000000000E+00  0.16683931707E+04  0.16683931707E+04  0.25500000920E-02 0.  1.
        2   -1    0    0  501    0  0.00000000000E+00  0.00000000000E+00 -0.20147267659E+04  0.20147267659E+04  0.25500000920E-02 0. -1.
    10030    2    1    2    0    0  0.00000000000E+00  0.00000000000E+00 -0.34633359520E+03  0.36831199365E+04  0.36668004456E+04 0.  0.
        2    1    3    3  502    0 -0.13092027896E+03 -0.73761508733E+03 -0.18539762329E+04  0.19996109643E+04  0.25500000920E-02 0. -1.
       -2    1    3    3    0  502  0.13092027896E+03  0.73761508733E+03  0.15076426377E+04  0.16835089722E+04  0.25500000920E-02 0.  1.
</event>
<event>
 5   0  0.8030324E-07  0.3702942E+04  0.7818609E-02  0.8067310E-01
        1   -1    0    0  501    0  0.00000000000E+00  0.00000000000E+00  0.18601357159E+04  0.18601357159E+04  0.50400001928E-02 0.  1.
       -1   -1    0    0    0  501  0.00000000000E+00  0.00000000000E+00 -0.18428464182E+04  0.18428464183E+04  0.50400001928E-02 0. -1.
    10030    2    1    2    0    0  0.00000000000E+00  0.00000000000E+00  0.17289297636E+02  0.37029821341E+04  0.37029417719E+04 0.  0.
        1    1    3    3  502    0 -0.41403045851E+03  0.58355293183E+03  0.17162900353E+04  0.18594640975E+04  0.50400001928E-02 0.  1.
       -1    1    3    3    0  502  0.41403045851E+03 -0.58355293183E+03 -0.16990007376E+04  0.18435180366E+04  0.50400001928E-02 0. -1.
</event>
<event>
 5   0  0.1337854E-06  0.2546483E+04  0.7818609E-02  0.8386610E-01
        2   -1    0    0  501    0  0.00000000000E+00  0.00000000000E+00  0.10442273637E+04  0.10442273637E+04  0.25500000920E-02 0. -1.
       -2   -1    0    0    0  501  0.00000000000E+00  0.00000000000E+00 -0.15524822231E+04  0.15524822231E+04  0.25500000920E-02 0.  1.
    10030    2    1    2    0    0  0.00000000000E+00  0.00000000000E+00 -0.50825485939E+03  0.25967095869E+04  0.25464833941E+04 0.  0.
        3    1    3    3  502    0  0.92727406938E+03 -0.61972181290E+03 -0.88045042432E+03  0.14209452083E+04  0.10100000352E+00 0.  1.
       -3    1    3    3    0  502 -0.92727406938E+03  0.61972181290E+03  0.37219556493E+03  0.11757643786E+04  0.10100000352E+00 0. -1.
</event>
<event>
 5   0  0.1184616E-06  0.3784189E+04  0.7818609E-02  0.8049556E-01
       -2   -1    0    0    0  501  0.00000000000E+00  0.00000000000E+00  0.14686304612E+04  0.14686304612E+04  0.25500000920E-02 0. -1.
        2   -1    0    0  501    0  0.00000000000E+00  0.00000000000E+00 -0.24376604140E+04  0.24376604140E+04  0.25500000920E-02 0.  1.
    10030    2    1    2    0    0  0.00000000000E+00  0.00000000000E+00 -0.96902995279E+03  0.39062908752E+04  0.37841893917E+04 0.  0.
        5    1    3    3  502    0 -0.12263549426E+03 -0.13536546861E+04 -0.18432611540E+04  0.22902083411E+04  0.46999998093E+01 0.  1.
       -5    1    3    3    0  502  0.12263549426E+03  0.13536546861E+04  0.87423120126E+03  0.16160825341E+04  0.46999998093E+01 0. -1.
</event>
<event>
 5   0  0.1341932E-06  0.3136297E+04  0.7818609E-02  0.8205846E-01
       -2   -1    0    0    0  501  0.00000000000E+00  0.00000000000E+00  0.11008346716E+04  0.11008346716E+04  0.25500000920E-02 0.  1.
        2   -1    0    0  501    0  0.00000000000E+00  0.00000000000E+00 -0.22338415649E+04  0.22338415649E+04  0.25500000920E-02 0. -1.
    10030    2    1    2    0    0  0.00000000000E+00  0.00000000000E+00 -0.11330068934E+04  0.33346762365E+04  0.31362973364E+04 0.  0.
        2    1    3    3  502    0 -0.11217893602E+04 -0.22738605382E+03 -0.17062062930E+04  0.20545694684E+04  0.25500000920E-02 0. -1.
       -2    1    3    3    0  502  0.11217893602E+04  0.22738605382E+03  0.57319939966E+03  0.12801067681E+04  0.25500000920E-02 0.  1.
</event>
<event>
 5   0  0.5284458E-07  0.2502412E+04  0.7818609E-02  0.8402127E-01
       -1   -1    0    0    0  501  0.00000000000E+00  0.00000000000E+00  0.83987215259E+03  0.83987215261E+03  0.50400001928E-02 0. -1.
        1   -1    0    0  501    0  0.00000000000E+00  0.00000000000E+00 -0.18639941465E+04  0.18639941466E+04  0.50400001928E-02 0.  1.
    10030    2    1    2    0    0  0.00000000000E+00  0.00000000000E+00 -0.10241219940E+04  0.27038662992E+04  0.25024122573E+04 0.  0.
        5    1    3    3  502    0 -0.21467860998E+03  0.76500103399E+03 -0.15564010038E+04  0.17474895314E+04  0.46999998093E+01 0.  1.
       -5    1    3    3    0  502  0.21467860998E+03 -0.76500103399E+03  0.53227900988E+03  0.95637676777E+03  0.46999998093E+01 0. -1.
</event>
<event>
 5   0  0.1341932E-06  0.3813204E+04  0.7818609E-02  0.8043327E-01
       -2   -1    0    0    0  501  0.00000000000E+00  0.00000000000E+00  0.20010777702E+04  0.20010777703E+04  0.25500000920E-02 0. -1.
        2   -1    0    0  501    0  0.00000000000E+00  0.00000000000E+00 -0.18165865749E+04  0.18165865749E+04  0.25500000920E-02 0.  1.
    10030    2    1    2    0    0  0.00000000000E+00  0.00000000000E+00  0.18449119539E+03  0.38176643451E+04  0.38132039089E+04 0.  0.
        2    1    3    3  502    0  0.12417275813E+04 -0.76146590723E+03  0.13238932554E+04  0.19683523734E+04  0.25500000920E-02 0. -1.
       -2    1    3    3    0  502 -0.12417275813E+04  0.76146590723E+03 -0.11394020601E+04  0.18493119717E+04  0.25500000920E-02 0.  1.
</event>
<event>
 5   0  0.8030324E-07  0.3183678E+04  0.7818609E-02  0.8193141E-01
        1   -1    0    0  501    0  0.00000000000E+00  0.00000000000E+00  0.26302289458E+04  0.26302289458E+04  0.50400001928E-02 0.  1.
       -1   -1    0    0    0  501  0.00000000000E+00  0.00000000000E+00 -0.96339599338E+03  0.96339599339E+03  0.50400001928E-02 0. -1.
    10030    2    1    2    0    0  0.00000000000E+00  0.00000000000E+00  0.16668329524E+04  0.35936249392E+04  0.31836783933E+04 0.  0.
        1    1    3    3  502    0  0.11326571025E+04  0.10463277959E+04  0.38724995747E+03  0.15898668177E+04  0.50400001928E-02 0.  1.
       -1    1    3    3    0  502 -0.11326571025E+04 -0.10463277959E+04  0.12795829949E+04  0.20037581215E+04  0.50400001928E-02 0. -1.
</event>
<event>
 5   0  0.1337854E-06  0.3745425E+04  0.7818609E-02  0.8057969E-01
        2   -1    0    0  501    0  0.00000000000E+00  0.00000000000E+00  0.16048007396E+04  0.16048007396E+04  0.25500000920E-02 0. -1.
       -2   -1    0    0    0  501  0.00000000000E+00  0.00000000000E+00 -0.21853510471E+04  0.21853510471E+04  0.25500000920E-02 0.  1.
    10030    2    1    2    0    0  0.00000000000E+00  0.00000000000E+00 -0.58055030755E+03  0.37901517867E+04  0.37454254641E+04 0.  0.
        3    1    3    3  502    0 -0.65263286829E+03  0.17157188108E+04  0.84870397378E+02  0.18376135865E+04  0.10100000352E+00 0. -1.
       -3    1    3    3    0  502  0.65263286829E+03 -0.17157188108E+04 -0.66542070493E+03  0.19525382002E+04  0.10100000352E+00 0.  1.
</event>
<event>
 5   0  0.5284458E-07  0.2016640E+04  0.7818609E-02  0.8598880E-01
       -1   -1    0    0    0  501  0.00000000000E+00  0.00000000000E+00  0.13689770760E+04  0.13689770760E+04  0.50400001928E-02 0.  1.
        1   -1    0    0  501    0  0.00000000000E+00  0.00000000000E+00 -0.74267785668E+03  0.74267785669E+03  0.50400001928E-02 0. -1.
    10030    2    1    2    0    0  0.00000000000E+00  0.00000000000E+00  0.62629921933E+03  0.21116549327E+04  0.20166397404E+04 0.  0.
        5    1    3    3  502    0 -0.79405384142E+03 -0.30051449903E+03  0.88270388568E+03  0.12247525085E+04  0.46999998093E+01 0.  1.
       -5    1    3    3    0  502  0.79405384142E+03  0.30051449903E+03 -0.25640466635E+03  0.88690242424E+03  0.46999998093E+01 0. -1.
</event>
<event>
 5   0  0.4255250E-07  0.1965833E+04  0.7818609E-02  0.8622763E-01
       -1   -1    0    0    0  501  0.00000000000E+00  0.00000000000E+00  0.77470884798E+03  0.77470884800E+03  0.50400001928E-02 0.  1.
        1   -1    0    0  501    0  0.00000000000E+00  0.00000000000E+00 -0.12470817806E+04  0.12470817806E+04  0.50400001928E-02 0. -1.
    10030    2    1    2    0    0  0.00000000000E+00  0.00000000000E+00 -0.47237293264E+03  0.20217906286E+04  0.19658334514E+04 0.  0.
        2    1    3    3  502    0  0.56748868558E+03  0.64582138804E+03  0.25381699724E+03  0.89641047606E+03  0.25500000920E-02 0.  1.
       -2    1    3    3    0  502 -0.56748868558E+03 -0.64582138804E+03 -0.72618992988E+03  0.11253801526E+04  0.25500000920E-02 0. -1.
</event>
<event>
 5   0  0.4255250E-07  0.3051020E+04  0.7818609E-02  0.8229310E-01
       -1   -1    0    0    0  501  0.00000000000E+00  0.00000000000E+00  0.18935206765E+04  0.18935206765E+04  0.50400001928E-02 0.  1.
        1   -1    0    0  501    0  0.00000000000E+00  0.00000000000E+00 -0.12290231386E+04  0.12290231386E+04  0.50400001928E-02 0. -1.
    10030    2    1    2    0    0  0.00000000000E+00  0.00000000000E+00  0.66449753793E+03  0.31225438151E+04  0.30510199769E+04 0.  0.
        2    1    3    3  502    0 -0.83238639081E+03 -0.11463080828E+04  0.91145887258E+03  0.16845315672E+04  0.25500000920E-02 0.  1.
       -2    1    3    3    0  502  0.83238639081E+03  0.11463080828E+04 -0.24696133465E+03  0.14380122479E+04  0.25500000920E-02 0. -1.
</event>
<event>
 5   0  0.1214844E-06  0.3354072E+04  0.7818609E-02  0.8149272E-01
        2   -1    0    0  501    0  0.00000000000E+00  0.00000000000E+00  0.26678291381E+04  0.26678291381E+04  0.25500000920E-02 0.  1.
       -2   -1    0    0    0  501  0.00000000000E+00  0.00000000000E+00 -0.10542088166E+04  0.10542088166E+04  0.25500000920E-02 0. -1.
    10030    2    1    2    0    0  0.00000000000E+00  0.00000000000E+00  0.16136203215E+04  0.37220379547E+04  0.33540715547E+04 0.  0.
        4    1    3    3  502    0 -0.50040719616E+03 -0.12763157812E+04 -0.26511090554E+03  0.13963075379E+04  0.12699999809E+01 0. -1.
       -4    1    3    3    0  502  0.50040719616E+03  0.12763157812E+04  0.18787312271E+04  0.23257304168E+04  0.12699999809E+01 0.  1.
</event>
<event>
 5   0  0.8030324E-07  0.3313315E+04  0.7818609E-02  0.8159516E-01
       -1   -1    0    0    0  501  0.00000000000E+00  0.00000000000E+00  0.23644142500E+04  0.23644142500E+04  0.50400001928E-02 0.  1.
        1   -1    0    0  501    0  0.00000000000E+00  0.00000000000E+00 -0.11607588426E+04  0.11607588426E+04  0.50400001928E-02 0. -1.
    10030    2    1    2    0    0  0.00000000000E+00  0.00000000000E+00  0.12036554075E+04  0.35251730926E+04  0.33133154080E+04 0.  0.
        1    1    3    3  502    0  0.85838064914E+03  0.28997572166E+03 -0.87379846263E+03  0.12587402477E+04  0.50400001928E-02 0. -1.
       -1    1    3    3    0  502 -0.85838064914E+03 -0.28997572166E+03  0.20774538701E+04  0.22664328449E+04  0.50400001928E-02 0.  1.
</event>
<event>
 5   0  0.4795023E-07  0.3740818E+04  0.7818609E-02  0.8058976E-01
       -1   -1    0    0    0  501  0.00000000000E+00  0.00000000000E+00  0.16348502906E+04  0.16348502906E+04  0.50400001928E-02 0. -1.
        1   -1    0    0  501    0  0.00000000000E+00  0.00000000000E+00 -0.21399080417E+04  0.21399080417E+04  0.50400001928E-02 0.  1.
    10030    2    1    2    0    0  0.00000000000E+00  0.00000000000E+00 -0.50505775114E+03  0.37747583323E+04  0.37408177094E+04 0.  0.
        3    1    3    3  502    0 -0.23776657192E+03  0.76637696463E+03 -0.19574033114E+04  0.21154891464E+04  0.10100000352E+00 0.  1.
       -3    1    3    3    0  502  0.23776657192E+03 -0.76637696463E+03  0.14523455603E+04  0.16592691859E+04  0.10100000352E+00 0. -1.
</event>
<event>
 5   0  0.1184616E-06  0.3803870E+04  0.7818609E-02  0.8045325E-01
        2   -1    0    0  501    0  0.00000000000E+00  0.00000000000E+00  0.19114907513E+04  0.19114907513E+04  0.25500000920E-02 0. -1.
       -2   -1    0    0    0  501  0.00000000000E+00  0.00000000000E+00 -0.18924269460E+04  0.18924269460E+04  0.25500000920E-02 0.  1.
    10030    2    1    2    0    0  0.00000000000E+00  0.00000000000E+00  0.19063805302E+02  0.38039176973E+04  0.38038699267E+04 0.  0.
        5    1    3    3  502    0  0.58511017865E+03 -0.16574867776E+04  0.73598316079E+03  0.19055995492E+04  0.46999998093E+01 0. -1.
       -5    1    3    3    0  502 -0.58511017865E+03  0.16574867776E+04 -0.71691935549E+03  0.18983181481E+04  0.46999998093E+01 0.  1.
</event>
<event>
 5   0  0.1372748E-06  0.3772680E+04  0.7818609E-02  0.8052043E-01
       -2   -1    0    0    0  501  0.00000000000E+00  0.00000000000E+00  0.14221122227E+04  0.14221122227E+04  0.25500000920E-02 0. -1.
        2   -1    0    0  501    0  0.00000000000E+00  0.00000000000E+00 -0.25021076196E+04  0.25021076196E+04  0.25500000920E-02 0.  1.
    10030    2    1    2    0    0  0.00000000000E+00  0.00000000000E+00 -0.10799953969E+04  0.39242198423E+04  0.37726795933E+04 0.  0.
        1    1    3    3  502    0  0.18165013687E+04  0.27105692274E+03 -0.98754644100E+03  0.20852810485E+04  0.50400001928E-02 0.  1.
       -1    1    3    3    0  502 -0.18165013687E+04 -0.27105692274E+03 -0.92448955896E+02  0.18389387938E+04  0.50400001928E-02 0. -1.
</event>
<event>
 5   0  0.1372748E-06  0.3782913E+04  0.7818609E-02  0.8049832E-01
       -2   -1    0    0    0  501  0.00000000000E+00  0.00000000000E+00  0.17358673743E+04  0.17358673743E+04  0.25500000920E-02 0. -1.
        2   -1    0    0  501    0  0.00000000000E+00  0.00000000000E+00 -0.20609908418E+04  0.20609908419E+04  0.25500000920E-02 0.  1.
    10030    2    1    2    0    0  0.00000000000E+00  0.00000000000E+00 -0.32512346754E+03  0.37968582162E+04  0.37829125082E+04 0.  0.
        1    1    3    3  502    0 -0.11010413904E+03  0.17751352880E+04  0.48353376518E+03  0.18431042060E+04  0.50400001928E-02 0. -1.
       -1    1    3    3    0  502  0.11010413904E+03 -0.17751352880E+04 -0.80865723271E+03  0.19537540102E+04  0.50400001928E-02 0.  1.
</event>
<event>
 5   0  0.5284458E-07  0.3735557E+04  0.7818609E-02  0.8060127E-01
        1   -1    0    0  501    0  0.00000000000E+00  0.00000000000E+00  0.27035161643E+04  0.27035161643E+04  0.50400001928E-02 0.  1.
       -1   -1    0    0    0  501  0.00000000000E+00  0.00000000000E+00 -0.12903922101E+04  0.12903922101E+04  0.50400001928E-02 0. -1.
    10030    2    1    2    0    0  0.00000000000E+00  0.00000000000E+00  0.14131239541E+04  0.39939083744E+04  0.37355568251E+04 0.  0.
        5    1    3    3  502    0  0.20228333524E+03 -0.54947092817E+03 -0.11897246105E+04  0.13260104024E+04  0.46999998093E+01 0. -1.
       -5    1    3    3    0  502 -0.20228333524E+03  0.54947092817E+03  0.26028485646E+04  0.26678979720E+04  0.46999998093E+01 0.  1.
</event>
<event>
 5   0  0.1184616E-06  0.2013536E+04  0.7818609E-02  0.8600318E-01
       -2   -1    0    0    0  501  0.00000000000E+00  0.00000000000E+00  0.73271843173E+03  0.73271843173E+03  0.25500000920E-02 0. -1.
        2   -1    0    0  501    0  0.00000000000E+00  0.00000000000E+00 -0.13833165221E+04  0.13833165221E+04  0.25500000920E-02 0.  1.
    10030    2    1    2    0    0  0.00000000000E+00  0.00000000000E+00 -0.65059809038E+03  0.21160349538E+04  0.20135357088E+04 0.  0.
        5    1    3    3  502    0  0.57812621209E+03  0.81939130318E+03 -0.23173072596E+03  0.10292488738E+04  0.46999998093E+01 0. -1.
       -5    1    3    3    0  502 -0.57812621209E+03 -0.81939130318E+03 -0.41886736441E+03  0.10867860801E+04  0.46999998093E+01 0.  1.
</event>
<event>
 5   0  0.1341932E-06  0.3685797E+04  0.7818609E-02  0.8071117E-01
        2   -1    0    0  501    0  0.00000000000E+00  0.00000000000E+00  0.18472877189E+04  0.18472877189E+04  0.25500000920E-02 0. -1.
       -2   -1    0    0    0  501  0.00000000000E+00  0.00000000000E+00 -0.18385195188E+04  0.18385195188E+04  0.25500000920E-02 0.  1.
    10030    2    1    2    0    0  0.00000000000E+00  0.00000000000E+00  0.87682000956E+01  0.36858072376E+04  0.36857968082E+04 0.  0.
        2    1    3    3  502    0 -0.37499090063E+03 -0.31507818637E+03  0.17810101022E+04  0.18471300504E+04  0.25500000920E-02 0. -1.
       -2    1    3    3    0  502  0.37499090063E+03  0.31507818637E+03 -0.17722419021E+04  0.18386771872E+04  0.25500000920E-02 0.  1.
</event>
<event>
 5   0  0.1372748E-06  0.2389454E+04  0.7818609E-02  0.8443462E-01
        2   -1    0    0  501    0  0.00000000000E+00  0.00000000000E+00  0.67277020118E+03  0.67277020118E+03  0.25500000920E-02 0. -1.
       -2   -1    0    0    0  501  0.00000000000E+00  0.00000000000E+00 -0.21216348148E+04  0.21216348148E+04  0.25500000920E-02 0.  1.
    10030    2    1    2    0    0  0.00000000000E+00  0.00000000000E+00 -0.14488646136E+04  0.27944050160E+04  0.23894540641E+04 0.  0.
        1    1    3    3  502    0  0.10940242389E+04 -0.40675626798E+03 -0.10226665502E+04  0.15518332932E+04  0.50400001928E-02 0.  1.
       -1    1    3    3    0  502 -0.10940242389E+04  0.40675626798E+03 -0.42619806336E+03  0.12425717227E+04  0.50400001928E-02 0. -1.
</event>
<event>
 5   0  0.1214844E-06  0.3308861E+04  0.7818609E-02  0.8160644E-01
        2   -1    0    0  501    0  0.00000000000E+00  0.00000000000E+00  0.23425277564E+04  0.23425277564E+04  0.25500000920E-02 0. -1.
       -2   -1    0    0    0  501  0.00000000000E+00  0.00000000000E+00 -0.11684558466E+04  0.11684558466E+04  0.25500000920E-02 0.  1.
    10030    2    1    2    0    0  0.00000000000E+00  0.00000000000E+00  0.11740719099E+04  0.35109836030E+04  0.33088609840E+04 0.  0.
        4    1    3    3  502    0  0.28754172780E+02  0.53358830387E+03  0.22484377491E+04  0.23110640850E+04  0.12699999809E+01 0. -1.
       -4    1    3    3    0  502 -0.28754172780E+02 -0.53358830387E+03 -0.10743658392E+04  0.11999195181E+04  0.12699999809E+01 0.  1.
</event>
<event>
 5   0  0.1372748E-06  0.3738837E+04  0.7818609E-02  0.8059409E-01
       -2   -1    0    0    0  501  0.00000000000E+00  0.00000000000E+00  0.18037655723E+04  0.18037655723E+04  0.25500000920E-02 0. -1.
        2   -1    0    0  501    0  0.00000000000E+00  0.00000000000E+00 -0.19374606830E+04  0.19374606830E+04  0.25500000920E-02 0.  1.
    10030    2    1    2    0    0  0.00000000000E+00  0.00000000000E+00 -0.13369511066E+03  0.37412262553E+04  0.37388366521E+04 0.  0.
        1    1    3    3  502    0 -0.10789152806E+04 -0.44276546518E+03 -0.15288170888E+04  0.19228575431E+04  0.50400001928E-02 0.  1.
       -1    1    3    3    0  502  0.10789152806E+04  0.44276546518E+03  0.13951219782E+04  0.18183687123E+04  0.50400001928E-02 0. -1.
</event>
<event>
 5   0  0.1341932E-06  0.2327802E+04  0.7818609E-02  0.8467039E-01
       -2   -1    0    0    0  501  0.00000000000E+00  0.00000000000E+00  0.75045904315E+03  0.75045904315E+03  0.25500000920E-02 0.  1.
        2   -1    0    0  501    0  0.00000000000E+00  0.00000000000E+00 -0.18051165502E+04  0.18051165502E+04  0.25500000920E-02 0. -1.
    10030    2    1    2    0    0  0.00000000000E+00  0.00000000000E+00 -0.10546575070E+04  0.25555755933E+04  0.23278024306E+04 0.  0.
        2    1    3    3  502    0  0.63863957935E+02  0.11347635082E+04 -0.25199134207E+03  0.11641591219E+04  0.25500000920E-02 0.  1.
       -2    1    3    3    0  502 -0.63863957935E+02 -0.11347635082E+04 -0.80266616495E+03  0.13914164714E+04  0.25500000920E-02 0. -1.
</event>
<event>
 5   0  0.4255250E-07  0.3847377E+04  0.7818609E-02  0.8036064E-01
        1   -1    0    0  501    0  0.00000000000E+00  0.00000000000E+00  0.27461554166E+04  0.27461554166E+04  0.50400001928E-02 0.  1.
       -1   -1    0    0    0  501  0.00000000000E+00  0.00000000000E+00 -0.13475484842E+04  0.13475484842E+04  0.50400001928E-02 0. -1.
    10030    2    1    2    0    0  0.00000000000E+00  0.00000000000E+00  0.13986069324E+04  0.40937039008E+04  0.38473770645E+04 0.  0.
        2    1    3    3  502    0  0.13102743852E+04 -0.13199400022E+04  0.12222117518E+04  0.22255026714E+04  0.25500000920E-02 0.  1.
       -2    1    3    3    0  502 -0.13102743852E+04  0.13199400022E+04  0.17639518057E+03  0.18682012294E+04  0.25500000920E-02 0. -1.
</event>
<event>
 5   0  0.4255250E-07  0.3818147E+04  0.7818609E-02  0.8042272E-01
       -1   -1    0    0    0  501  0.00000000000E+00  0.00000000000E+00  0.20046183803E+04  0.20046183803E+04  0.50400001928E-02 0. -1.
        1   -1    0    0  501    0  0.00000000000E+00  0.00000000000E+00 -0.18180824711E+04  0.18180824711E+04  0.50400001928E-02 0.  1.
    10030    2    1    2    0    0  0.00000000000E+00  0.00000000000E+00  0.18653590918E+03  0.38227008514E+04  0.38181469529E+04 0.  0.
        2    1    3    3  502    0  0.38001549477E+03  0.18696017688E+04  0.24345538430E+02  0.19079872262E+04  0.25500000920E-02 0.  1.
       -2    1    3    3    0  502 -0.38001549477E+03 -0.18696017688E+04  0.16219037075E+03  0.19147136252E+04  0.25500000920E-02 0. -1.
</event>
<event>
 5   0  0.1372748E-06  0.2928650E+04  0.7818609E-02  0.8264404E-01
       -2   -1    0    0    0  501  0.00000000000E+00  0.00000000000E+00  0.17706258012E+04  0.17706258012E+04  0.25500000920E-02 0.  1.
        2   -1    0    0  501    0  0.00000000000E+00  0.00000000000E+00 -0.12110115408E+04  0.12110115408E+04  0.25500000920E-02 0. -1.
    10030    2    1    2    0    0  0.00000000000E+00  0.00000000000E+00  0.55961426038E+03  0.29816373421E+04  0.29286503921E+04 0.  0.
        1    1    3    3  502    0  0.71526031229E+03  0.68275595532E+03 -0.81977780020E+03  0.12844409876E+04  0.50400001928E-02 0. -1.
       -1    1    3    3    0  502 -0.71526031229E+03 -0.68275595532E+03  0.13793920606E+04  0.16971963545E+04  0.50400001928E-02 0.  1.
</event>
<event>
 5   0  0.4795023E-07  0.3483143E+04  0.7818609E-02  0.8117797E-01
       -1   -1    0    0    0  501  0.00000000000E+00  0.00000000000E+00  0.11482756641E+04  0.11482756641E+04  0.50400001928E-02 0.  1.
        1   -1    0    0  501    0  0.00000000000E+00  0.00000000000E+00 -0.26414132547E+04  0.26414132547E+04  0.50400001928E-02 0. -1.
    10030    2    1    2    0    0  0.00000000000E+00  0.00000000000E+00 -0.14931375906E+04  0.37896889188E+04  0.34831425806E+04 0.  0.
        3    1    3    3  502    0  0.91803299504E+03 -0.14796064994E+04 -0.78183396920E+03  0.19087389394E+04  0.10100000352E+00 0. -1.
       -3    1    3    3    0  502 -0.91803299504E+03  0.14796064994E+04 -0.71130362144E+03  0.18809499794E+04  0.10100000352E+00 0.  1.
</event>
<event>
 5   0  0.1372748E-06  0.3721260E+04  0.7818609E-02  0.8063267E-01
        2   -1    0    0  501    0  0.00000000000E+00  0.00000000000E+00  0.13731012316E+04  0.13731012316E+04  0.25500000920E-02 0. -1.
       -2   -1    0    0    0  501  0.00000000000E+00  0.00000000000E+00 -0.25212596990E+04  0.25212596990E+04  0.25500000920E-02 0.  1.
    10030    2    1    2    0    0  0.00000000000E+00  0.00000000000E+00 -0.11481584674E+04  0.38943609306E+04  0.37212604306E+04 0.  0.
        1    1    3    3  502    0  0.18188900483E+03 -0.14971101178E+04  0.56634662198E+03  0.16109533857E+04  0.50400001928E-02 0. -1.
       -1    1    3    3    0  502 -0.18188900483E+03  0.14971101178E+04 -0.17145050893E+04  0.22834075449E+04  0.50400001928E-02 0.  1.
</event>
<event>
 5   0  0.1079205E-06  0.2056715E+04  0.7818609E-02  0.8580554E-01
       -1   -1    0    0    0  501  0.00000000000E+00  0.00000000000E+00  0.12314905532E+04  0.12314905532E+04  0.50400001928E-02 0. -1.
        1   -1    0    0  501    0  0.00000000000E+00  0.00000000000E+00 -0.85873089479E+03  0.85873089481E+03  0.50400001928E-02 0.  1.
    10030    2    1    2    0    0  0.00000000000E+00  0.00000000000E+00  0.37275965844E+03  0.20902214480E+04  0.20567148414E+04 0.  0.
        4    1    3    3  502    0 -0.14282627084E+03 -0.86758538105E+03 -0.35561285452E+03  0.94845445449E+03  0.12699999809E+01 0.  1.
       -4    1    3    3    0  502  0.14282627084E+03  0.86758538105E+03  0.72837251296E+03  0.11417669936E+04  0.12699999809E+01 0. -1.
</event>
<event>
 5   0  0.1341932E-06  0.3604388E+04  0.7818609E-02  0.8089487E-01
       -2   -1    0    0    0  501  0.00000000000E+00  0.00000000000E+00  0.11980570945E+04  0.11980570945E+04  0.25500000920E-02 0. -1.
        2   -1    0    0  501    0  0.00000000000E+00  0.00000000000E+00 -0.27109752694E+04  0.27109752694E+04  0.25500000920E-02 0.  1.
    10030    2    1    2    0    0  0.00000000000E+00  0.00000000000E+00 -0.15129181749E+04  0.39090323638E+04  0.36043879671E+04 0.  0.
        2    1    3    3  502    0 -0.16015925773E+03 -0.13864914273E+04  0.48003388512E+03  0.14759546052E+04  0.25500000920E-02 0. -1.
       -2    1    3    3    0  502  0.16015925773E+03  0.13864914273E+04 -0.19929520601E+04  0.24330777586E+04  0.25500000920E-02 0.  1.
</event>
<event>
 5   0  0.8030324E-07  0.2351649E+04  0.7818609E-02  0.8457830E-01
        1   -1    0    0  501    0  0.00000000000E+00  0.00000000000E+00  0.16209135475E+04  0.16209135475E+04  0.50400001928E-02 0.  1.
       -1   -1    0    0    0  501  0.00000000000E+00  0.00000000000E+00 -0.85295344882E+03  0.85295344883E+03  0.50400001928E-02 0. -1.
    10030    2    1    2    0    0  0.00000000000E+00  0.00000000000E+00  0.76796009867E+03  0.24738669963E+04  0.23516494642E+04 0.  0.
        1    1    3    3  502    0  0.10240975889E+04 -0.49292593324E+03  0.70099173311E+03  0.13353431234E+04  0.50400001928E-02 0.  1.
       -1    1    3    3    0  502 -0.10240975889E+04  0.49292593324E+03  0.66968365552E+02  0.11385238729E+04  0.50400001928E-02 0. -1.
</event>
<event>
 5   0  0.4795023E-07  0.3834058E+04  0.7818609E-02  0.8038885E-01
       -1   -1    0    0    0  501  0.00000000000E+00  0.00000000000E+00  0.18117288077E+04  0.18117288077E+04  0.50400001928E-02 0. -1.
        1   -1    0    0  501    0  0.00000000000E+00  0.00000000000E+00 -0.20284490748E+04  0.20284490748E+04  0.50400001928E-02 0.  1.
    10030    2    1    2    0    0  0.00000000000E+00  0.00000000000E+00 -0.21672026711E+03  0.38401778824E+04  0.38340577062E+04 0.  0.
        3    1    3    3  502    0  0.17942146290E+04 -0.55502315093E+03 -0.49334692599E+03  0.19418156536E+04  0.10100000352E+00 0.  1.
       -3    1    3    3    0  502 -0.17942146290E+04  0.55502315093E+03  0.27662665889E+03  0.18983622288E+04  0.10100000352E+00 0. -1.
</event>
<event>
 5   0  0.1184616E-06  0.2287140E+04  0.7818609E-02  0.8483009E-01
        2   -1    0    0  501    0  0.00000000000E+00  0.00000000000E+00  0.12381888502E+04  0.12381888502E+04  0.25500000920E-02 0. -1.
       -2   -1    0    0    0  501  0.00000000000E+00  0.00000000000E+00 -0.10561817211E+04  0.10561817211E+04  0.25500000920E-02 0.  1.
    10030    2    1    2    0    0  0.00000000000E+00  0.00000000000E+00  0.18200712909E+03  0.22943705713E+04  0.22871400752E+04 0.  0.
        5    1    3    3  502    0 -0.75660635146E+03  0.85580206498E+03  0.14483880962E+03  0.11514559116E+04  0.46999998093E+01 0. -1.
       -5    1    3    3    0  502  0.75660635146E+03 -0.85580206498E+03  0.37168319470E+02  0.11429146598E+04  0.46999998093E+01 0.  1.
</event>
<event>
 5   0  0.5284458E-07  0.2388508E+04  0.7818609E-02  0.8443819E-01
        1   -1    0    0  501    0  0.00000000000E+00  0.00000000000E+00  0.24560542253E+04  0.24560542253E+04  0.50400001928E-02 0. -1.
       -1   -1    0    0    0  501  0.00000000000E+00  0.00000000000E+00 -0.58070465527E+03  0.58070465529E+03  0.50400001928E-02 0.  1.
    10030    2    1    2    0    0  0.00000000000E+00  0.00000000000E+00  0.18753495701E+04  0.30367588806E+04  0.23885075862E+04 0.  0.
        5    1    3    3  502    0 -0.10263886009E+04 -0.23964324875E+03  0.16516083187E+04  0.19592688879E+04  0.46999998093E+01 0. -1.
       -5    1    3    3    0  502  0.10263886009E+04  0.23964324875E+03  0.22374125135E+03  0.10774899927E+04  0.46999998093E+01 0.  1.
</event>
<event>
 5   0  0.4255250E-07  0.3800223E+04  0.7818609E-02  0.8046107E-01
        3   -1    0    0  501    0  0.00000000000E+00  0.00000000000E+00  0.18154355064E+04  0.18154355092E+04  0.10100000352E+00 0.  1.
       -3   -1    0    0    0  501  0.00000000000E+00  0.00000000000E+00 -0.19887372676E+04  0.19887372702E+04  0.10100000352E+00 0. -1.
    10030    2    1    2    0    0  0.00000000000E+00  0.00000000000E+00 -0.17330176124E+03  0.38041727793E+04  0.38002232875E+04 0.  0.
        1    1    3    3  502    0 -0.10584215229E+04 -0.43839498191E+03  0.14308328723E+04  0.18329563521E+04  0.50400001928E-02 0.  1.
       -1    1    3    3    0  502  0.10584215229E+04  0.43839498191E+03 -0.16041346335E+04  0.19712164272E+04  0.50400001928E-02 0. -1.
</event>
<event>
 5   0  0.1341932E-06  0.2009541E+04  0.7818609E-02  0.8602173E-01
        2   -1    0    0  501    0  0.00000000000E+00  0.00000000000E+00  0.14330586566E+04  0.14330586566E+04  0.25500000920E-02 0.  1.
       -2   -1    0    0    0  501  0.00000000000E+00  0.00000000000E+00 -0.70448185038E+03  0.70448185038E+03  0.25500000920E-02 0. -1.
    10030    2    1    2    0    0  0.00000000000E+00  0.00000000000E+00  0.72857680620E+03  0.21375405070E+04  0.20095410562E+04 0.  0.
        2    1    3    3  502    0 -0.61621370191E+03  0.20609775952E+03 -0.45092757934E+03  0.79090536395E+03  0.25500000920E-02 0. -1.
       -2    1    3    3    0  502  0.61621370191E+03 -0.20609775952E+03  0.11795043855E+04  0.13466351430E+04  0.25500000920E-02 0.  1.
</event>
<event>
 5   0  0.1214844E-06  0.1988404E+04  0.7818609E-02  0.8612061E-01
        2   -1    0    0  501    0  0.00000000000E+00  0.00000000000E+00  0.16852982762E+04  0.16852982762E+04  0.25500000920E-02 0.  1.
       -2   -1    0    0    0  501  0.00000000000E+00  0.00000000000E+00 -0.58650630701E+03  0.58650630701E+03  0.25500000920E-02 0. -1.
    10030    2    1    2    0    0  0.00000000000E+00  0.00000000000E+00  0.10987919692E+04  0.22718045832E+04  0.19884044540E+04 0.  0.
        4    1    3    3  502    0 -0.71273635828E+03  0.67321976170E+03  0.73789030505E+03  0.12270703644E+04  0.12699999809E+01 0. -1.
       -4    1    3    3    0  502  0.71273635828E+03 -0.67321976170E+03  0.36090166418E+03  0.10447342189E+04  0.12699999809E+01 0.  1.
</event>
<event>
 5   0  0.5284458E-07  0.2426100E+04  0.7818609E-02  0.8429796E-01
       -1   -1    0    0    0  501  0.00000000000E+00  0.00000000000E+00  0.80123515657E+03  0.80123515659E+03  0.50400001928E-02 0. -1.
        1   -1    0    0  501    0  0.00000000000E+00  0.00000000000E+00 -0.18365270879E+04  0.18365270880E+04  0.50400001928E-02 0.  1.
    10030    2    1    2    0    0  0.00000000000E+00  0.00000000000E+00 -0.10352919314E+04  0.26377622445E+04  0.24260998074E+04 0.  0.
        5    1    3    3  502    0  0.81733517785E+03  0.11670889834E+03  0.44860147954E+03  0.93963989770E+03  0.46999998093E+01 0.  1.
       -5    1    3    3    0  502 -0.81733517785E+03 -0.11670889834E+03 -0.14838934109E+04  0.16981223468E+04  0.46999998093E+01 0. -1.
</event>
<event>
 5   0  0.1341932E-06  0.3296720E+04  0.7818609E-02  0.8163731E-01
       -2   -1    0    0    0  501  0.00000000000E+00  0.00000000000E+00  0.12265800410E+04  0.12265800410E+04  0.25500000920E-02 0.  1.
        2   -1    0    0  501    0  0.00000000000E+00  0.00000000000E+00 -0.22151755335E+04  0.22151755335E+04  0.25500000920E-02 0. -1.
    10030    2    1    2    0    0  0.00000000000E+00  0.00000000000E+00 -0.98859549250E+03  0.34417555745E+04  0.32967196403E+04 0.  0.
        2    1    3    3  502    0  0.14544176271E+04 -0.20521043011E+03  0.28671036117E+03  0.14965442813E+04  0.25500000920E-02 0.  1.
       -2    1    3    3    0  502 -0.14544176271E+04  0.20521043011E+03 -0.12753058537E+04  0.19452112932E+04  0.25500000920E-02 0. -1.
</event>
<event>
 5   0  0.1214844E-06  0.3803644E+04  0.7818609E-02  0.8045373E-01
        2   -1    0    0  501    0  0.00000000000E+00  0.00000000000E+00  0.20733318809E+04  0.20733318809E+04  0.25500000920E-02 0. -1.
       -2   -1    0    0    0  501  0.00000000000E+00  0.00000000000E+00 -0.17444993912E+04  0.17444993912E+04  0.25500000920E-02 0.  1.
    10030    2    1    2    0    0  0.00000000000E+00  0.00000000000E+00  0.32883248973E+03  0.38178312721E+04  0.38036436237E+04 0.  0.
        4    1    3    3  502    0 -0.34802667427E+03 -0.71066036390E+03  0.19002493797E+04  0.20584241635E+04  0.12699999809E+01 0. -1.
       -4    1    3    3    0  502  0.34802667427E+03  0.71066036390E+03 -0.15714168900E+04  0.17594071086E+04  0.12699999809E+01 0.  1.
</event>
<event>
 5   0  0.1337854E-06  0.3862837E+04  0.7818609E-02  0.8032803E-01
        2   -1    0    0  501    0  0.00000000000E+00  0.00000000000E+00  0.28012637926E+04  0.28012637926E+04  0.25500000920E-02 0.  1.
       -2   -1    0    0    0  501  0.00000000000E+00  0.00000000000E+00 -0.13316766733E+04  0.13316766733E+04  0.25500000920E-02 0. -1.
    10030    2    1    2    0    0  0.00000000000E+00  0.00000000000E+00  0.14695871193E+04  0.41329404659E+04  0.38628371171E+04 0.  0.
        3    1    3    3  502    0 -0.14804152986E+04 -0.48763337625E+03  0.19551453369E+04  0.25004017807E+04  0.10100000352E+00 0.  1.
       -3    1    3    3    0  502  0.14804152986E+04  0.48763337625E+03 -0.48555821764E+03  0.16325386852E+04  0.10100000352E+00 0. -1.
</event>
<event>
 5   0  0.4255250E-07  0.3698647E+04  0.7818609E-02  0.8068262E-01
        3   -1    0    0  501    0  0.00000000000E+00  0.00000000000E+00  0.15656927526E+04  0.15656927559E+04  0.10100000352E+00 0. -1.
       -3   -1    0    0    0  501  0.00000000000E+00  0.00000000000E+00 -0.21843352578E+04  0.21843352601E+04  0.10100000352E+00 0.  1.
    10030    2    1    2    0    0  0.00000000000E+00  0.00000000000E+00 -0.61864250516E+03  0.37500280160E+04  0.36986472624E+04 0.  0.
        3    1    3    3  502    0  0.12048641234E+04 -0.44424307414E+03  0.10399353540E+04  0.16524270077E+04  0.10100000352E+00 0. -1.
       -3    1    3    3    0  502 -0.12048641234E+04  0.44424307414E+03 -0.16585778592E+04  0.20976010083E+04  0.10100000352E+00 0.  1.
</event>
<event>
 5   0  0.1341932E-06  0.3818801E+04  0.7818609E-02  0.8042132E-01
       -2   -1    0    0    0  501  0.00000000000E+00  0.00000000000E+00  0.14664164836E+04  0.14664164836E+04  0.25500000920E-02 0. -1.
        2   -1    0    0  501    0  0.00000000000E+00  0.00000000000E+00 -0.24862042381E+04  0.24862042381E+04  0.25500000920E-02 0.  1.
    10030    2    1    2    0    0  0.00000000000E+00  0.00000000000E+00 -0.10197877545E+04  0.39526207217E+04  0.38188013179E+04 0.  0.
        2    1    3    3  502    0 -0.21148895641E+02 -0.59075343867E+03  0.13693204623E+04  0.14914675422E+04  0.25500000920E-02 0. -1.
       -2    1    3    3    0  502  0.21148895641E+02  0.59075343867E+03 -0.23891082168E+04  0.24611531795E+04  0.25500000920E-02 0.  1.
</event>
<event>
 5   0  0.1079205E-06  0.3812683E+04  0.7818609E-02  0.8043439E-01
       -1   -1    0    0    0  501  0.00000000000E+00  0.00000000000E+00  0.26184339102E+04  0.26184339102E+04  0.50400001928E-02 0.  1.
        1   -1    0    0  501    0  0.00000000000E+00  0.00000000000E+00 -0.13879052430E+04  0.13879052431E+04  0.50400001928E-02 0. -1.
    10030    2    1    2    0    0  0.00000000000E+00  0.00000000000E+00  0.12305286671E+04  0.40063391532E+04  0.38126831248E+04 0.  0.
        4    1    3    3  502    0 -0.16335724895E+04  0.54770111864E+03 -0.24201817804E+03  0.17398591912E+04  0.12699999809E+01 0. -1.
       -4    1    3    3    0  502  0.16335724895E+04 -0.54770111864E+03  0.14725468452E+04  0.22664799620E+04  0.12699999809E+01 0.  1.
</event>
<event>
 5   0  0.1341932E-06  0.3874077E+04  0.7818609E-02  0.8030442E-01
        2   -1    0    0  501    0  0.00000000000E+00  0.00000000000E+00  0.27472921300E+04  0.27472921300E+04  0.25500000920E-02 0. -1.
       -2   -1    0    0    0  501  0.00000000000E+00  0.00000000000E+00 -0.13657516144E+04  0.13657516144E+04  0.25500000920E-02 0.  1.
    10030    2    1    2    0    0  0.00000000000E+00  0.00000000000E+00  0.13815405156E+04  0.41130437444E+04  0.38740772639E+04 0.  0.
        2    1    3    3  502    0 -0.50995862663E+03 -0.14697420830E+04  0.19160463770E+04  0.24680829220E+04  0.25500000920E-02 0. -1.
       -2    1    3    3    0  502  0.50995862663E+03  0.14697420830E+04 -0.53450586135E+03  0.16449608224E+04  0.25500000920E-02 0.  1.
</event>
<event>
 5   0  0.4255250E-07  0.3731325E+04  0.7818609E-02  0.8061055E-01
       -3   -1    0    0    0  501  0.00000000000E+00  0.00000000000E+00  0.17493414696E+04  0.17493414725E+04  0.10100000352E+00 0. -1.
        3   -1    0    0  501    0  0.00000000000E+00  0.00000000000E+00 -0.19897180873E+04  0.19897180899E+04  0.10100000352E+00 0.  1.
    10030    2    1    2    0    0  0.00000000000E+00  0.00000000000E+00 -0.24037661777E+03  0.37390595624E+04  0.37313248977E+04 0.  0.
        5    1    3    3  502    0 -0.10222866132E+04  0.43016687530E+03 -0.16234849762E+04  0.19661736999E+04  0.46999998093E+01 0.  1.
       -5    1    3    3    0  502  0.10222866132E+04 -0.43016687530E+03  0.13831083585E+04  0.17728858625E+04  0.46999998093E+01 0. -1.
</event>
<event>
 5   0  0.5284458E-07  0.3640716E+04  0.7818609E-02  0.8081228E-01
        1   -1    0    0  501    0  0.00000000000E+00  0.00000000000E+00  0.11570253514E+04  0.11570253514E+04  0.50400001928E-02 0. -1.
       -1   -1    0    0    0  501  0.00000000000E+00  0.00000000000E+00 -0.28639842542E+04  0.28639842542E+04  0.50400001928E-02 0.  1.
    10030    2    1    2    0    0  0.00000000000E+00  0.00000000000E+00 -0.17069589028E+04  0.40210096056E+04  0.36407155276E+04 0.  0.
        5    1    3    3  502    0 -0.97979558501E+03 -0.10400992218E+04 -0.20990562149E+04  0.25392646303E+04  0.46999998093E+01 0.  1.
       -5    1    3    3    0  502  0.97979558501E+03  0.10400992218E+04  0.39209731210E+03  0.14817449753E+04  0.46999998093E+01 0. -1.
</event>
<event>
 5   0  0.4255250E-07  0.4077195E+04  0.7818609E-02  0.7989152E-01
       -1   -1    0    0    0  501  0.00000000000E+00  0.00000000000E+00  0.30565826096E+04  0.30565826096E+04  0.50400001928E-02 0.  1.
        1   -1    0    0  501    0  0.00000000000E+00  0.00000000000E+00 -0.13596493713E+04  0.13596493713E+04  0.50400001928E-02 0. -1.
    10030    2    1    2    0    0  0.00000000000E+00  0.00000000000E+00  0.16969332383E+04  0.44162319809E+04  0.40771954202E+04 0.  0.
        2    1    3    3  502    0  0.69378621892E+03  0.44328063316E+03 -0.11715635740E+04  0.14319211728E+04  0.25500000920E-02 0. -1.
       -2    1    3    3    0  502 -0.69378621892E+03 -0.44328063316E+03  0.28684968123E+04  0.29843108081E+04  0.25500000920E-02 0.  1.
</event>
<event>
 5   0  0.1184616E-06  0.2306191E+04  0.7818609E-02  0.8475484E-01
       -2   -1    0    0    0  501  0.00000000000E+00  0.00000000000E+00  0.10865952782E+04  0.10865952782E+04  0.25500000920E-02 0.  1.
        2   -1    0    0  501    0  0.00000000000E+00  0.00000000000E+00 -0.12236650511E+04  0.12236650511E+04  0.25500000920E-02 0. -1.
    10030    2    1    2    0    0  0.00000000000E+00  0.00000000000E+00 -0.13706977290E+03  0.23102603293E+04  0.23061905096E+04 0.  0.
        5    1    3    3  502    0  0.14359072912E+02 -0.50133892116E+03 -0.11086637346E+04  0.12168419221E+04  0.46999998093E+01 0. -1.
       -5    1    3    3    0  502 -0.14359072912E+02  0.50133892116E+03  0.97159396173E+03  0.10934184072E+04  0.46999998093E+01 0.  1.
</event>
<event>
 5   0  0.8030324E-07  0.3887888E+04  0.7818609E-02  0.8027553E-01
       -1   -1    0    0    0  501  0.00000000000E+00  0.00000000000E+00  0.26198514955E+04  0.26198514955E+04  0.50400001928E-02 0.  1.
        1   -1    0    0  501    0  0.00000000000E+00  0.00000000000E+00 -0.14424169678E+04  0.14424169678E+04  0.50400001928E-02 0. -1.
    10030    2    1    2    0    0  0.00000000000E+00  0.00000000000E+00  0.11774345278E+04  0.40622684633E+04  0.38878879872E+04 0.  0.
        1    1    3    3  502    0  0.51179101434E+03  0.18583334264E+04  0.85218807168E+03  0.21075003382E+04  0.50400001928E-02 0. -1.
       -1    1    3    3    0  502 -0.51179101434E+03 -0.18583334264E+04  0.32524645608E+03  0.19547681252E+04  0.50400001928E-02 0.  1.
</event>
<event>
 5   0  0.4255250E-07  0.2817926E+04  0.7818609E-02  0.8297725E-01
        3   -1    0    0  501    0  0.00000000000E+00  0.00000000000E+00  0.23175394807E+04  0.23175394829E+04  0.10100000352E+00 0. -1.
       -3   -1    0    0    0  501  0.00000000000E+00  0.00000000000E+00 -0.85658798129E+03  0.85658798724E+03  0.10100000352E+00 0.  1.
    10030    2    1    2    0    0  0.00000000000E+00  0.00000000000E+00  0.14609514994E+04  0.31741274702E+04  0.28179258175E+04 0.  0.
        5    1    3    3  502    0 -0.74689667928E+03 -0.11049931772E+04  0.21887201857E+03  0.13515885548E+04  0.46999998093E+01 0.  1.
       -5    1    3    3    0  502  0.74689667928E+03  0.11049931772E+04  0.12420794809E+04  0.18225389153E+04  0.46999998093E+01 0. -1.
</event>
<event>
 5   0  0.1341932E-06  0.3876735E+04  0.7818609E-02  0.8029885E-01
        2   -1    0    0  501    0  0.00000000000E+00  0.00000000000E+00  0.24036400144E+04  0.24036400144E+04  0.25500000920E-02 0.  1.
       -2   -1    0    0    0  501  0.00000000000E+00  0.00000000000E+00 -0.15631578077E+04  0.15631578077E+04  0.25500000920E-02 0. -1.
    10030    2    1    2    0    0  0.00000000000E+00  0.00000000000E+00  0.84048220671E+03  0.39667978220E+04  0.38767350465E+04 0.  0.
        2    1    3    3  502    0  0.34160733222E+03 -0.69842736270E+03  0.22370960228E+04  0.23683527959E+04  0.25500000920E-02 0.  1.
       -2    1    3    3    0  502 -0.34160733222E+03  0.69842736270E+03 -0.13966138161E+04  0.15984450262E+04  0.25500000920E-02 0. -1.
</event>
<event>
 5   0  0.4255250E-07  0.3778649E+04  0.7818609E-02  0.8050752E-01
        1   -1    0    0  501    0  0.00000000000E+00  0.00000000000E+00  0.16757957740E+04  0.16757957740E+04  0.50400001928E-02 0. -1.
       -1   -1    0    0    0  501  0.00000000000E+00  0.00000000000E+00 -0.21300607893E+04  0.21300607893E+04  0.50400001928E-02 0.  1.
    10030    2    1    2    0    0  0.00000000000E+00  0.00000000000E+00 -0.45426501529E+03  0.38058565633E+04  0.37786488956E+04 0.  0.
        2    1    3    3  502    0  0.12105496410E+04  0.14444810308E+04 -0.36071851959E+03  0.19188730370E+04  0.25500000920E-02 0. -1.
       -2    1    3    3    0  502 -0.12105496410E+04 -0.14444810308E+04 -0.93546495700E+02  0.18869835263E+04  0.25500000920E-02 0.  1.
</event>
<event>
 5   0  0.1184616E-06  0.3852992E+04  0.7818609E-02  0.8034878E-01
       -2   -1    0    0    0  501  0.00000000000E+00  0.00000000000E+00  0.20083153224E+04  0.20083153224E+04  0.25500000920E-02 0.  1.
        2   -1    0    0  501    0  0.00000000000E+00  0.00000000000E+00 -0.18480104387E+04  0.18480104387E+04  0.25500000920E-02 0. -1.
    10030    2    1    2    0    0  0.00000000000E+00  0.00000000000E+00  0.16030488369E+03  0.38563257611E+04  0.38529924370E+04 0.  0.
        5    1    3    3  502    0 -0.97927787580E+03  0.15630721436E+04 -0.47637348468E+03  0.19050284699E+04  0.46999998093E+01 0. -1.
       -5    1    3    3    0  502  0.97927787580E+03 -0.15630721436E+04  0.63667836837E+03  0.19512972912E+04  0.46999998093E+01 0.  1.
</event>
<event>
 5   0  0.4795023E-07  0.3666452E+04  0.7818609E-02  0.8075437E-01
        1   -1    0    0  501    0  0.00000000000E+00  0.00000000000E+00  0.22041633081E+04  0.22041633081E+04  0.50400001928E-02 0. -1.
       -1   -1    0    0    0  501  0.00000000000E+00  0.00000000000E+00 -0.15247135471E+04  0.15247135471E+04  0.50400001928E-02 0.  1.
    10030    2    1    2    0    0  0.00000000000E+00  0.00000000000E+00  0.67944976095E+03  0.37288768552E+04  0.36664520485E+04 0.  0.
        3    1    3    3  502    0  0.17091093086E+04  0.66221635989E+03  0.37395063422E+03  0.18706748042E+04  0.10100000352E+00 0.  1.
       -3    1    3    3    0  502 -0.17091093086E+04 -0.66221635989E+03  0.30549912673E+03  0.18582020511E+04  0.10100000352E+00 0. -1.
</event>
<event>
 5   0  0.1337854E-06  0.3771239E+04  0.7818609E-02  0.8052355E-01
        2   -1    0    0  501    0  0.00000000000E+00  0.00000000000E+00  0.11626127810E+04  0.11626127810E+04  0.25500000920E-02 0.  1.
       -2   -1    0    0    0  501  0.00000000000E+00  0.00000000000E+00 -0.30582497753E+04  0.30582497753E+04  0.25500000920E-02 0. -1.
    10030    2    1    2    0    0  0.00000000000E+00  0.00000000000E+00 -0.18956369943E+04  0.42208625563E+04  0.37712386699E+04 0.  0.
        3    1    3    3  502    0  0.12810127217E+04 -0.89000934883E+02  0.59762157576E+03  0.14163567056E+04  0.10100000352E+00 0.  1.
       -3    1    3    3    0  502 -0.12810127217E+04  0.89000934883E+02 -0.24932585700E+04  0.28045058507E+04  0.10100000352E+00 0. -1.
</event>
<event>
 5   0  0.1184616E-06  0.2817727E+04  0.7818609E-02  0.8297786E-01
       -2   -1    0    0    0  501  0.00000000000E+00  0.00000000000E+00  0.88431093473E+03  0.88431093473E+03  0.25500000920E-02 0.  1.
        2   -1    0    0  501    0  0.00000000000E+00  0.00000000000E+00 -0.22445682495E+04  0.22445682495E+04  0.25500000920E-02 0. -1.
    10030    2    1    2    0    0  0.00000000000E+00  0.00000000000E+00 -0.13602573148E+04  0.31288791842E+04  0.28177269185E+04 0.  0.
        5    1    3    3  502    0  0.71281184212E+03  0.36855176790E+03  0.60573539844E+03  0.10054196093E+04  0.46999998093E+01 0.  1.
       -5    1    3    3    0  502 -0.71281184212E+03 -0.36855176790E+03 -0.19659927132E+04  0.21234595749E+04  0.46999998093E+01 0. -1.
</event>
<event>
 5   0  0.4795023E-07  0.2128588E+04  0.7818609E-02  0.8548754E-01
       -1   -1    0    0    0  501  0.00000000000E+00  0.00000000000E+00  0.88733982462E+03  0.88733982464E+03  0.50400001928E-02 0. -1.
        1   -1    0    0  501    0  0.00000000000E+00  0.00000000000E+00 -0.12765368784E+04  0.12765368785E+04  0.50400001928E-02 0.  1.
    10030    2    1    2    0    0  0.00000000000E+00  0.00000000000E+00 -0.38919705382E+03  0.21638767031E+04  0.21285882738E+04 0.  0.
        3    1    3    3  502    0 -0.82811665567E+03  0.42336675141E+03 -0.72057874415E+03  0.11765416858E+04  0.10100000352E+00 0.  1.
       -3    1    3    3    0  502  0.82811665567E+03 -0.42336675141E+03  0.33138169033E+03  0.98733501734E+03  0.10100000352E+00 0. -1.
</event>
<event>
 5   0  0.1341932E-06  0.3724353E+04  0.7818609E-02  0.8062586E-01
        2   -1    0    0  501    0  0.00000000000E+00  0.00000000000E+00  0.12325617015E+04  0.12325617015E+04  0.25500000920E-02 0.  1.
       -2   -1    0    0    0  501  0.00000000000E+00  0.00000000000E+00 -0.28134105841E+04  0.28134105841E+04  0.25500000920E-02 0. -1.
    10030    2    1    2    0    0  0.00000000000E+00  0.00000000000E+00 -0.15808488826E+04  0.40459722856E+04  0.37243534401E+04 0.  0.
        2    1    3    3  502    0 -0.12874468023E+04 -0.13392185032E+04 -0.65013445837E+03  0.19681718121E+04  0.25500000920E-02 0.  1.
       -2    1    3    3    0  502  0.12874468023E+04  0.13392185032E+04 -0.93071442424E+03  0.20778004735E+04  0.25500000920E-02 0. -1.
</event>
<event>
 5   0  0.1184616E-06  0.3836440E+04  0.7818609E-02  0.8038380E-01
        2   -1    0    0  501    0  0.00000000000E+00  0.00000000000E+00  0.33620235642E+04  0.33620235642E+04  0.25500000920E-02 0. -1.
       -2   -1    0    0    0  501  0.00000000000E+00  0.00000000000E+00 -0.10944505236E+04  0.10944505236E+04  0.25500000920E-02 0.  1.
    10030    2    1    2    0    0  0.00000000000E+00  0.00000000000E+00  0.22675730406E+04  0.44564740878E+04  0.38364402511E+04 0.  0.
        5    1    3    3  502    0  0.26501255553E+03  0.24708261462E+02 -0.10728895719E+04  0.11054213117E+04  0.46999998093E+01 0.  1.
       -5    1    3    3    0  502 -0.26501255553E+03 -0.24708261462E+02  0.33404626125E+04  0.33510527761E+04  0.46999998093E+01 0. -1.
</event>
<event>
 5   0  0.4255250E-07  0.2398510E+04  0.7818609E-02  0.8440062E-01
       -1   -1    0    0    0  501  0.00000000000E+00  0.00000000000E+00  0.87108233900E+03  0.87108233901E+03  0.50400001928E-02 0.  1.
        1   -1    0    0  501    0  0.00000000000E+00  0.00000000000E+00 -0.16510633889E+04  0.16510633889E+04  0.50400001928E-02 0. -1.
    10030    2    1    2    0    0  0.00000000000E+00  0.00000000000E+00 -0.77998104992E+03  0.25221457279E+04  0.23985096695E+04 0.  0.
        2    1    3    3  502    0 -0.10557410520E+04  0.55592415484E+03 -0.26305645429E+03  0.12218181260E+04  0.25500000920E-02 0.  1.
       -2    1    3    3    0  502  0.10557410520E+04 -0.55592415484E+03 -0.51692459563E+03  0.13003276020E+04  0.25500000920E-02 0. -1.
</event>
<event>
 5   0  0.1184616E-06  0.3759495E+04  0.7818609E-02  0.8054903E-01
        2   -1    0    0  501    0  0.00000000000E+00  0.00000000000E+00  0.25889918497E+04  0.25889918497E+04  0.25500000920E-02 0. -1.
       -2   -1    0    0    0  501  0.00000000000E+00  0.00000000000E+00 -0.13647981434E+04  0.13647981434E+04  0.25500000920E-02 0.  1.
    10030    2    1    2    0    0  0.00000000000E+00  0.00000000000E+00  0.12241937063E+04  0.39537899931E+04  0.37594953224E+04 0.  0.
        5    1    3    3  502    0  0.18760527969E+04 -0.11770456419E+03  0.61120546669E+03  0.19766190007E+04  0.46999998093E+01 0. -1.
       -5    1    3    3    0  502 -0.18760527969E+04  0.11770456419E+03  0.61298823963E+03  0.19771709924E+04  0.46999998093E+01 0.  1.
</event>
<event>
 5   0  0.1079205E-06  0.3470245E+04  0.7818609E-02  0.8120878E-01
        1   -1    0    0  501    0  0.00000000000E+00  0.00000000000E+00  0.14348733951E+04  0.14348733951E+04  0.50400001928E-02 0.  1.
       -1   -1    0    0    0  501  0.00000000000E+00  0.00000000000E+00 -0.20981989888E+04  0.20981989888E+04  0.50400001928E-02 0. -1.
    10030    2    1    2    0    0  0.00000000000E+00  0.00000000000E+00 -0.66332559375E+03  0.35330723840E+04  0.34702448944E+04 0.  0.
        4    1    3    3  502    0  0.16241668985E+03 -0.56163412932E+03  0.13315712729E+04  0.14542681128E+04  0.12699999809E+01 0.  1.
       -4    1    3    3    0  502 -0.16241668985E+03  0.56163412932E+03 -0.19948968666E+04  0.20788042711E+04  0.12699999809E+01 0. -1.
</event>
<event>
 5   0  0.1337854E-06  0.2762381E+04  0.7818609E-02  0.8315044E-01
       -2   -1    0    0    0  501  0.00000000000E+00  0.00000000000E+00  0.24871403249E+04  0.24871403249E+04  0.25500000920E-02 0. -1.
        2   -1    0    0  501    0  0.00000000000E+00  0.00000000000E+00 -0.76702016783E+03  0.76702016783E+03  0.25500000920E-02 0.  1.
    10030    2    1    2    0    0  0.00000000000E+00  0.00000000000E+00  0.17201201571E+04  0.32541604928E+04  0.27623807047E+04 0.  0.
        3    1    3    3  502    0 -0.40828896098E+03 -0.36930509336E+03 -0.63218075058E+03  0.83829507886E+03  0.10100000352E+00 0.  1.
       -3    1    3    3    0  502  0.40828896098E+03  0.36930509336E+03  0.23523009077E+04  0.24158654139E+04  0.10100000352E+00 0. -1.
</event>
<event>
 5   0  0.1337854E-06  0.3873949E+04  0.7818609E-02  0.8030469E-01
       -2   -1    0    0    0  501  0.00000000000E+00  0.00000000000E+00  0.15008101792E+04  0.15008101792E+04  0.25500000920E-02 0.  1.
        2   -1    0    0  501    0  0.00000000000E+00  0.00000000000E+00 -0.24998970822E+04  0.24998970822E+04  0.25500000920E-02 0. -1.
    10030    2    1    2    0    0  0.00000000000E+00  0.00000000000E+00 -0.99908690307E+03  0.40007072614E+04  0.38739493997E+04 0.  0.
        3    1    3    3  502    0  0.14142280567E+04 -0.26495424896E+03  0.83966429906E+03  0.16659165333E+04  0.10100000352E+00 0.  1.
       -3    1    3    3    0  502 -0.14142280567E+04  0.26495424896E+03 -0.18387512021E+04  0.23347907281E+04  0.10100000352E+00 0. -1.
</event>
<event>
 5   0  0.1372748E-06  0.3799919E+04  0.7818609E-02  0.8046172E-01
       -2   -1    0    0    0  501  0.00000000000E+00  0.00000000000E+00  0.17280044035E+04  0.17280044035E+04  0.25500000920E-02 0.  1.
        2   -1    0    0  501    0  0.00000000000E+00  0.00000000000E+00 -0.20890259937E+04  0.20890259937E+04  0.25500000920E-02 0. -1.
    10030    2    1    2    0    0  0.00000000000E+00  0.00000000000E+00 -0.36102159018E+03  0.38170303972E+04  0.37999190076E+04 0.  0.
        1    1    3    3  502    0 -0.44494156238E+03 -0.10409406184E+04 -0.17132639423E+04  0.20534857440E+04  0.50400001928E-02 0. -1.
       -1    1    3    3    0  502  0.44494156238E+03  0.10409406184E+04  0.13522423521E+04  0.17635446532E+04  0.50400001928E-02 0.  1.
</event>
<event>
 5   0  0.1276064E-06  0.2040935E+04  0.7818609E-02  0.8587718E-01
       -2   -1    0    0    0  501  0.00000000000E+00  0.00000000000E+00  0.89765019756E+03  0.89765019757E+03  0.25500000920E-02 0.  1.
        2   -1    0    0  501    0  0.00000000000E+00  0.00000000000E+00 -0.11600889231E+04  0.11600889231E+04  0.25500000920E-02 0. -1.
    10030    2    1    2    0    0  0.00000000000E+00  0.00000000000E+00 -0.26243872558E+03  0.20577391207E+04  0.20409351298E+04 0.  0.
        4    1    3    3  502    0  0.50190783459E+03 -0.70785422272E+03 -0.67265422293E+03  0.10979227621E+04  0.12699999809E+01 0. -1.
       -4    1    3    3    0  502 -0.50190783459E+03  0.70785422272E+03  0.41021549735E+03  0.95981635859E+03  0.12699999809E+01 0.  1.
</event>
<event>
 5   0  0.4255250E-07  0.2101445E+04  0.7818609E-02  0.8560607E-01
       -1   -1    0    0    0  501  0.00000000000E+00  0.00000000000E+00  0.85078999567E+03  0.85078999568E+03  0.50400001928E-02 0. -1.
        1   -1    0    0  501    0  0.00000000000E+00  0.00000000000E+00 -0.12976383114E+04  0.12976383114E+04  0.50400001928E-02 0.  1.
    10030    2    1    2    0    0  0.00000000000E+00  0.00000000000E+00 -0.44684831572E+03  0.21484283071E+04  0.21014449251E+04 0.  0.
        2    1    3    3  502    0 -0.41543046071E+03  0.88522389868E+03  0.16963729438E+03  0.99246190362E+03  0.25500000920E-02 0.  1.
       -2    1    3    3    0  502  0.41543046071E+03 -0.88522389868E+03 -0.61648561010E+03  0.11559664035E+04  0.25500000920E-02 0. -1.
</event>
<event>
 5   0  0.1184616E-06  0.1999518E+04  0.7818609E-02  0.8606846E-01
        2   -1    0    0  501    0  0.00000000000E+00  0.00000000000E+00  0.11583664921E+04  0.11583664921E+04  0.25500000920E-02 0. -1.
       -2   -1    0    0    0  501  0.00000000000E+00  0.00000000000E+00 -0.86286871973E+03  0.86286871974E+03  0.25500000920E-02 0.  1.
    10030    2    1    2    0    0  0.00000000000E+00  0.00000000000E+00  0.29549777232E+03  0.20212352118E+04  0.19995181539E+04 0.  0.
        5    1    3    3  502    0 -0.30881347770E+03 -0.36215700453E+03  0.10364865205E+04  0.11405480512E+04  0.46999998093E+01 0. -1.
       -5    1    3    3    0  502  0.30881347770E+03  0.36215700453E+03 -0.74098874816E+03  0.88068716060E+03  0.46999998093E+01 0.  1.
</event>
<event>
 5   0  0.8030324E-07  0.2057714E+04  0.7818609E-02  0.8580103E-01
        1   -1    0    0  501    0  0.00000000000E+00  0.00000000000E+00  0.82417039065E+03  0.82417039067E+03  0.50400001928E-02 0. -1.
       -1   -1    0    0    0  501  0.00000000000E+00  0.00000000000E+00 -0.12843789176E+04  0.12843789176E+04  0.50400001928E-02 0.  1.
    10030    2    1    2    0    0  0.00000000000E+00  0.00000000000E+00 -0.46020852696E+03  0.21085493083E+04  0.20577143381E+04 0.  0.
        1    1    3    3  502    0  0.68501936182E+03  0.70861514368E+03  0.72418182593E+02  0.98824659934E+03  0.50400001928E-02 0. -1.
       -1    1    3    3    0  502 -0.68501936182E+03 -0.70861514368E+03 -0.53262670955E+03  0.11203027089E+04  0.50400001928E-02 0.  1.
</event>
<event>
 5   0  0.1372748E-06  0.3724705E+04  0.7818609E-02  0.8062509E-01
       -2   -1    0    0    0  501  0.00000000000E+00  0.00000000000E+00  0.16931685675E+04  0.16931685675E+04  0.25500000920E-02 0.  1.
        2   -1    0    0  501    0  0.00000000000E+00  0.00000000000E+00 -0.20484417068E+04  0.20484417068E+04  0.25500000920E-02 0. -1.
    10030    2    1    2    0    0  0.00000000000E+00  0.00000000000E+00 -0.35527313927E+03  0.37416102743E+04  0.37247051482E+04 0.  0.
        1    1    3    3  502    0  0.12866149837E+04 -0.40386982430E+03 -0.14679382736E+04  0.19933217820E+04  0.50400001928E-02 0. -1.
       -1    1    3    3    0  502 -0.12866149837E+04  0.40386982430E+03  0.11126651343E+04  0.17482884923E+04  0.50400001928E-02 0.  1.
</event>
<event>
 5   0  0.1184616E-06  0.3682396E+04  0.7818609E-02  0.8071874E-01
       -2   -1    0    0    0  501  0.00000000000E+00  0.00000000000E+00  0.15497947496E+04  0.15497947496E+04  0.25500000920E-02 0.  1.
        2   -1    0    0  501    0  0.00000000000E+00  0.00000000000E+00 -0.21873933740E+04  0.21873933740E+04  0.25500000920E-02 0. -1.
    10030    2    1    2    0    0  0.00000000000E+00  0.00000000000E+00 -0.63759862436E+03  0.37371881236E+04  0.36823963753E+04 0.  0.
        5    1    3    3  502    0 -0.51735692364E+03 -0.14834613023E+04 -0.12931221246E+04  0.20348224839E+04  0.46999998093E+01 0. -1.
       -5    1    3    3    0  502  0.51735692364E+03  0.14834613023E+04  0.65552350024E+03  0.17023656397E+04  0.46999998093E+01 0.  1.
</event>
<event>
 5   0  0.1341932E-06  0.2506970E+04  0.7818609E-02  0.8400507E-01
       -2   -1    0    0    0  501  0.00000000000E+00  0.00000000000E+00  0.21518955301E+04  0.21518955302E+04  0.25500000920E-02 0.  1.
        2   -1    0    0  501    0  0.00000000000E+00  0.00000000000E+00 -0.73015826924E+03  0.73015826924E+03  0.25500000920E-02 0. -1.
    10030    2    1    2    0    0  0.00000000000E+00  0.00000000000E+00  0.14217372609E+04  0.28820537994E+04  0.25069697373E+04 0.  0.
        2    1    3    3  502    0  0.12194545216E+03  0.11794455483E+04  0.11782154153E+04  0.16715723315E+04  0.25500000920E-02 0. -1.
       -2    1    3    3    0  502 -0.12194545216E+03 -0.11794455483E+04  0.24352184566E+03  0.12104814679E+04  0.25500000920E-02 0.  1.
</event>
<event>
 5   0  0.4795023E-07  0.3855708E+04  0.7818609E-02  0.8034305E-01
       -1   -1    0    0    0  501  0.00000000000E+00  0.00000000000E+00  0.12974198528E+04  0.12974198528E+04  0.50400001928E-02 0.  1.
        1   -1    0    0  501    0  0.00000000000E+00  0.00000000000E+00 -0.28646248516E+04  0.28646248516E+04  0.50400001928E-02 0. -1.
    10030    2    1    2    0    0  0.00000000000E+00  0.00000000000E+00 -0.15672049988E+04  0.41620447044E+04  0.38557080560E+04 0.  0.
        3    1    3    3  502    0 -0.44806814325E+03  0.16474905183E+04 -0.17500758194E+04  0.24449448772E+04  0.10100000352E+00 0. -1.
       -3    1    3    3    0  502  0.44806814325E+03 -0.16474905183E+04  0.18287082060E+03  0.17170998271E+04  0.10100000352E+00 0.  1.
</event>
<event>
 5   0  0.1079205E-06  0.2090253E+04  0.7818609E-02  0.8565549E-01
       -1   -1    0    0    0  501  0.00000000000E+00  0.00000000000E+00  0.10819471449E+04  0.10819471450E+04  0.50400001928E-02 0.  1.
        1   -1    0    0  501    0  0.00000000000E+00  0.00000000000E+00 -0.10095593252E+04  0.10095593252E+04  0.50400001928E-02 0. -1.
    10030    2    1    2    0    0  0.00000000000E+00  0.00000000000E+00  0.72387819749E+02  0.20915064702E+04  0.20902534101E+04 0.  0.
        4    1    3    3  502    0  0.62523220332E+02  0.12373481232E+03  0.10727052252E+04  0.10816272787E+04  0.12699999809E+01 0.  1.
       -4    1    3    3    0  502 -0.62523220332E+02 -0.12373481232E+03 -0.10003174055E+04  0.10098791915E+04  0.12699999809E+01 0. -1.
</event>
<event>
 5   0  0.1341932E-06  0.3542425E+04  0.7818609E-02  0.8103809E-01
       -2   -1    0    0    0  501  0.00000000000E+00  0.00000000000E+00  0.19215789680E+04  0.19215789680E+04  0.25500000920E-02 0. -1.
        2   -1    0    0  501    0  0.00000000000E+00  0.00000000000E+00 -0.16326126008E+04  0.16326126008E+04  0.25500000920E-02 0.  1.
    10030    2    1    2    0    0  0.00000000000E+00  0.00000000000E+00  0.28896636716E+03  0.35541915688E+04  0.35424251787E+04 0.  0.
        2    1    3    3  502    0 -0.81420719868E+03  0.84701932913E+02  0.17203964562E+04  0.19052222302E+04  0.25500000920E-02 0. -1.
       -2    1    3    3    0  502  0.81420719868E+03 -0.84701932913E+02 -0.14314300891E+04  0.16489693386E+04  0.25500000920E-02 0.  1.
</event>
<event>
 5   0  0.1184616E-06  0.2906815E+04  0.7818609E-02  0.8270853E-01
       -2   -1    0    0    0  501  0.00000000000E+00  0.00000000000E+00  0.10050728269E+04  0.10050728269E+04  0.25500000920E-02 0. -1.
        2   -1    0    0  501    0  0.00000000000E+00  0.00000000000E+00 -0.21017318181E+04  0.21017318181E+04  0.25500000920E-02 0.  1.
    10030    2    1    2    0    0  0.00000000000E+00  0.00000000000E+00 -0.10966589912E+04  0.31068046450E+04  0.29068151230E+04 0.  0.
        5    1    3    3  502    0  0.11719339515E+04  0.11737309899E+03  0.36182516517E+03  0.12321303386E+04  0.46999998093E+01 0. -1.
       -5    1    3    3    0  502 -0.11719339515E+04 -0.11737309899E+03 -0.14584841564E+04  0.18746743065E+04  0.46999998093E+01 0.  1.
</event>
<event>
 5   0  0.8030324E-07  0.3014852E+04  0.7818609E-02  0.8239502E-01
        1   -1    0    0  501    0  0.00000000000E+00  0.00000000000E+00  0.17332692821E+04  0.17332692821E+04  0.50400001928E-02 0. -1.
       -1   -1    0    0    0  501  0.00000000000E+00  0.00000000000E+00 -0.13110102632E+04  0.13110102632E+04  0.50400001928E-02 0.  1.
    10030    2    1    2    0    0  0.00000000000E+00  0.00000000000E+00  0.42225901886E+03  0.30442795453E+04  0.30148524460E+04 0.  0.
        1    1    3    3  502    0  0.10275545733E+04 -0.50478013240E+03 -0.77908615859E+03  0.13847911848E+04  0.50400001928E-02 0.  1.
       -1    1    3    3    0  502 -0.10275545733E+04  0.50478013240E+03  0.12013451774E+04  0.16594883605E+04  0.50400001928E-02 0. -1.
</event>
<event>
 5   0  0.4255250E-07  0.3839690E+04  0.7818609E-02  0.8037691E-01
        1   -1    0    0  501    0  0.00000000000E+00  0.00000000000E+00  0.23378204184E+04  0.23378204184E+04  0.50400001928E-02 0.  1.
       -1   -1    0    0    0  501  0.00000000000E+00  0.00000000000E+00 -0.15765991753E+04  0.15765991753E+04  0.50400001928E-02 0. -1.
    10030    2    1    2    0    0  0.00000000000E+00  0.00000000000E+00  0.76122124306E+03  0.39144195937E+04  0.38396904790E+04 0.  0.
        2    1    3    3  502    0 -0.17390107210E+04  0.14115448709E+03  0.11972774528E+04  0.21160236709E+04  0.25500000920E-02 0.  1.
       -2    1    3    3    0  502  0.17390107210E+04 -0.14115448709E+03 -0.43605620976E+03  0.17983959228E+04  0.25500000920E-02 0. -1.
</event>
<event>
 5   0  0.1214844E-06  0.3593535E+04  0.7818609E-02  0.8091974E-01
       -2   -1    0    0    0  501  0.00000000000E+00  0.00000000000E+00  0.12358769221E+04  0.12358769221E+04  0.25500000920E-02 0. -1.
        2   -1    0    0  501    0  0.00000000000E+00  0.00000000000E+00 -0.26122127075E+04  0.26122127075E+04  0.25500000920E-02 0.  1.
    10030    2    1    2    0    0  0.00000000000E+00  0.00000000000E+00 -0.13763357854E+04  0.38480896297E+04  0.35935349732E+04 0.  0.
        4    1    3    3  502    0 -0.17108718816E+04  0.26354673504E+03 -0.12037647784E+04  0.21084569551E+04  0.12699999809E+01 0.  1.
       -4    1    3    3    0  502  0.17108718816E+04 -0.26354673504E+03 -0.17257100699E+03  0.17396326745E+04  0.12699999809E+01 0. -1.
</event>
<event>
 5   0  0.1214844E-06  0.3758009E+04  0.7818609E-02  0.8055227E-01
       -2   -1    0    0    0  501  0.00000000000E+00  0.00000000000E+00  0.19872911908E+04  0.19872911908E+04  0.25500000920E-02 0. -1.
        2   -1    0    0  501    0  0.00000000000E+00  0.00000000000E+00 -0.17766180734E+04  0.17766180734E+04  0.25500000920E-02 0.  1.
    10030    2    1    2    0    0  0.00000000000E+00  0.00000000000E+00  0.21067311740E+03  0.37639092642E+04  0.37580087529E+04 0.  0.
        4    1    3    3  502    0 -0.17318307869E+03  0.15050469456E+03  0.19732075749E+04  0.19865029042E+04  0.12699999809E+01 0. -1.
       -4    1    3    3    0  502  0.17318307869E+03 -0.15050469456E+03 -0.17625344575E+04  0.17774063600E+04  0.12699999809E+01 0.  1.
</event>
<event>
 5   0  0.1214844E-06  0.3878232E+04  0.7818609E-02  0.8029572E-01
       -2   -1    0    0    0  501  0.00000000000E+00  0.00000000000E+00  0.29475586543E+04  0.29475586543E+04  0.25500000920E-02 0. -1.
        2   -1    0    0  501    0  0.00000000000E+00  0.00000000000E+00 -0.12756902363E+04  0.12756902363E+04  0.25500000920E-02 0.  1.
    10030    2    1    2    0    0  0.00000000000E+00  0.00000000000E+00  0.16718684180E+04  0.42232488906E+04  0.38782324821E+04 0.  0.
        4    1    3    3  502    0  0.86216155040E+03  0.11495236531E+04 -0.58199463104E+03  0.15503053027E+04  0.12699999809E+01 0.  1.
       -4    1    3    3    0  502 -0.86216155040E+03 -0.11495236531E+04  0.22538630490E+04  0.26729435880E+04  0.12699999809E+01 0. -1.
</event>
<event>
 5   0  0.1337854E-06  0.3299716E+04  0.7818609E-02  0.8162968E-01
        2   -1    0    0  501    0  0.00000000000E+00  0.00000000000E+00  0.19447432397E+04  0.19447432398E+04  0.25500000920E-02 0.  1.
       -2   -1    0    0    0  501  0.00000000000E+00  0.00000000000E+00 -0.13996870328E+04  0.13996870328E+04  0.25500000920E-02 0. -1.
    10030    2    1    2    0    0  0.00000000000E+00  0.00000000000E+00  0.54505620699E+03  0.33444302725E+04  0.32997162876E+04 0.  0.
        3    1    3    3  502    0  0.89340487489E+03 -0.12008998573E+03  0.16730771657E+04  0.19004686495E+04  0.10100000352E+00 0.  1.
       -3    1    3    3    0  502 -0.89340487489E+03  0.12008998573E+03 -0.11280209587E+04  0.14439616230E+04  0.10100000352E+00 0. -1.
</event>
<event>
 5   0  0.4255250E-07  0.3812645E+04  0.7818609E-02  0.8043447E-01
        1   -1    0    0  501    0  0.00000000000E+00  0.00000000000E+00  0.25024444786E+04  0.25024444787E+04  0.50400001928E-02 0.  1.
       -1   -1    0    0    0  501  0.00000000000E+00  0.00000000000E+00 -0.14522064624E+04  0.14522064624E+04  0.50400001928E-02 0. -1.
    10030    2    1    2    0    0  0.00000000000E+00  0.00000000000E+00  0.10502380163E+04  0.39546509410E+04  0.38126452988E+04 0.  0.
        2    1    3    3  502    0  0.18338213036E+04  0.50774994017E+03  0.64498923155E+03  0.20091594472E+04  0.25500000920E-02 0. -1.
       -2    1    3    3    0  502 -0.18338213036E+04 -0.50774994017E+03  0.40524878472E+03  0.19454914939E+04  0.25500000920E-02 0.  1.
</event>
<event>
 5   0  0.4795023E-07  0.2120998E+04  0.7818609E-02  0.8552050E-01
       -1   -1    0    0    0  501  0.00000000000E+00  0.00000000000E+00  0.63316075641E+03  0.63316075643E+03  0.50400001928E-02 0.  1.
        1   -1    0    0  501    0  0.00000000000E+00  0.00000000000E+00 -0.17762594148E+04  0.17762594148E+04  0.50400001928E-02 0. -1.
    10030    2    1    2    0    0  0.00000000000E+00  0.00000000000E+00 -0.11430986584E+04  0.24094201712E+04  0.21209976470E+04 0.  0.
        3    1    3    3  502    0  0.33284117241E+03 -0.48905447855E+03  0.42831066848E+03  0.73034756655E+03  0.10100000352E+00 0.  1.
       -3    1    3    3    0  502 -0.33284117241E+03  0.48905447855E+03 -0.15714093269E+04  0.16790726047E+04  0.10100000352E+00 0. -1.
</event>
<event>
 5   0  0.1372748E-06  0.2665044E+04  0.7818609E-02  0.8346437E-01
       -2   -1    0    0    0  501  0.00000000000E+00  0.00000000000E+00  0.10535570072E+04  0.10535570072E+04  0.25500000920E-02 0. -1.
        2   -1    0    0  501    0  0.00000000000E+00  0.00000000000E+00 -0.16853528113E+04  0.16853528113E+04  0.25500000920E-02 0.  1.
    10030    2    1    2    0    0  0.00000000000E+00  0.00000000000E+00 -0.63179580411E+03  0.27389098186E+04  0.26650442879E+04 0.  0.
        1    1    3    3  502    0  0.91259126473E+03 -0.22725222398E+03 -0.12860692261E+04  0.15932483937E+04  0.50400001928E-02 0.  1.
       -1    1    3    3    0  502 -0.91259126473E+03  0.22725222398E+03  0.65427342195E+03  0.11456614249E+04  0.50400001928E-02 0. -1.
</event>
<event>
 5   0  0.1184616E-06  0.3830339E+04  0.7818609E-02  0.8039675E-01
       -2   -1    0    0    0  501  0.00000000000E+00  0.00000000000E+00  0.13691670232E+04  0.13691670232E+04  0.25500000920E-02 0.  1.
        2   -1    0    0  501    0  0.00000000000E+00  0.00000000000E+00 -0.26789098654E+04  0.26789098654E+04  0.25500000920E-02 0. -1.
    10030    2    1    2    0    0  0.00000000000E+00  0.00000000000E+00 -0.13097428423E+04  0.40480768886E+04  0.38303394344E+04 0.  0.
        5    1    3    3  502    0  0.12889130619E+03 -0.17525041539E+03  0.13560606624E+04  0.13734075459E+04  0.46999998093E+01 0.  1.
       -5    1    3    3    0  502 -0.12889130619E+03  0.17525041539E+03 -0.26658035047E+04  0.26746693427E+04  0.46999998093E+01 0. -1.
</event>
<event>
 5   0  0.1214844E-06  0.2700730E+04  0.7818609E-02  0.8334768E-01
        2   -1    0    0  501    0  0.00000000000E+00  0.00000000000E+00  0.22598165959E+04  0.22598165959E+04  0.25500000920E-02 0. -1.
       -2   -1    0    0    0  501  0.00000000000E+00  0.00000000000E+00 -0.80691731866E+03  0.80691731866E+03  0.25500000920E-02 0.  1.
    10030    2    1    2    0    0  0.00000000000E+00  0.00000000000E+00  0.14528992772E+04  0.30667339146E+04  0.27007296408E+04 0.  0.
        4    1    3    3  502    0 -0.82206805033E+03 -0.33520980500E+03 -0.42895129827E+03  0.98598292172E+03  0.12699999809E+01 0.  1.
       -4    1    3    3    0  502  0.82206805033E+03  0.33520980500E+03  0.18818505755E+04  0.20807509928E+04  0.12699999809E+01 0. -1.
</event>
<event>
 5   0  0.4795023E-07  0.3746335E+04  0.7818609E-02  0.8057770E-01
       -1   -1    0    0    0  501  0.00000000000E+00  0.00000000000E+00  0.18721325221E+04  0.18721325222E+04  0.50400001928E-02 0.  1.
        1   -1    0    0  501    0  0.00000000000E+00  0.00000000000E+00 -0.18742026964E+04  0.18742026964E+04  0.50400001928E-02 0. -1.
    10030    2    1    2    0    0  0.00000000000E+00  0.00000000000E+00 -0.20701742633E+01  0.37463352186E+04  0.37463346466E+04 0.  0.
        3    1    3    3  502    0  0.44894452595E+02 -0.84185258462E+03 -0.16737650053E+04  0.18740919373E+04  0.10100000352E+00 0. -1.
       -3    1    3    3    0  502 -0.44894452595E+02  0.84185258462E+03  0.16716948310E+04  0.18722432813E+04  0.10100000352E+00 0.  1.
</event>
<event>
 5   0  0.4255250E-07  0.3896852E+04  0.7818609E-02  0.8025684E-01
        1   -1    0    0  501    0  0.00000000000E+00  0.00000000000E+00  0.15898673219E+04  0.15898673219E+04  0.50400001928E-02 0.  1.
       -1   -1    0    0    0  501  0.00000000000E+00  0.00000000000E+00 -0.23878490622E+04  0.23878490622E+04  0.50400001928E-02 0. -1.
    10030    2    1    2    0    0  0.00000000000E+00  0.00000000000E+00 -0.79798174036E+03  0.39777163841E+04  0.38968516490E+04 0.  0.
        2    1    3    3  502    0  0.66766773307E+03  0.11753711943E+04  0.10333692924E+04  0.17015080783E+04  0.25500000920E-02 0.  1.
       -2    1    3    3    0  502 -0.66766773307E+03 -0.11753711943E+04 -0.18313510328E+04  0.22762083058E+04  0.25500000920E-02 0. -1.
</event>
<event>
 5   0  0.4255250E-07  0.3754507E+04  0.7818609E-02  0.8055989E-01
        1   -1    0    0  501    0  0.00000000000E+00  0.00000000000E+00  0.12491097396E+04  0.12491097396E+04  0.50400001928E-02 0. -1.
       -1   -1    0    0    0  501  0.00000000000E+00  0.00000000000E+00 -0.28212746018E+04  0.28212746018E+04  0.50400001928E-02 0.  1.
    10030    2    1    2    0    0  0.00000000000E+00  0.00000000000E+00 -0.15721648622E+04  0.40703843414E+04  0.37545074688E+04 0.  0.
        2    1    3    3  502    0 -0.14023715975E+04  0.60444496031E+03  0.39760073329E+03  0.15780006814E+04  0.25500000920E-02 0. -1.
       -2    1    3    3    0  502  0.14023715975E+04 -0.60444496031E+03 -0.19697655955E+04  0.24923836600E+04  0.25500000920E-02 0.  1.
</event>
<event>
 5   0  0.1372748E-06  0.2571568E+04  0.7818609E-02  0.8377924E-01
        2   -1    0    0  501    0  0.00000000000E+00  0.00000000000E+00  0.15693635331E+04  0.15693635331E+04  0.25500000920E-02 0.  1.
       -2   -1    0    0    0  501  0.00000000000E+00  0.00000000000E+00 -0.10534464359E+04  0.10534464359E+04  0.25500000920E-02 0. -1.
    10030    2    1    2    0    0  0.00000000000E+00  0.00000000000E+00  0.51591709714E+03  0.26228099690E+04  0.25715679424E+04 0.  0.
        1    1    3    3  502    0  0.12614090319E+04  0.23671446701E+03  0.17860109296E+03  0.12957950590E+04  0.50400001928E-02 0. -1.
       -1    1    3    3    0  502 -0.12614090319E+04 -0.23671446701E+03  0.33731600418E+03  0.13270149100E+04  0.50400001928E-02 0.  1.
</event>
<event>
 5   0  0.4255250E-07  0.1994084E+04  0.7818609E-02  0.8609392E-01
       -1   -1    0    0    0  501  0.00000000000E+00  0.00000000000E+00  0.11051398514E+04  0.11051398514E+04  0.50400001928E-02 0.  1.
        1   -1    0    0  501    0  0.00000000000E+00  0.00000000000E+00 -0.89951719645E+03  0.89951719646E+03  0.50400001928E-02 0. -1.
    10030    2    1    2    0    0  0.00000000000E+00  0.00000000000E+00  0.20562265498E+03  0.20046570479E+04  0.19940835498E+04 0.  0.
        2    1    3    3  502    0 -0.94054565471E+03  0.33071636969E+03  0.93124098011E+02  0.10013348807E+04  0.25500000920E-02 0.  1.
       -2    1    3    3    0  502  0.94054565471E+03 -0.33071636969E+03  0.11249855697E+03  0.10033221671E+04  0.25500000920E-02 0. -1.
</event>
<event>
 5   0  0.4795023E-07  0.3831688E+04  0.7818609E-02  0.8039389E-01
        1   -1    0    0  501    0  0.00000000000E+00  0.00000000000E+00  0.27310583456E+04  0.27310583456E+04  0.50400001928E-02 0.  1.
       -1   -1    0    0    0  501  0.00000000000E+00  0.00000000000E+00 -0.13439692695E+04  0.13439692695E+04  0.50400001928E-02 0. -1.
    10030    2    1    2    0    0  0.00000000000E+00  0.00000000000E+00  0.13870890762E+04  0.40750276151E+04  0.38316881343E+04 0.  0.
        3    1    3    3  502    0  0.87360268560E+03 -0.14885332221E+04  0.15779488197E+04  0.23385541032E+04  0.10100000352E+00 0. -1.
       -3    1    3    3    0  502 -0.87360268560E+03  0.14885332221E+04 -0.19085974356E+03  0.17364735119E+04  0.10100000352E+00 0.  1.
</event>
<event>
 5   0  0.1214844E-06  0.2850479E+04  0.7818609E-02  0.8287766E-01
       -2   -1    0    0    0  501  0.00000000000E+00  0.00000000000E+00  0.19548697971E+04  0.19548697971E+04  0.25500000920E-02 0. -1.
        2   -1    0    0  501    0  0.00000000000E+00  0.00000000000E+00 -0.10391013751E+04  0.10391013751E+04  0.25500000920E-02 0.  1.
    10030    2    1    2    0    0  0.00000000000E+00  0.00000000000E+00  0.91576842204E+03  0.29939711722E+04  0.28504791838E+04 0.  0.
        4    1    3    3  502    0  0.40396939639E+03 -0.13318576015E+04  0.78037496785E+03  0.15956260988E+04  0.12699999809E+01 0.  1.
       -4    1    3    3    0  502 -0.40396939639E+03  0.13318576015E+04  0.13539345419E+03  0.13983450734E+04  0.12699999809E+01 0. -1.
</event>
<event>
 5   0  0.4255250E-07  0.3303892E+04  0.7818609E-02  0.8161906E-01
        1   -1    0    0  501    0  0.00000000000E+00  0.00000000000E+00  0.19417900412E+04  0.19417900412E+04  0.50400001928E-02 0.  1.
       -1   -1    0    0    0  501  0.00000000000E+00  0.00000000000E+00 -0.14053656754E+04  0.14053656754E+04  0.50400001928E-02 0. -1.
    10030    2    1    2    0    0  0.00000000000E+00  0.00000000000E+00  0.53642436585E+03  0.33471557166E+04  0.33038916887E+04 0.  0.
        2    1    3    3  502    0  0.33589881202E+03  0.86933376613E+03  0.16500215406E+04  0.18950304202E+04  0.25500000920E-02 0.  1.
       -2    1    3    3    0  502 -0.33589881202E+03 -0.86933376613E+03 -0.11135971748E+04  0.14521252964E+04  0.25500000920E-02 0. -1.
</event>
<event>
 5   0  0.1372748E-06  0.3815333E+04  0.7818609E-02  0.8042873E-01
       -2   -1    0    0    0  501  0.00000000000E+00  0.00000000000E+00  0.21306045703E+04  0.21306045703E+04  0.25500000920E-02 0.  1.
        2   -1    0    0  501    0  0.00000000000E+00  0.00000000000E+00 -0.17080554601E+04  0.17080554601E+04  0.25500000920E-02 0. -1.
    10030    2    1    2    0    0  0.00000000000E+00  0.00000000000E+00  0.42254911020E+03  0.38386600303E+04  0.38153326300E+04 0.  0.
        1    1    3    3  502    0 -0.29329326255E+03  0.89422903034E+03  0.18807948336E+04  0.21031062033E+04  0.50400001928E-02 0.  1.
       -1    1    3    3    0  502  0.29329326255E+03 -0.89422903034E+03 -0.14582457234E+04  0.17355538270E+04  0.50400001928E-02 0. -1.
</event>
<event>
 5   0  0.4255250E-07  0.3830804E+04  0.7818609E-02  0.8039577E-01
        1   -1    0    0  501    0  0.00000000000E+00  0.00000000000E+00  0.19667129223E+04  0.19667129223E+04  0.50400001928E-02 0.  1.
       -1   -1    0    0    0  501  0.00000000000E+00  0.00000000000E+00 -0.18654299711E+04  0.18654299711E+04  0.50400001928E-02 0. -1.
    10030    2    1    2    0    0  0.00000000000E+00  0.00000000000E+00  0.10128295119E+03  0.38321428934E+04  0.38308042131E+04 0.  0.
        2    1    3    3  502    0 -0.14939924462E+04 -0.71557092011E+03 -0.91131302146E+03  0.18906471363E+04  0.25500000920E-02 0. -1.
       -2    1    3    3    0  502  0.14939924462E+04  0.71557092011E+03  0.10125959726E+04  0.19414957571E+04  0.25500000920E-02 0.  1.
</event>
<event>
 5   0  0.1372748E-06  0.3818695E+04  0.7818609E-02  0.8042155E-01
       -2   -1    0    0    0  501  0.00000000000E+00  0.00000000000E+00  0.19781761152E+04  0.19781761152E+04  0.25500000920E-02 0.  1.
        2   -1    0    0  501    0  0.00000000000E+00  0.00000000000E+00 -0.18429136268E+04  0.18429136268E+04  0.25500000920E-02 0. -1.
    10030    2    1    2    0    0  0.00000000000E+00  0.00000000000E+00  0.13526248834E+03  0.38210897420E+04  0.38186949179E+04 0.  0.
        1    1    3    3  502    0 -0.15748160826E+04  0.28072096732E+03  0.11107617590E+04  0.19474705751E+04  0.50400001928E-02 0. -1.
       -1    1    3    3    0  502  0.15748160826E+04 -0.28072096732E+03 -0.97549927062E+03  0.18736191669E+04  0.50400001928E-02 0.  1.
</event>
<event>
 5   0  0.1337854E-06  0.3790664E+04  0.7818609E-02  0.8048161E-01
        2   -1    0    0  501    0  0.00000000000E+00  0.00000000000E+00  0.35857554854E+04  0.35857554854E+04  0.25500000920E-02 0.  1.
       -2   -1    0    0    0  501  0.00000000000E+00  0.00000000000E+00 -0.10018202826E+04  0.10018202826E+04  0.25500000920E-02 0. -1.
    10030    2    1    2    0    0  0.00000000000E+00  0.00000000000E+00  0.25839352028E+04  0.45875757680E+04  0.37906635692E+04 0.  0.
        3    1    3    3  502    0 -0.98256964773E+03 -0.74721430701E+03 -0.44862384598E+03  0.13134061438E+04  0.10100000352E+00 0. -1.
       -3    1    3    3    0  502  0.98256964773E+03  0.74721430701E+03  0.30325590488E+04  0.32741696242E+04  0.10100000352E+00 0.  1.
</event>
<event>
 5   0  0.1337854E-06  0.3834693E+04  0.7818609E-02  0.8038751E-01
       -2   -1    0    0    0  501  0.00000000000E+00  0.00000000000E+00  0.22185826692E+04  0.22185826692E+04  0.25500000920E-02 0. -1.
        2   -1    0    0  501    0  0.00000000000E+00  0.00000000000E+00 -0.16570115266E+04  0.16570115266E+04  0.25500000920E-02 0.  1.
    10030    2    1    2    0    0  0.00000000000E+00  0.00000000000E+00  0.56157114262E+03  0.38755941958E+04  0.38346927155E+04 0.  0.
        3    1    3    3  502    0  0.14603912729E+04  0.37016435837E+03 -0.91780345584E+03  0.17641223075E+04  0.10100000352E+00 0.  1.
       -3    1    3    3    0  502 -0.14603912729E+04 -0.37016435837E+03  0.14793745985E+04  0.21114718883E+04  0.10100000352E+00 0. -1.
</event>
<event>
 5   0  0.4795023E-07  0.3818254E+04  0.7818609E-02  0.8042249E-01
        1   -1    0    0  501    0  0.00000000000E+00  0.00000000000E+00  0.23661986097E+04  0.23661986097E+04  0.50400001928E-02 0.  1.
       -1   -1    0    0    0  501  0.00000000000E+00  0.00000000000E+00 -0.15403462414E+04  0.15403462414E+04  0.50400001928E-02 0. -1.
    10030    2    1    2    0    0  0.00000000000E+00  0.00000000000E+00  0.82585236831E+03  0.39065448512E+04  0.38182535982E+04 0.  0.
        3    1    3    3  502    0  0.40697479242E+03 -0.16105096985E+04  0.13756386945E+04  0.21567920156E+04  0.10100000352E+00 0.  1.
       -3    1    3    3    0  502 -0.40697479242E+03  0.16105096985E+04 -0.54978632616E+03  0.17497528355E+04  0.10100000352E+00 0. -1.
</event>
<event>
 5   0  0.1337854E-06  0.3560315E+04  0.7818609E-02  0.8099643E-01
       -2   -1    0    0    0  501  0.00000000000E+00  0.00000000000E+00  0.15920683137E+04  0.15920683137E+04  0.25500000920E-02 0. -1.
        2   -1    0    0  501    0  0.00000000000E+00  0.00000000000E+00 -0.19904675212E+04  0.19904675212E+04  0.25500000920E-02 0.  1.
    10030    2    1    2    0    0  0.00000000000E+00  0.00000000000E+00 -0.39839920757E+03  0.35825358349E+04  0.35603147445E+04 0.  0.
        3    1    3    3  502    0  0.29104999233E+03  0.16682277099E+04 -0.75150279096E+03  0.18526873037E+04  0.10100000352E+00 0.  1.
       -3    1    3    3    0  502 -0.29104999233E+03 -0.16682277099E+04  0.35310358339E+03  0.17298485312E+04  0.10100000352E+00 0. -1.
</event>
<event>
 5   0  0.1341932E-06  0.3664417E+04  0.7818609E-02  0.8075894E-01
       -2   -1    0    0    0  501  0.00000000000E+00  0.00000000000E+00  0.22847735101E+04  0.22847735101E+04  0.25500000920E-02 0.  1.
        2   -1    0    0  501    0  0.00000000000E+00  0.00000000000E+00 -0.14692867055E+04  0.14692867056E+04  0.25500000920E-02 0. -1.
    10030    2    1    2    0    0  0.00000000000E+00  0.00000000000E+00  0.81548680452E+03  0.37540602156E+04  0.36644166485E+04 0.  0.
        2    1    3    3  502    0 -0.12924033756E+04 -0.42939551696E+03 -0.84792443639E+03  0.16042639574E+04  0.25500000920E-02 0. -1.
       -2    1    3    3    0  502  0.12924033756E+04  0.42939551696E+03  0.16634112409E+04  0.21497962582E+04  0.25500000920E-02 0.  1.
</event>
<event>
 5   0  0.5284458E-07  0.3054205E+04  0.7818609E-02  0.8228419E-01
       -1   -1    0    0    0  501  0.00000000000E+00  0.00000000000E+00  0.18402389334E+04  0.18402389334E+04  0.50400001928E-02 0.  1.
        1   -1    0    0  501    0  0.00000000000E+00  0.00000000000E+00 -0.12672496333E+04  0.12672496333E+04  0.50400001928E-02 0. -1.
    10030    2    1    2    0    0  0.00000000000E+00  0.00000000000E+00  0.57298930017E+03  0.31074885667E+04  0.30542050446E+04 0.  0.
        5    1    3    3  502    0  0.53247629854E+02 -0.24591867245E+03  0.18189954838E+04  0.18363218573E+04  0.46999998093E+01 0.  1.
       -5    1    3    3    0  502 -0.53247629854E+02  0.24591867245E+03 -0.12460061836E+04  0.12711667094E+04  0.46999998093E+01 0. -1.
</event>
<event>
 5   0  0.4795023E-07  0.3090100E+04  0.7818609E-02  0.8218460E-01
       -1   -1    0    0    0  501  0.00000000000E+00  0.00000000000E+00  0.96432736591E+03  0.96432736592E+03  0.50400001928E-02 0. -1.
        1   -1    0    0  501    0  0.00000000000E+00  0.00000000000E+00 -0.24754864315E+04  0.24754864316E+04  0.50400001928E-02 0.  1.
    10030    2    1    2    0    0  0.00000000000E+00  0.00000000000E+00 -0.15111590656E+04  0.34398137975E+04  0.30900998754E+04 0.  0.
        3    1    3    3  502    0  0.86724139889E+03  0.11699064496E+04 -0.18103747047E+03  0.14675024091E+04  0.10100000352E+00 0. -1.
       -3    1    3    3    0  502 -0.86724139889E+03 -0.11699064496E+04 -0.13301215952E+04  0.19723113884E+04  0.10100000352E+00 0.  1.
</event>
<event>
 5   0  0.1079205E-06  0.3882059E+04  0.7818609E-02  0.8028771E-01
       -1   -1    0    0    0  501  0.00000000000E+00  0.00000000000E+00  0.16244270026E+04  0.16244270026E+04  0.50400001928E-02 0.  1.
        1   -1    0    0  501    0  0.00000000000E+00  0.00000000000E+00 -0.23193386827E+04  0.23193386827E+04  0.50400001928E-02 0. -1.
    10030    2    1    2    0    0  0.00000000000E+00  0.00000000000E+00 -0.69491168005E+03  0.39437656853E+04  0.38820594454E+04 0.  0.
        4    1    3    3  502    0 -0.56688184650E+03  0.18108845660E+04  0.67617659220E+02  0.18987447696E+04  0.12699999809E+01 0.  1.
       -4    1    3    3    0  502  0.56688184650E+03 -0.18108845660E+04 -0.76252933927E+03  0.20450209157E+04  0.12699999809E+01 0. -1.
</event>
<event>
 5   0  0.1214844E-06  0.2619558E+04  0.7818609E-02  0.8361588E-01
        2   -1    0    0  501    0  0.00000000000E+00  0.00000000000E+00  0.23182894974E+04  0.23182894974E+04  0.25500000920E-02 0. -1.
       -2   -1    0    0    0  501  0.00000000000E+00  0.00000000000E+00 -0.73999436826E+03  0.73999436826E+03  0.25500000920E-02 0.  1.
    10030    2    1    2    0    0  0.00000000000E+00  0.00000000000E+00  0.15782951292E+04  0.30582838657E+04  0.26195581094E+04 0.  0.
        4    1    3    3  502    0 -0.31836444041E+03  0.12083931438E+04  0.12472252254E+04  0.17655430560E+04  0.12699999809E+01 0. -1.
       -4    1    3    3    0  502  0.31836444041E+03 -0.12083931438E+04  0.33106990378E+03  0.12927408097E+04  0.12699999809E+01 0.  1.
</event>
<event>
 5   0  0.5284458E-07  0.3803601E+04  0.7818609E-02  0.8045383E-01
       -1   -1    0    0    0  501  0.00000000000E+00  0.00000000000E+00  0.17991822109E+04  0.17991822109E+04  0.50400001928E-02 0.  1.
        1   -1    0    0  501    0  0.00000000000E+00  0.00000000000E+00 -0.20102717607E+04  0.20102717607E+04  0.50400001928E-02 0. -1.
    10030    2    1    2    0    0  0.00000000000E+00  0.00000000000E+00 -0.21108954983E+03  0.38094539716E+04  0.38036010258E+04 0.  0.
        5    1    3    3  502    0 -0.30768642228E+03  0.99906379629E+03 -0.16967071055E+04  0.19928965089E+04  0.46999998093E+01 0. -1.
       -5    1    3    3    0  502  0.30768642228E+03 -0.99906379629E+03  0.14856175556E+04  0.18165574627E+04  0.46999998093E+01 0.  1.
</event>
<event>
 5   0  0.1079205E-06  0.3710952E+04  0.7818609E-02  0.8065539E-01
        1   -1    0    0  501    0  0.00000000000E+00  0.00000000000E+00  0.21178762677E+04  0.21178762677E+04  0.50400001928E-02 0.  1.
       -1   -1    0    0    0  501  0.00000000000E+00  0.00000000000E+00 -0.16255868033E+04  0.16255868033E+04  0.50400001928E-02 0. -1.
    10030    2    1    2    0    0  0.00000000000E+00  0.00000000000E+00  0.49228946433E+03  0.37434630710E+04  0.37109522831E+04 0.  0.
        4    1    3    3  502    0 -0.99779839115E+03  0.84733488520E+03 -0.10803707138E+04  0.16972862249E+04  0.12699999809E+01 0. -1.
       -4    1    3    3    0  502  0.99779839115E+03 -0.84733488520E+03  0.15726601781E+04  0.20461768462E+04  0.12699999809E+01 0.  1.
</event>
<event>
 5   0  0.1341932E-06  0.2956821E+04  0.7818609E-02  0.8256170E-01
       -2   -1    0    0    0  501  0.00000000000E+00  0.00000000000E+00  0.13911319253E+04  0.13911319253E+04  0.25500000920E-02 0.  1.
        2   -1    0    0  501    0  0.00000000000E+00  0.00000000000E+00 -0.15711645417E+04  0.15711645417E+04  0.25500000920E-02 0. -1.
    10030    2    1    2    0    0  0.00000000000E+00  0.00000000000E+00 -0.18003261642E+03  0.29622964671E+04  0.29568206939E+04 0.  0.
        2    1    3    3  502    0 -0.12187478850E+04  0.39230060450E+03 -0.83060851404E+03  0.15261574870E+04  0.25500000920E-02 0.  1.
       -2    1    3    3    0  502  0.12187478850E+04 -0.39230060450E+03  0.65057589763E+03  0.14361389801E+04  0.25500000920E-02 0. -1.
</event>
<event>
 5   0  0.1214844E-06  0.3713258E+04  0.7818609E-02  0.8065030E-01
        2   -1    0    0  501    0  0.00000000000E+00  0.00000000000E+00  0.24990303908E+04  0.24990303908E+04  0.25500000920E-02 0. -1.
       -2   -1    0    0    0  501  0.00000000000E+00  0.00000000000E+00 -0.13793635185E+04  0.13793635185E+04  0.25500000920E-02 0.  1.
    10030    2    1    2    0    0  0.00000000000E+00  0.00000000000E+00  0.11196668722E+04  0.38783939093E+04  0.37132580588E+04 0.  0.
        4    1    3    3  502    0  0.64829028076E+03 -0.12505493144E+04 -0.70346645471E+03  0.15744905657E+04  0.12699999809E+01 0.  1.
       -4    1    3    3    0  502 -0.64829028076E+03  0.12505493144E+04  0.18231333269E+04  0.23039033436E+04  0.12699999809E+01 0. -1.
</event>
<event>
 5   0  0.1214844E-06  0.3808663E+04  0.7818609E-02  0.8044298E-01
        2   -1    0    0  501    0  0.00000000000E+00  0.00000000000E+00  0.23925080995E+04  0.23925080995E+04  0.25500000920E-02 0. -1.
       -2   -1    0    0    0  501  0.00000000000E+00  0.00000000000E+00 -0.15157643180E+04  0.15157643180E+04  0.25500000920E-02 0.  1.
    10030    2    1    2    0    0  0.00000000000E+00  0.00000000000E+00  0.87674378150E+03  0.39082724175E+04  0.38086629716E+04 0.  0.
        4    1    3    3  502    0  0.11517988348E+03  0.84743906991E+03 -0.13076145807E+04  0.15624586034E+04  0.12699999809E+01 0.  1.
       -4    1    3    3    0  502 -0.11517988348E+03 -0.84743906991E+03  0.21843583622E+04  0.23458138141E+04  0.12699999809E+01 0. -1.
</event>
<event>
 5   0  0.8030324E-07  0.3739177E+04  0.7818609E-02  0.8059335E-01
       -1   -1    0    0    0  501  0.00000000000E+00  0.00000000000E+00  0.16470848628E+04  0.16470848628E+04  0.50400001928E-02 0.  1.
        1   -1    0    0  501    0  0.00000000000E+00  0.00000000000E+00 -0.21221496162E+04  0.21221496162E+04  0.50400001928E-02 0. -1.
    10030    2    1    2    0    0  0.00000000000E+00  0.00000000000E+00 -0.47506475344E+03  0.37692344790E+04  0.37391766524E+04 0.  0.
        1    1    3    3  502    0  0.62381086920E+03 -0.12593760075E+04 -0.14804045829E+04  0.20412657000E+04  0.50400001928E-02 0. -1.
       -1    1    3    3    0  502 -0.62381086920E+03  0.12593760075E+04  0.10053398294E+04  0.17279687791E+04  0.50400001928E-02 0.  1.
</event>
<event>
 5   0  0.1341932E-06  0.3807398E+04  0.7818609E-02  0.8044569E-01
        2   -1    0    0  501    0  0.00000000000E+00  0.00000000000E+00  0.14014808412E+04  0.14014808412E+04  0.25500000920E-02 0. -1.
       -2   -1    0    0    0  501  0.00000000000E+00  0.00000000000E+00 -0.25858858888E+04  0.25858858888E+04  0.25500000920E-02 0.  1.
    10030    2    1    2    0    0  0.00000000000E+00  0.00000000000E+00 -0.11844050475E+04  0.39873667300E+04  0.38073978152E+04 0.  0.
        2    1    3    3  502    0 -0.10313827185E+04 -0.72520607243E+03  0.90153951636E+03  0.15499831157E+04  0.25500000920E-02 0. -1.
       -2    1    3    3    0  502  0.10313827185E+04  0.72520607243E+03 -0.20859445639E+04  0.24373836143E+04  0.25500000920E-02 0.  1.
</event>
<event>
 5   0  0.1214844E-06  0.3631194E+04  0.7818609E-02  0.8083384E-01
       -2   -1    0    0    0  501  0.00000000000E+00  0.00000000000E+00  0.14113310323E+04  0.14113310323E+04  0.25500000920E-02 0. -1.
        2   -1    0    0  501    0  0.00000000000E+00  0.00000000000E+00 -0.23356619110E+04  0.23356619110E+04  0.25500000920E-02 0.  1.
    10030    2    1    2    0    0  0.00000000000E+00  0.00000000000E+00 -0.92433087877E+03  0.37469929433E+04  0.36311938180E+04 0.  0.
        4    1    3    3  502    0 -0.29395692793E+03  0.19587973364E+03 -0.22998603010E+04  0.23268301534E+04  0.12699999809E+01 0.  1.
       -4    1    3    3    0  502  0.29395692793E+03 -0.19587973364E+03  0.13755294223E+04  0.14201627899E+04  0.12699999809E+01 0. -1.
</event>
<event>
 5   0  0.1184616E-06  0.1980833E+04  0.7818609E-02  0.8615635E-01
       -2   -1    0    0    0  501  0.00000000000E+00  0.00000000000E+00  0.63580333478E+03  0.63580333478E+03  0.25500000920E-02 0. -1.
        2   -1    0    0  501    0  0.00000000000E+00  0.00000000000E+00 -0.15428118936E+04  0.15428118936E+04  0.25500000920E-02 0.  1.
    10030    2    1    2    0    0  0.00000000000E+00  0.00000000000E+00 -0.90700855885E+03  0.21786152284E+04  0.19808331044E+04 0.  0.
        5    1    3    3  502    0 -0.93980736386E+03  0.11145021352E+03 -0.13238667477E+03  0.95561883244E+03  0.46999998093E+01 0.  1.
       -5    1    3    3    0  502  0.93980736386E+03 -0.11145021352E+03 -0.77462188408E+03  0.12229963960E+04  0.46999998093E+01 0. -1.
</event>
<event>
 5   0  0.4255250E-07  0.2525994E+04  0.7818609E-02  0.8393783E-01
       -4   -1    0    0    0  501  0.00000000000E+00  0.00000000000E+00  0.15425401288E+04  0.15425406516E+04  0.12699999809E+01 0.  1.
        4   -1    0    0  501    0  0.00000000000E+00  0.00000000000E+00 -0.10341126392E+04  0.10341134190E+04  0.12699999809E+01 0. -1.
    10030    2    1    2    0    0  0.00000000000E+00  0.00000000000E+00  0.50842748958E+03  0.25766540706E+04  0.25259943957E+04 0.  0.
        4    1    3    3  502    0  0.20465580487E+03  0.76624055633E+03 -0.74842942396E+03  0.10904846648E+04  0.12699999809E+01 0. -1.
       -4    1    3    3    0  502 -0.20465580487E+03 -0.76624055633E+03  0.12568569135E+04  0.14861694058E+04  0.12699999809E+01 0.  1.
</event>
<event>
 5   0  0.1184616E-06  0.3827610E+04  0.7818609E-02  0.8040256E-01
       -2   -1    0    0    0  501  0.00000000000E+00  0.00000000000E+00  0.17463441937E+04  0.17463441937E+04  0.25500000920E-02 0.  1.
        2   -1    0    0  501    0  0.00000000000E+00  0.00000000000E+00 -0.20973235280E+04  0.20973235280E+04  0.25500000920E-02 0. -1.
    10030    2    1    2    0    0  0.00000000000E+00  0.00000000000E+00 -0.35097933426E+03  0.38436677217E+04  0.38276095754E+04 0.  0.
        5    1    3    3  502    0  0.57014853573E+03  0.17455154881E+04  0.36596907704E+03  0.18723912858E+04  0.46999998093E+01 0.  1.
       -5    1    3    3    0  502 -0.57014853573E+03 -0.17455154881E+04 -0.71694841130E+03  0.19712764358E+04  0.46999998093E+01 0. -1.
</event>
<event>
 5   0  0.4255250E-07  0.3630658E+04  0.7818609E-02  0.8083505E-01
        1   -1    0    0  501    0  0.00000000000E+00  0.00000000000E+00  0.22929598714E+04  0.22929598714E+04  0.50400001928E-02 0. -1.
       -1   -1    0    0    0  501  0.00000000000E+00  0.00000000000E+00 -0.14371902990E+04  0.14371902990E+04  0.50400001928E-02 0.  1.
    10030    2    1    2    0    0  0.00000000000E+00  0.00000000000E+00  0.85576957247E+03  0.37301501704E+04  0.36306581680E+04 0.  0.
        2    1    3    3  502    0 -0.14575736796E+04 -0.97631038627E+03 -0.51502826531E+02  0.17550941692E+04  0.25500000920E-02 0.  1.
       -2    1    3    3    0  502  0.14575736796E+04  0.97631038627E+03  0.90727239900E+03  0.19750560012E+04  0.25500000920E-02 0. -1.
</event>
<event>
 5   0  0.1372748E-06  0.3486050E+04  0.7818609E-02  0.8117104E-01
       -2   -1    0    0    0  501  0.00000000000E+00  0.00000000000E+00  0.12096640606E+04  0.12096640606E+04  0.25500000920E-02 0.  1.
        2   -1    0    0  501    0  0.00000000000E+00  0.00000000000E+00 -0.25115542025E+04  0.25115542025E+04  0.25500000920E-02 0. -1.
    10030    2    1    2    0    0  0.00000000000E+00  0.00000000000E+00 -0.13018901419E+04  0.37212182631E+04  0.34860504041E+04 0.  0.
        1    1    3    3  502    0  0.65094528282E+03  0.54110462699E+03  0.97552615094E+03  0.12915785883E+04  0.50400001928E-02 0.  1.
       -1    1    3    3    0  502 -0.65094528282E+03 -0.54110462699E+03 -0.22774162928E+04  0.24296396748E+04  0.50400001928E-02 0. -1.
</event>
<event>
 5   0  0.8030324E-07  0.3840614E+04  0.7818609E-02  0.8037495E-01
       -1   -1    0    0    0  501  0.00000000000E+00  0.00000000000E+00  0.13626921570E+04  0.13626921570E+04  0.50400001928E-02 0.  1.
        1   -1    0    0  501    0  0.00000000000E+00  0.00000000000E+00 -0.27060980497E+04  0.27060980497E+04  0.50400001928E-02 0. -1.
    10030    2    1    2    0    0  0.00000000000E+00  0.00000000000E+00 -0.13434058927E+04  0.40687902067E+04  0.38406137991E+04 0.  0.
        1    1    3    3  502    0 -0.41265152348E+03 -0.46597010534E+03 -0.25962687326E+04  0.26698353416E+04  0.50400001928E-02 0. -1.
       -1    1    3    3    0  502  0.41265152348E+03  0.46597010534E+03  0.12528628400E+04  0.13989548652E+04  0.50400001928E-02 0.  1.
</event>
<event>
 5   0  0.1337854E-06  0.3878874E+04  0.7818609E-02  0.8029437E-01
       -2   -1    0    0    0  501  0.00000000000E+00  0.00000000000E+00  0.10747255321E+04  0.10747255321E+04  0.25500000920E-02 0. -1.
        2   -1    0    0  501    0  0.00000000000E+00  0.00000000000E+00 -0.34998853033E+04  0.34998853033E+04  0.25500000920E-02 0.  1.
    10030    2    1    2    0    0  0.00000000000E+00  0.00000000000E+00 -0.24251597712E+04  0.45746108354E+04  0.38788741123E+04 0.  0.
        3    1    3    3  502    0 -0.72209788275E+02  0.12903659069E+04 -0.29180411413E+04  0.31914295449E+04  0.10100000352E+00 0.  1.
       -3    1    3    3    0  502  0.72209788275E+02 -0.12903659069E+04  0.49288137017E+03  0.13831812905E+04  0.10100000352E+00 0. -1.
</event>
<event>
 5   0  0.8150343E-07  0.1916198E+04  0.7818609E-02  0.8646835E-01
        1   -1    0    0  501    0  0.00000000000E+00  0.00000000000E+00  0.88620724811E+03  0.88620724813E+03  0.50400001928E-02 0. -1.
       -1   -1    0    0    0  501  0.00000000000E+00  0.00000000000E+00 -0.10358229312E+04  0.10358229313E+04  0.50400001928E-02 0.  1.
    10030    2    1    2    0    0  0.00000000000E+00  0.00000000000E+00 -0.14961568313E+03  0.19220301794E+04  0.19161980998E+04 0.  0.
        5    1    3    3  502    0 -0.20256370171E+03  0.22754977082E+03  0.83631839220E+03  0.89009072266E+03  0.46999998093E+01 0. -1.
       -5    1    3    3    0  502  0.20256370171E+03 -0.22754977082E+03 -0.98593407533E+03  0.10319394567E+04  0.46999998093E+01 0.  1.
</event>
<event>
 5   0  0.1341932E-06  0.3780500E+04  0.7818609E-02  0.8050353E-01
        2   -1    0    0  501    0  0.00000000000E+00  0.00000000000E+00  0.19423587097E+04  0.19423587097E+04  0.25500000920E-02 0.  1.
       -2   -1    0    0    0  501  0.00000000000E+00  0.00000000000E+00 -0.18395390371E+04  0.18395390371E+04  0.25500000920E-02 0. -1.
    10030    2    1    2    0    0  0.00000000000E+00  0.00000000000E+00  0.10281967267E+03  0.37818977468E+04  0.37804997927E+04 0.  0.
        2    1    3    3  502    0 -0.17539713248E+04  0.68873115396E+03  0.20072540638E+03  0.18950083639E+04  0.25500000920E-02 0. -1.
       -2    1    3    3    0  502  0.17539713248E+04 -0.68873115396E+03 -0.97905733708E+02  0.18868893829E+04  0.25500000920E-02 0.  1.
</event>
<event>
 5   0  0.1184616E-06  0.3786241E+04  0.7818609E-02  0.8049114E-01
       -2   -1    0    0    0  501  0.00000000000E+00  0.00000000000E+00  0.17194926079E+04  0.17194926079E+04  0.25500000920E-02 0. -1.
        2   -1    0    0  501    0  0.00000000000E+00  0.00000000000E+00 -0.20842809502E+04  0.20842809502E+04  0.25500000920E-02 0.  1.
    10030    2    1    2    0    0  0.00000000000E+00  0.00000000000E+00 -0.36478834234E+03  0.38037735581E+04  0.37862412425E+04 0.  0.
        5    1    3    3  502    0 -0.62374943009E+03 -0.14850288283E+03 -0.19718685006E+04  0.20735004054E+04  0.46999998093E+01 0.  1.
       -5    1    3    3    0  502  0.62374943009E+03  0.14850288283E+03  0.16070801583E+04  0.17302731527E+04  0.46999998093E+01 0. -1.
</event>
<event>
 5   0  0.8030324E-07  0.3244037E+04  0.7818609E-02  0.8177283E-01
        1   -1    0    0  501    0  0.00000000000E+00  0.00000000000E+00  0.15141499839E+04  0.15141499840E+04  0.50400001928E-02 0.  1.
       -1   -1    0    0    0  501  0.00000000000E+00  0.00000000000E+00 -0.17375718849E+04  0.17375718849E+04  0.50400001928E-02 0. -1.
    10030    2    1    2    0    0  0.00000000000E+00  0.00000000000E+00 -0.22342190098E+03  0.32517218689E+04  0.32440372635E+04 0.  0.
        1    1    3    3  502    0 -0.66889806088E+03  0.34862460666E+03 -0.15510723662E+04  0.17247577272E+04  0.50400001928E-02 0. -1.
       -1    1    3    3    0  502  0.66889806088E+03 -0.34862460666E+03  0.13276504652E+04  0.15269641417E+04  0.50400001928E-02 0.  1.
</event>
<event>
 5   0  0.1214844E-06  0.3779188E+04  0.7818609E-02  0.8050636E-01
       -2   -1    0    0    0  501  0.00000000000E+00  0.00000000000E+00  0.13286910204E+04  0.13286910204E+04  0.25500000920E-02 0. -1.
        2   -1    0    0  501    0  0.00000000000E+00  0.00000000000E+00 -0.26872805457E+04  0.26872805458E+04  0.25500000920E-02 0.  1.
    10030    2    1    2    0    0  0.00000000000E+00  0.00000000000E+00 -0.13585895254E+04  0.40159715661E+04  0.37791880241E+04 0.  0.
        4    1    3    3  502    0  0.57877723326E+03 -0.14505542000E+04  0.45105876280E+03  0.16255910289E+04  0.12699999809E+01 0. -1.
       -4    1    3    3    0  502 -0.57877723326E+03  0.14505542000E+04 -0.18096482882E+04  0.23903805372E+04  0.12699999809E+01 0.  1.
</event>
<event>
 5   0  0.1341932E-06  0.3943777E+04  0.7818609E-02  0.8015986E-01
       -2   -1    0    0    0  501  0.00000000000E+00  0.00000000000E+00  0.19233522964E+04  0.19233522964E+04  0.25500000920E-02 0. -1.
        2   -1    0    0  501    0  0.00000000000E+00  0.00000000000E+00 -0.20216491828E+04  0.20216491828E+04  0.25500000920E-02 0.  1.
    10030    2    1    2    0    0  0.00000000000E+00  0.00000000000E+00 -0.98296886343E+02  0.39450014792E+04  0.39437766662E+04 0.  0.
        2    1    3    3  502    0 -0.18994515774E+03 -0.15763310942E+04 -0.12188895338E+04  0.20016469662E+04  0.25500000920E-02 0.  1.
       -2    1    3    3    0  502  0.18994515774E+03  0.15763310942E+04  0.11205926475E+04  0.19433545130E+04  0.25500000920E-02 0. -1.
</event>
<event>
 5   0  0.1337854E-06  0.3376976E+04  0.7818609E-02  0.8143580E-01
       -2   -1    0    0    0  501  0.00000000000E+00  0.00000000000E+00  0.15826284597E+04  0.15826284597E+04  0.25500000920E-02 0.  1.
        2   -1    0    0  501    0  0.00000000000E+00  0.00000000000E+00 -0.18014286859E+04  0.18014286859E+04  0.25500000920E-02 0. -1.
    10030    2    1    2    0    0  0.00000000000E+00  0.00000000000E+00 -0.21880022622E+03  0.33840571456E+04  0.33769763436E+04 0.  0.
        3    1    3    3  502    0 -0.85444803592E+03  0.89594804380E+02  0.13472238763E+04  0.15978488221E+04  0.10100000352E+00 0.  1.
       -3    1    3    3    0  502  0.85444803592E+03 -0.89594804380E+02 -0.15660241025E+04  0.17862083235E+04  0.10100000352E+00 0. -1.
</event>
<event>
 5   0  0.4255250E-07  0.3738831E+04  0.7818609E-02  0.8059410E-01
        1   -1    0    0  501    0  0.00000000000E+00  0.00000000000E+00  0.12648067537E+04  0.12648067537E+04  0.50400001928E-02 0. -1.
       -1   -1    0    0    0  501  0.00000000000E+00  0.00000000000E+00 -0.27630425903E+04  0.27630425903E+04  0.50400001928E-02 0.  1.
    10030    2    1    2    0    0  0.00000000000E+00  0.00000000000E+00 -0.14982358367E+04  0.40278493440E+04  0.37388313302E+04 0.  0.
        2    1    3    3  502    0 -0.79422484409E+02 -0.12901691277E+04  0.70578615055E+03  0.14727451917E+04  0.25500000920E-02 0. -1.
       -2    1    3    3    0  502  0.79422484409E+02  0.12901691277E+04 -0.22040219872E+04  0.25551041523E+04  0.25500000920E-02 0.  1.
</event>
<event>
 5   0  0.1337854E-06  0.3773045E+04  0.7818609E-02  0.8051964E-01
       -2   -1    0    0    0  501  0.00000000000E+00  0.00000000000E+00  0.13477501653E+04  0.13477501653E+04  0.25500000920E-02 0.  1.
        2   -1    0    0  501    0  0.00000000000E+00  0.00000000000E+00 -0.26406734178E+04  0.26406734178E+04  0.25500000920E-02 0. -1.
    10030    2    1    2    0    0  0.00000000000E+00  0.00000000000E+00 -0.12929232525E+04  0.39884235831E+04  0.37730454731E+04 0.  0.
        3    1    3    3  502    0 -0.43300657571E+03 -0.23256287992E+03 -0.25718013006E+04  0.26183472130E+04  0.10100000352E+00 0. -1.
       -3    1    3    3    0  502  0.43300657571E+03  0.23256287992E+03  0.12788780482E+04  0.13700763701E+04  0.10100000352E+00 0.  1.
</event>
<event>
 5   0  0.1337854E-06  0.3833600E+04  0.7818609E-02  0.8038983E-01
        2   -1    0    0  501    0  0.00000000000E+00  0.00000000000E+00  0.21338199418E+04  0.21338199418E+04  0.25500000920E-02 0. -1.
       -2   -1    0    0    0  501  0.00000000000E+00  0.00000000000E+00 -0.17218524628E+04  0.17218524628E+04  0.25500000920E-02 0.  1.
    10030    2    1    2    0    0  0.00000000000E+00  0.00000000000E+00  0.41196747897E+03  0.38556724046E+04  0.38336004601E+04 0.  0.
        3    1    3    3  502    0  0.14915828528E+03  0.17423635059E+04  0.99538762815E+03  0.20121817316E+04  0.10100000352E+00 0. -1.
       -3    1    3    3    0  502 -0.14915828528E+03 -0.17423635059E+04 -0.58342014918E+03  0.18434906730E+04  0.10100000352E+00 0.  1.
</event>
<event>
 5   0  0.1341932E-06  0.2318887E+04  0.7818609E-02  0.8470511E-01
        2   -1    0    0  501    0  0.00000000000E+00  0.00000000000E+00  0.22838322822E+04  0.22838322822E+04  0.25500000920E-02 0.  1.
       -2   -1    0    0    0  501  0.00000000000E+00  0.00000000000E+00 -0.58861990491E+03  0.58861990492E+03  0.25500000920E-02 0. -1.
    10030    2    1    2    0    0  0.00000000000E+00  0.00000000000E+00  0.16952123772E+04  0.28724521871E+04  0.23188869233E+04 0.  0.
        2    1    3    3  502    0 -0.33984349660E+03 -0.78707419528E+03 -0.11933359287E+03  0.86557489419E+03  0.25500000920E-02 0. -1.
       -2    1    3    3    0  502  0.33984349660E+03  0.78707419528E+03  0.18145459701E+04  0.20068772929E+04  0.25500000920E-02 0.  1.
</event>
<event>
 5   0  0.4795023E-07  0.2476637E+04  0.7818609E-02  0.8411356E-01
       -1   -1    0    0    0  501  0.00000000000E+00  0.00000000000E+00  0.81884939460E+03  0.81884939461E+03  0.50400001928E-02 0.  1.
        1   -1    0    0  501    0  0.00000000000E+00  0.00000000000E+00 -0.18726669876E+04  0.18726669876E+04  0.50400001928E-02 0. -1.
    10030    2    1    2    0    0  0.00000000000E+00  0.00000000000E+00 -0.10538175930E+04  0.26915163823E+04  0.24766366137E+04 0.  0.
        3    1    3    3  502    0 -0.23783158492E+03  0.51703695053E+03 -0.17221211194E+04  0.18137233061E+04  0.10100000352E+00 0. -1.
       -3    1    3    3    0  502  0.23783158492E+03 -0.51703695053E+03  0.66830352636E+03  0.87779307616E+03  0.10100000352E+00 0.  1.
</event>
<event>
 5   0  0.1214844E-06  0.3472572E+04  0.7818609E-02  0.8120321E-01
       -2   -1    0    0    0  501  0.00000000000E+00  0.00000000000E+00  0.17355315404E+04  0.17355315404E+04  0.25500000920E-02 0.  1.
        2   -1    0    0  501    0  0.00000000000E+00  0.00000000000E+00 -0.17370410621E+04  0.17370410621E+04  0.25500000920E-02 0. -1.
    10030    2    1    2    0    0  0.00000000000E+00  0.00000000000E+00 -0.15095216971E+01  0.34725726024E+04  0.34725722743E+04 0.  0.
        4    1    3    3  502    0 -0.60088706100E+03  0.14872146139E+04  0.66393723762E+03  0.17359973607E+04  0.12699999809E+01 0.  1.
       -4    1    3    3    0  502  0.60088706100E+03 -0.14872146139E+04 -0.66544675932E+03  0.17365752417E+04  0.12699999809E+01 0. -1.
</event>
<event>
 5   0  0.1337854E-06  0.3909400E+04  0.7818609E-02  0.8023077E-01
       -2   -1    0    0    0  501  0.00000000000E+00  0.00000000000E+00  0.24306537300E+04  0.24306537300E+04  0.25500000920E-02 0.  1.
        2   -1    0    0  501    0  0.00000000000E+00  0.00000000000E+00 -0.15719443019E+04  0.15719443019E+04  0.25500000920E-02 0. -1.
    10030    2    1    2    0    0  0.00000000000E+00  0.00000000000E+00  0.85870942811E+03  0.40025980319E+04  0.39094000975E+04 0.  0.
        3    1    3    3  502    0  0.17949715051E+04 -0.70023470819E+03  0.91951970200E+02  0.19289133017E+04  0.10100000352E+00 0. -1.
       -3    1    3    3    0  502 -0.17949715051E+04  0.70023470819E+03  0.76675745791E+03  0.20736847301E+04  0.10100000352E+00 0.  1.
</event>
<event>
 5   0  0.4255250E-07  0.3890747E+04  0.7818609E-02  0.8026956E-01
       -1   -1    0    0    0  501  0.00000000000E+00  0.00000000000E+00  0.29311059582E+04  0.29311059583E+04  0.50400001928E-02 0.  1.
        1   -1    0    0  501    0  0.00000000000E+00  0.00000000000E+00 -0.12911435692E+04  0.12911435692E+04  0.50400001928E-02 0. -1.
    10030    2    1    2    0    0  0.00000000000E+00  0.00000000000E+00  0.16399623891E+04  0.42222495274E+04  0.38907472848E+04 0.  0.
        2    1    3    3  502    0  0.77030698911E+03  0.17708431831E+04  0.56496970362E+03  0.20120758442E+04  0.25500000920E-02 0. -1.
       -2    1    3    3    0  502 -0.77030698911E+03 -0.17708431831E+04  0.10749926854E+04  0.22101736833E+04  0.25500000920E-02 0.  1.
</event>
<event>
 5   0  0.4795023E-07  0.2144667E+04  0.7818609E-02  0.8541818E-01
        1   -1    0    0  501    0  0.00000000000E+00  0.00000000000E+00  0.13693516357E+04  0.13693516357E+04  0.50400001928E-02 0. -1.
       -1   -1    0    0    0  501  0.00000000000E+00  0.00000000000E+00 -0.83974004037E+03  0.83974004039E+03  0.50400001928E-02 0.  1.
    10030    2    1    2    0    0  0.00000000000E+00  0.00000000000E+00  0.52961159531E+03  0.22090916761E+04  0.21446672449E+04 0.  0.
        3    1    3    3  502    0 -0.29184930162E+03  0.79578920692E+03  0.94138008543E+03  0.12667489697E+04  0.10100000352E+00 0. -1.
       -3    1    3    3    0  502  0.29184930162E+03 -0.79578920692E+03 -0.41176849011E+03  0.94234270642E+03  0.10100000352E+00 0.  1.
</event>
<event>
 5   0  0.1372748E-06  0.1995742E+04  0.7818609E-02  0.8608614E-01
       -2   -1    0    0    0  501  0.00000000000E+00  0.00000000000E+00  0.45227587861E+03  0.45227587862E+03  0.25500000920E-02 0.  1.
        2   -1    0    0  501    0  0.00000000000E+00  0.00000000000E+00 -0.22016343999E+04  0.22016343999E+04  0.25500000920E-02 0. -1.
    10030    2    1    2    0    0  0.00000000000E+00  0.00000000000E+00 -0.17493585213E+04  0.26539102785E+04  0.19957415991E+04 0.  0.
        1    1    3    3  502    0 -0.42524045535E+03  0.81195558261E+03 -0.35005392287E+03  0.98114171349E+03  0.50400001928E-02 0.  1.
       -1    1    3    3    0  502  0.42524045535E+03 -0.81195558261E+03 -0.13993045984E+04  0.16727685650E+04  0.50400001928E-02 0. -1.
</event>
<event>
 5   0  0.8030324E-07  0.2331227E+04  0.7818609E-02  0.8465710E-01
        1   -1    0    0  501    0  0.00000000000E+00  0.00000000000E+00  0.74426105239E+03  0.74426105240E+03  0.50400001928E-02 0. -1.
       -1   -1    0    0    0  501  0.00000000000E+00  0.00000000000E+00 -0.18255085716E+04  0.18255085716E+04  0.50400001928E-02 0.  1.
    10030    2    1    2    0    0  0.00000000000E+00  0.00000000000E+00 -0.10812475192E+04  0.25697696240E+04  0.23312270852E+04 0.  0.
        1    1    3    3  502    0 -0.75922017468E+03 -0.31878412554E+03  0.36878848222E+03  0.90224361287E+03  0.50400001928E-02 0. -1.
       -1    1    3    3    0  502  0.75922017468E+03  0.31878412554E+03 -0.14500360014E+04  0.16675260111E+04  0.50400001928E-02 0.  1.
</event>
<event>
 5   0  0.1337854E-06  0.3636774E+04  0.7818609E-02  0.8082120E-01
        2   -1    0    0  501    0  0.00000000000E+00  0.00000000000E+00  0.21828940382E+04  0.21828940382E+04  0.25500000920E-02 0.  1.
       -2   -1    0    0    0  501  0.00000000000E+00  0.00000000000E+00 -0.15147463576E+04  0.15147463576E+04  0.25500000920E-02 0. -1.
    10030    2    1    2    0    0  0.00000000000E+00  0.00000000000E+00  0.66814768067E+03  0.36976403958E+04  0.36367737314E+04 0.  0.
        3    1    3    3  502    0 -0.30411631707E+03 -0.73933928820E+03  0.19946324632E+04  0.21488759831E+04  0.10100000352E+00 0.  1.
       -3    1    3    3    0  502  0.30411631707E+03  0.73933928820E+03 -0.13264847826E+04  0.15487644127E+04  0.10100000352E+00 0. -1.
</event>
<event>
 5   0  0.8030324E-07  0.2090849E+04  0.7818609E-02  0.8565285E-01
        1   -1    0    0  501    0  0.00000000000E+00  0.00000000000E+00  0.12901788320E+04  0.12901788320E+04  0.50400001928E-02 0. -1.
       -1   -1    0    0    0  501  0.00000000000E+00  0.00000000000E+00 -0.84710122565E+03  0.84710122567E+03  0.50400001928E-02 0.  1.
    10030    2    1    2    0    0  0.00000000000E+00  0.00000000000E+00  0.44307760632E+03  0.21372800576E+04  0.20908486984E+04 0.  0.
        1    1    3    3  502    0 -0.26939369956E+03  0.69405418417E+03  0.97174949089E+03  0.12241655317E+04  0.50400001928E-02 0. -1.
       -1    1    3    3    0  502  0.26939369956E+03 -0.69405418417E+03 -0.52867188458E+03  0.91311452595E+03  0.50400001928E-02 0.  1.
</event>
<event>
 5   0  0.4795023E-07  0.2159555E+04  0.7818609E-02  0.8535453E-01
       -1   -1    0    0    0  501  0.00000000000E+00  0.00000000000E+00  0.93676491594E+03  0.93676491595E+03  0.50400001928E-02 0.  1.
        1   -1    0    0  501    0  0.00000000000E+00  0.00000000000E+00 -0.12446229240E+04  0.12446229240E+04  0.50400001928E-02 0. -1.
    10030    2    1    2    0    0  0.00000000000E+00  0.00000000000E+00 -0.30785800802E+03  0.21813878399E+04  0.21595546659E+04 0.  0.
        3    1    3    3  502    0 -0.21476528713E+02  0.81862317227E+01  0.93651779689E+03  0.93679979172E+03  0.10100000352E+00 0.  1.
       -3    1    3    3    0  502  0.21476528713E+02 -0.81862317227E+01 -0.12443758049E+04  0.12445880482E+04  0.10100000352E+00 0. -1.
</event>
<event>
 5   0  0.4255250E-07  0.1959859E+04  0.7818609E-02  0.8625621E-01
       -1   -1    0    0    0  501  0.00000000000E+00  0.00000000000E+00  0.48026767823E+03  0.48026767825E+03  0.50400001928E-02 0. -1.
        1   -1    0    0  501    0  0.00000000000E+00  0.00000000000E+00 -0.19994298178E+04  0.19994298178E+04  0.50400001928E-02 0.  1.
    10030    2    1    2    0    0  0.00000000000E+00  0.00000000000E+00 -0.15191621396E+04  0.24796974961E+04  0.19598586851E+04 0.  0.
        2    1    3    3  502    0 -0.25252682741E+03  0.24971824917E+02 -0.19571375032E+04  0.19735198497E+04  0.25500000920E-02 0.  1.
       -2    1    3    3    0  502  0.25252682741E+03 -0.24971824917E+02  0.43797536360E+03  0.50617764641E+03  0.25500000920E-02 0. -1.
</event>
<event>
 5   0  0.1435681E-06  0.1963384E+04  0.7818609E-02  0.8623934E-01
        2   -1    0    0  501    0  0.00000000000E+00  0.00000000000E+00  0.16767567192E+04  0.16767567192E+04  0.25500000920E-02 0. -1.
       -2   -1    0    0    0  501  0.00000000000E+00  0.00000000000E+00 -0.57475184079E+03  0.57475184079E+03  0.25500000920E-02 0.  1.
    10030    2    1    2    0    0  0.00000000000E+00  0.00000000000E+00  0.11020048784E+04  0.22515085600E+04  0.19633838248E+04 0.  0.
        1    1    3    3  502    0  0.94839118535E+03 -0.18158786994E+03  0.34812500901E+03  0.10264555601E+04  0.50400001928E-02 0.  1.
       -1    1    3    3    0  502 -0.94839118535E+03  0.18158786994E+03  0.75387986936E+03  0.12250529998E+04  0.50400001928E-02 0. -1.
</event>
<event>
 5   0  0.1337854E-06  0.3814494E+04  0.7818609E-02  0.8043052E-01
        2   -1    0    0  501    0  0.00000000000E+00  0.00000000000E+00  0.19678458026E+04  0.19678458026E+04  0.25500000920E-02 0.  1.
       -2   -1    0    0    0  501  0.00000000000E+00  0.00000000000E+00 -0.18485141605E+04  0.18485141605E+04  0.25500000920E-02 0. -1.
    10030    2    1    2    0    0  0.00000000000E+00  0.00000000000E+00  0.11933164204E+03  0.38163599631E+04  0.38144938494E+04 0.  0.
        3    1    3    3  502    0 -0.17777453005E+04  0.51672717811E+03 -0.39904019995E+03  0.18938369575E+04  0.10100000352E+00 0. -1.
       -3    1    3    3    0  502  0.17777453005E+04 -0.51672717811E+03  0.51837184199E+03  0.19225230056E+04  0.10100000352E+00 0.  1.
</event>
<event>
 5   0  0.1341932E-06  0.2024771E+04  0.7818609E-02  0.8595126E-01
       -2   -1    0    0    0  501  0.00000000000E+00  0.00000000000E+00  0.10601806372E+04  0.10601806372E+04  0.25500000920E-02 0. -1.
        2   -1    0    0  501    0  0.00000000000E+00  0.00000000000E+00 -0.96674497215E+03  0.96674497215E+03  0.25500000920E-02 0.  1.
    10030    2    1    2    0    0  0.00000000000E+00  0.00000000000E+00  0.93435665074E+02  0.20269256094E+04  0.20247709012E+04 0.  0.
        2    1    3    3  502    0 -0.70733756658E+03  0.71780000720E+03  0.14357314358E+03  0.10179275667E+04  0.25500000920E-02 0.  1.
       -2    1    3    3    0  502  0.70733756658E+03 -0.71780000720E+03 -0.50137478510E+02  0.10089980427E+04  0.25500000920E-02 0. -1.
</event>
<event>
 5   0  0.1214844E-06  0.3853916E+04  0.7818609E-02  0.8034683E-01
        2   -1    0    0  501    0  0.00000000000E+00  0.00000000000E+00  0.28613676204E+04  0.28613676204E+04  0.25500000920E-02 0.  1.
       -2   -1    0    0    0  501  0.00000000000E+00  0.00000000000E+00 -0.12976894271E+04  0.12976894271E+04  0.25500000920E-02 0. -1.
    10030    2    1    2    0    0  0.00000000000E+00  0.00000000000E+00  0.15636781933E+04  0.41590570475E+04  0.38539156753E+04 0.  0.
        4    1    3    3  502    0 -0.44709883158E+03 -0.15009537099E+04  0.19934071481E+04  0.25350410402E+04  0.12699999809E+01 0.  1.
       -4    1    3    3    0  502  0.44709883158E+03  0.15009537099E+04 -0.42972895481E+03  0.16240160073E+04  0.12699999809E+01 0. -1.
</event>
<event>
 5   0  0.1337854E-06  0.2331646E+04  0.7818609E-02  0.8465547E-01
        2   -1    0    0  501    0  0.00000000000E+00  0.00000000000E+00  0.20962908026E+04  0.20962908026E+04  0.25500000920E-02 0.  1.
       -2   -1    0    0    0  501  0.00000000000E+00  0.00000000000E+00 -0.64835636322E+03  0.64835636323E+03  0.25500000920E-02 0. -1.
    10030    2    1    2    0    0  0.00000000000E+00  0.00000000000E+00  0.14479344394E+04  0.27446471659E+04  0.23316461833E+04 0.  0.
        3    1    3    3  502    0 -0.11184542088E+04  0.32575393435E+03  0.77775604007E+03  0.14006997933E+04  0.10100000352E+00 0.  1.
       -3    1    3    3    0  502  0.11184542088E+04 -0.32575393435E+03  0.67017839935E+03  0.13439473725E+04  0.10100000352E+00 0. -1.
</event>
<event>
 5   0  0.4795023E-07  0.3746908E+04  0.7818609E-02  0.8057645E-01
        1   -1    0    0  501    0  0.00000000000E+00  0.00000000000E+00  0.28860890693E+04  0.28860890694E+04  0.50400001928E-02 0.  1.
       -1   -1    0    0    0  501  0.00000000000E+00  0.00000000000E+00 -0.12161198557E+04  0.12161198557E+04  0.50400001928E-02 0. -1.
    10030    2    1    2    0    0  0.00000000000E+00  0.00000000000E+00  0.16699692137E+04  0.41022089251E+04  0.37469081775E+04 0.  0.
        3    1    3    3  502    0 -0.17493631379E+04  0.56025724775E+03  0.43172227005E+03  0.18869403013E+04  0.10100000352E+00 0. -1.
       -3    1    3    3    0  502  0.17493631379E+04 -0.56025724775E+03  0.12382469436E+04  0.22152686238E+04  0.10100000352E+00 0.  1.
</event>
<event>
 5   0  0.1214844E-06  0.2905275E+04  0.7818609E-02  0.8271310E-01
        2   -1    0    0  501    0  0.00000000000E+00  0.00000000000E+00  0.17187550454E+04  0.17187550454E+04  0.25500000920E-02 0.  1.
       -2   -1    0    0    0  501  0.00000000000E+00  0.00000000000E+00 -0.12277230307E+04  0.12277230307E+04  0.25500000920E-02 0. -1.
    10030    2    1    2    0    0  0.00000000000E+00  0.00000000000E+00  0.49103201468E+03  0.29464780761E+04  0.29052746193E+04 0.  0.
        4    1    3    3  502    0  0.87464149831E+03  0.30484467973E+02 -0.93033487181E+03  0.12772829130E+04  0.12699999809E+01 0. -1.
       -4    1    3    3    0  502 -0.87464149831E+03 -0.30484467973E+02  0.14213668865E+04  0.16691951630E+04  0.12699999809E+01 0.  1.
</event>
<event>
 5   0  0.1341932E-06  0.3882216E+04  0.7818609E-02  0.8028738E-01
        2   -1    0    0  501    0  0.00000000000E+00  0.00000000000E+00  0.27529648750E+04  0.27529648750E+04  0.25500000920E-02 0.  1.
       -2   -1    0    0    0  501  0.00000000000E+00  0.00000000000E+00 -0.13686702085E+04  0.13686702085E+04  0.25500000920E-02 0. -1.
    10030    2    1    2    0    0  0.00000000000E+00  0.00000000000E+00  0.13842946664E+04  0.41216350835E+04  0.38822163821E+04 0.  0.
        2    1    3    3  502    0  0.11550997718E+04  0.14098028845E+04 -0.16951173402E+02  0.18226593203E+04  0.25500000920E-02 0.  1.
       -2    1    3    3    0  502 -0.11550997718E+04 -0.14098028845E+04  0.14012458398E+04  0.22989757631E+04  0.25500000920E-02 0. -1.
</event>
<event>
 5   0  0.4255250E-07  0.2147473E+04  0.7818609E-02  0.8540615E-01
        1   -1    0    0  501    0  0.00000000000E+00  0.00000000000E+00  0.82565056236E+03  0.82565056238E+03  0.50400001928E-02 0. -1.
       -1   -1    0    0    0  501  0.00000000000E+00  0.00000000000E+00 -0.13963654610E+04  0.13963654610E+04  0.50400001928E-02 0.  1.
    10030    2    1    2    0    0  0.00000000000E+00  0.00000000000E+00 -0.57071489864E+03  0.22220160234E+04  0.21474728666E+04 0.  0.
        2    1    3    3  502    0  0.38502819905E+03 -0.62162202195E+03  0.52822450922E+03  0.90204311670E+03  0.25500000920E-02 0. -1.
       -2    1    3    3    0  502 -0.38502819905E+03  0.62162202195E+03 -0.10989394079E+04  0.13199729067E+04  0.25500000920E-02 0.  1.
</event>
<event>
 5   0  0.4255250E-07  0.3172938E+04  0.7818609E-02  0.8196001E-01
        4   -1    0    0  501    0  0.00000000000E+00  0.00000000000E+00  0.11811846611E+04  0.11811853439E+04  0.12699999809E+01 0.  1.
       -4   -1    0    0    0  501  0.00000000000E+00  0.00000000000E+00 -0.21308116725E+04  0.21308120510E+04  0.12699999809E+01 0. -1.
    10030    2    1    2    0    0  0.00000000000E+00  0.00000000000E+00 -0.94962701140E+03  0.33119973949E+04  0.31729379576E+04 0.  0.
        5    1    3    3  502    0  0.87312492297E+03 -0.11970087180E+04  0.11721637711E+03  0.14862499020E+04  0.46999998093E+01 0.  1.
       -5    1    3    3    0  502 -0.87312492297E+03  0.11970087180E+04 -0.10668433885E+04  0.18257474929E+04  0.46999998093E+01 0. -1.
</event>
<event>
 5   0  0.1372748E-06  0.3949532E+04  0.7818609E-02  0.8014806E-01
        2   -1    0    0  501    0  0.00000000000E+00  0.00000000000E+00  0.19592792668E+04  0.19592792668E+04  0.25500000920E-02 0. -1.
       -2   -1    0    0    0  501  0.00000000000E+00  0.00000000000E+00 -0.19903749287E+04  0.19903749287E+04  0.25500000920E-02 0.  1.
    10030    2    1    2    0    0  0.00000000000E+00  0.00000000000E+00 -0.31095661918E+02  0.39496541954E+04  0.39495317853E+04 0.  0.
        1    1    3    3  502    0 -0.17913253833E+04  0.78573502522E+03 -0.28661742841E+03  0.19769612310E+04  0.50400001928E-02 0.  1.
       -1    1    3    3    0  502  0.17913253833E+04 -0.78573502522E+03  0.25552176649E+03  0.19726929644E+04  0.50400001928E-02 0. -1.
</event>
<event>
 5   0  0.8030324E-07  0.3448515E+04  0.7818609E-02  0.8126101E-01
        1   -1    0    0  501    0  0.00000000000E+00  0.00000000000E+00  0.24081611833E+04  0.24081611833E+04  0.50400001928E-02 0. -1.
       -1   -1    0    0    0  501  0.00000000000E+00  0.00000000000E+00 -0.12345786967E+04  0.12345786967E+04  0.50400001928E-02 0.  1.
    10030    2    1    2    0    0  0.00000000000E+00  0.00000000000E+00  0.11735824866E+04  0.36427398800E+04  0.34485153299E+04 0.  0.
        1    1    3    3  502    0 -0.95709401936E+03 -0.14062707091E+04  0.28906935311E+03  0.17254527986E+04  0.50400001928E-02 0.  1.
       -1    1    3    3    0  502  0.95709401936E+03  0.14062707091E+04  0.88451313352E+03  0.19172870814E+04  0.50400001928E-02 0. -1.
</event>
<event>
 5   0  0.4795023E-07  0.1892122E+04  0.7818609E-02  0.8658788E-01
        1   -1    0    0  501    0  0.00000000000E+00  0.00000000000E+00  0.96700128182E+03  0.96700128183E+03  0.50400001928E-02 0.  1.
       -1   -1    0    0    0  501  0.00000000000E+00  0.00000000000E+00 -0.92557415990E+03  0.92557415992E+03  0.50400001928E-02 0. -1.
    10030    2    1    2    0    0  0.00000000000E+00  0.00000000000E+00  0.41427121915E+02  0.18925754417E+04  0.18921219824E+04 0.  0.
        3    1    3    3  502    0  0.29629136696E+03  0.36013020288E+03  0.84404450821E+03  0.96430984605E+03  0.10100000352E+00 0.  1.
       -3    1    3    3    0  502 -0.29629136696E+03 -0.36013020288E+03 -0.80261738629E+03  0.92826559569E+03  0.10100000352E+00 0. -1.
</event>
<event>
 5   0  0.5284458E-07  0.1979413E+04  0.7818609E-02  0.8616307E-01
        1   -1    0    0  501    0  0.00000000000E+00  0.00000000000E+00  0.18006613016E+04  0.18006613016E+04  0.50400001928E-02 0.  1.
       -1   -1    0    0    0  501  0.00000000000E+00  0.00000000000E+00 -0.54397740858E+03  0.54397740860E+03  0.50400001928E-02 0. -1.
    10030    2    1    2    0    0  0.00000000000E+00  0.00000000000E+00  0.12566838930E+04  0.23446387102E+04  0.19794131136E+04 0.  0.
        5    1    3    3  502    0 -0.56643250088E+03  0.65470538051E+03  0.11964288752E+04  0.14768036622E+04  0.46999998093E+01 0. -1.
       -5    1    3    3    0  502  0.56643250088E+03 -0.65470538051E+03  0.60255017800E+02  0.86783504797E+03  0.46999998093E+01 0.  1.
</event>
<event>
 5   0  0.1337854E-06  0.3846175E+04  0.7818609E-02  0.8036318E-01
        2   -1    0    0  501    0  0.00000000000E+00  0.00000000000E+00  0.12369806054E+04  0.12369806054E+04  0.25500000920E-02 0. -1.
       -2   -1    0    0    0  501  0.00000000000E+00  0.00000000000E+00 -0.29897518008E+04  0.29897518008E+04  0.25500000920E-02 0.  1.
    10030    2    1    2    0    0  0.00000000000E+00  0.00000000000E+00 -0.17527711954E+04  0.42267324063E+04  0.38461747192E+04 0.  0.
        3    1    3    3  502    0  0.63105697089E+03 -0.55083175754E+03 -0.27787395489E+04  0.29022477524E+04  0.10100000352E+00 0.  1.
       -3    1    3    3    0  502 -0.63105697089E+03  0.55083175754E+03  0.10259683535E+04  0.13244846538E+04  0.10100000352E+00 0. -1.
</event>
<event>
 5   0  0.1372748E-06  0.2042219E+04  0.7818609E-02  0.8587132E-01
        2   -1    0    0  501    0  0.00000000000E+00  0.00000000000E+00  0.75603453644E+03  0.75603453645E+03  0.25500000920E-02 0. -1.
       -2   -1    0    0    0  501  0.00000000000E+00  0.00000000000E+00 -0.13791236074E+04  0.13791236074E+04  0.25500000920E-02 0.  1.
    10030    2    1    2    0    0  0.00000000000E+00  0.00000000000E+00 -0.62308907095E+03  0.21351581438E+04  0.20422194566E+04 0.  0.
        1    1    3    3  502    0 -0.52994148998E+03 -0.42588534419E+03 -0.11080881944E+04  0.13000291365E+04  0.50400001928E-02 0.  1.
       -1    1    3    3    0  502  0.52994148998E+03  0.42588534419E+03  0.48499912342E+03  0.83512900736E+03  0.50400001928E-02 0. -1.
</event>
<event>
 5   0  0.1214844E-06  0.2601799E+04  0.7818609E-02  0.8367590E-01
        2   -1    0    0  501    0  0.00000000000E+00  0.00000000000E+00  0.14128048824E+04  0.14128048824E+04  0.25500000920E-02 0.  1.
       -2   -1    0    0    0  501  0.00000000000E+00  0.00000000000E+00 -0.11978576354E+04  0.11978576354E+04  0.25500000920E-02 0. -1.
    10030    2    1    2    0    0  0.00000000000E+00  0.00000000000E+00  0.21494724699E+03  0.26106625178E+04  0.26017986976E+04 0.  0.
        4    1    3    3  502    0  0.12029755349E+04  0.30002629778E+03 -0.28778662693E+03  0.12727877562E+04  0.12699999809E+01 0.  1.
       -4    1    3    3    0  502 -0.12029755349E+04 -0.30002629778E+03  0.50273387392E+03  0.13378747616E+04  0.12699999809E+01 0. -1.
</event>
<event>
 5   0  0.4255250E-07  0.3735935E+04  0.7818609E-02  0.8060044E-01
       -1   -1    0    0    0  501  0.00000000000E+00  0.00000000000E+00  0.13626762251E+04  0.13626762251E+04  0.50400001928E-02 0. -1.
        1   -1    0    0  501    0  0.00000000000E+00  0.00000000000E+00 -0.25606251282E+04  0.25606251282E+04  0.50400001928E-02 0.  1.
    10030    2    1    2    0    0  0.00000000000E+00  0.00000000000E+00 -0.11979489031E+04  0.39233013534E+04  0.37359352155E+04 0.  0.
        2    1    3    3  502    0 -0.18993856912E+03  0.86733175487E+03  0.11269093975E+04  0.14346657531E+04  0.25500000920E-02 0. -1.
       -2    1    3    3    0  502  0.18993856912E+03 -0.86733175487E+03 -0.23248583006E+04  0.24886356003E+04  0.25500000920E-02 0.  1.
</event>
<event>
 5   0  0.1184616E-06  0.3827000E+04  0.7818609E-02  0.8040386E-01
       -2   -1    0    0    0  501  0.00000000000E+00  0.00000000000E+00  0.19852965942E+04  0.19852965942E+04  0.25500000920E-02 0. -1.
        2   -1    0    0  501    0  0.00000000000E+00  0.00000000000E+00 -0.18442996671E+04  0.18442996671E+04  0.25500000920E-02 0.  1.
    10030    2    1    2    0    0  0.00000000000E+00  0.00000000000E+00  0.14099692709E+03  0.38295962613E+04  0.38269997898E+04 0.  0.
        5    1    3    3  502    0  0.12740956309E+03 -0.12656831251E+04 -0.13599022816E+04  0.18621340648E+04  0.46999998093E+01 0.  1.
       -5    1    3    3    0  502 -0.12740956309E+03  0.12656831251E+04  0.15008992087E+04  0.19674621965E+04  0.46999998093E+01 0. -1.
</event>
<event>
 5   0  0.1184616E-06  0.3727172E+04  0.7818609E-02  0.8061967E-01
        2   -1    0    0  501    0  0.00000000000E+00  0.00000000000E+00  0.24007828601E+04  0.24007828601E+04  0.25500000920E-02 0.  1.
       -2   -1    0    0    0  501  0.00000000000E+00  0.00000000000E+00 -0.14465920266E+04  0.14465920266E+04  0.25500000920E-02 0. -1.
    10030    2    1    2    0    0  0.00000000000E+00  0.00000000000E+00  0.95419083345E+03  0.38473748867E+04  0.37271723025E+04 0.  0.
        5    1    3    3  502    0 -0.75512528108E+03  0.59087059619E+03  0.21266266202E+04  0.23327891296E+04  0.46999998093E+01 0.  1.
       -5    1    3    3    0  502  0.75512528108E+03 -0.59087059619E+03 -0.11724357868E+04  0.15145857571E+04  0.46999998093E+01 0. -1.
</event>
<event>
 5   0  0.1337854E-06  0.3495496E+04  0.7818609E-02  0.8114858E-01
        2   -1    0    0  501    0  0.00000000000E+00  0.00000000000E+00  0.18331060265E+04  0.18331060265E+04  0.25500000920E-02 0.  1.
       -2   -1    0    0    0  501  0.00000000000E+00  0.00000000000E+00 -0.16663647751E+04  0.16663647751E+04  0.25500000920E-02 0. -1.
    10030    2    1    2    0    0  0.00000000000E+00  0.00000000000E+00  0.16674125135E+03  0.34994708016E+04  0.34954961374E+04 0.  0.
        3    1    3    3  502    0 -0.15886538529E+02 -0.44130833710E+03  0.17763339465E+04  0.18304009753E+04  0.10100000352E+00 0.  1.
       -3    1    3    3    0  502  0.15886538529E+02  0.44130833710E+03 -0.16095926952E+04  0.16690698263E+04  0.10100000352E+00 0. -1.
</event>
<event>
 5   0  0.1184616E-06  0.4245239E+04  0.7818609E-02  0.7956822E-01
        2   -1    0    0  501    0  0.00000000000E+00  0.00000000000E+00  0.21736699172E+04  0.21736699172E+04  0.25500000920E-02 0. -1.
       -2   -1    0    0    0  501  0.00000000000E+00  0.00000000000E+00 -0.20727677021E+04  0.20727677021E+04  0.25500000920E-02 0.  1.
    10030    2    1    2    0    0  0.00000000000E+00  0.00000000000E+00  0.10090221510E+03  0.42464376193E+04  0.42452386503E+04 0.  0.
        5    1    3    3  502    0 -0.42887732679E+01  0.20931201911E+04  0.40314135996E+03  0.21315992996E+04  0.46999998093E+01 0. -1.
       -5    1    3    3    0  502  0.42887732679E+01 -0.20931201911E+04 -0.30223914486E+03  0.21148383197E+04  0.46999998093E+01 0.  1.
</event>
<event>
 5   0  0.1341932E-06  0.3820711E+04  0.7818609E-02  0.8041725E-01
       -2   -1    0    0    0  501  0.00000000000E+00  0.00000000000E+00  0.20872946059E+04  0.20872946059E+04  0.25500000920E-02 0.  1.
        2   -1    0    0  501    0  0.00000000000E+00  0.00000000000E+00 -0.17484153821E+04  0.17484153821E+04  0.25500000920E-02 0. -1.
    10030    2    1    2    0    0  0.00000000000E+00  0.00000000000E+00  0.33887922376E+03  0.38357099880E+04  0.38207109265E+04 0.  0.
        2    1    3    3  502    0 -0.15296343834E+04 -0.42291792585E+03 -0.89813383236E+03  0.18235364816E+04  0.25500000920E-02 0. -1.
       -2    1    3    3    0  502  0.15296343834E+04  0.42291792585E+03  0.12370130561E+04  0.20121735064E+04  0.25500000920E-02 0.  1.
</event>
<event>
 5   0  0.1184616E-06  0.1871264E+04  0.7818609E-02  0.8669294E-01
       -2   -1    0    0    0  501  0.00000000000E+00  0.00000000000E+00  0.12799071294E+04  0.12799071294E+04  0.25500000920E-02 0. -1.
        2   -1    0    0  501    0  0.00000000000E+00  0.00000000000E+00 -0.68396180247E+03  0.68396180248E+03  0.25500000920E-02 0.  1.
    10030    2    1    2    0    0  0.00000000000E+00  0.00000000000E+00  0.59594532688E+03  0.19638689318E+04  0.18712643717E+04 0.  0.
        5    1    3    3  502    0 -0.87607290253E+03 -0.10731248919E+03  0.62376345747E+03  0.10807972251E+04  0.46999998093E+01 0. -1.
       -5    1    3    3    0  502  0.87607290253E+03  0.10731248919E+03 -0.27818130592E+02  0.88307170675E+03  0.46999998093E+01 0.  1.
</event>
<event>
 5   0  0.1341932E-06  0.2006839E+04  0.7818609E-02  0.8603430E-01
       -2   -1    0    0    0  501  0.00000000000E+00  0.00000000000E+00  0.69274175421E+03  0.69274175422E+03  0.25500000920E-02 0. -1.
        2   -1    0    0  501    0  0.00000000000E+00  0.00000000000E+00 -0.14534287745E+04  0.14534287745E+04  0.25500000920E-02 0.  1.
    10030    2    1    2    0    0  0.00000000000E+00  0.00000000000E+00 -0.76068702024E+03  0.21461705287E+04  0.20068391055E+04 0.  0.
        2    1    3    3  502    0 -0.45027618068E+03  0.50760568706E+03  0.41019379178E+03  0.79288783523E+03  0.25500000920E-02 0. -1.
       -2    1    3    3    0  502  0.45027618068E+03 -0.50760568706E+03 -0.11708808120E+04  0.13532826935E+04  0.25500000920E-02 0.  1.
</event>
<event>
 5   0  0.1214844E-06  0.2099517E+04  0.7818609E-02  0.8561456E-01
        2   -1    0    0  501    0  0.00000000000E+00  0.00000000000E+00  0.15914354017E+04  0.15914354017E+04  0.25500000920E-02 0. -1.
       -2   -1    0    0    0  501  0.00000000000E+00  0.00000000000E+00 -0.69245185165E+03  0.69245185165E+03  0.25500000920E-02 0.  1.
    10030    2    1    2    0    0  0.00000000000E+00  0.00000000000E+00  0.89898355008E+03  0.22838872534E+04  0.20995165069E+04 0.  0.
        4    1    3    3  502    0 -0.45974311680E+03  0.81846572168E+03  0.96058106269E+03  0.13431185584E+04  0.12699999809E+01 0.  1.
       -4    1    3    3    0  502  0.45974311680E+03 -0.81846572168E+03 -0.61597512606E+02  0.94076869499E+03  0.12699999809E+01 0. -1.
</event>
<event>
 5   0  0.1372748E-06  0.3780112E+04  0.7818609E-02  0.8050436E-01
       -2   -1    0    0    0  501  0.00000000000E+00  0.00000000000E+00  0.16604691699E+04  0.16604691699E+04  0.25500000920E-02 0.  1.
        2   -1    0    0  501    0  0.00000000000E+00  0.00000000000E+00 -0.21513868549E+04  0.21513868549E+04  0.25500000920E-02 0. -1.
    10030    2    1    2    0    0  0.00000000000E+00  0.00000000000E+00 -0.49091768501E+03  0.38118560248E+04  0.37801119269E+04 0.  0.
        1    1    3    3  502    0 -0.17518707954E+04  0.61981933780E+03 -0.59344261478E+03  0.19507438152E+04  0.50400001928E-02 0. -1.
       -1    1    3    3    0  502  0.17518707954E+04 -0.61981933780E+03  0.10252492976E+03  0.18611122096E+04  0.50400001928E-02 0.  1.
</event>
<event>
 5   0  0.4795023E-07  0.3931940E+04  0.7818609E-02  0.8018419E-01
        1   -1    0    0  501    0  0.00000000000E+00  0.00000000000E+00  0.14488735721E+04  0.14488735721E+04  0.50400001928E-02 0. -1.
       -1   -1    0    0    0  501  0.00000000000E+00  0.00000000000E+00 -0.26676158005E+04  0.26676158005E+04  0.50400001928E-02 0.  1.
    10030    2    1    2    0    0  0.00000000000E+00  0.00000000000E+00 -0.12187422284E+04  0.41164893726E+04  0.39319399965E+04 0.  0.
        3    1    3    3  502    0  0.19220156993E+04  0.37960880677E+03 -0.78073259077E+03  0.21089785639E+04  0.10100000352E+00 0. -1.
       -3    1    3    3    0  502 -0.19220156993E+04 -0.37960880677E+03 -0.43800963767E+03  0.20075108088E+04  0.10100000352E+00 0.  1.
</event>
<event>
 5   0  0.4255250E-07  0.3690968E+04  0.7818609E-02  0.8069966E-01
       -1   -1    0    0    0  501  0.00000000000E+00  0.00000000000E+00  0.30216747150E+04  0.30216747150E+04  0.50400001928E-02 0. -1.
        1   -1    0    0  501    0  0.00000000000E+00  0.00000000000E+00 -0.11271272808E+04  0.11271272808E+04  0.50400001928E-02 0.  1.
    10030    2    1    2    0    0  0.00000000000E+00  0.00000000000E+00  0.18945474343E+04  0.41488019958E+04  0.36909684393E+04 0.  0.
        2    1    3    3  502    0 -0.69018298812E+03 -0.16972697317E+04  0.11954169534E+04  0.21877154275E+04  0.25500000920E-02 0. -1.
       -2    1    3    3    0  502  0.69018298812E+03  0.16972697317E+04  0.69913048085E+03  0.19610865683E+04  0.25500000920E-02 0.  1.
</event>
<event>
 5   0  0.1372748E-06  0.3871810E+04  0.7818609E-02  0.8030918E-01
       -2   -1    0    0    0  501  0.00000000000E+00  0.00000000000E+00  0.17363753514E+04  0.17363753514E+04  0.25500000920E-02 0.  1.
        2   -1    0    0  501    0  0.00000000000E+00  0.00000000000E+00 -0.21583625032E+04  0.21583625032E+04  0.25500000920E-02 0. -1.
    10030    2    1    2    0    0  0.00000000000E+00  0.00000000000E+00 -0.42198715172E+03  0.38947378546E+04  0.38718096286E+04 0.  0.
        1    1    3    3  502    0 -0.87032796421E+03  0.13791911585E+03 -0.19449282740E+04  0.21352373261E+04  0.50400001928E-02 0. -1.
       -1    1    3    3    0  502  0.87032796421E+03 -0.13791911585E+03  0.15229411223E+04  0.17595005285E+04  0.50400001928E-02 0.  1.
</event>
<event>
 5   0  0.1214844E-06  0.2724717E+04  0.7818609E-02  0.8327030E-01
        2   -1    0    0  501    0  0.00000000000E+00  0.00000000000E+00  0.22690470186E+04  0.22690470186E+04  0.25500000920E-02 0. -1.
       -2   -1    0    0    0  501  0.00000000000E+00  0.00000000000E+00 -0.81797339423E+03  0.81797339424E+03  0.25500000920E-02 0.  1.
    10030    2    1    2    0    0  0.00000000000E+00  0.00000000000E+00  0.14510736244E+04  0.30870204129E+04  0.27247165662E+04 0.  0.
        4    1    3    3  502    0  0.12395339363E+04  0.76233617827E+02  0.90909569100E+02  0.12451996252E+04  0.12699999809E+01 0.  1.
       -4    1    3    3    0  502 -0.12395339363E+04 -0.76233617827E+02  0.13601640553E+04  0.18418207877E+04  0.12699999809E+01 0. -1.
</event>
<event>
 5   0  0.8030324E-07  0.3849619E+04  0.7818609E-02  0.8035590E-01
       -1   -1    0    0    0  501  0.00000000000E+00  0.00000000000E+00  0.21270184805E+04  0.21270184805E+04  0.50400001928E-02 0.  1.
        1   -1    0    0  501    0  0.00000000000E+00  0.00000000000E+00 -0.17418235545E+04  0.17418235545E+04  0.50400001928E-02 0. -1.
    10030    2    1    2    0    0  0.00000000000E+00  0.00000000000E+00  0.38519492595E+03  0.38688420350E+04  0.38496186254E+04 0.  0.
        1    1    3    3  502    0  0.50012681421E+02 -0.18648760598E+04  0.66891237278E+03  0.19818445320E+04  0.50400001928E-02 0.  1.
       -1    1    3    3    0  502 -0.50012681421E+02  0.18648760598E+04 -0.28371744683E+03  0.18869975030E+04  0.50400001928E-02 0. -1.
</event>
<event>
 5   0  0.4255250E-07  0.3975981E+04  0.7818609E-02  0.8009410E-01
        1   -1    0    0  501    0  0.00000000000E+00  0.00000000000E+00  0.18668355882E+04  0.18668355882E+04  0.50400001928E-02 0. -1.
       -1   -1    0    0    0  501  0.00000000000E+00  0.00000000000E+00 -0.21170082829E+04  0.21170082829E+04  0.50400001928E-02 0.  1.
    10030    2    1    2    0    0  0.00000000000E+00  0.00000000000E+00 -0.25017269473E+03  0.39838438711E+04  0.39759810880E+04 0.  0.
        2    1    3    3  502    0 -0.12827407142E+04 -0.10617267142E+04  0.96307192635E+03  0.19235890650E+04  0.25500000920E-02 0.  1.
       -2    1    3    3    0  502  0.12827407142E+04  0.10617267142E+04 -0.12132446211E+04  0.20602548061E+04  0.25500000920E-02 0. -1.
</event>
<event>
 5   0  0.4255250E-07  0.3885115E+04  0.7818609E-02  0.8028132E-01
        1   -1    0    0  501    0  0.00000000000E+00  0.00000000000E+00  0.18960662270E+04  0.18960662270E+04  0.50400001928E-02 0.  1.
       -1   -1    0    0    0  501  0.00000000000E+00  0.00000000000E+00 -0.19901884487E+04  0.19901884487E+04  0.50400001928E-02 0. -1.
    10030    2    1    2    0    0  0.00000000000E+00  0.00000000000E+00 -0.94122221684E+02  0.38862546758E+04  0.38851147232E+04 0.  0.
        2    1    3    3  502    0 -0.64391920699E+03 -0.16755975803E+04 -0.78975449078E+03  0.19611148237E+04  0.25500000920E-02 0.  1.
       -2    1    3    3    0  502  0.64391920699E+03  0.16755975803E+04  0.69563226910E+03  0.19251398521E+04  0.25500000920E-02 0. -1.
</event>
<event>
 5   0  0.1341932E-06  0.3681129E+04  0.7818609E-02  0.8072157E-01
        2   -1    0    0  501    0  0.00000000000E+00  0.00000000000E+00  0.19183361805E+04  0.19183361805E+04  0.25500000920E-02 0.  1.
       -2   -1    0    0    0  501  0.00000000000E+00  0.00000000000E+00 -0.17659460602E+04  0.17659460602E+04  0.25500000920E-02 0. -1.
    10030    2    1    2    0    0  0.00000000000E+00  0.00000000000E+00  0.15239012030E+03  0.36842822407E+04  0.36811292941E+04 0.  0.
        2    1    3    3  502    0  0.13353370917E+04 -0.72388806364E+03 -0.96418512702E+03  0.17991086783E+04  0.25500000920E-02 0. -1.
       -2    1    3    3    0  502 -0.13353370917E+04  0.72388806364E+03  0.11165752473E+04  0.18851735623E+04  0.25500000920E-02 0.  1.
</event>
<event>
 5   0  0.4795023E-07  0.3843244E+04  0.7818609E-02  0.8036938E-01
       -1   -1    0    0    0  501  0.00000000000E+00  0.00000000000E+00  0.16427745742E+04  0.16427745742E+04  0.50400001928E-02 0. -1.
        1   -1    0    0  501    0  0.00000000000E+00  0.00000000000E+00 -0.22478009035E+04  0.22478009035E+04  0.50400001928E-02 0.  1.
    10030    2    1    2    0    0  0.00000000000E+00  0.00000000000E+00 -0.60502632927E+03  0.38905754777E+04  0.38432435114E+04 0.  0.
        3    1    3    3  502    0  0.14362985665E+04  0.12649351280E+04 -0.47672474846E+03  0.19723795137E+04  0.10100000352E+00 0.  1.
       -3    1    3    3    0  502 -0.14362985665E+04 -0.12649351280E+04 -0.12830158081E+03  0.19181959639E+04  0.10100000352E+00 0. -1.
</event>
<event>
 5   0  0.4255250E-07  0.3299205E+04  0.7818609E-02  0.8163098E-01
       -1   -1    0    0    0  501  0.00000000000E+00  0.00000000000E+00  0.14362504751E+04  0.14362504751E+04  0.50400001928E-02 0. -1.
        1   -1    0    0  501    0  0.00000000000E+00  0.00000000000E+00 -0.18946472669E+04  0.18946472669E+04  0.50400001928E-02 0.  1.
    10030    2    1    2    0    0  0.00000000000E+00  0.00000000000E+00 -0.45839679180E+03  0.33308977421E+04  0.32992047753E+04 0.  0.
        2    1    3    3  502    0  0.13662543606E+04  0.89926615829E+03 -0.44539900460E+03  0.16952023108E+04  0.25500000920E-02 0.  1.
       -2    1    3    3    0  502 -0.13662543606E+04 -0.89926615829E+03 -0.12997787206E+02  0.16356954312E+04  0.25500000920E-02 0. -1.
</event>
<event>
 5   0  0.5284458E-07  0.3633983E+04  0.7818609E-02  0.8082752E-01
        1   -1    0    0  501    0  0.00000000000E+00  0.00000000000E+00  0.12525428221E+04  0.12525428221E+04  0.50400001928E-02 0.  1.
       -1   -1    0    0    0  501  0.00000000000E+00  0.00000000000E+00 -0.26358047396E+04  0.26358047396E+04  0.50400001928E-02 0. -1.
    10030    2    1    2    0    0  0.00000000000E+00  0.00000000000E+00 -0.13832619175E+04  0.38883475617E+04  0.36339831079E+04 0.  0.
        5    1    3    3  502    0  0.12310464916E+04  0.87149809249E+03 -0.17756863148E+04  0.23298215314E+04  0.46999998093E+01 0. -1.
       -5    1    3    3    0  502 -0.12310464916E+04 -0.87149809249E+03  0.39242439734E+03  0.15585260303E+04  0.46999998093E+01 0.  1.
</event>
<event>
 5   0  0.8030324E-07  0.3245890E+04  0.7818609E-02  0.8176802E-01
       -1   -1    0    0    0  501  0.00000000000E+00  0.00000000000E+00  0.14632832287E+04  0.14632832287E+04  0.50400001928E-02 0.  1.
        1   -1    0    0  501    0  0.00000000000E+00  0.00000000000E+00 -0.18000274504E+04  0.18000274504E+04  0.50400001928E-02 0. -1.
    10030    2    1    2    0    0  0.00000000000E+00  0.00000000000E+00 -0.33674422175E+03  0.32633106791E+04  0.32458896959E+04 0.  0.
        1    1    3    3  502    0 -0.12775912264E+04  0.52722370820E+03  0.68692635474E+03  0.15433962541E+04  0.50400001928E-02 0.  1.
       -1    1    3    3    0  502  0.12775912264E+04 -0.52722370820E+03 -0.10236705765E+04  0.17199144250E+04  0.50400001928E-02 0. -1.
</event>
<event>
 5   0  0.1214844E-06  0.3723341E+04  0.7818609E-02  0.8062809E-01
       -2   -1    0    0    0  501  0.00000000000E+00  0.00000000000E+00  0.14595956777E+04  0.14595956777E+04  0.25500000920E-02 0. -1.
        2   -1    0    0  501    0  0.00000000000E+00  0.00000000000E+00 -0.23745045600E+04  0.23745045600E+04  0.25500000920E-02 0.  1.
    10030    2    1    2    0    0  0.00000000000E+00  0.00000000000E+00 -0.91490888235E+03  0.38341002377E+04  0.37233407539E+04 0.  0.
        4    1    3    3  502    0  0.53159333615E+03  0.15820375218E+04  0.39193468831E+03  0.17143653660E+04  0.12699999809E+01 0. -1.
       -4    1    3    3    0  502 -0.53159333615E+03 -0.15820375218E+04 -0.13068435707E+04  0.21197348717E+04  0.12699999809E+01 0.  1.
</event>
<event>
 5   0  0.1341932E-06  0.3774417E+04  0.7818609E-02  0.8051667E-01
        2   -1    0    0  501    0  0.00000000000E+00  0.00000000000E+00  0.24955730986E+04  0.24955730986E+04  0.25500000920E-02 0.  1.
       -2   -1    0    0    0  501  0.00000000000E+00  0.00000000000E+00 -0.14271495490E+04  0.14271495490E+04  0.25500000920E-02 0. -1.
    10030    2    1    2    0    0  0.00000000000E+00  0.00000000000E+00  0.10684235496E+04  0.39227226477E+04  0.37744170529E+04 0.  0.
        2    1    3    3  502    0 -0.15740014256E+04  0.10089188819E+04  0.26689289244E+03  0.18885522535E+04  0.25500000920E-02 0. -1.
       -2    1    3    3    0  502  0.15740014256E+04 -0.10089188819E+04  0.80153065717E+03  0.20341703942E+04  0.25500000920E-02 0.  1.
</event>
<event>
 5   0  0.1184616E-06  0.3767133E+04  0.7818609E-02  0.8053245E-01
       -2   -1    0    0    0  501  0.00000000000E+00  0.00000000000E+00  0.14952019775E+04  0.14952019775E+04  0.25500000920E-02 0. -1.
        2   -1    0    0  501    0  0.00000000000E+00  0.00000000000E+00 -0.23728054088E+04  0.23728054088E+04  0.25500000920E-02 0.  1.
    10030    2    1    2    0    0  0.00000000000E+00  0.00000000000E+00 -0.87760343125E+03  0.38680073863E+04  0.37671333077E+04 0.  0.
        5    1    3    3  502    0 -0.11249801787E+04 -0.27153531776E+03  0.10870908856E+04  0.15877973784E+04  0.46999998093E+01 0. -1.
       -5    1    3    3    0  502  0.11249801787E+04  0.27153531776E+03 -0.19646943169E+04  0.22802100079E+04  0.46999998093E+01 0.  1.
</event>
<event>
 5   0  0.1337854E-06  0.2227760E+04  0.7818609E-02  0.8506962E-01
       -2   -1    0    0    0  501  0.00000000000E+00  0.00000000000E+00  0.14430491410E+04  0.14430491410E+04  0.25500000920E-02 0.  1.
        2   -1    0    0  501    0  0.00000000000E+00  0.00000000000E+00 -0.85979676670E+03  0.85979676671E+03  0.25500000920E-02 0. -1.
    10030    2    1    2    0    0  0.00000000000E+00  0.00000000000E+00  0.58325237434E+03  0.23028459078E+04  0.22277602974E+04 0.  0.
        3    1    3    3  502    0 -0.86966172064E+02 -0.34887092835E+03 -0.79816263287E+03  0.87540712725E+03  0.10100000352E+00 0. -1.
       -3    1    3    3    0  502  0.86966172064E+02  0.34887092835E+03  0.13814150072E+04  0.14274387805E+04  0.10100000352E+00 0.  1.
</event>
<event>
 5   0  0.1372748E-06  0.3775794E+04  0.7818609E-02  0.8051369E-01
       -2   -1    0    0    0  501  0.00000000000E+00  0.00000000000E+00  0.16748852952E+04  0.16748852952E+04  0.25500000920E-02 0.  1.
        2   -1    0    0  501    0  0.00000000000E+00  0.00000000000E+00 -0.21279996185E+04  0.21279996185E+04  0.25500000920E-02 0. -1.
    10030    2    1    2    0    0  0.00000000000E+00  0.00000000000E+00 -0.45311432333E+03  0.38028849137E+04  0.37757940989E+04 0.  0.
        1    1    3    3  502    0 -0.16067206509E+04  0.94308278143E+03 -0.53403246706E+03  0.19380781869E+04  0.50400001928E-02 0. -1.
       -1    1    3    3    0  502  0.16067206509E+04 -0.94308278143E+03  0.80918143733E+02  0.18648067269E+04  0.50400001928E-02 0.  1.
</event>
<event>
 5   0  0.5284458E-07  0.3832189E+04  0.7818609E-02  0.8039282E-01
        1   -1    0    0  501    0  0.00000000000E+00  0.00000000000E+00  0.27021984194E+04  0.27021984194E+04  0.50400001928E-02 0. -1.
       -1   -1    0    0    0  501  0.00000000000E+00  0.00000000000E+00 -0.13586779110E+04  0.13586779110E+04  0.50400001928E-02 0.  1.
    10030    2    1    2    0    0  0.00000000000E+00  0.00000000000E+00  0.13435205084E+04  0.40608763304E+04  0.38321885671E+04 0.  0.
        5    1    3    3  502    0  0.32033992841E+03  0.10553610000E+04 -0.98858275826E+03  0.14811220307E+04  0.46999998093E+01 0.  1.
       -5    1    3    3    0  502 -0.32033992841E+03 -0.10553610000E+04  0.23321032667E+04  0.25797542996E+04  0.46999998093E+01 0. -1.
</event>
<event>
 5   0  0.6381482E-07  0.1959822E+04  0.7818609E-02  0.8625639E-01
        1   -1    0    0  501    0  0.00000000000E+00  0.00000000000E+00  0.13850256029E+04  0.13850256029E+04  0.50400001928E-02 0. -1.
       -1   -1    0    0    0  501  0.00000000000E+00  0.00000000000E+00 -0.69329069254E+03  0.69329069256E+03  0.50400001928E-02 0.  1.
    10030    2    1    2    0    0  0.00000000000E+00  0.00000000000E+00  0.69173491032E+03  0.20783162954E+04  0.19598217872E+04 0.  0.
        5    1    3    3  502    0  0.33829790456E+03  0.26695591351E+02 -0.62897630522E+03  0.71469672544E+03  0.46999998093E+01 0.  1.
       -5    1    3    3    0  502 -0.33829790456E+03 -0.26695591351E+02  0.13207112155E+04  0.13636195700E+04  0.46999998093E+01 0. -1.
</event>
<event>
 5   0  0.1184616E-06  0.1884065E+04  0.7818609E-02  0.8662829E-01
        2   -1    0    0  501    0  0.00000000000E+00  0.00000000000E+00  0.93771788763E+03  0.93771788764E+03  0.25500000920E-02 0.  1.
       -2   -1    0    0    0  501  0.00000000000E+00  0.00000000000E+00 -0.94636666831E+03  0.94636666831E+03  0.25500000920E-02 0. -1.
    10030    2    1    2    0    0  0.00000000000E+00  0.00000000000E+00 -0.86487806766E+01  0.18840845559E+04  0.18840647050E+04 0.  0.
        5    1    3    3  502    0  0.76982697580E+03  0.25870899745E+03 -0.48165419903E+03  0.94423343272E+03  0.46999998093E+01 0. -1.
       -5    1    3    3    0  502 -0.76982697580E+03 -0.25870899745E+03  0.47300541835E+03  0.93985112322E+03  0.46999998093E+01 0.  1.
</event>
<event>
 5   0  0.1079205E-06  0.3407854E+04  0.7818609E-02  0.8135981E-01
        1   -1    0    0  501    0  0.00000000000E+00  0.00000000000E+00  0.22542466391E+04  0.22542466391E+04  0.50400001928E-02 0. -1.
       -1   -1    0    0    0  501  0.00000000000E+00  0.00000000000E+00 -0.12879543867E+04  0.12879543867E+04  0.50400001928E-02 0.  1.
    10030    2    1    2    0    0  0.00000000000E+00  0.00000000000E+00  0.96629225241E+03  0.35422010257E+04  0.34078537806E+04 0.  0.
        4    1    3    3  502    0  0.22817554014E+03 -0.22339396142E+03  0.22228668108E+04  0.22456864008E+04  0.12699999809E+01 0. -1.
       -4    1    3    3    0  502 -0.22817554014E+03  0.22339396142E+03 -0.12565745584E+04  0.12965146250E+04  0.12699999809E+01 0.  1.
</event>
<event>
 5   0  0.1372748E-06  0.3978368E+04  0.7818609E-02  0.8008925E-01
        2   -1    0    0  501    0  0.00000000000E+00  0.00000000000E+00  0.16843395445E+04  0.16843395445E+04  0.25500000920E-02 0.  1.
       -2   -1    0    0    0  501  0.00000000000E+00  0.00000000000E+00 -0.23492014282E+04  0.23492014282E+04  0.25500000920E-02 0. -1.
    10030    2    1    2    0    0  0.00000000000E+00  0.00000000000E+00 -0.66486188369E+03  0.40335409727E+04  0.39783679385E+04 0.  0.
        1    1    3    3  502    0  0.55082297304E+03 -0.17954691118E+04  0.33220403983E+03  0.19072165066E+04  0.50400001928E-02 0.  1.
       -1    1    3    3    0  502 -0.55082297304E+03  0.17954691118E+04 -0.99706592352E+03  0.21263244661E+04  0.50400001928E-02 0. -1.
</event>
<event>
 5   0  0.1337854E-06  0.2398854E+04  0.7818609E-02  0.8439933E-01
       -2   -1    0    0    0  501  0.00000000000E+00  0.00000000000E+00  0.15676962045E+04  0.15676962045E+04  0.25500000920E-02 0. -1.
        2   -1    0    0  501    0  0.00000000000E+00  0.00000000000E+00 -0.91766859711E+03  0.91766859711E+03  0.25500000920E-02 0.  1.
    10030    2    1    2    0    0  0.00000000000E+00  0.00000000000E+00  0.65002760741E+03  0.24853648016E+04  0.23988543738E+04 0.  0.
        3    1    3    3  502    0 -0.10718157642E+04  0.43903580735E+03  0.64783370485E+03  0.13271134058E+04  0.10100000352E+00 0.  1.
       -3    1    3    3    0  502  0.10718157642E+04 -0.43903580735E+03  0.21939025535E+01  0.11582513958E+04  0.10100000352E+00 0. -1.
</event>
<event>
 5   0  0.5284458E-07  0.3750626E+04  0.7818609E-02  0.8056834E-01
       -1   -1    0    0    0  501  0.00000000000E+00  0.00000000000E+00  0.17659303912E+04  0.17659303913E+04  0.50400001928E-02 0. -1.
        1   -1    0    0  501    0  0.00000000000E+00  0.00000000000E+00 -0.19914710021E+04  0.19914710021E+04  0.50400001928E-02 0.  1.
    10030    2    1    2    0    0  0.00000000000E+00  0.00000000000E+00 -0.22554061083E+03  0.37574013933E+04  0.37506261695E+04 0.  0.
        5    1    3    3  502    0  0.14626373484E+04  0.41812810518E+03  0.98585921585E+03  0.18127547017E+04  0.46999998093E+01 0. -1.
       -5    1    3    3    0  502 -0.14626373484E+04 -0.41812810518E+03 -0.12113998267E+04  0.19446466916E+04  0.46999998093E+01 0.  1.
</event>
<event>
 5   0  0.1337854E-06  0.3796065E+04  0.7818609E-02  0.8047000E-01
        2   -1    0    0  501    0  0.00000000000E+00  0.00000000000E+00  0.17455434863E+04  0.17455434863E+04  0.25500000920E-02 0. -1.
       -2   -1    0    0    0  501  0.00000000000E+00  0.00000000000E+00 -0.20638423225E+04  0.20638423225E+04  0.25500000920E-02 0.  1.
    10030    2    1    2    0    0  0.00000000000E+00  0.00000000000E+00 -0.31829883619E+03  0.38093858088E+04  0.37960645531E+04 0.  0.
        3    1    3    3  502    0  0.64812581555E+01 -0.18437692567E+04  0.29298626559E+03  0.18669140421E+04  0.10100000352E+00 0.  1.
       -3    1    3    3    0  502 -0.64812581555E+01  0.18437692567E+04 -0.61128510177E+03  0.19424717667E+04  0.10100000352E+00 0. -1.
</event>
<event>
 5   0  0.1372748E-06  0.3299342E+04  0.7818609E-02  0.8163063E-01
        2   -1    0    0  501    0  0.00000000000E+00  0.00000000000E+00  0.20854080785E+04  0.20854080785E+04  0.25500000920E-02 0. -1.
       -2   -1    0    0    0  501  0.00000000000E+00  0.00000000000E+00 -0.13049794417E+04  0.13049794417E+04  0.25500000920E-02 0.  1.
    10030    2    1    2    0    0  0.00000000000E+00  0.00000000000E+00  0.78042863679E+03  0.33903875202E+04  0.32993421587E+04 0.  0.
        1    1    3    3  502    0 -0.10950370218E+04 -0.12708729327E+02  0.16580129936E+04  0.19870265922E+04  0.50400001928E-02 0. -1.
       -1    1    3    3    0  502  0.10950370218E+04  0.12708729327E+02 -0.87758435685E+03  0.14033609280E+04  0.50400001928E-02 0.  1.
</event>
<event>
 5   0  0.4255250E-07  0.2517700E+04  0.7818609E-02  0.8396707E-01
       -1   -1    0    0    0  501  0.00000000000E+00  0.00000000000E+00  0.47248197054E+03  0.47248197057E+03  0.50400001928E-02 0. -1.
        1   -1    0    0  501    0  0.00000000000E+00  0.00000000000E+00 -0.33539981898E+04  0.33539981898E+04  0.50400001928E-02 0.  1.
    10030    2    1    2    0    0  0.00000000000E+00  0.00000000000E+00 -0.28815162193E+04  0.38264801604E+04  0.25177002792E+04 0.  0.
        2    1    3    3  502    0 -0.79984352369E+03  0.50830830981E+02 -0.29161460144E+04  0.30242752873E+04  0.25500000920E-02 0.  1.
       -2    1    3    3    0  502  0.79984352369E+03 -0.50830830981E+02  0.34629795116E+02  0.80220487314E+03  0.25500000920E-02 0. -1.
</event>
<event>
 5   0  0.1214844E-06  0.3783426E+04  0.7818609E-02  0.8049721E-01
        2   -1    0    0  501    0  0.00000000000E+00  0.00000000000E+00  0.26043196126E+04  0.26043196126E+04  0.25500000920E-02 0. -1.
       -2   -1    0    0    0  501  0.00000000000E+00  0.00000000000E+00 -0.13740934344E+04  0.13740934344E+04  0.25500000920E-02 0.  1.
    10030    2    1    2    0    0  0.00000000000E+00  0.00000000000E+00  0.12302261781E+04  0.39784130470E+04  0.37834262148E+04 0.  0.
        4    1    3    3  502    0 -0.78295789796E+03  0.54629757900E+03  0.23324096088E+04  0.25202381457E+04  0.12699999809E+01 0. -1.
       -4    1    3    3    0  502  0.78295789796E+03 -0.54629757900E+03 -0.11021834307E+04  0.14581749013E+04  0.12699999809E+01 0.  1.
</event>
<event>
 5   0  0.1341932E-06  0.3943996E+04  0.7818609E-02  0.8015941E-01
       -2   -1    0    0    0  501  0.00000000000E+00  0.00000000000E+00  0.34811031704E+04  0.34811031704E+04  0.25500000920E-02 0.  1.
        2   -1    0    0  501    0  0.00000000000E+00  0.00000000000E+00 -0.11171104748E+04  0.11171104748E+04  0.25500000920E-02 0. -1.
    10030    2    1    2    0    0  0.00000000000E+00  0.00000000000E+00  0.23639926957E+04  0.45982136452E+04  0.39439963567E+04 0.  0.
        2    1    3    3  502    0  0.13787069318E+04 -0.39504904067E+03 -0.39598252056E+03  0.14878503637E+04  0.25500000920E-02 0. -1.
       -2    1    3    3    0  502 -0.13787069318E+04  0.39504904067E+03  0.27599752162E+04  0.31103632814E+04  0.25500000920E-02 0.  1.
</event>
<event>
 5   0  0.5284458E-07  0.3003462E+04  0.7818609E-02  0.8242743E-01
        1   -1    0    0  501    0  0.00000000000E+00  0.00000000000E+00  0.14889956235E+04  0.14889956235E+04  0.50400001928E-02 0.  1.
       -1   -1    0    0    0  501  0.00000000000E+00  0.00000000000E+00 -0.15145748005E+04  0.15145748005E+04  0.50400001928E-02 0. -1.
    10030    2    1    2    0    0  0.00000000000E+00  0.00000000000E+00 -0.25579176965E+02  0.30035704240E+04  0.30034615026E+04 0.  0.
        5    1    3    3  502    0  0.19273624430E+03  0.90489117223E+03  0.11701302534E+04  0.14917111629E+04  0.46999998093E+01 0.  1.
       -5    1    3    3    0  502 -0.19273624430E+03 -0.90489117223E+03 -0.11957094304E+04  0.15118592611E+04  0.46999998093E+01 0. -1.
</event>
<event>
 5   0  0.1079205E-06  0.3631808E+04  0.7818609E-02  0.8083244E-01
       -1   -1    0    0    0  501  0.00000000000E+00  0.00000000000E+00  0.19907625674E+04  0.19907625674E+04  0.50400001928E-02 0.  1.
        1   -1    0    0  501    0  0.00000000000E+00  0.00000000000E+00 -0.16564043798E+04  0.16564043798E+04  0.50400001928E-02 0. -1.
    10030    2    1    2    0    0  0.00000000000E+00  0.00000000000E+00  0.33435818767E+03  0.36471669472E+04  0.36318082745E+04 0.  0.
        4    1    3    3  502    0  0.87019577392E+03 -0.12836519833E+04 -0.78153991423E+03  0.17366085770E+04  0.12699999809E+01 0. -1.
       -4    1    3    3    0  502 -0.87019577392E+03  0.12836519833E+04  0.11158981019E+04  0.19105583702E+04  0.12699999809E+01 0.  1.
</event>
<event>
 5   0  0.1079205E-06  0.3764746E+04  0.7818609E-02  0.8053763E-01
        1   -1    0    0  501    0  0.00000000000E+00  0.00000000000E+00  0.21369890172E+04  0.21369890172E+04  0.50400001928E-02 0.  1.
       -1   -1    0    0    0  501  0.00000000000E+00  0.00000000000E+00 -0.16580939665E+04  0.16580939665E+04  0.50400001928E-02 0. -1.
    10030    2    1    2    0    0  0.00000000000E+00  0.00000000000E+00  0.47889505070E+03  0.37950829837E+04  0.37647462575E+04 0.  0.
        4    1    3    3  502    0  0.25385720208E+03  0.98378240834E+03 -0.13579526861E+04  0.16959682829E+04  0.12699999809E+01 0. -1.
       -4    1    3    3    0  502 -0.25385720208E+03 -0.98378240834E+03  0.18368477368E+04  0.20991147008E+04  0.12699999809E+01 0.  1.
</event>
<event>
 5   0  0.4795023E-07  0.2592785E+04  0.7818609E-02  0.8370656E-01
       -1   -1    0    0    0  501  0.00000000000E+00  0.00000000000E+00  0.89218656877E+03  0.89218656879E+03  0.50400001928E-02 0.  1.
        1   -1    0    0  501    0  0.00000000000E+00  0.00000000000E+00 -0.18837241402E+04  0.18837241402E+04  0.50400001928E-02 0. -1.
    10030    2    1    2    0    0  0.00000000000E+00  0.00000000000E+00 -0.99153757140E+03  0.27759107090E+04  0.25927848944E+04 0.  0.
        3    1    3    3  502    0 -0.24805872558E+03  0.10185058982E+04  0.32082429664E+03  0.10962735223E+04  0.10100000352E+00 0. -1.
       -3    1    3    3    0  502  0.24805872558E+03 -0.10185058982E+04 -0.13123618680E+04  0.16796371867E+04  0.10100000352E+00 0.  1.
</event>
<event>
 5   0  0.1184616E-06  0.2839666E+04  0.7818609E-02  0.8291058E-01
        2   -1    0    0  501    0  0.00000000000E+00  0.00000000000E+00  0.19017388537E+04  0.19017388537E+04  0.25500000920E-02 0.  1.
       -2   -1    0    0    0  501  0.00000000000E+00  0.00000000000E+00 -0.10600434260E+04  0.10600434260E+04  0.25500000920E-02 0. -1.
    10030    2    1    2    0    0  0.00000000000E+00  0.00000000000E+00  0.84169542765E+03  0.29617822797E+04  0.28396660155E+04 0.  0.
        5    1    3    3  502    0 -0.70175946985E+03 -0.10999159611E+04  0.10049504872E+04  0.16468846489E+04  0.46999998093E+01 0.  1.
       -5    1    3    3    0  502  0.70175946985E+03  0.10999159611E+04 -0.16325505953E+03  0.13148976308E+04  0.46999998093E+01 0. -1.
</event>
<event>
 5   0  0.1079205E-06  0.3946527E+04  0.7818609E-02  0.8015421E-01
       -1   -1    0    0    0  501  0.00000000000E+00  0.00000000000E+00  0.22248070252E+04  0.22248070252E+04  0.50400001928E-02 0.  1.
        1   -1    0    0  501    0  0.00000000000E+00  0.00000000000E+00 -0.17501602907E+04  0.17501602907E+04  0.50400001928E-02 0. -1.
    10030    2    1    2    0    0  0.00000000000E+00  0.00000000000E+00  0.47464673446E+03  0.39749673159E+04  0.39465270352E+04 0.  0.
        4    1    3    3  502    0  0.36626305866E+03 -0.10919667153E+04 -0.13764801074E+04  0.17947810548E+04  0.12699999809E+01 0. -1.
       -4    1    3    3    0  502 -0.36626305866E+03  0.10919667153E+04  0.18511268419E+04  0.21801862611E+04  0.12699999809E+01 0.  1.
</event>
<event>
 5   0  0.1184616E-06  0.3960819E+04  0.7818609E-02  0.8012498E-01
       -2   -1    0    0    0  501  0.00000000000E+00  0.00000000000E+00  0.18422250987E+04  0.18422250987E+04  0.25500000920E-02 0. -1.
        2   -1    0    0  501    0  0.00000000000E+00  0.00000000000E+00 -0.21289588801E+04  0.21289588801E+04  0.25500000920E-02 0.  1.
    10030    2    1    2    0    0  0.00000000000E+00  0.00000000000E+00 -0.28673378137E+03  0.39711839788E+04  0.39608188462E+04 0.  0.
        5    1    3    3  502    0  0.14591382742E+04  0.93303003787E+03 -0.11062810534E+04  0.20551178589E+04  0.46999998093E+01 0.  1.
       -5    1    3    3    0  502 -0.14591382742E+04 -0.93303003787E+03  0.81954727208E+03  0.19160661199E+04  0.46999998093E+01 0. -1.
</event>
<event>
 5   0  0.1337854E-06  0.4112992E+04  0.7818609E-02  0.7982132E-01
        2   -1    0    0  501    0  0.00000000000E+00  0.00000000000E+00  0.18096231103E+04  0.18096231103E+04  0.25500000920E-02 0. -1.
       -2   -1    0    0    0  501  0.00000000000E+00  0.00000000000E+00 -0.23370482742E+04  0.23370482742E+04  0.25500000920E-02 0.  1.
    10030    2    1    2    0    0  0.00000000000E+00  0.00000000000E+00 -0.52742516392E+03  0.41466713845E+04  0.41129923738E+04 0.  0.
        3    1    3    3  502    0 -0.11877753603E+04 -0.10024284363E+04  0.10939783338E+04  0.19006477005E+04  0.10100000352E+00 0. -1.
       -3    1    3    3    0  502  0.11877753603E+04  0.10024284363E+04 -0.16214034977E+04  0.22460236840E+04  0.10100000352E+00 0.  1.
</event>
<event>
 5   0  0.1337854E-06  0.3799497E+04  0.7818609E-02  0.8046263E-01
        2   -1    0    0  501    0  0.00000000000E+00  0.00000000000E+00  0.18236834126E+04  0.18236834126E+04  0.25500000920E-02 0. -1.
       -2   -1    0    0    0  501  0.00000000000E+00  0.00000000000E+00 -0.19789866098E+04  0.19789866098E+04  0.25500000920E-02 0.  1.
    10030    2    1    2    0    0  0.00000000000E+00  0.00000000000E+00 -0.15530319720E+03  0.38026700225E+04  0.37994973637E+04 0.  0.
        3    1    3    3  502    0  0.53892642920E+03 -0.17056077795E+04  0.56280888180E+03  0.18751782425E+04  0.10100000352E+00 0. -1.
       -3    1    3    3    0  502 -0.53892642920E+03  0.17056077795E+04 -0.71811207900E+03  0.19274917800E+04  0.10100000352E+00 0.  1.
</event>
<event>
 5   0  0.1184616E-06  0.3293000E+04  0.7818609E-02  0.8164679E-01
        2   -1    0    0  501    0  0.00000000000E+00  0.00000000000E+00  0.10685194046E+04  0.10685194046E+04  0.25500000920E-02 0.  1.
       -2   -1    0    0    0  501  0.00000000000E+00  0.00000000000E+00 -0.25371205425E+04  0.25371205425E+04  0.25500000920E-02 0. -1.
    10030    2    1    2    0    0  0.00000000000E+00  0.00000000000E+00 -0.14686011379E+04  0.36056399471E+04  0.32930001710E+04 0.  0.
        5    1    3    3  502    0 -0.11042897957E+04 -0.59874866683E+03  0.43117343771E+03  0.13281146571E+04  0.46999998093E+01 0.  1.
       -5    1    3    3    0  502  0.11042897957E+04  0.59874866683E+03 -0.18997745756E+04  0.22775252901E+04  0.46999998093E+01 0. -1.
</event>
<event>
 5   0  0.1337854E-06  0.2022182E+04  0.7818609E-02  0.8596320E-01
        2   -1    0    0  501    0  0.00000000000E+00  0.00000000000E+00  0.94642732890E+03  0.94642732891E+03  0.25500000920E-02 0.  1.
       -2   -1    0    0    0  501  0.00000000000E+00  0.00000000000E+00 -0.10801722756E+04  0.10801722756E+04  0.25500000920E-02 0. -1.
    10030    2    1    2    0    0  0.00000000000E+00  0.00000000000E+00 -0.13374494665E+03  0.20265996045E+04  0.20221815562E+04 0.  0.
        3    1    3    3  502    0 -0.85871762602E+03  0.40719834692E+03 -0.41273237882E+03  0.10361247423E+04  0.10100000352E+00 0.  1.
       -3    1    3    3    0  502  0.85871762602E+03 -0.40719834692E+03  0.27898743217E+03  0.99047486212E+03  0.10100000352E+00 0. -1.
</event>
<event>
 5   0  0.5284458E-07  0.2118619E+04  0.7818609E-02  0.8553085E-01
       -1   -1    0    0    0  501  0.00000000000E+00  0.00000000000E+00  0.12643585774E+04  0.12643585774E+04  0.50400001928E-02 0.  1.
        1   -1    0    0  501    0  0.00000000000E+00  0.00000000000E+00 -0.88751491250E+03  0.88751491252E+03  0.50400001928E-02 0. -1.
    10030    2    1    2    0    0  0.00000000000E+00  0.00000000000E+00  0.37684366489E+03  0.21518734899E+04  0.21186194488E+04 0.  0.
        5    1    3    3  502    0  0.19562933224E+03 -0.42057548833E+03 -0.77887095419E+03  0.90654102516E+03  0.46999998093E+01 0. -1.
       -5    1    3    3    0  502 -0.19562933224E+03  0.42057548833E+03  0.11557146191E+04  0.12453324648E+04  0.46999998093E+01 0.  1.
</event>
<event>
 5   0  0.5284458E-07  0.3677891E+04  0.7818609E-02  0.8072879E-01
        1   -1    0    0  501    0  0.00000000000E+00  0.00000000000E+00  0.16867186975E+04  0.16867186975E+04  0.50400001928E-02 0.  1.
       -1   -1    0    0    0  501  0.00000000000E+00  0.00000000000E+00 -0.20049110554E+04  0.20049110554E+04  0.50400001928E-02 0. -1.
    10030    2    1    2    0    0  0.00000000000E+00  0.00000000000E+00 -0.31819235790E+03  0.36916297529E+04  0.36778912241E+04 0.  0.
        5    1    3    3  502    0  0.75784063371E+03 -0.14337645272E+04 -0.10293386972E+04  0.19208236226E+04  0.46999998093E+01 0. -1.
       -5    1    3    3    0  502 -0.75784063371E+03  0.14337645272E+04  0.71114633928E+03  0.17708061304E+04  0.46999998093E+01 0.  1.
</event>
<event>
 5   0  0.1079205E-06  0.3791658E+04  0.7818609E-02  0.8047947E-01
       -1   -1    0    0    0  501  0.00000000000E+00  0.00000000000E+00  0.20653135939E+04  0.20653135939E+04  0.50400001928E-02 0.  1.
        1   -1    0    0  501    0  0.00000000000E+00  0.00000000000E+00 -0.17402526277E+04  0.17402526277E+04  0.50400001928E-02 0. -1.
    10030    2    1    2    0    0  0.00000000000E+00  0.00000000000E+00  0.32506096626E+03  0.38055662216E+04  0.37916579006E+04 0.  0.
        4    1    3    3  502    0 -0.11221949197E+04 -0.35821340891E+03  0.16534177666E+04  0.20301305889E+04  0.12699999809E+01 0.  1.
       -4    1    3    3    0  502  0.11221949197E+04  0.35821340891E+03 -0.13283568003E+04  0.17754356327E+04  0.12699999809E+01 0. -1.
</event>
<event>
 5   0  0.1372748E-06  0.3754072E+04  0.7818609E-02  0.8056083E-01
       -2   -1    0    0    0  501  0.00000000000E+00  0.00000000000E+00  0.27042169297E+04  0.27042169297E+04  0.25500000920E-02 0.  1.
        2   -1    0    0  501    0  0.00000000000E+00  0.00000000000E+00 -0.13028777527E+04  0.13028777527E+04  0.25500000920E-02 0. -1.
    10030    2    1    2    0    0  0.00000000000E+00  0.00000000000E+00  0.14013391770E+04  0.40070946824E+04  0.37540719632E+04 0.  0.
        1    1    3    3  502    0  0.17047047630E+04 -0.23570441162E+03 -0.99302876463E+02  0.17237853579E+04  0.50400001928E-02 0. -1.
       -1    1    3    3    0  502 -0.17047047630E+04  0.23570441162E+03  0.15006420535E+04  0.22833093245E+04  0.50400001928E-02 0.  1.
</event>
<event>
 5   0  0.1184616E-06  0.3960694E+04  0.7818609E-02  0.8012523E-01
       -2   -1    0    0    0  501  0.00000000000E+00  0.00000000000E+00  0.11527078305E+04  0.11527078305E+04  0.25500000920E-02 0. -1.
        2   -1    0    0  501    0  0.00000000000E+00  0.00000000000E+00 -0.34022269693E+04  0.34022269693E+04  0.25500000920E-02 0.  1.
    10030    2    1    2    0    0  0.00000000000E+00  0.00000000000E+00 -0.22495191388E+04  0.45549347998E+04  0.39606937114E+04 0.  0.
        5    1    3    3  502    0  0.13847899043E+04  0.11167696531E+04 -0.21253121686E+04  0.27716044887E+04  0.46999998093E+01 0.  1.
       -5    1    3    3    0  502 -0.13847899043E+04 -0.11167696531E+04 -0.12420697012E+03  0.17833303112E+04  0.46999998093E+01 0. -1.
</event>
<event>
 5   0  0.1341932E-06  0.3777530E+04  0.7818609E-02  0.8050994E-01
       -2   -1    0    0    0  501  0.00000000000E+00  0.00000000000E+00  0.16810018135E+04  0.16810018135E+04  0.25500000920E-02 0.  1.
        2   -1    0    0  501    0  0.00000000000E+00  0.00000000000E+00 -0.21222061907E+04  0.21222061907E+04  0.25500000920E-02 0. -1.
    10030    2    1    2    0    0  0.00000000000E+00  0.00000000000E+00 -0.44120437722E+03  0.38032080043E+04  0.37775295924E+04 0.  0.
        2    1    3    3  502    0 -0.40252254206E+03 -0.24134411578E+03 -0.20625635231E+04  0.21152871356E+04  0.25500000920E-02 0. -1.
       -2    1    3    3    0  502  0.40252254206E+03  0.24134411578E+03  0.16213591459E+04  0.16879208687E+04  0.25500000920E-02 0.  1.
</event>
<event>
 5   0  0.1337854E-06  0.3792989E+04  0.7818609E-02  0.8047661E-01
       -2   -1    0    0    0  501  0.00000000000E+00  0.00000000000E+00  0.12468590546E+04  0.12468590546E+04  0.25500000920E-02 0. -1.
        2   -1    0    0  501    0  0.00000000000E+00  0.00000000000E+00 -0.28846019728E+04  0.28846019728E+04  0.25500000920E-02 0.  1.
    10030    2    1    2    0    0  0.00000000000E+00  0.00000000000E+00 -0.16377429182E+04  0.41314610274E+04  0.37929893692E+04 0.  0.
        3    1    3    3  502    0  0.70671770215E+03 -0.90508679908E+03 -0.24628820812E+04  0.27174289651E+04  0.10100000352E+00 0.  1.
       -3    1    3    3    0  502 -0.70671770215E+03  0.90508679908E+03  0.82513916307E+03  0.14140320622E+04  0.10100000352E+00 0. -1.
</event>
<event>
 5   0  0.4255250E-07  0.3798611E+04  0.7818609E-02  0.8046453E-01
       -1   -1    0    0    0  501  0.00000000000E+00  0.00000000000E+00  0.18355758460E+04  0.18355758460E+04  0.50400001928E-02 0.  1.
        1   -1    0    0  501    0  0.00000000000E+00  0.00000000000E+00 -0.19652477677E+04  0.19652477677E+04  0.50400001928E-02 0. -1.
    10030    2    1    2    0    0  0.00000000000E+00  0.00000000000E+00 -0.12967192169E+03  0.38008236137E+04  0.37986109745E+04 0.  0.
        2    1    3    3  502    0 -0.14769291790E+04 -0.81755232377E+03  0.80610182702E+03  0.18706982005E+04  0.25500000920E-02 0.  1.
       -2    1    3    3    0  502  0.14769291790E+04  0.81755232377E+03 -0.93577374871E+03  0.19301254132E+04  0.25500000920E-02 0. -1.
</event>
<event>
 5   0  0.4795023E-07  0.3746745E+04  0.7818609E-02  0.8057681E-01
        1   -1    0    0  501    0  0.00000000000E+00  0.00000000000E+00  0.14398258706E+04  0.14398258706E+04  0.50400001928E-02 0. -1.
       -1   -1    0    0    0  501  0.00000000000E+00  0.00000000000E+00 -0.24374649295E+04  0.24374649295E+04  0.50400001928E-02 0.  1.
    10030    2    1    2    0    0  0.00000000000E+00  0.00000000000E+00 -0.99763905888E+03  0.38772908001E+04  0.37467452885E+04 0.  0.
        3    1    3    3  502    0 -0.67089221022E+02 -0.28211184465E+02 -0.24360014008E+04  0.24370883590E+04  0.10100000352E+00 0.  1.
       -3    1    3    3    0  502  0.67089221022E+02  0.28211184465E+02  0.14383623419E+04  0.14402024411E+04  0.10100000352E+00 0. -1.
</event>
<event>
 5   0  0.1337854E-06  0.3286809E+04  0.7818609E-02  0.8166260E-01
       -2   -1    0    0    0  501  0.00000000000E+00  0.00000000000E+00  0.14013344347E+04  0.14013344347E+04  0.25500000920E-02 0. -1.
        2   -1    0    0  501    0  0.00000000000E+00  0.00000000000E+00 -0.19272903779E+04  0.19272903779E+04  0.25500000920E-02 0.  1.
    10030    2    1    2    0    0  0.00000000000E+00  0.00000000000E+00 -0.52595594323E+03  0.33286248126E+04  0.32868090132E+04 0.  0.
        3    1    3    3  502    0 -0.75531393498E+03 -0.87902796929E+03 -0.14429576837E+04  0.18507609781E+04  0.10100000352E+00 0.  1.
       -3    1    3    3    0  502  0.75531393498E+03  0.87902796929E+03  0.91700174043E+03  0.14778638345E+04  0.10100000352E+00 0. -1.
</event>
<event>
 5   0  0.1184616E-06  0.3899435E+04  0.7818609E-02  0.8025147E-01
       -2   -1    0    0    0  501  0.00000000000E+00  0.00000000000E+00  0.16895213765E+04  0.16895213765E+04  0.25500000920E-02 0. -1.
        2   -1    0    0  501    0  0.00000000000E+00  0.00000000000E+00 -0.22499856967E+04  0.22499856967E+04  0.25500000920E-02 0.  1.
    10030    2    1    2    0    0  0.00000000000E+00  0.00000000000E+00 -0.56046432023E+03  0.39395070733E+04  0.38994353086E+04 0.  0.
        5    1    3    3  502    0  0.33761044913E+02  0.34123805665E+03 -0.22192768144E+04  0.22456168169E+04  0.46999998093E+01 0.  1.
       -5    1    3    3    0  502 -0.33761044913E+02 -0.34123805665E+03  0.16588124942E+04  0.16938902563E+04  0.46999998093E+01 0. -1.
</event>
<event>
 5   0  0.5284458E-07  0.3833318E+04  0.7818609E-02  0.8039042E-01
       -1   -1    0    0    0  501  0.00000000000E+00  0.00000000000E+00  0.19358825631E+04  0.19358825631E+04  0.50400001928E-02 0. -1.
        1   -1    0    0  501    0  0.00000000000E+00  0.00000000000E+00 -0.18976268070E+04  0.18976268070E+04  0.50400001928E-02 0.  1.
    10030    2    1    2    0    0  0.00000000000E+00  0.00000000000E+00  0.38255756016E+02  0.38335093701E+04  0.38333184824E+04 0.  0.
        5    1    3    3  502    0 -0.78205256284E+03  0.10488235648E+03  0.17659128966E+04  0.19341863841E+04  0.46999998093E+01 0. -1.
       -5    1    3    3    0  502  0.78205256284E+03 -0.10488235648E+03 -0.17276571406E+04  0.18993229860E+04  0.46999998093E+01 0.  1.
</event>
<event>
 5   0  0.4255250E-07  0.3775701E+04  0.7818609E-02  0.8051389E-01
        1   -1    0    0  501    0  0.00000000000E+00  0.00000000000E+00  0.17751288014E+04  0.17751288014E+04  0.50400001928E-02 0.  1.
       -1   -1    0    0    0  501  0.00000000000E+00  0.00000000000E+00 -0.20077304243E+04  0.20077304243E+04  0.50400001928E-02 0. -1.
    10030    2    1    2    0    0  0.00000000000E+00  0.00000000000E+00 -0.23260162289E+03  0.37828592257E+04  0.37757013132E+04 0.  0.
        2    1    3    3  502    0 -0.43820498135E+03  0.38688983867E+03 -0.19147728832E+04  0.20020146221E+04  0.25500000920E-02 0. -1.
       -2    1    3    3    0  502  0.43820498135E+03 -0.38688983867E+03  0.16821712603E+04  0.17808446036E+04  0.25500000920E-02 0.  1.
</event>
<event>
 5   0  0.4255250E-07  0.3572336E+04  0.7818609E-02  0.8096858E-01
        1   -1    0    0  501    0  0.00000000000E+00  0.00000000000E+00  0.19866886002E+04  0.19866886002E+04  0.50400001928E-02 0.  1.
       -1   -1    0    0    0  501  0.00000000000E+00  0.00000000000E+00 -0.16058861672E+04  0.16058861672E+04  0.50400001928E-02 0. -1.
    10030    2    1    2    0    0  0.00000000000E+00  0.00000000000E+00  0.38080243303E+03  0.35925747674E+04  0.35723357858E+04 0.  0.
        2    1    3    3  502    0  0.61296245758E+03 -0.70233988088E+03  0.17226445209E+04  0.19587006990E+04  0.25500000920E-02 0.  1.
       -2    1    3    3    0  502 -0.61296245758E+03  0.70233988088E+03 -0.13418420879E+04  0.16338740685E+04  0.25500000920E-02 0. -1.
</event>
<event>
 5   0  0.1214844E-06  0.2544404E+04  0.7818609E-02  0.8387335E-01
       -2   -1    0    0    0  501  0.00000000000E+00  0.00000000000E+00  0.76234632828E+03  0.76234632828E+03  0.25500000920E-02 0.  1.
        2   -1    0    0  501    0  0.00000000000E+00  0.00000000000E+00 -0.21230473756E+04  0.21230473756E+04  0.25500000920E-02 0. -1.
    10030    2    1    2    0    0  0.00000000000E+00  0.00000000000E+00 -0.13607010474E+04  0.28853937039E+04  0.25444035620E+04 0.  0.
        4    1    3    3  502    0  0.10976699183E+04  0.19768198613E+03  0.13661870469E+02  0.11154127831E+04  0.12699999809E+01 0.  1.
       -4    1    3    3    0  502 -0.10976699183E+04 -0.19768198613E+03 -0.13743629178E+04  0.17699809208E+04  0.12699999809E+01 0. -1.
</event>
<event>
 5   0  0.1184616E-06  0.2827034E+04  0.7818609E-02  0.8294924E-01
        2   -1    0    0  501    0  0.00000000000E+00  0.00000000000E+00  0.15301191688E+04  0.15301191688E+04  0.25500000920E-02 0.  1.
       -2   -1    0    0    0  501  0.00000000000E+00  0.00000000000E+00 -0.13058002341E+04  0.13058002341E+04  0.25500000920E-02 0. -1.
    10030    2    1    2    0    0  0.00000000000E+00  0.00000000000E+00  0.22431893470E+03  0.28359194029E+04  0.28270337591E+04 0.  0.
        5    1    3    3  502    0 -0.22761205325E+03 -0.44731514633E+02  0.15108876577E+04  0.15285979718E+04  0.46999998093E+01 0.  1.
       -5    1    3    3    0  502  0.22761205325E+03  0.44731514633E+02 -0.12865687230E+04  0.13073214311E+04  0.46999998093E+01 0. -1.
</event>
<event>
 5   0  0.4255250E-07  0.2727294E+04  0.7818609E-02  0.8326203E-01
        1   -1    0    0  501    0  0.00000000000E+00  0.00000000000E+00  0.14857724245E+04  0.14857724245E+04  0.50400001928E-02 0.  1.
       -1   -1    0    0    0  501  0.00000000000E+00  0.00000000000E+00 -0.12515594640E+04  0.12515594640E+04  0.50400001928E-02 0. -1.
    10030    2    1    2    0    0  0.00000000000E+00  0.00000000000E+00  0.23421296045E+03  0.27373318885E+04  0.27272935590E+04 0.  0.
        2    1    3    3  502    0 -0.12271428683E+04 -0.42429509122E+03  0.53532541831E+03  0.14044498023E+04  0.25500000920E-02 0.  1.
       -2    1    3    3    0  502  0.12271428683E+04  0.42429509122E+03 -0.30111245786E+03  0.13328820863E+04  0.25500000920E-02 0. -1.
</event>
<event>
 5   0  0.1372748E-06  0.3893360E+04  0.7818609E-02  0.8026412E-01
       -2   -1    0    0    0  501  0.00000000000E+00  0.00000000000E+00  0.22378636968E+04  0.22378636968E+04  0.25500000920E-02 0.  1.
        2   -1    0    0  501    0  0.00000000000E+00  0.00000000000E+00 -0.16933845853E+04  0.16933845853E+04  0.25500000920E-02 0. -1.
    10030    2    1    2    0    0  0.00000000000E+00  0.00000000000E+00  0.54447911151E+03  0.39312482822E+04  0.38933604448E+04 0.  0.
        1    1    3    3  502    0  0.50162584906E+03  0.12795589316E+04  0.16643015404E+04  0.21584251595E+04  0.50400001928E-02 0.  1.
       -1    1    3    3    0  502 -0.50162584906E+03 -0.12795589316E+04 -0.11198224289E+04  0.17728231226E+04  0.50400001928E-02 0. -1.
</event>
<event>
 5   0  0.4255250E-07  0.3748072E+04  0.7818609E-02  0.8057391E-01
       -1   -1    0    0    0  501  0.00000000000E+00  0.00000000000E+00  0.12102405009E+04  0.12102405009E+04  0.50400001928E-02 0.  1.
        1   -1    0    0  501    0  0.00000000000E+00  0.00000000000E+00 -0.29019113311E+04  0.29019113311E+04  0.50400001928E-02 0. -1.
    10030    2    1    2    0    0  0.00000000000E+00  0.00000000000E+00 -0.16916708303E+04  0.41121518320E+04  0.37480718365E+04 0.  0.
        2    1    3    3  502    0  0.14626496714E+04  0.32570018776E+03 -0.20805840894E+04  0.25640309722E+04  0.25500000920E-02 0. -1.
       -2    1    3    3    0  502 -0.14626496714E+04 -0.32570018776E+03  0.38891325909E+03  0.15481208598E+04  0.25500000920E-02 0.  1.
</event>
<event>
 5   0  0.1341932E-06  0.3837630E+04  0.7818609E-02  0.8038128E-01
        2   -1    0    0  501    0  0.00000000000E+00  0.00000000000E+00  0.21471887636E+04  0.21471887636E+04  0.25500000920E-02 0.  1.
       -2   -1    0    0    0  501  0.00000000000E+00  0.00000000000E+00 -0.17147307382E+04  0.17147307382E+04  0.25500000920E-02 0. -1.
    10030    2    1    2    0    0  0.00000000000E+00  0.00000000000E+00  0.43245802536E+03  0.38619195018E+04  0.38376297756E+04 0.  0.
        2    1    3    3  502    0  0.10522331366E+04 -0.68814236271E+03  0.16749262690E+04  0.20943047752E+04  0.25500000920E-02 0.  1.
       -2    1    3    3    0  502 -0.10522331366E+04  0.68814236271E+03 -0.12424682436E+04  0.17676147265E+04  0.25500000920E-02 0. -1.
</event>
<event>
 5   0  0.1341932E-06  0.2449270E+04  0.7818609E-02  0.8421285E-01
       -2   -1    0    0    0  501  0.00000000000E+00  0.00000000000E+00  0.78681302884E+03  0.78681302884E+03  0.25500000920E-02 0.  1.
        2   -1    0    0  501    0  0.00000000000E+00  0.00000000000E+00 -0.19060824545E+04  0.19060824545E+04  0.25500000920E-02 0. -1.
    10030    2    1    2    0    0  0.00000000000E+00  0.00000000000E+00 -0.11192694257E+04  0.26928954833E+04  0.24492696946E+04 0.  0.
        2    1    3    3  502    0  0.91017173383E+02 -0.36203669117E+03 -0.18420017338E+04  0.18794480783E+04  0.25500000920E-02 0. -1.
       -2    1    3    3    0  502 -0.91017173383E+02  0.36203669117E+03  0.72273230813E+03  0.81344740508E+03  0.25500000920E-02 0.  1.
</event>
<event>
 5   0  0.1214844E-06  0.3941320E+04  0.7818609E-02  0.8016490E-01
        2   -1    0    0  501    0  0.00000000000E+00  0.00000000000E+00  0.16914659598E+04  0.16914659598E+04  0.25500000920E-02 0. -1.
       -2   -1    0    0    0  501  0.00000000000E+00  0.00000000000E+00 -0.22959376406E+04  0.22959376406E+04  0.25500000920E-02 0.  1.
    10030    2    1    2    0    0  0.00000000000E+00  0.00000000000E+00 -0.60447168080E+03  0.39874036004E+04  0.39413197611E+04 0.  0.
        4    1    3    3  502    0 -0.11741477044E+04 -0.12677182599E+04  0.65634817664E+03  0.18483849600E+04  0.12699999809E+01 0. -1.
       -4    1    3    3    0  502  0.11741477044E+04  0.12677182599E+04 -0.12608198574E+04  0.21390186404E+04  0.12699999809E+01 0.  1.
</event>
<event>
 5   0  0.1341932E-06  0.2962482E+04  0.7818609E-02  0.8254526E-01
       -2   -1    0    0    0  501  0.00000000000E+00  0.00000000000E+00  0.17268788426E+04  0.17268788426E+04  0.25500000920E-02 0. -1.
        2   -1    0    0  501    0  0.00000000000E+00  0.00000000000E+00 -0.12705433190E+04  0.12705433190E+04  0.25500000920E-02 0.  1.
    10030    2    1    2    0    0  0.00000000000E+00  0.00000000000E+00  0.45633552352E+03  0.29974221616E+04  0.29624816463E+04 0.  0.
        2    1    3    3  502    0  0.28113185277E+02  0.58442399026E+03  0.16050011359E+04  0.17083238563E+04  0.25500000920E-02 0. -1.
       -2    1    3    3    0  502 -0.28113185277E+02 -0.58442399026E+03 -0.11486656124E+04  0.12890983053E+04  0.25500000920E-02 0.  1.
</event>
<event>
 5   0  0.1341932E-06  0.2378699E+04  0.7818609E-02  0.8447522E-01
       -2   -1    0    0    0  501  0.00000000000E+00  0.00000000000E+00  0.66844034994E+03  0.66844034995E+03  0.25500000920E-02 0.  1.
        2   -1    0    0  501    0  0.00000000000E+00  0.00000000000E+00 -0.21161978902E+04  0.21161978902E+04  0.25500000920E-02 0. -1.
    10030    2    1    2    0    0  0.00000000000E+00  0.00000000000E+00 -0.14477575403E+04  0.27846382402E+04  0.23786988530E+04 0.  0.
        2    1    3    3  502    0  0.70738743218E+03 -0.24316213031E+03 -0.18063573209E+04  0.19551090945E+04  0.25500000920E-02 0. -1.
       -2    1    3    3    0  502 -0.70738743218E+03  0.24316213031E+03  0.35859978060E+03  0.82952914564E+03  0.25500000920E-02 0.  1.
</event>
<event>
 5   0  0.1337854E-06  0.3793244E+04  0.7818609E-02  0.8047606E-01
        2   -1    0    0  501    0  0.00000000000E+00  0.00000000000E+00  0.25470512999E+04  0.25470512999E+04  0.25500000920E-02 0.  1.
       -2   -1    0    0    0  501  0.00000000000E+00  0.00000000000E+00 -0.14122899222E+04  0.14122899222E+04  0.25500000920E-02 0. -1.
    10030    2    1    2    0    0  0.00000000000E+00  0.00000000000E+00  0.11347613777E+04  0.39593412222E+04  0.37932439322E+04 0.  0.
        3    1    3    3  502    0 -0.10013510197E+04  0.14323421423E+04  0.13364383076E+04  0.22000852796E+04  0.10100000352E+00 0.  1.
       -3    1    3    3    0  502  0.10013510197E+04 -0.14323421423E+04 -0.20167692989E+03  0.17592559426E+04  0.10100000352E+00 0. -1.
</event>
<event>
 5   0  0.1079205E-06  0.3739501E+04  0.7818609E-02  0.8059264E-01
        1   -1    0    0  501    0  0.00000000000E+00  0.00000000000E+00  0.21759818041E+04  0.21759818041E+04  0.50400001928E-02 0.  1.
       -1   -1    0    0    0  501  0.00000000000E+00  0.00000000000E+00 -0.16066158457E+04  0.16066158457E+04  0.50400001928E-02 0. -1.
    10030    2    1    2    0    0  0.00000000000E+00  0.00000000000E+00  0.56936595840E+03  0.37825976497E+04  0.37395009540E+04 0.  0.
        4    1    3    3  502    0 -0.10013332982E+02  0.14001552518E+03  0.21706437909E+04  0.21751783131E+04  0.12699999809E+01 0.  1.
       -4    1    3    3    0  502  0.10013332982E+02 -0.14001552518E+03 -0.16012778325E+04  0.16074193366E+04  0.12699999809E+01 0. -1.
</event>
<event>
 5   0  0.4795023E-07  0.4044468E+04  0.7818609E-02  0.7995635E-01
       -1   -1    0    0    0  501  0.00000000000E+00  0.00000000000E+00  0.25643506582E+04  0.25643506582E+04  0.50400001928E-02 0.  1.
        1   -1    0    0  501    0  0.00000000000E+00  0.00000000000E+00 -0.15947239189E+04  0.15947239189E+04  0.50400001928E-02 0. -1.
    10030    2    1    2    0    0  0.00000000000E+00  0.00000000000E+00  0.96962673927E+03  0.41590745771E+04  0.40444684848E+04 0.  0.
        3    1    3    3  502    0 -0.11175087540E+04  0.16757561825E+04  0.29957938506E+03  0.20363527240E+04  0.10100000352E+00 0. -1.
       -3    1    3    3    0  502  0.11175087540E+04 -0.16757561825E+04  0.67004735420E+03  0.21227218531E+04  0.10100000352E+00 0.  1.
</event>
<event>
 5   0  0.5284458E-07  0.2037411E+04  0.7818609E-02  0.8589327E-01
       -1   -1    0    0    0  501  0.00000000000E+00  0.00000000000E+00  0.81140102583E+03  0.81140102584E+03  0.50400001928E-02 0.  1.
        1   -1    0    0  501    0  0.00000000000E+00  0.00000000000E+00 -0.12789736146E+04  0.12789736146E+04  0.50400001928E-02 0. -1.
    10030    2    1    2    0    0  0.00000000000E+00  0.00000000000E+00 -0.46757258873E+03  0.20903746404E+04  0.20374106144E+04 0.  0.
        5    1    3    3  502    0  0.19131217206E+03  0.95095005625E+03  0.85481521164E+02  0.97377386344E+03  0.46999998093E+01 0. -1.
       -5    1    3    3    0  502 -0.19131217206E+03 -0.95095005625E+03 -0.55305410989E+03  0.11166007770E+04  0.46999998093E+01 0.  1.
</event>
<event>
 5   0  0.4255250E-07  0.3661812E+04  0.7818609E-02  0.8076478E-01
        1   -1    0    0  501    0  0.00000000000E+00  0.00000000000E+00  0.16985186017E+04  0.16985186017E+04  0.50400001928E-02 0.  1.
       -1   -1    0    0    0  501  0.00000000000E+00  0.00000000000E+00 -0.19736125636E+04  0.19736125636E+04  0.50400001928E-02 0. -1.
    10030    2    1    2    0    0  0.00000000000E+00  0.00000000000E+00 -0.27509396188E+03  0.36721311653E+04  0.36618124758E+04 0.  0.
        2    1    3    3  502    0  0.14898059269E+04 -0.78049660115E+03 -0.86313339470E+03  0.18904221490E+04  0.25500000920E-02 0. -1.
       -2    1    3    3    0  502 -0.14898059269E+04  0.78049660115E+03  0.58803943283E+03  0.17817090163E+04  0.25500000920E-02 0.  1.
</event>
<event>
 5   0  0.4795023E-07  0.3553679E+04  0.7818609E-02  0.8101185E-01
        1   -1    0    0  501    0  0.00000000000E+00  0.00000000000E+00  0.16970683127E+04  0.16970683127E+04  0.50400001928E-02 0. -1.
       -1   -1    0    0    0  501  0.00000000000E+00  0.00000000000E+00 -0.18603602156E+04  0.18603602157E+04  0.50400001928E-02 0.  1.
    10030    2    1    2    0    0  0.00000000000E+00  0.00000000000E+00 -0.16329190298E+03  0.35574285283E+04  0.35536788668E+04 0.  0.
        3    1    3    3  502    0 -0.43348353949E+03  0.62140669729E+02  0.16422015120E+04  0.16995867903E+04  0.10100000352E+00 0. -1.
       -3    1    3    3    0  502  0.43348353949E+03 -0.62140669729E+02 -0.18054934149E+04  0.18578417380E+04  0.10100000352E+00 0.  1.
</event>
<event>
 5   0  0.1214844E-06  0.2030551E+04  0.7818609E-02  0.8592469E-01
       -2   -1    0    0    0  501  0.00000000000E+00  0.00000000000E+00  0.52829904478E+03  0.52829904479E+03  0.25500000920E-02 0. -1.
        2   -1    0    0  501    0  0.00000000000E+00  0.00000000000E+00 -0.19511371099E+04  0.19511371099E+04  0.25500000920E-02 0.  1.
    10030    2    1    2    0    0  0.00000000000E+00  0.00000000000E+00 -0.14228380651E+04  0.24794361547E+04  0.20305505376E+04 0.  0.
        4    1    3    3  502    0  0.96277041092E+03  0.67093571708E+02 -0.32653360289E+03  0.10188494581E+04  0.12699999809E+01 0. -1.
       -4    1    3    3    0  502 -0.96277041092E+03 -0.67093571708E+02 -0.10963044622E+04  0.14605866966E+04  0.12699999809E+01 0.  1.
</event>
<event>
 5   0  0.1214844E-06  0.3799478E+04  0.7818609E-02  0.8046267E-01
       -2   -1    0    0    0  501  0.00000000000E+00  0.00000000000E+00  0.23454263549E+04  0.23454263549E+04  0.25500000920E-02 0. -1.
        2   -1    0    0  501    0  0.00000000000E+00  0.00000000000E+00 -0.15387428330E+04  0.15387428330E+04  0.25500000920E-02 0.  1.
    10030    2    1    2    0    0  0.00000000000E+00  0.00000000000E+00  0.80668352190E+03  0.38841691879E+04  0.37994778556E+04 0.  0.
        4    1    3    3  502    0 -0.46584060445E+03  0.15109145673E+04  0.14799721600E+04  0.21656845351E+04  0.12699999809E+01 0. -1.
       -4    1    3    3    0  502  0.46584060445E+03 -0.15109145673E+04 -0.67328863810E+03  0.17184846527E+04  0.12699999809E+01 0.  1.
</event>
<event>
 5   0  0.1341932E-06  0.3199744E+04  0.7818609E-02  0.8188885E-01
        2   -1    0    0  501    0  0.00000000000E+00  0.00000000000E+00  0.23940028783E+04  0.23940028783E+04  0.25500000920E-02 0. -1.
       -2   -1    0    0    0  501  0.00000000000E+00  0.00000000000E+00 -0.10691676319E+04  0.10691676319E+04  0.25500000920E-02 0.  1.
    10030    2    1    2    0    0  0.00000000000E+00  0.00000000000E+00  0.13248352464E+04  0.34631705102E+04  0.31997439823E+04 0.  0.
        2    1    3    3  502    0 -0.33968515676E+03  0.90102316348E+03  0.20452413865E+04  0.22605842333E+04  0.25500000920E-02 0. -1.
       -2    1    3    3    0  502  0.33968515676E+03 -0.90102316348E+03 -0.72040614002E+03  0.12025862769E+04  0.25500000920E-02 0.  1.
</event>
<event>
 5   0  0.8030324E-07  0.3023992E+04  0.7818609E-02  0.8236913E-01
        1   -1    0    0  501    0  0.00000000000E+00  0.00000000000E+00  0.21383402973E+04  0.21383402973E+04  0.50400001928E-02 0. -1.
       -1   -1    0    0    0  501  0.00000000000E+00  0.00000000000E+00 -0.10691149823E+04  0.10691149823E+04  0.50400001928E-02 0.  1.
    10030    2    1    2    0    0  0.00000000000E+00  0.00000000000E+00  0.10692253150E+04  0.32074552796E+04  0.30239918314E+04 0.  0.
        1    1    3    3  502    0  0.12723485107E+04 -0.21838294756E+03 -0.30026938144E+03  0.13254144808E+04  0.50400001928E-02 0.  1.
       -1    1    3    3    0  502 -0.12723485107E+04  0.21838294756E+03  0.13694946965E+04  0.18820407988E+04  0.50400001928E-02 0. -1.
</event>
<event>
 5   0  0.5284458E-07  0.2164663E+04  0.7818609E-02  0.8533282E-01
        1   -1    0    0  501    0  0.00000000000E+00  0.00000000000E+00  0.14411285422E+04  0.14411285422E+04  0.50400001928E-02 0.  1.
       -1   -1    0    0    0  501  0.00000000000E+00  0.00000000000E+00 -0.81286405978E+03  0.81286405980E+03  0.50400001928E-02 0. -1.
    10030    2    1    2    0    0  0.00000000000E+00  0.00000000000E+00  0.62826448241E+03  0.22539926020E+04  0.21646631124E+04 0.  0.
        5    1    3    3  502    0  0.32522735272E+03 -0.82902555589E+03 -0.32636413147E+03  0.94846815423E+03  0.46999998093E+01 0. -1.
       -5    1    3    3    0  502 -0.32522735272E+03  0.82902555589E+03  0.95462861389E+03  0.13055244478E+04  0.46999998093E+01 0.  1.
</event>
<event>
 5   0  0.8030324E-07  0.3723135E+04  0.7818609E-02  0.8062854E-01
        1   -1    0    0  501    0  0.00000000000E+00  0.00000000000E+00  0.18304386144E+04  0.18304386144E+04  0.50400001928E-02 0. -1.
       -1   -1    0    0    0  501  0.00000000000E+00  0.00000000000E+00 -0.18932260650E+04  0.18932260650E+04  0.50400001928E-02 0.  1.
    10030    2    1    2    0    0  0.00000000000E+00  0.00000000000E+00 -0.62787450551E+02  0.37236646794E+04  0.37231352891E+04 0.  0.
        1    1    3    3  502    0  0.18016950673E+04  0.46316028343E+03 -0.10076879133E+03  0.18630021237E+04  0.50400001928E-02 0. -1.
       -1    1    3    3    0  502 -0.18016950673E+04 -0.46316028343E+03  0.37981340782E+02  0.18606625557E+04  0.50400001928E-02 0.  1.
</event>
<event>
 5   0  0.1079205E-06  0.3891475E+04  0.7818609E-02  0.8026805E-01
        1   -1    0    0  501    0  0.00000000000E+00  0.00000000000E+00  0.15547708058E+04  0.15547708058E+04  0.50400001928E-02 0. -1.
       -1   -1    0    0    0  501  0.00000000000E+00  0.00000000000E+00 -0.24350174602E+04  0.24350174602E+04  0.50400001928E-02 0.  1.
    10030    2    1    2    0    0  0.00000000000E+00  0.00000000000E+00 -0.88024665449E+03  0.39897882660E+04  0.38914748149E+04 0.  0.
        4    1    3    3  502    0 -0.93401399852E+02  0.18938772679E+04  0.72460640436E+01  0.18961933039E+04  0.12699999809E+01 0.  1.
       -4    1    3    3    0  502  0.93401399852E+02 -0.18938772679E+04 -0.88749271853E+03  0.20935949622E+04  0.12699999809E+01 0. -1.
</event>
<event>
 5   0  0.1372748E-06  0.2046743E+04  0.7818609E-02  0.8585073E-01
       -2   -1    0    0    0  501  0.00000000000E+00  0.00000000000E+00  0.55820122901E+03  0.55820122902E+03  0.25500000920E-02 0. -1.
        2   -1    0    0  501    0  0.00000000000E+00  0.00000000000E+00 -0.18761859454E+04  0.18761859454E+04  0.25500000920E-02 0.  1.
    10030    2    1    2    0    0  0.00000000000E+00  0.00000000000E+00 -0.13179847164E+04  0.24343871745E+04  0.20467430719E+04 0.  0.
        1    1    3    3  502    0 -0.65063848998E+02  0.64761429346E+03 -0.15982773553E+04  0.17257253785E+04  0.50400001928E-02 0.  1.
       -1    1    3    3    0  502  0.65063848998E+02 -0.64761429346E+03  0.28029263891E+03  0.70866179592E+03  0.50400001928E-02 0. -1.
</event>
<event>
 5   0  0.1341932E-06  0.2324521E+04  0.7818609E-02  0.8468315E-01
       -2   -1    0    0    0  501  0.00000000000E+00  0.00000000000E+00  0.17222448379E+04  0.17222448379E+04  0.25500000920E-02 0.  1.
        2   -1    0    0  501    0  0.00000000000E+00  0.00000000000E+00 -0.78435382578E+03  0.78435382578E+03  0.25500000920E-02 0. -1.
    10030    2    1    2    0    0  0.00000000000E+00  0.00000000000E+00  0.93789101212E+03  0.25065986637E+04  0.23245208775E+04 0.  0.
        2    1    3    3  502    0  0.39156389243E+03  0.77380960007E+03 -0.36545118664E+03  0.94109412326E+03  0.25500000920E-02 0. -1.
       -2    1    3    3    0  502 -0.39156389243E+03 -0.77380960007E+03  0.13033421988E+04  0.15655045404E+04  0.25500000920E-02 0.  1.
</event>
<event>
 5   0  0.1337854E-06  0.3825854E+04  0.7818609E-02  0.8040629E-01
       -2   -1    0    0    0  501  0.00000000000E+00  0.00000000000E+00  0.13599443779E+04  0.13599443779E+04  0.25500000920E-02 0. -1.
        2   -1    0    0  501    0  0.00000000000E+00  0.00000000000E+00 -0.26907643688E+04  0.26907643688E+04  0.25500000920E-02 0.  1.
    10030    2    1    2    0    0  0.00000000000E+00  0.00000000000E+00 -0.13308199909E+04  0.40507087466E+04  0.38258540879E+04 0.  0.
        3    1    3    3  502    0  0.11106666817E+04  0.44147957151E+03 -0.22467797811E+04  0.25448976571E+04  0.10100000352E+00 0.  1.
       -3    1    3    3    0  502 -0.11106666817E+04 -0.44147957151E+03  0.91595979024E+03  0.15058110896E+04  0.10100000352E+00 0. -1.
</event>
<event>
 5   0  0.1184616E-06  0.2975336E+04  0.7818609E-02  0.8250809E-01
        2   -1    0    0  501    0  0.00000000000E+00  0.00000000000E+00  0.22623359008E+04  0.22623359008E+04  0.25500000920E-02 0. -1.
       -2   -1    0    0    0  501  0.00000000000E+00  0.00000000000E+00 -0.97826175405E+03  0.97826175405E+03  0.25500000920E-02 0.  1.
    10030    2    1    2    0    0  0.00000000000E+00  0.00000000000E+00  0.12840741467E+04  0.32405976548E+04  0.29753364089E+04 0.  0.
        5    1    3    3  502    0 -0.97753806821E+03  0.17915289623E+03  0.18477343528E+04  0.20980516589E+04  0.46999998093E+01 0. -1.
       -5    1    3    3    0  502  0.97753806821E+03 -0.17915289623E+03 -0.56366020601E+03  0.11425459960E+04  0.46999998093E+01 0.  1.
</event>
<event>
 5   0  0.4255250E-07  0.1908953E+04  0.7818609E-02  0.8650412E-01
       -1   -1    0    0    0  501  0.00000000000E+00  0.00000000000E+00  0.47988771679E+03  0.47988771681E+03  0.50400001928E-02 0. -1.
        1   -1    0    0  501    0  0.00000000000E+00  0.00000000000E+00 -0.18984144539E+04  0.18984144539E+04  0.50400001928E-02 0.  1.
    10030    2    1    2    0    0  0.00000000000E+00  0.00000000000E+00 -0.14185267371E+04  0.23783021707E+04  0.19089534073E+04 0.  0.
        2    1    3    3  502    0  0.45572375033E+03  0.22106809668E+03  0.29863502766E+03  0.58799499975E+03  0.25500000920E-02 0. -1.
       -2    1    3    3    0  502 -0.45572375033E+03 -0.22106809668E+03 -0.17171617648E+04  0.17903071709E+04  0.25500000920E-02 0.  1.
</event>
<event>
 5   0  0.1341932E-06  0.3827190E+04  0.7818609E-02  0.8040345E-01
       -2   -1    0    0    0  501  0.00000000000E+00  0.00000000000E+00  0.19191270285E+04  0.19191270285E+04  0.25500000920E-02 0. -1.
        2   -1    0    0  501    0  0.00000000000E+00  0.00000000000E+00 -0.19080789082E+04  0.19080789082E+04  0.25500000920E-02 0.  1.
    10030    2    1    2    0    0  0.00000000000E+00  0.00000000000E+00  0.11048120326E+02  0.38272059367E+04  0.38271899902E+04 0.  0.
        2    1    3    3  502    0  0.45833522994E+03 -0.13780733334E+04 -0.12405503554E+04  0.19100058847E+04  0.25500000920E-02 0. -1.
       -2    1    3    3    0  502 -0.45833522994E+03  0.13780733334E+04  0.12515984757E+04  0.19172000521E+04  0.25500000920E-02 0.  1.
</event>
<event>
 5   0  0.1372748E-06  0.3797533E+04  0.7818609E-02  0.8046684E-01
       -2   -1    0    0    0  501  0.00000000000E+00  0.00000000000E+00  0.15958967276E+04  0.15958967276E+04  0.25500000920E-02 0.  1.
        2   -1    0    0  501    0  0.00000000000E+00  0.00000000000E+00 -0.22591150507E+04  0.22591150507E+04  0.25500000920E-02 0. -1.
    10030    2    1    2    0    0  0.00000000000E+00  0.00000000000E+00 -0.66321832305E+03  0.38550117783E+04  0.37975330501E+04 0.  0.
        1    1    3    3  502    0  0.39022206568E+03 -0.14402194542E+04  0.86039068276E+03  0.17224335876E+04  0.50400001928E-02 0.  1.
       -1    1    3    3    0  502 -0.39022206568E+03  0.14402194542E+04 -0.15236090058E+04  0.21325781907E+04  0.50400001928E-02 0. -1.
</event>
<event>
 5   0  0.1372748E-06  0.3767106E+04  0.7818609E-02  0.8053251E-01
       -2   -1    0    0    0  501  0.00000000000E+00  0.00000000000E+00  0.15199718279E+04  0.15199718279E+04  0.25500000920E-02 0.  1.
        2   -1    0    0  501    0  0.00000000000E+00  0.00000000000E+00 -0.23341036487E+04  0.23341036487E+04  0.25500000920E-02 0. -1.
    10030    2    1    2    0    0  0.00000000000E+00  0.00000000000E+00 -0.81413182084E+03  0.38540754766E+04  0.37671059393E+04 0.  0.
        1    1    3    3  502    0  0.77651562786E+03  0.15713589930E+04  0.29851246071E+03  0.17779919276E+04  0.50400001928E-02 0.  1.
       -1    1    3    3    0  502 -0.77651562786E+03 -0.15713589930E+04 -0.11126442816E+04  0.20760835490E+04  0.50400001928E-02 0. -1.
</event>
<event>
 5   0  0.1337854E-06  0.3820718E+04  0.7818609E-02  0.8041723E-01
        2   -1    0    0  501    0  0.00000000000E+00  0.00000000000E+00  0.19629903778E+04  0.19629903778E+04  0.25500000920E-02 0.  1.
       -2   -1    0    0    0  501  0.00000000000E+00  0.00000000000E+00 -0.18591389294E+04  0.18591389294E+04  0.25500000920E-02 0. -1.
    10030    2    1    2    0    0  0.00000000000E+00  0.00000000000E+00  0.10385144840E+03  0.38221293072E+04  0.38207181678E+04 0.  0.
        3    1    3    3  502    0 -0.12932893766E+04  0.51366843678E+03 -0.12573812479E+04  0.18754893461E+04  0.10100000352E+00 0. -1.
       -3    1    3    3    0  502  0.12932893766E+04 -0.51366843678E+03  0.13612326963E+04  0.19466399611E+04  0.10100000352E+00 0.  1.
</event>
<event>
 5   0  0.1079205E-06  0.3768735E+04  0.7818609E-02  0.8052898E-01
        1   -1    0    0  501    0  0.00000000000E+00  0.00000000000E+00  0.12870779978E+04  0.12870779978E+04  0.50400001928E-02 0. -1.
       -1   -1    0    0    0  501  0.00000000000E+00  0.00000000000E+00 -0.27588383120E+04  0.27588383120E+04  0.50400001928E-02 0.  1.
    10030    2    1    2    0    0  0.00000000000E+00  0.00000000000E+00 -0.14717603142E+04  0.40459163098E+04  0.37687345838E+04 0.  0.
        4    1    3    3  502    0 -0.77608271337E+03  0.56997155553E+03  0.10030240543E+04  0.13904067098E+04  0.12699999809E+01 0. -1.
       -4    1    3    3    0  502  0.77608271337E+03 -0.56997155553E+03 -0.24747843685E+04  0.26555096000E+04  0.12699999809E+01 0.  1.
</event>
<event>
 5   0  0.1337854E-06  0.3782017E+04  0.7818609E-02  0.8050025E-01
        2   -1    0    0  501    0  0.00000000000E+00  0.00000000000E+00  0.16249632905E+04  0.16249632905E+04  0.25500000920E-02 0. -1.
       -2   -1    0    0    0  501  0.00000000000E+00  0.00000000000E+00 -0.22006121214E+04  0.22006121214E+04  0.25500000920E-02 0.  1.
    10030    2    1    2    0    0  0.00000000000E+00  0.00000000000E+00 -0.57564883094E+03  0.38255754119E+04  0.37820174055E+04 0.  0.
        3    1    3    3  502    0  0.13065467863E+04  0.35386342021E+03  0.10478494252E+04  0.17118038010E+04  0.10100000352E+00 0. -1.
       -3    1    3    3    0  502 -0.13065467863E+04 -0.35386342021E+03 -0.16234982561E+04  0.21137716109E+04  0.10100000352E+00 0.  1.
</event>
<event>
 5   0  0.4255250E-07  0.2098618E+04  0.7818609E-02  0.8561852E-01
       -1   -1    0    0    0  501  0.00000000000E+00  0.00000000000E+00  0.87002119199E+03  0.87002119200E+03  0.50400001928E-02 0. -1.
        1   -1    0    0  501    0  0.00000000000E+00  0.00000000000E+00 -0.12655434299E+04  0.12655434299E+04  0.50400001928E-02 0.  1.
    10030    2    1    2    0    0  0.00000000000E+00  0.00000000000E+00 -0.39552223789E+03  0.21355646219E+04  0.20986182153E+04 0.  0.
        2    1    3    3  502    0  0.15262937954E+03  0.86591463754E+03 -0.78050840666E+03  0.11757113846E+04  0.25500000920E-02 0.  1.
       -2    1    3    3    0  502 -0.15262937954E+03 -0.86591463754E+03  0.38498616877E+03  0.95985323730E+03  0.25500000920E-02 0. -1.
</event>
<event>
 5   0  0.1184616E-06  0.2500838E+04  0.7818609E-02  0.8402687E-01
        2   -1    0    0  501    0  0.00000000000E+00  0.00000000000E+00  0.10925843186E+04  0.10925843186E+04  0.25500000920E-02 0.  1.
       -2   -1    0    0    0  501  0.00000000000E+00  0.00000000000E+00 -0.14310539099E+04  0.14310539099E+04  0.25500000920E-02 0. -1.
    10030    2    1    2    0    0  0.00000000000E+00  0.00000000000E+00 -0.33846959130E+03  0.25236382285E+04  0.25008375085E+04 0.  0.
        5    1    3    3  502    0  0.10019526284E+04  0.34109848284E+03  0.50261885169E+03  0.11717103075E+04  0.46999998093E+01 0.  1.
       -5    1    3    3    0  502 -0.10019526284E+04 -0.34109848284E+03 -0.84108844299E+03  0.13519279210E+04  0.46999998093E+01 0. -1.
</event>
<event>
 5   0  0.1337854E-06  0.3768581E+04  0.7818609E-02  0.8052931E-01
        2   -1    0    0  501    0  0.00000000000E+00  0.00000000000E+00  0.21817072007E+04  0.21817072007E+04  0.25500000920E-02 0. -1.
       -2   -1    0    0    0  501  0.00000000000E+00  0.00000000000E+00 -0.16274188632E+04  0.16274188632E+04  0.25500000920E-02 0.  1.
    10030    2    1    2    0    0  0.00000000000E+00  0.00000000000E+00  0.55428833745E+03  0.38091260639E+04  0.37685814055E+04 0.  0.
        3    1    3    3  502    0 -0.70096908616E+03 -0.78136698719E+02  0.20432516791E+04  0.21615597234E+04  0.10100000352E+00 0. -1.
       -3    1    3    3    0  502  0.70096908616E+03  0.78136698719E+02 -0.14889633417E+04  0.16475663405E+04  0.10100000352E+00 0.  1.
</event>
<event>
 5   0  0.4255250E-07  0.3837232E+04  0.7818609E-02  0.8038212E-01
       -1   -1    0    0    0  501  0.00000000000E+00  0.00000000000E+00  0.25157831606E+04  0.25157831606E+04  0.50400001928E-02 0. -1.
        1   -1    0    0  501    0  0.00000000000E+00  0.00000000000E+00 -0.14631970914E+04  0.14631970914E+04  0.50400001928E-02 0.  1.
    10030    2    1    2    0    0  0.00000000000E+00  0.00000000000E+00  0.10525860691E+04  0.39789802520E+04  0.38372316079E+04 0.  0.
        2    1    3    3  502    0  0.93253604033E+03  0.43209144952E+03 -0.11536655666E+04  0.15450795212E+04  0.25500000920E-02 0.  1.
       -2    1    3    3    0  502 -0.93253604033E+03 -0.43209144952E+03  0.22062516357E+04  0.24339007308E+04  0.25500000920E-02 0. -1.
</event>
<event>
 5   0  0.4255250E-07  0.2418755E+04  0.7818609E-02  0.8432515E-01
        1   -1    0    0  501    0  0.00000000000E+00  0.00000000000E+00  0.17718131954E+04  0.17718131954E+04  0.50400001928E-02 0.  1.
       -1   -1    0    0    0  501  0.00000000000E+00  0.00000000000E+00 -0.82547867810E+03  0.82547867811E+03  0.50400001928E-02 0. -1.
    10030    2    1    2    0    0  0.00000000000E+00  0.00000000000E+00  0.94633451733E+03  0.25972918735E+04  0.24187550636E+04 0.  0.
        2    1    3    3  502    0  0.27450835004E+03 -0.69147091893E+02 -0.78940085262E+03  0.83862378972E+03  0.25500000920E-02 0. -1.
       -2    1    3    3    0  502 -0.27450835004E+03  0.69147091893E+02  0.17357353700E+04  0.17586680838E+04  0.25500000920E-02 0.  1.
</event>
<event>
 5   0  0.1341932E-06  0.3741285E+04  0.7818609E-02  0.8058874E-01
        2   -1    0    0  501    0  0.00000000000E+00  0.00000000000E+00  0.12516718707E+04  0.12516718707E+04  0.25500000920E-02 0.  1.
       -2   -1    0    0    0  501  0.00000000000E+00  0.00000000000E+00 -0.27957037821E+04  0.27957037821E+04  0.25500000920E-02 0. -1.
    10030    2    1    2    0    0  0.00000000000E+00  0.00000000000E+00 -0.15440319114E+04  0.40473756528E+04  0.37412852246E+04 0.  0.
        2    1    3    3  502    0  0.54924563091E+03  0.35474821238E+03  0.11240272334E+04  0.13003669784E+04  0.25500000920E-02 0.  1.
       -2    1    3    3    0  502 -0.54924563091E+03 -0.35474821238E+03 -0.26680591448E+04  0.27470086744E+04  0.25500000920E-02 0. -1.
</event>
<event>
 5   0  0.1341932E-06  0.3791378E+04  0.7818609E-02  0.8048008E-01
        2   -1    0    0  501    0  0.00000000000E+00  0.00000000000E+00  0.17602567998E+04  0.17602567998E+04  0.25500000920E-02 0. -1.
       -2   -1    0    0    0  501  0.00000000000E+00  0.00000000000E+00 -0.20415410921E+04  0.20415410921E+04  0.25500000920E-02 0.  1.
    10030    2    1    2    0    0  0.00000000000E+00  0.00000000000E+00 -0.28128429225E+03  0.38017978919E+04  0.37913778970E+04 0.  0.
        2    1    3    3  502    0  0.13276662725E+04 -0.45474680549E+03  0.11372795531E+04  0.18063491274E+04  0.25500000920E-02 0. -1.
       -2    1    3    3    0  502 -0.13276662725E+04  0.45474680549E+03 -0.14185638454E+04  0.19954487645E+04  0.25500000920E-02 0.  1.
</event>
<event>
 5   0  0.5284458E-07  0.3079827E+04  0.7818609E-02  0.8221296E-01
       -1   -1    0    0    0  501  0.00000000000E+00  0.00000000000E+00  0.19714479295E+04  0.19714479295E+04  0.50400001928E-02 0.  1.
        1   -1    0    0  501    0  0.00000000000E+00  0.00000000000E+00 -0.12028385520E+04  0.12028385520E+04  0.50400001928E-02 0. -1.
    10030    2    1    2    0    0  0.00000000000E+00  0.00000000000E+00  0.76860937754E+03  0.31742864815E+04  0.30798269905E+04 0.  0.
        5    1    3    3  502    0  0.62838804678E+03  0.79852753520E+03 -0.80824540894E+03  0.12983838003E+04  0.46999998093E+01 0. -1.
       -5    1    3    3    0  502 -0.62838804678E+03 -0.79852753520E+03  0.15768547865E+04  0.18759026812E+04  0.46999998093E+01 0.  1.
</event>
<event>
 5   0  0.1214844E-06  0.3014334E+04  0.7818609E-02  0.8239650E-01
        2   -1    0    0  501    0  0.00000000000E+00  0.00000000000E+00  0.19282472855E+04  0.19282472855E+04  0.25500000920E-02 0.  1.
       -2   -1    0    0    0  501  0.00000000000E+00  0.00000000000E+00 -0.11780398770E+04  0.11780398770E+04  0.25500000920E-02 0. -1.
    10030    2    1    2    0    0  0.00000000000E+00  0.00000000000E+00  0.75020740842E+03  0.31062871625E+04  0.30143338867E+04 0.  0.
        4    1    3    3  502    0  0.75867405318E+03 -0.12443322157E+04 -0.20805664330E+02  0.14575264906E+04  0.12699999809E+01 0.  1.
       -4    1    3    3    0  502 -0.75867405318E+03  0.12443322157E+04  0.77101307275E+03  0.16487606719E+04  0.12699999809E+01 0. -1.
</event>
<event>
 5   0  0.4795023E-07  0.3743850E+04  0.7818609E-02  0.8058313E-01
        1   -1    0    0  501    0  0.00000000000E+00  0.00000000000E+00  0.23174137090E+04  0.23174137090E+04  0.50400001928E-02 0. -1.
       -1   -1    0    0    0  501  0.00000000000E+00  0.00000000000E+00 -0.15120747972E+04  0.15120747972E+04  0.50400001928E-02 0.  1.
    10030    2    1    2    0    0  0.00000000000E+00  0.00000000000E+00  0.80533891185E+03  0.38294885062E+04  0.37438498175E+04 0.  0.
        3    1    3    3  502    0 -0.37958282377E+03  0.12915240907E+04 -0.92784818980E+03  0.16349372681E+04  0.10100000352E+00 0. -1.
       -3    1    3    3    0  502  0.37958282377E+03 -0.12915240907E+04  0.17331871016E+04  0.21945512381E+04  0.10100000352E+00 0.  1.
</event>
<event>
 5   0  0.1341932E-06  0.3901304E+04  0.7818609E-02  0.8024758E-01
        2   -1    0    0  501    0  0.00000000000E+00  0.00000000000E+00  0.14149029181E+04  0.14149029181E+04  0.25500000920E-02 0.  1.
       -2   -1    0    0    0  501  0.00000000000E+00  0.00000000000E+00 -0.26892609078E+04  0.26892609078E+04  0.25500000920E-02 0. -1.
    10030    2    1    2    0    0  0.00000000000E+00  0.00000000000E+00 -0.12743579897E+04  0.41041638258E+04  0.39013039389E+04 0.  0.
        2    1    3    3  502    0 -0.92088024419E+03  0.21759004064E+03  0.11572955893E+04  0.14948909428E+04  0.25500000920E-02 0.  1.
       -2    1    3    3    0  502  0.92088024419E+03 -0.21759004064E+03 -0.24316535790E+04  0.26092728830E+04  0.25500000920E-02 0. -1.
</event>
<event>
 5   0  0.4255250E-07  0.3686660E+04  0.7818609E-02  0.8070925E-01
        3   -1    0    0  501    0  0.00000000000E+00  0.00000000000E+00  0.15146589971E+04  0.15146590004E+04  0.10100000352E+00 0. -1.
       -3   -1    0    0    0  501  0.00000000000E+00  0.00000000000E+00 -0.22433203122E+04  0.22433203145E+04  0.10100000352E+00 0.  1.
    10030    2    1    2    0    0  0.00000000000E+00  0.00000000000E+00 -0.72866131515E+03  0.37579793149E+04  0.36866599001E+04 0.  0.
        3    1    3    3  502    0  0.14231982625E+04 -0.22032291137E+02 -0.15582649156E+04  0.21104900553E+04  0.10100000352E+00 0.  1.
       -3    1    3    3    0  502 -0.14231982625E+04  0.22032291137E+02  0.82960360044E+03  0.16474892596E+04  0.10100000352E+00 0. -1.
</event>
<event>
 5   0  0.1372748E-06  0.3764240E+04  0.7818609E-02  0.8053873E-01
       -2   -1    0    0    0  501  0.00000000000E+00  0.00000000000E+00  0.16825509005E+04  0.16825509005E+04  0.25500000920E-02 0. -1.
        2   -1    0    0  501    0  0.00000000000E+00  0.00000000000E+00 -0.21053597053E+04  0.21053597053E+04  0.25500000920E-02 0.  1.
    10030    2    1    2    0    0  0.00000000000E+00  0.00000000000E+00 -0.42280880481E+03  0.37879106059E+04  0.37642395610E+04 0.  0.
        1    1    3    3  502    0 -0.42945011268E+03 -0.10782410843E+04  0.12795821315E+04  0.17275305110E+04  0.50400001928E-02 0. -1.
       -1    1    3    3    0  502  0.42945011268E+03  0.10782410843E+04 -0.17023909364E+04  0.20603800949E+04  0.50400001928E-02 0.  1.
</event>
<event>
 5   0  0.1184616E-06  0.3828259E+04  0.7818609E-02  0.8040118E-01
        2   -1    0    0  501    0  0.00000000000E+00  0.00000000000E+00  0.34317823258E+04  0.34317823258E+04  0.25500000920E-02 0. -1.
       -2   -1    0    0    0  501  0.00000000000E+00  0.00000000000E+00 -0.10676353423E+04  0.10676353423E+04  0.25500000920E-02 0.  1.
    10030    2    1    2    0    0  0.00000000000E+00  0.00000000000E+00  0.23641469835E+04  0.44994176680E+04  0.38282591856E+04 0.  0.
        5    1    3    3  502    0 -0.15985960802E+04 -0.76174883785E+02 -0.52041682030E+02  0.16012627727E+04  0.46999998093E+01 0.  1.
       -5    1    3    3    0  502  0.15985960802E+04  0.76174883785E+02  0.24161886655E+04  0.28981548954E+04  0.46999998093E+01 0. -1.
</event>
<event>
 5   0  0.4795023E-07  0.2335894E+04  0.7818609E-02  0.8463902E-01
        1   -1    0    0  501    0  0.00000000000E+00  0.00000000000E+00  0.15760074096E+04  0.15760074096E+04  0.50400001928E-02 0. -1.
       -1   -1    0    0    0  501  0.00000000000E+00  0.00000000000E+00 -0.86554148112E+03  0.86554148114E+03  0.50400001928E-02 0.  1.
    10030    2    1    2    0    0  0.00000000000E+00  0.00000000000E+00  0.71046592843E+03  0.24415488907E+04  0.23358936513E+04 0.  0.
        3    1    3    3  502    0  0.93967047473E+03 -0.68783958053E+03  0.26176867610E+03  0.11935772868E+04  0.10100000352E+00 0.  1.
       -3    1    3    3    0  502 -0.93967047473E+03  0.68783958053E+03  0.44869725233E+03  0.12479716039E+04  0.10100000352E+00 0. -1.
</event>
<event>
 5   0  0.1079205E-06  0.3919318E+04  0.7818609E-02  0.8021023E-01
        1   -1    0    0  501    0  0.00000000000E+00  0.00000000000E+00  0.12310317634E+04  0.12310317634E+04  0.50400001928E-02 0. -1.
       -1   -1    0    0    0  501  0.00000000000E+00  0.00000000000E+00 -0.31195480727E+04  0.31195480727E+04  0.50400001928E-02 0.  1.
    10030    2    1    2    0    0  0.00000000000E+00  0.00000000000E+00 -0.18885163093E+04  0.43505798361E+04  0.39193176779E+04 0.  0.
        4    1    3    3  502    0 -0.12921167303E+04  0.11888980709E+04 -0.19101907486E+04  0.25945856271E+04  0.12699999809E+01 0.  1.
       -4    1    3    3    0  502  0.12921167303E+04 -0.11888980709E+04  0.21674439257E+02  0.17559942090E+04  0.12699999809E+01 0. -1.
</event>
<event>
 5   0  0.8030324E-07  0.2076530E+04  0.7818609E-02  0.8571653E-01
        1   -1    0    0  501    0  0.00000000000E+00  0.00000000000E+00  0.12894298319E+04  0.12894298319E+04  0.50400001928E-02 0.  1.
       -1   -1    0    0    0  501  0.00000000000E+00  0.00000000000E+00 -0.83602356505E+03  0.83602356506E+03  0.50400001928E-02 0. -1.
    10030    2    1    2    0    0  0.00000000000E+00  0.00000000000E+00  0.45340626683E+03  0.21254533969E+04  0.20765295326E+04 0.  0.
        1    1    3    3  502    0 -0.77987148857E+03  0.31536100008E+03  0.84959798220E+03  0.11956039605E+04  0.50400001928E-02 0.  1.
       -1    1    3    3    0  502  0.77987148857E+03 -0.31536100008E+03 -0.39619171537E+03  0.92984943642E+03  0.50400001928E-02 0. -1.
</event>
<event>
 5   0  0.1341932E-06  0.3785779E+04  0.7818609E-02  0.8049213E-01
        2   -1    0    0  501    0  0.00000000000E+00  0.00000000000E+00  0.10309037406E+04  0.10309037406E+04  0.25500000920E-02 0. -1.
       -2   -1    0    0    0  501  0.00000000000E+00  0.00000000000E+00 -0.34756218064E+04  0.34756218064E+04  0.25500000920E-02 0.  1.
    10030    2    1    2    0    0  0.00000000000E+00  0.00000000000E+00 -0.24447180658E+04  0.45065255469E+04  0.37857794553E+04 0.  0.
        2    1    3    3  502    0  0.25826617655E+03 -0.18671442636E+04 -0.10158271501E+04  0.21412225288E+04  0.25500000920E-02 0.  1.
       -2    1    3    3    0  502 -0.25826617655E+03  0.18671442636E+04 -0.14288909157E+04  0.23653030182E+04  0.25500000920E-02 0. -1.
</event>
<event>
 5   0  0.1341932E-06  0.3745700E+04  0.7818609E-02  0.8057909E-01
       -2   -1    0    0    0  501  0.00000000000E+00  0.00000000000E+00  0.16057026648E+04  0.16057026648E+04  0.25500000920E-02 0.  1.
        2   -1    0    0  501    0  0.00000000000E+00  0.00000000000E+00 -0.21844433699E+04  0.21844433699E+04  0.25500000920E-02 0. -1.
    10030    2    1    2    0    0  0.00000000000E+00  0.00000000000E+00 -0.57874070509E+03  0.37901460347E+04  0.37456996891E+04 0.  0.
        2    1    3    3  502    0  0.19886949563E+03 -0.18320248599E+04  0.48814534307E+02  0.18434334874E+04  0.25500000920E-02 0.  1.
       -2    1    3    3    0  502 -0.19886949563E+03  0.18320248599E+04 -0.62755523939E+03  0.19467125474E+04  0.25500000920E-02 0. -1.
</event>
<event>
 5   0  0.1214844E-06  0.2844672E+04  0.7818609E-02  0.8289532E-01
        2   -1    0    0  501    0  0.00000000000E+00  0.00000000000E+00  0.13055150174E+04  0.13055150174E+04  0.25500000920E-02 0. -1.
       -2   -1    0    0    0  501  0.00000000000E+00  0.00000000000E+00 -0.15496108602E+04  0.15496108602E+04  0.25500000920E-02 0.  1.
    10030    2    1    2    0    0  0.00000000000E+00  0.00000000000E+00 -0.24409584277E+03  0.28551258776E+04  0.28446723882E+04 0.  0.
        4    1    3    3  502    0  0.49725244343E+03  0.12836007991E+04 -0.48134054070E+03  0.14582802656E+04  0.12699999809E+01 0.  1.
       -4    1    3    3    0  502 -0.49725244343E+03 -0.12836007991E+04  0.23724469793E+03  0.13968456120E+04  0.12699999809E+01 0. -1.
</event>
<event>
 5   0  0.1184616E-06  0.3195116E+04  0.7818609E-02  0.8190108E-01
        2   -1    0    0  501    0  0.00000000000E+00  0.00000000000E+00  0.16835393111E+04  0.16835393111E+04  0.25500000920E-02 0.  1.
       -2   -1    0    0    0  501  0.00000000000E+00  0.00000000000E+00 -0.15159677398E+04  0.15159677398E+04  0.25500000920E-02 0. -1.
    10030    2    1    2    0    0  0.00000000000E+00  0.00000000000E+00  0.16757157132E+03  0.31995070509E+04  0.31951158253E+04 0.  0.
        5    1    3    3  502    0  0.64297798719E+03 -0.14318677905E+04 -0.21411783911E+03  0.15841510662E+04  0.46999998093E+01 0. -1.
       -5    1    3    3    0  502 -0.64297798719E+03  0.14318677905E+04  0.38168941044E+03  0.16153559847E+04  0.46999998093E+01 0.  1.
</event>
<event>
 5   0  0.1341932E-06  0.2373330E+04  0.7818609E-02  0.8449556E-01
        2   -1    0    0  501    0  0.00000000000E+00  0.00000000000E+00  0.12443200949E+04  0.12443200949E+04  0.25500000920E-02 0. -1.
       -2   -1    0    0    0  501  0.00000000000E+00  0.00000000000E+00 -0.11316814601E+04  0.11316814601E+04  0.25500000920E-02 0.  1.
    10030    2    1    2    0    0  0.00000000000E+00  0.00000000000E+00  0.11263863480E+03  0.23760015550E+04  0.23733301345E+04 0.  0.
        2    1    3    3  502    0 -0.60240290341E+03  0.29783475743E+03  0.10354688689E+04  0.12344191262E+04  0.25500000920E-02 0. -1.
       -2    1    3    3    0  502  0.60240290341E+03 -0.29783475743E+03 -0.92283023406E+03  0.11415824288E+04  0.25500000920E-02 0.  1.
</event>
<event>
 5   0  0.1372748E-06  0.2018630E+04  0.7818609E-02  0.8597960E-01
       -2   -1    0    0    0  501  0.00000000000E+00  0.00000000000E+00  0.14129994169E+04  0.14129994169E+04  0.25500000920E-02 0. -1.
        2   -1    0    0  501    0  0.00000000000E+00  0.00000000000E+00 -0.72096053946E+03  0.72096053946E+03  0.25500000920E-02 0.  1.
    10030    2    1    2    0    0  0.00000000000E+00  0.00000000000E+00  0.69203887741E+03  0.21339599563E+04  0.20186300521E+04 0.  0.
        1    1    3    3  502    0 -0.65066948733E+03 -0.76956343045E+03  0.40505030928E+03  0.10861235695E+04  0.50400001928E-02 0. -1.
       -1    1    3    3    0  502  0.65066948733E+03  0.76956343045E+03  0.28698856813E+03  0.10478363868E+04  0.50400001928E-02 0.  1.
</event>
<event>
 5   0  0.1214844E-06  0.3828828E+04  0.7818609E-02  0.8039997E-01
       -2   -1    0    0    0  501  0.00000000000E+00  0.00000000000E+00  0.13675389022E+04  0.13675389022E+04  0.25500000920E-02 0.  1.
        2   -1    0    0  501    0  0.00000000000E+00  0.00000000000E+00 -0.26799832120E+04  0.26799832120E+04  0.25500000920E-02 0. -1.
    10030    2    1    2    0    0  0.00000000000E+00  0.00000000000E+00 -0.13124443098E+04  0.40475221143E+04  0.38288281757E+04 0.  0.
        4    1    3    3  502    0 -0.17342679408E+04  0.52127057187E+03 -0.13126330066E+04  0.22366079948E+04  0.12699999809E+01 0. -1.
       -4    1    3    3    0  502  0.17342679408E+04 -0.52127057187E+03  0.18869686677E+00  0.18109141194E+04  0.12699999809E+01 0.  1.
</event>
<event>
 5   0  0.1214844E-06  0.3685155E+04  0.7818609E-02  0.8071260E-01
        2   -1    0    0  501    0  0.00000000000E+00  0.00000000000E+00  0.20859607613E+04  0.20859607613E+04  0.25500000920E-02 0.  1.
       -2   -1    0    0    0  501  0.00000000000E+00  0.00000000000E+00 -0.16275911065E+04  0.16275911065E+04  0.25500000920E-02 0. -1.
    10030    2    1    2    0    0  0.00000000000E+00  0.00000000000E+00  0.45836965480E+03  0.37135518678E+04  0.36851546419E+04 0.  0.
        4    1    3    3  502    0 -0.77964927807E+02  0.17219287274E+04 -0.42696439768E+03  0.17757863841E+04  0.12699999809E+01 0. -1.
       -4    1    3    3    0  502  0.77964927807E+02 -0.17219287274E+04  0.88533405248E+03  0.19377654837E+04  0.12699999809E+01 0.  1.
</event>
<event>
 5   0  0.1184616E-06  0.3500929E+04  0.7818609E-02  0.8113570E-01
        2   -1    0    0  501    0  0.00000000000E+00  0.00000000000E+00  0.23527083749E+04  0.23527083749E+04  0.25500000920E-02 0.  1.
       -2   -1    0    0    0  501  0.00000000000E+00  0.00000000000E+00 -0.13023820669E+04  0.13023820669E+04  0.25500000920E-02 0. -1.
    10030    2    1    2    0    0  0.00000000000E+00  0.00000000000E+00  0.10503263080E+04  0.36550904418E+04  0.35009285603E+04 0.  0.
        5    1    3    3  502    0  0.20417337979E+03 -0.10431738046E+04 -0.92683512546E+03  0.14102991865E+04  0.46999998093E+01 0. -1.
       -5    1    3    3    0  502 -0.20417337979E+03  0.10431738046E+04  0.19771614335E+04  0.22447912553E+04  0.46999998093E+01 0.  1.
</event>
<event>
 5   0  0.1079205E-06  0.3736112E+04  0.7818609E-02  0.8060006E-01
        1   -1    0    0  501    0  0.00000000000E+00  0.00000000000E+00  0.17263767187E+04  0.17263767187E+04  0.50400001928E-02 0.  1.
       -1   -1    0    0    0  501  0.00000000000E+00  0.00000000000E+00 -0.20213620067E+04  0.20213620067E+04  0.50400001928E-02 0. -1.
    10030    2    1    2    0    0  0.00000000000E+00  0.00000000000E+00 -0.29498528797E+03  0.37477387254E+04  0.37361115125E+04 0.  0.
        4    1    3    3  502    0  0.26101076310E+03  0.21843712563E+03 -0.19899967073E+04  0.20188932375E+04  0.12699999809E+01 0. -1.
       -4    1    3    3    0  502 -0.26101076310E+03 -0.21843712563E+03  0.16950114194E+04  0.17288454879E+04  0.12699999809E+01 0.  1.
</event>
<event>
 5   0  0.1184616E-06  0.3851135E+04  0.7818609E-02  0.8035270E-01
       -2   -1    0    0    0  501  0.00000000000E+00  0.00000000000E+00  0.19669217267E+04  0.19669217267E+04  0.25500000920E-02 0. -1.
        2   -1    0    0  501    0  0.00000000000E+00  0.00000000000E+00 -0.18850828218E+04  0.18850828218E+04  0.25500000920E-02 0.  1.
    10030    2    1    2    0    0  0.00000000000E+00  0.00000000000E+00  0.81838904829E+02  0.38520045485E+04  0.38511350840E+04 0.  0.
        5    1    3    3  502    0  0.16156200136E+04  0.35154002048E+03 -0.94620753627E+03  0.19050299751E+04  0.46999998093E+01 0.  1.
       -5    1    3    3    0  502 -0.16156200136E+04 -0.35154002048E+03  0.10280464411E+04  0.19469745734E+04  0.46999998093E+01 0. -1.
</event>
<event>
 5   0  0.1337854E-06  0.2077116E+04  0.7818609E-02  0.8571392E-01
       -2   -1    0    0    0  501  0.00000000000E+00  0.00000000000E+00  0.88664035996E+03  0.88664035996E+03  0.25500000920E-02 0.  1.
        2   -1    0    0  501    0  0.00000000000E+00  0.00000000000E+00 -0.12165052168E+04  0.12165052168E+04  0.25500000920E-02 0. -1.
    10030    2    1    2    0    0  0.00000000000E+00  0.00000000000E+00 -0.32986485683E+03  0.21031455767E+04  0.20771159075E+04 0.  0.
        3    1    3    3  502    0 -0.85281697473E+03  0.34670305692E+03  0.32182346365E+03  0.97522825739E+03  0.10100000352E+00 0.  1.
       -3    1    3    3    0  502  0.85281697473E+03 -0.34670305692E+03 -0.65168832048E+03  0.11279173194E+04  0.10100000352E+00 0. -1.
</event>
<event>
 5   0  0.1184616E-06  0.3934193E+04  0.7818609E-02  0.8017955E-01
        2   -1    0    0  501    0  0.00000000000E+00  0.00000000000E+00  0.14003210305E+04  0.14003210305E+04  0.25500000920E-02 0. -1.
       -2   -1    0    0    0  501  0.00000000000E+00  0.00000000000E+00 -0.27632724779E+04  0.27632724779E+04  0.25500000920E-02 0.  1.
    10030    2    1    2    0    0  0.00000000000E+00  0.00000000000E+00 -0.13629514474E+04  0.41635935085E+04  0.39341929612E+04 0.  0.
        5    1    3    3  502    0 -0.72762208131E+03 -0.18174990296E+04 -0.47870557539E+03  0.20154199894E+04  0.46999998093E+01 0. -1.
       -5    1    3    3    0  502  0.72762208131E+03  0.18174990296E+04 -0.88424587200E+03  0.21481735191E+04  0.46999998093E+01 0.  1.
</event>
<event>
 5   0  0.4795023E-07  0.2884159E+04  0.7818609E-02  0.8277606E-01
       -1   -1    0    0    0  501  0.00000000000E+00  0.00000000000E+00  0.70916787504E+03  0.70916787506E+03  0.50400001928E-02 0. -1.
        1   -1    0    0  501    0  0.00000000000E+00  0.00000000000E+00 -0.29324419446E+04  0.29324419446E+04  0.50400001928E-02 0.  1.
    10030    2    1    2    0    0  0.00000000000E+00  0.00000000000E+00 -0.22232740695E+04  0.36416098196E+04  0.28841592345E+04 0.  0.
        3    1    3    3  502    0  0.12080210813E+04 -0.78129510375E+03 -0.12369911602E+04  0.18973360569E+04  0.10100000352E+00 0. -1.
       -3    1    3    3    0  502 -0.12080210813E+04  0.78129510375E+03 -0.98628290932E+03  0.17442737628E+04  0.10100000352E+00 0.  1.
</event>
<event>
 5   0  0.1372748E-06  0.3421847E+04  0.7818609E-02  0.8132565E-01
       -2   -1    0    0    0  501  0.00000000000E+00  0.00000000000E+00  0.14579354507E+04  0.14579354507E+04  0.25500000920E-02 0.  1.
        2   -1    0    0  501    0  0.00000000000E+00  0.00000000000E+00 -0.20078111909E+04  0.20078111909E+04  0.25500000920E-02 0. -1.
    10030    2    1    2    0    0  0.00000000000E+00  0.00000000000E+00 -0.54987574018E+03  0.34657466416E+04  0.34218469361E+04 0.  0.
        1    1    3    3  502    0  0.15027518086E+03 -0.91113113278E+03  0.11838585308E+04  0.15014205247E+04  0.50400001928E-02 0.  1.
       -1    1    3    3    0  502 -0.15027518086E+03  0.91113113278E+03 -0.17337342710E+04  0.19643261169E+04  0.50400001928E-02 0. -1.
</event>
<event>
 5   0  0.1372748E-06  0.3766322E+04  0.7818609E-02  0.8053421E-01
       -2   -1    0    0    0  501  0.00000000000E+00  0.00000000000E+00  0.14452141065E+04  0.14452141065E+04  0.25500000920E-02 0.  1.
        2   -1    0    0  501    0  0.00000000000E+00  0.00000000000E+00 -0.24538206766E+04  0.24538206766E+04  0.25500000920E-02 0. -1.
    10030    2    1    2    0    0  0.00000000000E+00  0.00000000000E+00 -0.10086065701E+04  0.38990347831E+04  0.37663224804E+04 0.  0.
        1    1    3    3  502    0 -0.17869564866E+04  0.58288288932E+03 -0.62382854946E+03  0.19804363173E+04  0.50400001928E-02 0. -1.
       -1    1    3    3    0  502  0.17869564866E+04 -0.58288288932E+03 -0.38477802064E+03  0.19185984658E+04  0.50400001928E-02 0.  1.
</event>
<event>
 5   0  0.8030324E-07  0.2582521E+04  0.7818609E-02  0.8374163E-01
        1   -1    0    0  501    0  0.00000000000E+00  0.00000000000E+00  0.14580932234E+04  0.14580932234E+04  0.50400001928E-02 0. -1.
       -1   -1    0    0    0  501  0.00000000000E+00  0.00000000000E+00 -0.11435162921E+04  0.11435162921E+04  0.50400001928E-02 0.  1.
    10030    2    1    2    0    0  0.00000000000E+00  0.00000000000E+00  0.31457693131E+03  0.26016095156E+04  0.25825207503E+04 0.  0.
        1    1    3    3  502    0 -0.64922800901E+03 -0.72311098384E+03  0.10138478665E+04  0.14043767298E+04  0.50400001928E-02 0. -1.
       -1    1    3    3    0  502  0.64922800901E+03  0.72311098384E+03 -0.69927093520E+03  0.11972327858E+04  0.50400001928E-02 0.  1.
</event>
<event>
 5   0  0.1341932E-06  0.2806737E+04  0.7818609E-02  0.8301180E-01
        2   -1    0    0  501    0  0.00000000000E+00  0.00000000000E+00  0.12101252194E+04  0.12101252194E+04  0.25500000920E-02 0. -1.
       -2   -1    0    0    0  501  0.00000000000E+00  0.00000000000E+00 -0.16274706332E+04  0.16274706332E+04  0.25500000920E-02 0.  1.
    10030    2    1    2    0    0  0.00000000000E+00  0.00000000000E+00 -0.41734541380E+03  0.28375958525E+04  0.28067370785E+04 0.  0.
        2    1    3    3  502    0  0.13185012740E+04 -0.36554744606E+03 -0.52414951771E+03  0.14651973457E+04  0.25500000920E-02 0. -1.
       -2    1    3    3    0  502 -0.13185012740E+04  0.36554744606E+03  0.10680410391E+03  0.13723985068E+04  0.25500000920E-02 0.  1.
</event>
<event>
 5   0  0.1184616E-06  0.3802681E+04  0.7818609E-02  0.8045580E-01
       -2   -1    0    0    0  501  0.00000000000E+00  0.00000000000E+00  0.18878561658E+04  0.18878561658E+04  0.25500000920E-02 0. -1.
        2   -1    0    0  501    0  0.00000000000E+00  0.00000000000E+00 -0.19149209275E+04  0.19149209275E+04  0.25500000920E-02 0.  1.
    10030    2    1    2    0    0  0.00000000000E+00  0.00000000000E+00 -0.27064761731E+02  0.38027770934E+04  0.38026807808E+04 0.  0.
        5    1    3    3  502    0 -0.10848662497E+04 -0.15099146734E+04 -0.41140686834E+03  0.19042202610E+04  0.46999998093E+01 0.  1.
       -5    1    3    3    0  502  0.10848662497E+04  0.15099146734E+04  0.38434210661E+03  0.18985568324E+04  0.46999998093E+01 0. -1.
</event>
<event>
 5   0  0.1184616E-06  0.3136181E+04  0.7818609E-02  0.8205878E-01
        2   -1    0    0  501    0  0.00000000000E+00  0.00000000000E+00  0.16576377924E+04  0.16576377924E+04  0.25500000920E-02 0.  1.
       -2   -1    0    0    0  501  0.00000000000E+00  0.00000000000E+00 -0.14833803552E+04  0.14833803552E+04  0.25500000920E-02 0. -1.
    10030    2    1    2    0    0  0.00000000000E+00  0.00000000000E+00  0.17425743718E+03  0.31410181475E+04  0.31361806945E+04 0.  0.
        5    1    3    3  502    0 -0.82903536464E+03 -0.10820004307E+04 -0.68921896363E+03  0.15274388491E+04  0.46999998093E+01 0. -1.
       -5    1    3    3    0  502  0.82903536464E+03  0.10820004307E+04  0.86347640081E+03  0.16135792985E+04  0.46999998093E+01 0.  1.
</event>
<event>
 5   0  0.4795023E-07  0.2387887E+04  0.7818609E-02  0.8444053E-01
        1   -1    0    0  501    0  0.00000000000E+00  0.00000000000E+00  0.21498098399E+04  0.21498098399E+04  0.50400001928E-02 0. -1.
       -1   -1    0    0    0  501  0.00000000000E+00  0.00000000000E+00 -0.66308213792E+03  0.66308213794E+03  0.50400001928E-02 0.  1.
    10030    2    1    2    0    0  0.00000000000E+00  0.00000000000E+00  0.14867277020E+04  0.28128919778E+04  0.23878865172E+04 0.  0.
        3    1    3    3  502    0  0.45573539183E+03  0.10830876160E+04  0.49423496967E+03  0.12747712527E+04  0.10100000352E+00 0. -1.
       -3    1    3    3    0  502 -0.45573539183E+03 -0.10830876160E+04  0.99249273229E+03  0.15381207251E+04  0.10100000352E+00 0.  1.
</event>
<event>
 5   0  0.1079205E-06  0.2987261E+04  0.7818609E-02  0.8247378E-01
        1   -1    0    0  501    0  0.00000000000E+00  0.00000000000E+00  0.16857086106E+04  0.16857086106E+04  0.50400001928E-02 0.  1.
       -1   -1    0    0    0  501  0.00000000000E+00  0.00000000000E+00 -0.13234384335E+04  0.13234384335E+04  0.50400001928E-02 0. -1.
    10030    2    1    2    0    0  0.00000000000E+00  0.00000000000E+00  0.36227017710E+03  0.30091470442E+04  0.29872606602E+04 0.  0.
        4    1    3    3  502    0 -0.11369449417E+04  0.47831046134E+02 -0.79342322402E+03  0.13872467822E+04  0.12699999809E+01 0. -1.
       -4    1    3    3    0  502  0.11369449417E+04 -0.47831046134E+02  0.11556934011E+04  0.16219002620E+04  0.12699999809E+01 0.  1.
</event>
<event>
 5   0  0.1337854E-06  0.2627966E+04  0.7818609E-02  0.8358763E-01
       -2   -1    0    0    0  501  0.00000000000E+00  0.00000000000E+00  0.90436184442E+03  0.90436184442E+03  0.25500000920E-02 0.  1.
        2   -1    0    0  501    0  0.00000000000E+00  0.00000000000E+00 -0.19091380005E+04  0.19091380005E+04  0.25500000920E-02 0. -1.
    10030    2    1    2    0    0  0.00000000000E+00  0.00000000000E+00 -0.10047761561E+04  0.28134998449E+04  0.26279661820E+04 0.  0.
        3    1    3    3  502    0 -0.19954938791E+03  0.41200077721E+03 -0.18210031831E+04  0.18776626964E+04  0.10100000352E+00 0. -1.
       -3    1    3    3    0  502  0.19954938791E+03 -0.41200077721E+03  0.81622702700E+03  0.93583714847E+03  0.10100000352E+00 0.  1.
</event>
<event>
 5   0  0.1372748E-06  0.3824946E+04  0.7818609E-02  0.8040823E-01
        2   -1    0    0  501    0  0.00000000000E+00  0.00000000000E+00  0.26065311724E+04  0.26065311724E+04  0.25500000920E-02 0.  1.
       -2   -1    0    0    0  501  0.00000000000E+00  0.00000000000E+00 -0.14032264651E+04  0.14032264651E+04  0.25500000920E-02 0. -1.
    10030    2    1    2    0    0  0.00000000000E+00  0.00000000000E+00  0.12033047073E+04  0.40097576374E+04  0.38249462862E+04 0.  0.
        1    1    3    3  502    0 -0.18158550833E+04  0.44991893295E+02 -0.25763245429E+02  0.18165950839E+04  0.50400001928E-02 0.  1.
       -1    1    3    3    0  502  0.18158550833E+04 -0.44991893295E+02  0.12290679527E+04  0.21931625536E+04  0.50400001928E-02 0. -1.
</event>
<event>
 5   0  0.1184616E-06  0.2442328E+04  0.7818609E-02  0.8423825E-01
       -2   -1    0    0    0  501  0.00000000000E+00  0.00000000000E+00  0.86973567234E+03  0.86973567234E+03  0.25500000920E-02 0. -1.
        2   -1    0    0  501    0  0.00000000000E+00  0.00000000000E+00 -0.17145913405E+04  0.17145913405E+04  0.25500000920E-02 0.  1.
    10030    2    1    2    0    0  0.00000000000E+00  0.00000000000E+00 -0.84485566811E+03  0.25843270128E+04  0.24423277849E+04 0.  0.
        5    1    3    3  502    0  0.11155503977E+04  0.43919918245E+03 -0.17683300203E+03  0.12118748336E+04  0.46999998093E+01 0. -1.
       -5    1    3    3    0  502 -0.11155503977E+04 -0.43919918245E+03 -0.66802266608E+03  0.13724521792E+04  0.46999998093E+01 0.  1.
</event>
<event>
 5   0  0.1184616E-06  0.3792644E+04  0.7818609E-02  0.8047735E-01
        2   -1    0    0  501    0  0.00000000000E+00  0.00000000000E+00  0.13311378073E+04  0.13311378073E+04  0.25500000920E-02 0.  1.
       -2   -1    0    0    0  501  0.00000000000E+00  0.00000000000E+00 -0.27014761362E+04  0.27014761362E+04  0.25500000920E-02 0. -1.
    10030    2    1    2    0    0  0.00000000000E+00  0.00000000000E+00 -0.13703383289E+04  0.40326139435E+04  0.37926439434E+04 0.  0.
        5    1    3    3  502    0 -0.16183681820E+04  0.34875541418E+03  0.29815326388E+03  0.16821603284E+04  0.46999998093E+01 0.  1.
       -5    1    3    3    0  502  0.16183681820E+04 -0.34875541418E+03 -0.16684915928E+04  0.23504536151E+04  0.46999998093E+01 0. -1.
</event>
<event>
 5   0  0.1337854E-06  0.3864922E+04  0.7818609E-02  0.8032364E-01
       -2   -1    0    0    0  501  0.00000000000E+00  0.00000000000E+00  0.12293216853E+04  0.12293216853E+04  0.25500000920E-02 0. -1.
        2   -1    0    0  501    0  0.00000000000E+00  0.00000000000E+00 -0.30377778024E+04  0.30377778024E+04  0.25500000920E-02 0.  1.
    10030    2    1    2    0    0  0.00000000000E+00  0.00000000000E+00 -0.18084561171E+04  0.42670994877E+04  0.38649223163E+04 0.  0.
        3    1    3    3  502    0  0.18337900584E+03  0.95606983978E+03 -0.27472809032E+04  0.29146611758E+04  0.10100000352E+00 0.  1.
       -3    1    3    3    0  502 -0.18337900584E+03 -0.95606983978E+03  0.93882478613E+03  0.13524383119E+04  0.10100000352E+00 0. -1.
</event>
<event>
 5   0  0.1214844E-06  0.3265249E+04  0.7818609E-02  0.8171795E-01
       -2   -1    0    0    0  501  0.00000000000E+00  0.00000000000E+00  0.23402294878E+04  0.23402294878E+04  0.25500000920E-02 0. -1.
        2   -1    0    0  501    0  0.00000000000E+00  0.00000000000E+00 -0.11389746695E+04  0.11389746696E+04  0.25500000920E-02 0.  1.
    10030    2    1    2    0    0  0.00000000000E+00  0.00000000000E+00  0.12012548183E+04  0.34792041574E+04  0.32652486016E+04 0.  0.
        4    1    3    3  502    0  0.95313486153E+03  0.44622195117E+03  0.19305633362E+04  0.21987852332E+04  0.12699999809E+01 0. -1.
       -4    1    3    3    0  502 -0.95313486153E+03 -0.44622195117E+03 -0.72930851794E+03  0.12804189241E+04  0.12699999809E+01 0.  1.
</event>
<event>
 5   0  0.1337854E-06  0.1994541E+04  0.7818609E-02  0.8609177E-01
        2   -1    0    0  501    0  0.00000000000E+00  0.00000000000E+00  0.10001152837E+04  0.10001152837E+04  0.25500000920E-02 0. -1.
       -2   -1    0    0    0  501  0.00000000000E+00  0.00000000000E+00 -0.99443370102E+03  0.99443370102E+03  0.25500000920E-02 0.  1.
    10030    2    1    2    0    0  0.00000000000E+00  0.00000000000E+00  0.56815826701E+01  0.19945489847E+04  0.19945408925E+04 0.  0.
        3    1    3    3  502    0 -0.58829691313E+03 -0.78213357625E+03 -0.18879021263E+03  0.99672862088E+03  0.10100000352E+00 0.  1.
       -3    1    3    3    0  502  0.58829691313E+03  0.78213357625E+03  0.19447179530E+03  0.99782036383E+03  0.10100000352E+00 0. -1.
</event>
<event>
 5   0  0.1214844E-06  0.2860796E+04  0.7818609E-02  0.8284638E-01
       -2   -1    0    0    0  501  0.00000000000E+00  0.00000000000E+00  0.13824522027E+04  0.13824522027E+04  0.25500000920E-02 0. -1.
        2   -1    0    0  501    0  0.00000000000E+00  0.00000000000E+00 -0.14800069402E+04  0.14800069402E+04  0.25500000920E-02 0.  1.
    10030    2    1    2    0    0  0.00000000000E+00  0.00000000000E+00 -0.97554737434E+02  0.28624591429E+04  0.28607962909E+04 0.  0.
        4    1    3    3  502    0  0.29399900299E+03  0.14933587391E+03 -0.14414558709E+04  0.14786930910E+04  0.12699999809E+01 0.  1.
       -4    1    3    3    0  502 -0.29399900299E+03 -0.14933587391E+03  0.13439011334E+04  0.13837660519E+04  0.12699999809E+01 0. -1.
</event>
<event>
 5   0  0.1372748E-06  0.3808673E+04  0.7818609E-02  0.8044296E-01
        2   -1    0    0  501    0  0.00000000000E+00  0.00000000000E+00  0.17837311109E+04  0.17837311109E+04  0.25500000920E-02 0.  1.
       -2   -1    0    0    0  501  0.00000000000E+00  0.00000000000E+00 -0.20330969619E+04  0.20330969619E+04  0.25500000920E-02 0. -1.
    10030    2    1    2    0    0  0.00000000000E+00  0.00000000000E+00 -0.24936585096E+03  0.38168280728E+04  0.38086734186E+04 0.  0.
        1    1    3    3  502    0  0.14874981774E+04  0.42289178506E+03  0.98900651579E+03  0.18356530658E+04  0.50400001928E-02 0.  1.
       -1    1    3    3    0  502 -0.14874981774E+04 -0.42289178506E+03 -0.12383723668E+04  0.19811750070E+04  0.50400001928E-02 0. -1.
</event>
<event>
 5   0  0.8030324E-07  0.2323089E+04  0.7818609E-02  0.8468873E-01
       -1   -1    0    0    0  501  0.00000000000E+00  0.00000000000E+00  0.91983224176E+03  0.91983224178E+03  0.50400001928E-02 0. -1.
        1   -1    0    0  501    0  0.00000000000E+00  0.00000000000E+00 -0.14667735137E+04  0.14667735137E+04  0.50400001928E-02 0.  1.
    10030    2    1    2    0    0  0.00000000000E+00  0.00000000000E+00 -0.54694127192E+03  0.23866057555E+04  0.23230889516E+04 0.  0.
        1    1    3    3  502    0  0.18660434380E+03 -0.10470704002E+03 -0.14463513357E+04  0.14620933389E+04  0.50400001928E-02 0.  1.
       -1    1    3    3    0  502 -0.18660434380E+03  0.10470704002E+03  0.89941006383E+03  0.92451241652E+03  0.50400001928E-02 0. -1.
</event>
<event>
 5   0  0.1337854E-06  0.3839283E+04  0.7818609E-02  0.8037777E-01
       -2   -1    0    0    0  501  0.00000000000E+00  0.00000000000E+00  0.16833729488E+04  0.16833729488E+04  0.25500000920E-02 0. -1.
        2   -1    0    0  501    0  0.00000000000E+00  0.00000000000E+00 -0.21890713095E+04  0.21890713095E+04  0.25500000920E-02 0.  1.
    10030    2    1    2    0    0  0.00000000000E+00  0.00000000000E+00 -0.50569836067E+03  0.38724442583E+04  0.38392829671E+04 0.  0.
        3    1    3    3  502    0  0.12963538338E+04 -0.11285609770E+04  0.60942680056E+03  0.18236184296E+04  0.10100000352E+00 0. -1.
       -3    1    3    3    0  502 -0.12963538338E+04  0.11285609770E+04 -0.11151251612E+04  0.20488258288E+04  0.10100000352E+00 0.  1.
</event>
<event>
 5   0  0.1184616E-06  0.3795923E+04  0.7818609E-02  0.8047030E-01
       -2   -1    0    0    0  501  0.00000000000E+00  0.00000000000E+00  0.17622378624E+04  0.17622378624E+04  0.25500000920E-02 0.  1.
        2   -1    0    0  501    0  0.00000000000E+00  0.00000000000E+00 -0.20441383335E+04  0.20441383335E+04  0.25500000920E-02 0. -1.
    10030    2    1    2    0    0  0.00000000000E+00  0.00000000000E+00 -0.28190047102E+03  0.38063761959E+04  0.37959230589E+04 0.  0.
        5    1    3    3  502    0  0.13380923058E+04  0.34983935859E+02 -0.14902116133E+04  0.20031144842E+04  0.46999998093E+01 0. -1.
       -5    1    3    3    0  502 -0.13380923058E+04 -0.34983935859E+02  0.12083111422E+04  0.18032617117E+04  0.46999998093E+01 0.  1.
</event>
<event>
 5   0  0.5284458E-07  0.2392515E+04  0.7818609E-02  0.8442311E-01
        1   -1    0    0  501    0  0.00000000000E+00  0.00000000000E+00  0.17747589792E+04  0.17747589792E+04  0.50400001928E-02 0.  1.
       -1   -1    0    0    0  501  0.00000000000E+00  0.00000000000E+00 -0.80632492273E+03  0.80632492275E+03  0.50400001928E-02 0. -1.
    10030    2    1    2    0    0  0.00000000000E+00  0.00000000000E+00  0.96843405646E+03  0.25810839019E+04  0.23925153264E+04 0.  0.
        5    1    3    3  502    0  0.71572414005E+02  0.39258041023E+03 -0.73239300709E+03  0.83406450336E+03  0.46999998093E+01 0. -1.
       -5    1    3    3    0  502 -0.71572414005E+02 -0.39258041023E+03  0.17008270635E+04  0.17470193986E+04  0.46999998093E+01 0.  1.
</event>
<event>
 5   0  0.1079205E-06  0.3223964E+04  0.7818609E-02  0.8182517E-01
        1   -1    0    0  501    0  0.00000000000E+00  0.00000000000E+00  0.18088203991E+04  0.18088203991E+04  0.50400001928E-02 0. -1.
       -1   -1    0    0    0  501  0.00000000000E+00  0.00000000000E+00 -0.14365639396E+04  0.14365639396E+04  0.50400001928E-02 0.  1.
    10030    2    1    2    0    0  0.00000000000E+00  0.00000000000E+00  0.37225645951E+03  0.32453843387E+04  0.32239641180E+04 0.  0.
        4    1    3    3  502    0  0.10153406501E+04  0.12381532038E+04 -0.96829933323E+00  0.16012315704E+04  0.12699999809E+01 0. -1.
       -4    1    3    3    0  502 -0.10153406501E+04 -0.12381532038E+04  0.37322475884E+03  0.16441527682E+04  0.12699999809E+01 0.  1.
</event>
<event>
 5   0  0.1214844E-06  0.3936709E+04  0.7818609E-02  0.8017437E-01
       -2   -1    0    0    0  501  0.00000000000E+00  0.00000000000E+00  0.29424701525E+04  0.29424701525E+04  0.25500000920E-02 0. -1.
        2   -1    0    0  501    0  0.00000000000E+00  0.00000000000E+00 -0.13167233559E+04  0.13167233559E+04  0.25500000920E-02 0.  1.
    10030    2    1    2    0    0  0.00000000000E+00  0.00000000000E+00  0.16257467966E+04  0.42591935085E+04  0.39367088660E+04 0.  0.
        4    1    3    3  502    0 -0.52829419161E+03  0.17613108255E+04  0.53133996714E+02  0.18396019710E+04  0.12699999809E+01 0. -1.
       -4    1    3    3    0  502  0.52829419161E+03 -0.17613108255E+04  0.15726127999E+04  0.24195915375E+04  0.12699999809E+01 0.  1.
</event>
<event>
 5   0  0.5284458E-07  0.3875859E+04  0.7818609E-02  0.8030069E-01
       -1   -1    0    0    0  501  0.00000000000E+00  0.00000000000E+00  0.24665229184E+04  0.24665229184E+04  0.50400001928E-02 0. -1.
        1   -1    0    0  501    0  0.00000000000E+00  0.00000000000E+00 -0.15226170939E+04  0.15226170939E+04  0.50400001928E-02 0.  1.
    10030    2    1    2    0    0  0.00000000000E+00  0.00000000000E+00  0.94390582452E+03  0.39891400123E+04  0.38758585929E+04 0.  0.
        5    1    3    3  502    0  0.58442102929E+03 -0.11969098530E+04  0.19207186708E+04  0.23373753310E+04  0.46999998093E+01 0. -1.
       -5    1    3    3    0  502 -0.58442102929E+03  0.11969098530E+04 -0.97681284633E+03  0.16517646813E+04  0.46999998093E+01 0.  1.
</event>
<event>
 5   0  0.1184616E-06  0.3349699E+04  0.7818609E-02  0.8150363E-01
        2   -1    0    0  501    0  0.00000000000E+00  0.00000000000E+00  0.19884226384E+04  0.19884226384E+04  0.25500000920E-02 0. -1.
       -2   -1    0    0    0  501  0.00000000000E+00  0.00000000000E+00 -0.14107266483E+04  0.14107266483E+04  0.25500000920E-02 0.  1.
    10030    2    1    2    0    0  0.00000000000E+00  0.00000000000E+00  0.57769599002E+03  0.33991492867E+04  0.33496989740E+04 0.  0.
        5    1    3    3  502    0  0.12263094847E+03  0.38175180713E+02  0.19834113291E+04  0.19875709508E+04  0.46999998093E+01 0. -1.
       -5    1    3    3    0  502 -0.12263094847E+03 -0.38175180713E+02 -0.14057153391E+04  0.14115783359E+04  0.46999998093E+01 0.  1.
</event>
<event>
 5   0  0.1341932E-06  0.2699423E+04  0.7818609E-02  0.8335192E-01
        2   -1    0    0  501    0  0.00000000000E+00  0.00000000000E+00  0.16749785678E+04  0.16749785678E+04  0.25500000920E-02 0. -1.
       -2   -1    0    0    0  501  0.00000000000E+00  0.00000000000E+00 -0.10876088723E+04  0.10876088723E+04  0.25500000920E-02 0.  1.
    10030    2    1    2    0    0  0.00000000000E+00  0.00000000000E+00  0.58736969541E+03  0.27625874401E+04  0.26994233097E+04 0.  0.
        2    1    3    3  502    0  0.76701627659E+03 -0.84538776080E+03  0.10307646573E+04  0.15380085219E+04  0.25500000920E-02 0. -1.
       -2    1    3    3    0  502 -0.76701627659E+03  0.84538776080E+03 -0.44339496190E+03  0.12245789182E+04  0.25500000920E-02 0.  1.
</event>
<event>
 5   0  0.1184616E-06  0.3800640E+04  0.7818609E-02  0.8046018E-01
       -2   -1    0    0    0  501  0.00000000000E+00  0.00000000000E+00  0.25858335160E+04  0.25858335160E+04  0.25500000920E-02 0. -1.
        2   -1    0    0  501    0  0.00000000000E+00  0.00000000000E+00 -0.13965383369E+04  0.13965383369E+04  0.25500000920E-02 0.  1.
    10030    2    1    2    0    0  0.00000000000E+00  0.00000000000E+00  0.11892951791E+04  0.39823718529E+04  0.38006397556E+04 0.  0.
        5    1    3    3  502    0  0.37904505870E+03  0.12444537193E+04 -0.85681548954E+03  0.15577211204E+04  0.46999998093E+01 0.  1.
       -5    1    3    3    0  502 -0.37904505870E+03 -0.12444537193E+04  0.20461106687E+04  0.24246507325E+04  0.46999998093E+01 0. -1.
</event>
<event>
 5   0  0.1079205E-06  0.3921892E+04  0.7818609E-02  0.8020491E-01
        1   -1    0    0  501    0  0.00000000000E+00  0.00000000000E+00  0.16858364950E+04  0.16858364950E+04  0.50400001928E-02 0. -1.
       -1   -1    0    0    0  501  0.00000000000E+00  0.00000000000E+00 -0.22809501994E+04  0.22809501994E+04  0.50400001928E-02 0.  1.
    10030    2    1    2    0    0  0.00000000000E+00  0.00000000000E+00 -0.59511370434E+03  0.39667866944E+04  0.39218919360E+04 0.  0.
        4    1    3    3  502    0 -0.92334378082E+03  0.10417055007E+03  0.14490260202E+04  0.17213637794E+04  0.12699999809E+01 0. -1.
       -4    1    3    3    0  502  0.92334378082E+03 -0.10417055007E+03 -0.20441397245E+04  0.22454229150E+04  0.12699999809E+01 0.  1.
</event>
<event>
 5   0  0.1337854E-06  0.3586222E+04  0.7818609E-02  0.8093655E-01
       -2   -1    0    0    0  501  0.00000000000E+00  0.00000000000E+00  0.13493801122E+04  0.13493801122E+04  0.25500000920E-02 0.  1.
        2   -1    0    0  501    0  0.00000000000E+00  0.00000000000E+00 -0.23827585967E+04  0.23827585967E+04  0.25500000920E-02 0. -1.
    10030    2    1    2    0    0  0.00000000000E+00  0.00000000000E+00 -0.10333784845E+04  0.37321387089E+04  0.35862220024E+04 0.  0.
        3    1    3    3  502    0  0.35117654112E+03  0.61673657405E+03 -0.22303705589E+04  0.23405644202E+04  0.10100000352E+00 0. -1.
       -3    1    3    3    0  502 -0.35117654112E+03 -0.61673657405E+03  0.11969920744E+04  0.13915742888E+04  0.10100000352E+00 0.  1.
</event>
<event>
 5   0  0.4255250E-07  0.3777722E+04  0.7818609E-02  0.8050953E-01
       -1   -1    0    0    0  501  0.00000000000E+00  0.00000000000E+00  0.13596227479E+04  0.13596227479E+04  0.50400001928E-02 0. -1.
        1   -1    0    0  501    0  0.00000000000E+00  0.00000000000E+00 -0.26241078335E+04  0.26241078335E+04  0.50400001928E-02 0.  1.
    10030    2    1    2    0    0  0.00000000000E+00  0.00000000000E+00 -0.12644850856E+04  0.39837305814E+04  0.37777224373E+04 0.  0.
        2    1    3    3  502    0  0.11488417343E+04 -0.14650302517E+04 -0.96844779431E+03  0.20985809728E+04  0.25500000920E-02 0.  1.
       -2    1    3    3    0  502 -0.11488417343E+04  0.14650302517E+04 -0.29603729132E+03  0.18851496086E+04  0.25500000920E-02 0. -1.
</event>
<event>
 5   0  0.1214844E-06  0.4004314E+04  0.7818609E-02  0.8003677E-01
       -2   -1    0    0    0  501  0.00000000000E+00  0.00000000000E+00  0.22729905996E+04  0.22729905996E+04  0.25500000920E-02 0. -1.
        2   -1    0    0  501    0  0.00000000000E+00  0.00000000000E+00 -0.17635936175E+04  0.17635936175E+04  0.25500000920E-02 0.  1.
    10030    2    1    2    0    0  0.00000000000E+00  0.00000000000E+00  0.50939698206E+03  0.40365842170E+04  0.40043135312E+04 0.  0.
        4    1    3    3  502    0  0.24792984997E+03 -0.13333124419E+04 -0.12300730919E+04  0.18309212715E+04  0.12699999809E+01 0.  1.
       -4    1    3    3    0  502 -0.24792984997E+03  0.13333124419E+04  0.17394700739E+04  0.22056629455E+04  0.12699999809E+01 0. -1.
</event>
<event>
 5   0  0.1079205E-06  0.3786627E+04  0.7818609E-02  0.8049031E-01
       -1   -1    0    0    0  501  0.00000000000E+00  0.00000000000E+00  0.21500038968E+04  0.21500038968E+04  0.50400001928E-02 0.  1.
        1   -1    0    0  501    0  0.00000000000E+00  0.00000000000E+00 -0.16672692807E+04  0.16672692807E+04  0.50400001928E-02 0. -1.
    10030    2    1    2    0    0  0.00000000000E+00  0.00000000000E+00  0.48273461614E+03  0.38172731775E+04  0.37866267049E+04 0.  0.
        4    1    3    3  502    0  0.76929300493E+03 -0.68614266078E+02 -0.15012392434E+04  0.16882655371E+04  0.12699999809E+01 0. -1.
       -4    1    3    3    0  502 -0.76929300493E+03  0.68614266078E+02  0.19839738595E+04  0.21290076404E+04  0.12699999809E+01 0.  1.
</event>
<event>
 5   0  0.4795023E-07  0.3528216E+04  0.7818609E-02  0.8107135E-01
       -1   -1    0    0    0  501  0.00000000000E+00  0.00000000000E+00  0.17852110888E+04  0.17852110888E+04  0.50400001928E-02 0. -1.
        1   -1    0    0  501    0  0.00000000000E+00  0.00000000000E+00 -0.17432545501E+04  0.17432545501E+04  0.50400001928E-02 0.  1.
    10030    2    1    2    0    0  0.00000000000E+00  0.00000000000E+00  0.41956538641E+02  0.35284656389E+04  0.35282161801E+04 0.  0.
        3    1    3    3  502    0  0.17578148728E+03  0.14020354269E+04 -0.10352568448E+04  0.17516732613E+04  0.10100000352E+00 0. -1.
       -3    1    3    3    0  502 -0.17578148728E+03 -0.14020354269E+04  0.10772133834E+04  0.17767923776E+04  0.10100000352E+00 0.  1.
</event>
<event>
 5   0  0.5284458E-07  0.3768512E+04  0.7818609E-02  0.8052946E-01
       -1   -1    0    0    0  501  0.00000000000E+00  0.00000000000E+00  0.12895543050E+04  0.12895543050E+04  0.50400001928E-02 0. -1.
        1   -1    0    0  501    0  0.00000000000E+00  0.00000000000E+00 -0.27532159115E+04  0.27532159115E+04  0.50400001928E-02 0.  1.
    10030    2    1    2    0    0  0.00000000000E+00  0.00000000000E+00 -0.14636616065E+04  0.40427702165E+04  0.37685124022E+04 0.  0.
        5    1    3    3  502    0 -0.30959383308E+03  0.10501235106E+04  0.91333065745E+03  0.14257639036E+04  0.46999998093E+01 0. -1.
       -5    1    3    3    0  502  0.30959383308E+03 -0.10501235106E+04 -0.23769922640E+04  0.26170063129E+04  0.46999998093E+01 0.  1.
</event>
<event>
 5   0  0.1341932E-06  0.3738581E+04  0.7818609E-02  0.8059465E-01
        2   -1    0    0  501    0  0.00000000000E+00  0.00000000000E+00  0.14186484369E+04  0.14186484369E+04  0.25500000920E-02 0.  1.
       -2   -1    0    0    0  501  0.00000000000E+00  0.00000000000E+00 -0.24630821798E+04  0.24630821798E+04  0.25500000920E-02 0. -1.
    10030    2    1    2    0    0  0.00000000000E+00  0.00000000000E+00 -0.10444337429E+04  0.38817306167E+04  0.37385813804E+04 0.  0.
        2    1    3    3  502    0 -0.45249396906E+03 -0.15454130840E+04  0.46344512380E+03  0.16756592061E+04  0.25500000920E-02 0.  1.
       -2    1    3    3    0  502  0.45249396906E+03  0.15454130840E+04 -0.15078788667E+04  0.22060714106E+04  0.25500000920E-02 0. -1.
</event>
<event>
 5   0  0.1176004E-06  0.1900731E+04  0.7818609E-02  0.8654493E-01
        1   -1    0    0  501    0  0.00000000000E+00  0.00000000000E+00  0.88428579147E+03  0.88428579149E+03  0.50400001928E-02 0.  1.
       -1   -1    0    0    0  501  0.00000000000E+00  0.00000000000E+00 -0.10213830136E+04  0.10213830136E+04  0.50400001928E-02 0. -1.
    10030    2    1    2    0    0  0.00000000000E+00  0.00000000000E+00 -0.13709722212E+03  0.19056688051E+04  0.19007308979E+04 0.  0.
        4    1    3    3  502    0  0.51694865115E+03  0.13144386608E+03  0.72005660393E+03  0.89610073296E+03  0.12699999809E+01 0.  1.
       -4    1    3    3    0  502 -0.51694865115E+03 -0.13144386608E+03 -0.85715382604E+03  0.10095680721E+04  0.12699999809E+01 0. -1.
</event>
<event>
 5   0  0.1184616E-06  0.2895795E+04  0.7818609E-02  0.8274130E-01
       -2   -1    0    0    0  501  0.00000000000E+00  0.00000000000E+00  0.93755946547E+03  0.93755946547E+03  0.25500000920E-02 0. -1.
        2   -1    0    0  501    0  0.00000000000E+00  0.00000000000E+00 -0.22360260296E+04  0.22360260296E+04  0.25500000920E-02 0.  1.
    10030    2    1    2    0    0  0.00000000000E+00  0.00000000000E+00 -0.12984665641E+04  0.31735854950E+04  0.28957951371E+04 0.  0.
        5    1    3    3  502    0  0.53978362820E+03  0.11348300365E+04  0.13890623584E+03  0.12643269392E+04  0.46999998093E+01 0.  1.
       -5    1    3    3    0  502 -0.53978362820E+03 -0.11348300365E+04 -0.14373727999E+04  0.19092585558E+04  0.46999998093E+01 0. -1.
</event>
<event>
 5   0  0.1214844E-06  0.2462265E+04  0.7818609E-02  0.8416553E-01
        2   -1    0    0  501    0  0.00000000000E+00  0.00000000000E+00  0.11899958245E+04  0.11899958245E+04  0.25500000920E-02 0. -1.
       -2   -1    0    0    0  501  0.00000000000E+00  0.00000000000E+00 -0.12736911471E+04  0.12736911471E+04  0.25500000920E-02 0.  1.
    10030    2    1    2    0    0  0.00000000000E+00  0.00000000000E+00 -0.83695322673E+02  0.24636869716E+04  0.24622649303E+04 0.  0.
        4    1    3    3  502    0 -0.64376609266E+01 -0.11389844868E+04 -0.50940591522E+03  0.12477271753E+04  0.12699999809E+01 0.  1.
       -4    1    3    3    0  502  0.64376609266E+01  0.11389844868E+04  0.42571059254E+03  0.12159597963E+04  0.12699999809E+01 0. -1.
</event>
<event>
 5   0  0.4795023E-07  0.3838601E+04  0.7818609E-02  0.8037922E-01
       -1   -1    0    0    0  501  0.00000000000E+00  0.00000000000E+00  0.13684624221E+04  0.13684624221E+04  0.50400001928E-02 0.  1.
        1   -1    0    0  501    0  0.00000000000E+00  0.00000000000E+00 -0.26918639040E+04  0.26918639040E+04  0.50400001928E-02 0. -1.
    10030    2    1    2    0    0  0.00000000000E+00  0.00000000000E+00 -0.13234014818E+04  0.40603263261E+04  0.38386010984E+04 0.  0.
        3    1    3    3  502    0 -0.72447365248E+03  0.44860377648E+03 -0.24808075551E+04  0.26230733038E+04  0.10100000352E+00 0. -1.
       -3    1    3    3    0  502  0.72447365248E+03 -0.44860377648E+03  0.11574060733E+04  0.14372530223E+04  0.10100000352E+00 0.  1.
</event>
<event>
 5   0  0.1184616E-06  0.3039016E+04  0.7818609E-02  0.8232677E-01
       -2   -1    0    0    0  501  0.00000000000E+00  0.00000000000E+00  0.22755680680E+04  0.22755680680E+04  0.25500000920E-02 0. -1.
        2   -1    0    0  501    0  0.00000000000E+00  0.00000000000E+00 -0.10146495744E+04  0.10146495744E+04  0.25500000920E-02 0.  1.
    10030    2    1    2    0    0  0.00000000000E+00  0.00000000000E+00  0.12609184936E+04  0.32902176423E+04  0.30390157430E+04 0.  0.
        5    1    3    3  502    0 -0.17108544395E+03  0.91003548836E+03  0.19348037346E+04  0.21449760839E+04  0.46999998093E+01 0. -1.
       -5    1    3    3    0  502  0.17108544395E+03 -0.91003548836E+03 -0.67388524094E+03  0.11452415584E+04  0.46999998093E+01 0.  1.
</event>
<event>
 5   0  0.1372748E-06  0.3735134E+04  0.7818609E-02  0.8060220E-01
       -2   -1    0    0    0  501  0.00000000000E+00  0.00000000000E+00  0.14146526035E+04  0.14146526035E+04  0.25500000920E-02 0.  1.
        2   -1    0    0  501    0  0.00000000000E+00  0.00000000000E+00 -0.24654856079E+04  0.24654856079E+04  0.25500000920E-02 0. -1.
    10030    2    1    2    0    0  0.00000000000E+00  0.00000000000E+00 -0.10508330044E+04  0.38801382114E+04  0.37351335366E+04 0.  0.
        1    1    3    3  502    0  0.17276497003E+04 -0.70488254519E+03 -0.60703342438E+03  0.19621728945E+04  0.50400001928E-02 0.  1.
       -1    1    3    3    0  502 -0.17276497003E+04  0.70488254519E+03 -0.44379957997E+03  0.19179653169E+04  0.50400001928E-02 0. -1.
</event>
<event>
 5   0  0.1337854E-06  0.3497198E+04  0.7818609E-02  0.8114454E-01
       -2   -1    0    0    0  501  0.00000000000E+00  0.00000000000E+00  0.13696834185E+04  0.13696834185E+04  0.25500000920E-02 0.  1.
        2   -1    0    0  501    0  0.00000000000E+00  0.00000000000E+00 -0.22323391976E+04  0.22323391976E+04  0.25500000920E-02 0. -1.
    10030    2    1    2    0    0  0.00000000000E+00  0.00000000000E+00 -0.86265577906E+03  0.36020226161E+04  0.34971977259E+04 0.  0.
        3    1    3    3  502    0 -0.59595294778E+03 -0.14337559752E+04  0.39700549232E+03  0.16026320487E+04  0.10100000352E+00 0.  1.
       -3    1    3    3    0  502  0.59595294778E+03  0.14337559752E+04 -0.12596612714E+04  0.19993905674E+04  0.10100000352E+00 0. -1.
</event>
<event>
 5   0  0.4795023E-07  0.1905664E+04  0.7818609E-02  0.8652042E-01
        1   -1    0    0  501    0  0.00000000000E+00  0.00000000000E+00  0.12370705107E+04  0.12370705107E+04  0.50400001928E-02 0. -1.
       -1   -1    0    0    0  501  0.00000000000E+00  0.00000000000E+00 -0.73390245088E+03  0.73390245089E+03  0.50400001928E-02 0.  1.
    10030    2    1    2    0    0  0.00000000000E+00  0.00000000000E+00  0.50316805980E+03  0.19709729616E+04  0.19056642723E+04 0.  0.
        3    1    3    3  502    0  0.72770594781E+03 -0.47512304400E+03  0.65560047387E+03  0.10886275051E+04  0.10100000352E+00 0. -1.
       -3    1    3    3    0  502 -0.72770594781E+03  0.47512304400E+03 -0.15243241408E+03  0.88234545643E+03  0.10100000352E+00 0.  1.
</event>
<event>
 5   0  0.4255250E-07  0.3173305E+04  0.7818609E-02  0.8195903E-01
       -1   -1    0    0    0  501  0.00000000000E+00  0.00000000000E+00  0.94903644268E+03  0.94903644269E+03  0.50400001928E-02 0.  1.
        1   -1    0    0  501    0  0.00000000000E+00  0.00000000000E+00 -0.26526555180E+04  0.26526555180E+04  0.50400001928E-02 0. -1.
    10030    2    1    2    0    0  0.00000000000E+00  0.00000000000E+00 -0.17036190754E+04  0.36016919607E+04  0.31733053786E+04 0.  0.
        2    1    3    3  502    0 -0.25218021781E+03  0.42344403156E+03 -0.25635742533E+04  0.26105196154E+04  0.25500000920E-02 0. -1.
       -2    1    3    3    0  502  0.25218021781E+03 -0.42344403156E+03  0.85995517794E+03  0.99117234535E+03  0.25500000920E-02 0.  1.
</event>
<event>
 5   0  0.1372748E-06  0.2445934E+04  0.7818609E-02  0.8422504E-01
       -2   -1    0    0    0  501  0.00000000000E+00  0.00000000000E+00  0.77762042299E+03  0.77762042299E+03  0.25500000920E-02 0. -1.
        2   -1    0    0  501    0  0.00000000000E+00  0.00000000000E+00 -0.19233649246E+04  0.19233649246E+04  0.25500000920E-02 0.  1.
    10030    2    1    2    0    0  0.00000000000E+00  0.00000000000E+00 -0.11457445016E+04  0.27009853476E+04  0.24459336428E+04 0.  0.
        1    1    3    3  502    0  0.31054393210E+03 -0.68867122930E+03  0.48915305846E+03  0.89998683905E+03  0.50400001928E-02 0. -1.
       -1    1    3    3    0  502 -0.31054393210E+03  0.68867122930E+03 -0.16348975601E+04  0.18009985085E+04  0.50400001928E-02 0.  1.
</event>
<event>
 5   0  0.1337854E-06  0.2005445E+04  0.7818609E-02  0.8604079E-01
       -2   -1    0    0    0  501  0.00000000000E+00  0.00000000000E+00  0.47886404923E+03  0.47886404924E+03  0.25500000920E-02 0. -1.
        2   -1    0    0  501    0  0.00000000000E+00  0.00000000000E+00 -0.20996622564E+04  0.20996622564E+04  0.25500000920E-02 0.  1.
    10030    2    1    2    0    0  0.00000000000E+00  0.00000000000E+00 -0.16207982072E+04  0.25785263057E+04  0.20054453572E+04 0.  0.
        3    1    3    3  502    0  0.73346695928E+03  0.13326559378E+03  0.51847470366E+02  0.74727616664E+03  0.10100000352E+00 0. -1.
       -3    1    3    3    0  502 -0.73346695928E+03 -0.13326559378E+03 -0.16726456776E+04  0.18312501390E+04  0.10100000352E+00 0.  1.
</event>
<event>
 5   0  0.1337854E-06  0.3486962E+04  0.7818609E-02  0.8116887E-01
        2   -1    0    0  501    0  0.00000000000E+00  0.00000000000E+00  0.13325630860E+04  0.13325630860E+04  0.25500000920E-02 0.  1.
       -2   -1    0    0    0  501  0.00000000000E+00  0.00000000000E+00 -0.22811116097E+04  0.22811116097E+04  0.25500000920E-02 0. -1.
    10030    2    1    2    0    0  0.00000000000E+00  0.00000000000E+00 -0.94854852366E+03  0.36136746957E+04  0.34869615003E+04 0.  0.
        3    1    3    3  502    0  0.48656008856E+03 -0.14707011112E+04 -0.13033602395E+04  0.20244629911E+04  0.10100000352E+00 0. -1.
       -3    1    3    3    0  502 -0.48656008856E+03  0.14707011112E+04  0.35481171581E+03  0.15892117046E+04  0.10100000352E+00 0.  1.
</event>
<event>
 5   0  0.1079205E-06  0.3608805E+04  0.7818609E-02  0.8088478E-01
        1   -1    0    0  501    0  0.00000000000E+00  0.00000000000E+00  0.11627137777E+04  0.11627137777E+04  0.50400001928E-02 0.  1.
       -1   -1    0    0    0  501  0.00000000000E+00  0.00000000000E+00 -0.28002322183E+04  0.28002322183E+04  0.50400001928E-02 0. -1.
    10030    2    1    2    0    0  0.00000000000E+00  0.00000000000E+00 -0.16375184406E+04  0.39629459960E+04  0.36088051103E+04 0.  0.
        4    1    3    3  502    0 -0.10464207504E+04  0.30059473520E+03  0.76137415551E+03  0.13285502622E+04  0.12699999809E+01 0.  1.
       -4    1    3    3    0  502  0.10464207504E+04 -0.30059473520E+03 -0.23988925961E+04  0.26343957338E+04  0.12699999809E+01 0. -1.
</event>
<event>
 5   0  0.8030324E-07  0.2288220E+04  0.7818609E-02  0.8482580E-01
       -1   -1    0    0    0  501  0.00000000000E+00  0.00000000000E+00  0.83840164101E+03  0.83840164102E+03  0.50400001928E-02 0. -1.
        1   -1    0    0  501    0  0.00000000000E+00  0.00000000000E+00 -0.15612893926E+04  0.15612893926E+04  0.50400001928E-02 0.  1.
    10030    2    1    2    0    0  0.00000000000E+00  0.00000000000E+00 -0.72288775160E+03  0.23996910336E+04  0.22882199098E+04 0.  0.
        1    1    3    3  502    0 -0.72677618556E+03  0.20131206934E+03 -0.12637397096E+04  0.14716549279E+04  0.50400001928E-02 0.  1.
       -1    1    3    3    0  502  0.72677618556E+03 -0.20131206934E+03  0.54085195797E+03  0.92803610577E+03  0.50400001928E-02 0. -1.
</event>
<event>
 5   0  0.1337854E-06  0.1987430E+04  0.7818609E-02  0.8612520E-01
        2   -1    0    0  501    0  0.00000000000E+00  0.00000000000E+00  0.67349805487E+03  0.67349805488E+03  0.25500000920E-02 0.  1.
       -2   -1    0    0    0  501  0.00000000000E+00  0.00000000000E+00 -0.14661799571E+04  0.14661799571E+04  0.25500000920E-02 0. -1.
    10030    2    1    2    0    0  0.00000000000E+00  0.00000000000E+00 -0.79268190226E+03  0.21396780120E+04  0.19874298470E+04 0.  0.
        3    1    3    3  502    0  0.27526199784E+03  0.93861066680E+03 -0.20767312223E+03  0.99994364200E+03  0.10100000352E+00 0.  1.
       -3    1    3    3    0  502 -0.27526199784E+03 -0.93861066680E+03 -0.58500878003E+03  0.11397343700E+04  0.10100000352E+00 0. -1.
</event>
<event>
 5   0  0.4255250E-07  0.3586781E+04  0.7818609E-02  0.8093526E-01
        3   -1    0    0  501    0  0.00000000000E+00  0.00000000000E+00  0.16557781380E+04  0.16557781411E+04  0.10100000352E+00 0. -1.
       -3   -1    0    0    0  501  0.00000000000E+00  0.00000000000E+00 -0.19424402834E+04  0.19424402860E+04  0.10100000352E+00 0.  1.
    10030    2    1    2    0    0  0.00000000000E+00  0.00000000000E+00 -0.28666214537E+03  0.35982184271E+04  0.35867813794E+04 0.  0.
        1    1    3    3  502    0  0.38907438805E+03 -0.16594421529E+04  0.41623154737E+03  0.17545300907E+04  0.50400001928E-02 0.  1.
       -1    1    3    3    0  502 -0.38907438805E+03  0.16594421529E+04 -0.70289369275E+03  0.18436883364E+04  0.50400001928E-02 0. -1.
</event>
<event>
 5   0  0.4795023E-07  0.2615089E+04  0.7818609E-02  0.8363094E-01
       -1   -1    0    0    0  501  0.00000000000E+00  0.00000000000E+00  0.13089836442E+04  0.13089836442E+04  0.50400001928E-02 0.  1.
        1   -1    0    0  501    0  0.00000000000E+00  0.00000000000E+00 -0.13061069319E+04  0.13061069319E+04  0.50400001928E-02 0. -1.
    10030    2    1    2    0    0  0.00000000000E+00  0.00000000000E+00  0.28767123005E+01  0.26150905761E+04  0.26150889938E+04 0.  0.
        3    1    3    3  502    0  0.44443619792E+01  0.98007804069E+03  0.86694444482E+03  0.13084973820E+04  0.10100000352E+00 0.  1.
       -3    1    3    3    0  502 -0.44443619792E+01 -0.98007804069E+03 -0.86406773251E+03  0.13065931941E+04  0.10100000352E+00 0. -1.
</event>
<event>
 5   0  0.1079205E-06  0.2630438E+04  0.7818609E-02  0.8357935E-01
       -1   -1    0    0    0  501  0.00000000000E+00  0.00000000000E+00  0.76596573000E+03  0.76596573002E+03  0.50400001928E-02 0. -1.
        1   -1    0    0  501    0  0.00000000000E+00  0.00000000000E+00 -0.22583268847E+04  0.22583268847E+04  0.50400001928E-02 0.  1.
    10030    2    1    2    0    0  0.00000000000E+00  0.00000000000E+00 -0.14923611547E+04  0.30242926147E+04  0.26304379870E+04 0.  0.
        4    1    3    3  502    0 -0.26114438044E+03 -0.31789197524E+03 -0.21824445415E+04  0.22208821411E+04  0.12699999809E+01 0.  1.
       -4    1    3    3    0  502  0.26114438044E+03  0.31789197524E+03  0.69008338681E+03  0.80341047355E+03  0.12699999809E+01 0. -1.
</event>
<event>
 5   0  0.1341932E-06  0.2836765E+04  0.7818609E-02  0.8291944E-01
       -2   -1    0    0    0  501  0.00000000000E+00  0.00000000000E+00  0.15814424604E+04  0.15814424604E+04  0.25500000920E-02 0.  1.
        2   -1    0    0  501    0  0.00000000000E+00  0.00000000000E+00 -0.12721352991E+04  0.12721352991E+04  0.25500000920E-02 0. -1.
    10030    2    1    2    0    0  0.00000000000E+00  0.00000000000E+00  0.30930716130E+03  0.28535777596E+04  0.28367649021E+04 0.  0.
        2    1    3    3  502    0  0.89997675168E+03  0.84386253721E+03 -0.54931309346E+03  0.13504839910E+04  0.25500000920E-02 0. -1.
       -2    1    3    3    0  502 -0.89997675168E+03 -0.84386253721E+03  0.85862025476E+03  0.15030937686E+04  0.25500000920E-02 0.  1.
</event>
<event>
 5   0  0.1341932E-06  0.2177536E+04  0.7818609E-02  0.8527837E-01
        2   -1    0    0  501    0  0.00000000000E+00  0.00000000000E+00  0.18723135525E+04  0.18723135525E+04  0.25500000920E-02 0. -1.
       -2   -1    0    0    0  501  0.00000000000E+00  0.00000000000E+00 -0.63312893960E+03  0.63312893960E+03  0.25500000920E-02 0.  1.
    10030    2    1    2    0    0  0.00000000000E+00  0.00000000000E+00  0.12391846129E+04  0.25054424921E+04  0.21775361252E+04 0.  0.
        2    1    3    3  502    0  0.98544784525E+03  0.43694354515E+03  0.79555590069E+03  0.13397523310E+04  0.25500000920E-02 0. -1.
       -2    1    3    3    0  502 -0.98544784525E+03 -0.43694354515E+03  0.44362871223E+03  0.11656901611E+04  0.25500000920E-02 0.  1.
</event>
<event>
 5   0  0.1341932E-06  0.3528888E+04  0.7818609E-02  0.8106978E-01
        2   -1    0    0  501    0  0.00000000000E+00  0.00000000000E+00  0.21119339606E+04  0.21119339606E+04  0.25500000920E-02 0.  1.
       -2   -1    0    0    0  501  0.00000000000E+00  0.00000000000E+00 -0.14741286188E+04  0.14741286188E+04  0.25500000920E-02 0. -1.
    10030    2    1    2    0    0  0.00000000000E+00  0.00000000000E+00  0.63780534180E+03  0.35860625793E+04  0.35288878090E+04 0.  0.
        2    1    3    3  502    0 -0.14790394824E+03  0.14541357890E+04  0.13232864562E+04  0.19716676992E+04  0.25500000920E-02 0.  1.
       -2    1    3    3    0  502  0.14790394824E+03 -0.14541357890E+04 -0.68548111443E+03  0.16143948801E+04  0.25500000920E-02 0. -1.
</event>
<event>
 5   0  0.4255250E-07  0.3517657E+04  0.7818609E-02  0.8109618E-01
        1   -1    0    0  501    0  0.00000000000E+00  0.00000000000E+00  0.13993566606E+04  0.13993566606E+04  0.50400001928E-02 0.  1.
       -1   -1    0    0    0  501  0.00000000000E+00  0.00000000000E+00 -0.22106429674E+04  0.22106429674E+04  0.50400001928E-02 0. -1.
    10030    2    1    2    0    0  0.00000000000E+00  0.00000000000E+00 -0.81128630683E+03  0.36099996280E+04  0.35176571524E+04 0.  0.
        2    1    3    3  502    0  0.96049984363E+03  0.74092777678E+03  0.90134479051E+03  0.15112763981E+04  0.25500000920E-02 0.  1.
       -2    1    3    3    0  502 -0.96049984363E+03 -0.74092777678E+03 -0.17126310973E+04  0.20987232299E+04  0.25500000920E-02 0. -1.
</event>
<event>
 5   0  0.8030324E-07  0.3855059E+04  0.7818609E-02  0.8034441E-01
        1   -1    0    0  501    0  0.00000000000E+00  0.00000000000E+00  0.29208249628E+04  0.29208249628E+04  0.50400001928E-02 0.  1.
       -1   -1    0    0    0  501  0.00000000000E+00  0.00000000000E+00 -0.12720278326E+04  0.12720278327E+04  0.50400001928E-02 0. -1.
    10030    2    1    2    0    0  0.00000000000E+00  0.00000000000E+00  0.16487971302E+04  0.41928527955E+04  0.38550593495E+04 0.  0.
        1    1    3    3  502    0  0.42501785745E+03 -0.15382565080E+04 -0.35129033756E+03  0.16340985787E+04  0.50400001928E-02 0. -1.
       -1    1    3    3    0  502 -0.42501785745E+03  0.15382565080E+04  0.20000874677E+04  0.25587542168E+04  0.50400001928E-02 0.  1.
</event>
<event>
 5   0  0.5284458E-07  0.3876376E+04  0.7818609E-02  0.8029960E-01
        1   -1    0    0  501    0  0.00000000000E+00  0.00000000000E+00  0.20890100718E+04  0.20890100718E+04  0.50400001928E-02 0.  1.
       -1   -1    0    0    0  501  0.00000000000E+00  0.00000000000E+00 -0.17982553337E+04  0.17982553337E+04  0.50400001928E-02 0. -1.
    10030    2    1    2    0    0  0.00000000000E+00  0.00000000000E+00  0.29075473815E+03  0.38872654055E+04  0.38763764026E+04 0.  0.
        5    1    3    3  502    0  0.14212209763E+03  0.18234627292E+04 -0.49777936715E+03  0.18955266825E+04  0.46999998093E+01 0.  1.
       -5    1    3    3    0  502 -0.14212209763E+03 -0.18234627292E+04  0.78853410530E+03  0.19917387230E+04  0.46999998093E+01 0. -1.
</event>
<event>
 5   0  0.1184616E-06  0.3796094E+04  0.7818609E-02  0.8046994E-01
       -2   -1    0    0    0  501  0.00000000000E+00  0.00000000000E+00  0.24583670810E+04  0.24583670810E+04  0.25500000920E-02 0. -1.
        2   -1    0    0  501    0  0.00000000000E+00  0.00000000000E+00 -0.14654374792E+04  0.14654374793E+04  0.25500000920E-02 0.  1.
    10030    2    1    2    0    0  0.00000000000E+00  0.00000000000E+00  0.99292960171E+03  0.39238045602E+04  0.37960944447E+04 0.  0.
        5    1    3    3  502    0 -0.16144042097E+04 -0.64003713701E+03 -0.29520865108E+03  0.17615671224E+04  0.46999998093E+01 0.  1.
       -5    1    3    3    0  502  0.16144042097E+04  0.64003713701E+03  0.12881382528E+04  0.21622374378E+04  0.46999998093E+01 0. -1.
</event>
<event>
 5   0  0.1079205E-06  0.3837136E+04  0.7818609E-02  0.8038232E-01
       -1   -1    0    0    0  501  0.00000000000E+00  0.00000000000E+00  0.18148666171E+04  0.18148666171E+04  0.50400001928E-02 0.  1.
        1   -1    0    0  501    0  0.00000000000E+00  0.00000000000E+00 -0.20281945495E+04  0.20281945495E+04  0.50400001928E-02 0. -1.
    10030    2    1    2    0    0  0.00000000000E+00  0.00000000000E+00 -0.21332793248E+03  0.38430611666E+04  0.38371356926E+04 0.  0.
        4    1    3    3  502    0 -0.84879281548E+03  0.54870390483E+02  0.16157128910E+04  0.18259216200E+04  0.12699999809E+01 0.  1.
       -4    1    3    3    0  502  0.84879281548E+03 -0.54870390483E+02 -0.18290408235E+04  0.20171395466E+04  0.12699999809E+01 0. -1.
</event>
<event>
 5   0  0.1184616E-06  0.3824707E+04  0.7818609E-02  0.8040874E-01
        2   -1    0    0  501    0  0.00000000000E+00  0.00000000000E+00  0.23141639807E+04  0.23141639807E+04  0.25500000920E-02 0. -1.
       -2   -1    0    0    0  501  0.00000000000E+00  0.00000000000E+00 -0.15803097740E+04  0.15803097740E+04  0.25500000920E-02 0.  1.
    10030    2    1    2    0    0  0.00000000000E+00  0.00000000000E+00  0.73385420670E+03  0.38944737547E+04  0.38247070253E+04 0.  0.
        5    1    3    3  502    0 -0.16030075783E+04  0.12171730903E+03 -0.68764106952E+03  0.17485195824E+04  0.46999998093E+01 0.  1.
       -5    1    3    3    0  502  0.16030075783E+04 -0.12171730903E+03  0.14214952762E+04  0.21459541723E+04  0.46999998093E+01 0. -1.
</event>
<event>
 5   0  0.8030324E-07  0.3027966E+04  0.7818609E-02  0.8235790E-01
       -1   -1    0    0    0  501  0.00000000000E+00  0.00000000000E+00  0.17711915750E+04  0.17711915750E+04  0.50400001928E-02 0. -1.
        1   -1    0    0  501    0  0.00000000000E+00  0.00000000000E+00 -0.12941260900E+04  0.12941260900E+04  0.50400001928E-02 0.  1.
    10030    2    1    2    0    0  0.00000000000E+00  0.00000000000E+00  0.47706548501E+03  0.30653176650E+04  0.30279664646E+04 0.  0.
        1    1    3    3  502    0  0.34377269041E+03  0.14789894145E+03 -0.12465641520E+04  0.13015283111E+04  0.50400001928E-02 0.  1.
       -1    1    3    3    0  502 -0.34377269041E+03 -0.14789894145E+03  0.17236296370E+04  0.17637893539E+04  0.50400001928E-02 0. -1.
</event>
<event>
 5   0  0.5284458E-07  0.3797978E+04  0.7818609E-02  0.8046589E-01
       -1   -1    0    0    0  501  0.00000000000E+00  0.00000000000E+00  0.19119808878E+04  0.19119808878E+04  0.50400001928E-02 0. -1.
        1   -1    0    0  501    0  0.00000000000E+00  0.00000000000E+00 -0.18860857558E+04  0.18860857559E+04  0.50400001928E-02 0.  1.
    10030    2    1    2    0    0  0.00000000000E+00  0.00000000000E+00  0.25895131952E+02  0.37980666437E+04  0.37979783664E+04 0.  0.
        5    1    3    3  502    0  0.70010861350E+03 -0.15359966072E+04  0.88285293815E+03  0.19049643169E+04  0.46999998093E+01 0. -1.
       -5    1    3    3    0  502 -0.70010861350E+03  0.15359966072E+04 -0.85695780620E+03  0.18931023268E+04  0.46999998093E+01 0.  1.
</event>
<event>
 5   0  0.5284458E-07  0.3853624E+04  0.7818609E-02  0.8034744E-01
        1   -1    0    0  501    0  0.00000000000E+00  0.00000000000E+00  0.29107683519E+04  0.29107683519E+04  0.50400001928E-02 0.  1.
       -1   -1    0    0    0  501  0.00000000000E+00  0.00000000000E+00 -0.12754725798E+04  0.12754725798E+04  0.50400001928E-02 0. -1.
    10030    2    1    2    0    0  0.00000000000E+00  0.00000000000E+00  0.16352957721E+04  0.41862409317E+04  0.38536243818E+04 0.  0.
        5    1    3    3  502    0  0.15554336340E+04 -0.11333978112E+04  0.91849808237E+03  0.21325161677E+04  0.46999998093E+01 0.  1.
       -5    1    3    3    0  502 -0.15554336340E+04  0.11333978112E+04  0.71679768970E+03  0.20537247640E+04  0.46999998093E+01 0. -1.
</event>
<event>
 5   0  0.1214844E-06  0.3825850E+04  0.7818609E-02  0.8040630E-01
        2   -1    0    0  501    0  0.00000000000E+00  0.00000000000E+00  0.20894507078E+04  0.20894507078E+04  0.25500000920E-02 0. -1.
       -2   -1    0    0    0  501  0.00000000000E+00  0.00000000000E+00 -0.17513129184E+04  0.17513129184E+04  0.25500000920E-02 0.  1.
    10030    2    1    2    0    0  0.00000000000E+00  0.00000000000E+00  0.33813778936E+03  0.38407636262E+04  0.38258499798E+04 0.  0.
        4    1    3    3  502    0 -0.24808073704E+03  0.15874250661E+04  0.12112959960E+04  0.20121386621E+04  0.12699999809E+01 0. -1.
       -4    1    3    3    0  502  0.24808073704E+03 -0.15874250661E+04 -0.87315820668E+03  0.18286249641E+04  0.12699999809E+01 0.  1.
</event>
<event>
 5   0  0.1341932E-06  0.3717553E+04  0.7818609E-02  0.8064083E-01
        2   -1    0    0  501    0  0.00000000000E+00  0.00000000000E+00  0.21330682137E+04  0.21330682137E+04  0.25500000920E-02 0.  1.
       -2   -1    0    0    0  501  0.00000000000E+00  0.00000000000E+00 -0.16197562166E+04  0.16197562166E+04  0.25500000920E-02 0. -1.
    10030    2    1    2    0    0  0.00000000000E+00  0.00000000000E+00  0.51331199705E+03  0.37528244303E+04  0.37175532274E+04 0.  0.
        2    1    3    3  502    0 -0.14433714986E+04 -0.22558679978E+03  0.14168380092E+04  0.20351021181E+04  0.25500000920E-02 0.  1.
       -2    1    3    3    0  502  0.14433714986E+04  0.22558679978E+03 -0.90352601211E+03  0.17177223121E+04  0.25500000920E-02 0. -1.
</event>
<event>
 5   0  0.5284458E-07  0.3759616E+04  0.7818609E-02  0.8054877E-01
        1   -1    0    0  501    0  0.00000000000E+00  0.00000000000E+00  0.23622441042E+04  0.23622441042E+04  0.50400001928E-02 0.  1.
       -1   -1    0    0    0  501  0.00000000000E+00  0.00000000000E+00 -0.14958990890E+04  0.14958990890E+04  0.50400001928E-02 0. -1.
    10030    2    1    2    0    0  0.00000000000E+00  0.00000000000E+00  0.86634501518E+03  0.38581431932E+04  0.37596163653E+04 0.  0.
        5    1    3    3  502    0  0.12460310273E+04 -0.14061212910E+04  0.36919852304E+03  0.19147062556E+04  0.46999998093E+01 0.  1.
       -5    1    3    3    0  502 -0.12460310273E+04  0.14061212910E+04  0.49714649214E+03  0.19434369376E+04  0.46999998093E+01 0. -1.
</event>
<event>
 5   0  0.1337854E-06  0.2508130E+04  0.7818609E-02  0.8400095E-01
        2   -1    0    0  501    0  0.00000000000E+00  0.00000000000E+00  0.69594105500E+03  0.69594105501E+03  0.25500000920E-02 0. -1.
       -2   -1    0    0    0  501  0.00000000000E+00  0.00000000000E+00 -0.22597874432E+04  0.22597874432E+04  0.25500000920E-02 0.  1.
    10030    2    1    2    0    0  0.00000000000E+00  0.00000000000E+00 -0.15638463882E+04  0.29557284982E+04  0.25081298669E+04 0.  0.
        3    1    3    3  502    0  0.61151005702E+03  0.98915363167E+03 -0.22878834217E+03  0.11852061308E+04  0.10100000352E+00 0. -1.
       -3    1    3    3    0  502 -0.61151005702E+03 -0.98915363167E+03 -0.13350580460E+04  0.17705223674E+04  0.10100000352E+00 0.  1.
</event>
<event>
 5   0  0.4795023E-07  0.2818171E+04  0.7818609E-02  0.8297649E-01
        1   -1    0    0  501    0  0.00000000000E+00  0.00000000000E+00  0.26175156185E+04  0.26175156185E+04  0.50400001928E-02 0. -1.
       -1   -1    0    0    0  501  0.00000000000E+00  0.00000000000E+00 -0.75855185794E+03  0.75855185796E+03  0.50400001928E-02 0.  1.
    10030    2    1    2    0    0  0.00000000000E+00  0.00000000000E+00  0.18589637605E+04  0.33760674764E+04  0.28181705666E+04 0.  0.
        3    1    3    3  502    0  0.36758380772E+03  0.45793243945E+03  0.24639526191E+04  0.25329592366E+04  0.10100000352E+00 0. -1.
       -3    1    3    3    0  502 -0.36758380772E+03 -0.45793243945E+03 -0.60498885861E+03  0.84310823982E+03  0.10100000352E+00 0.  1.
</event>
<event>
 5   0  0.8946946E-07  0.1875322E+04  0.7818609E-02  0.8667239E-01
        1   -1    0    0  501    0  0.00000000000E+00  0.00000000000E+00  0.10529186665E+04  0.10529186665E+04  0.50400001928E-02 0.  1.
       -1   -1    0    0    0  501  0.00000000000E+00  0.00000000000E+00 -0.83501984690E+03  0.83501984692E+03  0.50400001928E-02 0. -1.
    10030    2    1    2    0    0  0.00000000000E+00  0.00000000000E+00  0.21789881959E+03  0.18879385134E+04  0.18753218217E+04 0.  0.
        1    1    3    3  502    0  0.66841513261E+03 -0.27578098119E+02  0.77038458911E+03  0.10203096374E+04  0.50400001928E-02 0.  1.
       -1    1    3    3    0  502 -0.66841513261E+03  0.27578098119E+02 -0.55248576951E+03  0.86762887604E+03  0.50400001928E-02 0. -1.
</event>
<event>
 5   0  0.1337854E-06  0.3158654E+04  0.7818609E-02  0.8199823E-01
       -2   -1    0    0    0  501  0.00000000000E+00  0.00000000000E+00  0.11769870498E+04  0.11769870498E+04  0.25500000920E-02 0. -1.
        2   -1    0    0  501    0  0.00000000000E+00  0.00000000000E+00 -0.21192021810E+04  0.21192021810E+04  0.25500000920E-02 0.  1.
    10030    2    1    2    0    0  0.00000000000E+00  0.00000000000E+00 -0.94221513124E+03  0.32961892308E+04  0.31586538417E+04 0.  0.
        3    1    3    3  502    0 -0.68516163409E+03  0.51026279824E+02 -0.19550760041E+04  0.20722867412E+04  0.10100000352E+00 0.  1.
       -3    1    3    3    0  502  0.68516163409E+03 -0.51026279824E+02  0.10128608728E+04  0.12239024896E+04  0.10100000352E+00 0. -1.
</event>
<event>
 5   0  0.4795023E-07  0.3608031E+04  0.7818609E-02  0.8088655E-01
        1   -1    0    0  501    0  0.00000000000E+00  0.00000000000E+00  0.11263861180E+04  0.11263861180E+04  0.50400001928E-02 0.  1.
       -1   -1    0    0    0  501  0.00000000000E+00  0.00000000000E+00 -0.28893040274E+04  0.28893040274E+04  0.50400001928E-02 0. -1.
    10030    2    1    2    0    0  0.00000000000E+00  0.00000000000E+00 -0.17629179095E+04  0.40156901454E+04  0.36080310127E+04 0.  0.
        3    1    3    3  502    0  0.28858562724E+03 -0.14885734483E+02 -0.28633779941E+04  0.28779223055E+04  0.10100000352E+00 0. -1.
       -3    1    3    3    0  502 -0.28858562724E+03  0.14885734483E+02  0.11004600847E+04  0.11377678399E+04  0.10100000352E+00 0.  1.
</event>
<event>
 5   0  0.1372748E-06  0.3942875E+04  0.7818609E-02  0.8016171E-01
        2   -1    0    0  501    0  0.00000000000E+00  0.00000000000E+00  0.24848426726E+04  0.24848426726E+04  0.25500000920E-02 0.  1.
       -2   -1    0    0    0  501  0.00000000000E+00  0.00000000000E+00 -0.15641093711E+04  0.15641093711E+04  0.25500000920E-02 0. -1.
    10030    2    1    2    0    0  0.00000000000E+00  0.00000000000E+00  0.92073330144E+03  0.40489520437E+04  0.39428749460E+04 0.  0.
        1    1    3    3  502    0 -0.16153287170E+03  0.24598850901E+03 -0.15414268969E+04  0.15692673748E+04  0.50400001928E-02 0. -1.
       -1    1    3    3    0  502  0.16153287170E+03 -0.24598850901E+03  0.24621601983E+04  0.24796846689E+04  0.50400001928E-02 0.  1.
</event>
<event>
 5   0  0.8030324E-07  0.3852229E+04  0.7818609E-02  0.8035039E-01
        1   -1    0    0  501    0  0.00000000000E+00  0.00000000000E+00  0.25584424991E+04  0.25584424991E+04  0.50400001928E-02 0. -1.
       -1   -1    0    0    0  501  0.00000000000E+00  0.00000000000E+00 -0.14500683861E+04  0.14500683861E+04  0.50400001928E-02 0.  1.
    10030    2    1    2    0    0  0.00000000000E+00  0.00000000000E+00  0.11083741131E+04  0.40085108852E+04  0.38522287500E+04 0.  0.
        1    1    3    3  502    0 -0.10786404275E+04  0.56912690499E+03 -0.99711502885E+03  0.15753123457E+04  0.50400001928E-02 0.  1.
       -1    1    3    3    0  502  0.10786404275E+04 -0.56912690499E+03  0.21054891419E+04  0.24331985395E+04  0.50400001928E-02 0. -1.
</event>
<event>
 5   0  0.4255250E-07  0.2545404E+04  0.7818609E-02  0.8386986E-01
       -1   -1    0    0    0  501  0.00000000000E+00  0.00000000000E+00  0.11544238317E+04  0.11544238317E+04  0.50400001928E-02 0.  1.
        1   -1    0    0  501    0  0.00000000000E+00  0.00000000000E+00 -0.14030989473E+04  0.14030989473E+04  0.50400001928E-02 0. -1.
    10030    2    1    2    0    0  0.00000000000E+00  0.00000000000E+00 -0.24867511560E+03  0.25575227791E+04  0.25454043789E+04 0.  0.
        2    1    3    3  502    0 -0.26247863999E+03 -0.49219049553E+03 -0.12737349858E+04  0.13905205264E+04  0.25500000920E-02 0. -1.
       -2    1    3    3    0  502  0.26247863999E+03  0.49219049553E+03  0.10250598702E+04  0.11670022527E+04  0.25500000920E-02 0.  1.
</event>
<event>
 5   0  0.4255250E-07  0.3635741E+04  0.7818609E-02  0.8082353E-01
        1   -1    0    0  501    0  0.00000000000E+00  0.00000000000E+00  0.19852759777E+04  0.19852759777E+04  0.50400001928E-02 0.  1.
       -1   -1    0    0    0  501  0.00000000000E+00  0.00000000000E+00 -0.16645813728E+04  0.16645813728E+04  0.50400001928E-02 0. -1.
    10030    2    1    2    0    0  0.00000000000E+00  0.00000000000E+00  0.32069460498E+03  0.36498573505E+04  0.36357411417E+04 0.  0.
        2    1    3    3  502    0  0.14335341824E+04 -0.11178396561E+04  0.15208957870E+03  0.18242031106E+04  0.25500000920E-02 0.  1.
       -2    1    3    3    0  502 -0.14335341824E+04  0.11178396561E+04  0.16860502628E+03  0.18256542399E+04  0.25500000920E-02 0. -1.
</event>
<event>
 5   0  0.1341932E-06  0.2382464E+04  0.7818609E-02  0.8446098E-01
       -2   -1    0    0    0  501  0.00000000000E+00  0.00000000000E+00  0.86105958458E+03  0.86105958459E+03  0.25500000920E-02 0. -1.
        2   -1    0    0  501    0  0.00000000000E+00  0.00000000000E+00 -0.16480089425E+04  0.16480089425E+04  0.25500000920E-02 0.  1.
    10030    2    1    2    0    0  0.00000000000E+00  0.00000000000E+00 -0.78694935790E+03  0.25090685271E+04  0.23824641827E+04 0.  0.
        2    1    3    3  502    0  0.95642635599E+02  0.87956734467E+03  0.44656392451E+03  0.99106284677E+03  0.25500000920E-02 0. -1.
       -2    1    3    3    0  502 -0.95642635599E+02 -0.87956734467E+03 -0.12335132824E+04  0.15180056803E+04  0.25500000920E-02 0.  1.
</event>
<event>
 5   0  0.4795023E-07  0.3747990E+04  0.7818609E-02  0.8057409E-01
        1   -1    0    0  501    0  0.00000000000E+00  0.00000000000E+00  0.13687688423E+04  0.13687688423E+04  0.50400001928E-02 0.  1.
       -1   -1    0    0    0  501  0.00000000000E+00  0.00000000000E+00 -0.25657054557E+04  0.25657054557E+04  0.50400001928E-02 0. -1.
    10030    2    1    2    0    0  0.00000000000E+00  0.00000000000E+00 -0.11969366134E+04  0.39344742981E+04  0.37479902275E+04 0.  0.
        3    1    3    3  502    0  0.17206256337E+04  0.51151014619E+03 -0.33486606115E+02  0.17953597311E+04  0.10100000352E+00 0.  1.
       -3    1    3    3    0  502 -0.17206256337E+04 -0.51151014619E+03 -0.11634500073E+04  0.21391145670E+04  0.10100000352E+00 0. -1.
</event>
<event>
 5   0  0.4795023E-07  0.2448378E+04  0.7818609E-02  0.8421610E-01
       -1   -1    0    0    0  501  0.00000000000E+00  0.00000000000E+00  0.11203838211E+04  0.11203838211E+04  0.50400001928E-02 0.  1.
        1   -1    0    0  501    0  0.00000000000E+00  0.00000000000E+00 -0.13376117593E+04  0.13376117593E+04  0.50400001928E-02 0. -1.
    10030    2    1    2    0    0  0.00000000000E+00  0.00000000000E+00 -0.21722793824E+03  0.24579955804E+04  0.24483778908E+04 0.  0.
        3    1    3    3  502    0 -0.61103835220E+03  0.25495395360E+03 -0.11423525301E+04  0.13203555201E+04  0.10100000352E+00 0. -1.
       -3    1    3    3    0  502  0.61103835220E+03 -0.25495395360E+03  0.92512459182E+03  0.11376400603E+04  0.10100000352E+00 0.  1.
</event>
<event>
 5   0  0.4795023E-07  0.3731835E+04  0.7818609E-02  0.8060943E-01
       -1   -1    0    0    0  501  0.00000000000E+00  0.00000000000E+00  0.16328226511E+04  0.16328226511E+04  0.50400001928E-02 0. -1.
        1   -1    0    0  501    0  0.00000000000E+00  0.00000000000E+00 -0.21322878650E+04  0.21322878650E+04  0.50400001928E-02 0.  1.
    10030    2    1    2    0    0  0.00000000000E+00  0.00000000000E+00 -0.49946521389E+03  0.37651105161E+04  0.37318348970E+04 0.  0.
        3    1    3    3  502    0 -0.12740322270E+03  0.34388164855E+03 -0.20955709216E+04  0.21274171352E+04  0.10100000352E+00 0.  1.
       -3    1    3    3    0  502  0.12740322270E+03 -0.34388164855E+03  0.15961057077E+04  0.16376933809E+04  0.10100000352E+00 0. -1.
</event>
<event>
 5   0  0.1214844E-06  0.3701116E+04  0.7818609E-02  0.8067715E-01
        2   -1    0    0  501    0  0.00000000000E+00  0.00000000000E+00  0.16823206223E+04  0.16823206223E+04  0.25500000920E-02 0.  1.
       -2   -1    0    0    0  501  0.00000000000E+00  0.00000000000E+00 -0.20356194043E+04  0.20356194043E+04  0.25500000920E-02 0. -1.
    10030    2    1    2    0    0  0.00000000000E+00  0.00000000000E+00 -0.35329878197E+03  0.37179400266E+04  0.37011157793E+04 0.  0.
        4    1    3    3  502    0  0.88260159416E+01 -0.76866369759E+03 -0.18676436429E+04  0.20196574384E+04  0.12699999809E+01 0. -1.
       -4    1    3    3    0  502 -0.88260159416E+01  0.76866369759E+03  0.15143448610E+04  0.16982825882E+04  0.12699999809E+01 0.  1.
</event>
<event>
 5   0  0.5284458E-07  0.3818465E+04  0.7818609E-02  0.8042204E-01
       -1   -1    0    0    0  501  0.00000000000E+00  0.00000000000E+00  0.20076816819E+04  0.20076816819E+04  0.50400001928E-02 0.  1.
        1   -1    0    0  501    0  0.00000000000E+00  0.00000000000E+00 -0.18156104312E+04  0.18156104312E+04  0.50400001928E-02 0. -1.
    10030    2    1    2    0    0  0.00000000000E+00  0.00000000000E+00  0.19207125072E+03  0.38232921132E+04  0.38184645104E+04 0.  0.
        5    1    3    3  502    0 -0.91445266357E+03  0.16703402215E+04 -0.41562950904E+02  0.19047334980E+04  0.46999998093E+01 0.  1.
       -5    1    3    3    0  502  0.91445266357E+03 -0.16703402215E+04  0.23363420162E+03  0.19185586151E+04  0.46999998093E+01 0. -1.
</event>
<event>
 5   0  0.1214844E-06  0.3651286E+04  0.7818609E-02  0.8078844E-01
        2   -1    0    0  501    0  0.00000000000E+00  0.00000000000E+00  0.10659745806E+04  0.10659745806E+04  0.25500000920E-02 0. -1.
       -2   -1    0    0    0  501  0.00000000000E+00  0.00000000000E+00 -0.31266909844E+04  0.31266909844E+04  0.25500000920E-02 0.  1.
    10030    2    1    2    0    0  0.00000000000E+00  0.00000000000E+00 -0.20607164039E+04  0.41926655650E+04  0.36512864093E+04 0.  0.
        4    1    3    3  502    0  0.41059648201E+03  0.15677395911E+04 -0.65144825368E+02  0.16219255093E+04  0.12699999809E+01 0. -1.
       -4    1    3    3    0  502 -0.41059648201E+03 -0.15677395911E+04 -0.19955715785E+04  0.25707400558E+04  0.12699999809E+01 0.  1.
</event>
<event>
 5   0  0.1337854E-06  0.2836748E+04  0.7818609E-02  0.8291950E-01
       -2   -1    0    0    0  501  0.00000000000E+00  0.00000000000E+00  0.14857848372E+04  0.14857848372E+04  0.25500000920E-02 0.  1.
        2   -1    0    0  501    0  0.00000000000E+00  0.00000000000E+00 -0.13540217397E+04  0.13540217397E+04  0.25500000920E-02 0. -1.
    10030    2    1    2    0    0  0.00000000000E+00  0.00000000000E+00  0.13176309751E+03  0.28398065770E+04  0.28367481173E+04 0.  0.
        3    1    3    3  502    0 -0.47017301519E+03 -0.13273508759E+04  0.23595275991E+03  0.14277943575E+04  0.10100000352E+00 0.  1.
       -3    1    3    3    0  502  0.47017301519E+03  0.13273508759E+04 -0.10418966240E+03  0.14120122195E+04  0.10100000352E+00 0. -1.
</event>
<event>
 5   0  0.1372748E-06  0.3864191E+04  0.7818609E-02  0.8032518E-01
        2   -1    0    0  501    0  0.00000000000E+00  0.00000000000E+00  0.15801765109E+04  0.15801765109E+04  0.25500000920E-02 0.  1.
       -2   -1    0    0    0  501  0.00000000000E+00  0.00000000000E+00 -0.23623898156E+04  0.23623898156E+04  0.25500000920E-02 0. -1.
    10030    2    1    2    0    0  0.00000000000E+00  0.00000000000E+00 -0.78221330469E+03  0.39425663265E+04  0.38641909353E+04 0.  0.
        1    1    3    3  502    0 -0.58536659493E+03 -0.82049574907E+02 -0.22678737015E+04  0.23436376233E+04  0.50400001928E-02 0. -1.
       -1    1    3    3    0  502  0.58536659493E+03  0.82049574907E+02  0.14856603968E+04  0.15989287032E+04  0.50400001928E-02 0.  1.
</event>
<event>
 5   0  0.1214844E-06  0.3859855E+04  0.7818609E-02  0.8033431E-01
        2   -1    0    0  501    0  0.00000000000E+00  0.00000000000E+00  0.31317759410E+04  0.31317759410E+04  0.25500000920E-02 0. -1.
       -2   -1    0    0    0  501  0.00000000000E+00  0.00000000000E+00 -0.11892998137E+04  0.11892998137E+04  0.25500000920E-02 0.  1.
    10030    2    1    2    0    0  0.00000000000E+00  0.00000000000E+00  0.19424761273E+04  0.43210757548E+04  0.38598552011E+04 0.  0.
        4    1    3    3  502    0 -0.40586448280E+03  0.77086239374E+03  0.28991262806E+04  0.30271917039E+04  0.12699999809E+01 0. -1.
       -4    1    3    3    0  502  0.40586448280E+03 -0.77086239374E+03 -0.95665015326E+03  0.12938840509E+04  0.12699999809E+01 0.  1.
</event>
<event>
 5   0  0.5284458E-07  0.3851030E+04  0.7818609E-02  0.8035292E-01
       -1   -1    0    0    0  501  0.00000000000E+00  0.00000000000E+00  0.15803434436E+04  0.15803434436E+04  0.50400001928E-02 0. -1.
        1   -1    0    0  501    0  0.00000000000E+00  0.00000000000E+00 -0.23460776177E+04  0.23460776177E+04  0.50400001928E-02 0.  1.
    10030    2    1    2    0    0  0.00000000000E+00  0.00000000000E+00 -0.76573417407E+03  0.39264210613E+04  0.38510301901E+04 0.  0.
        5    1    3    3  502    0  0.32048061567E+03  0.13440012773E+04 -0.17502176731E+04  0.22298724742E+04  0.46999998093E+01 0.  1.
       -5    1    3    3    0  502 -0.32048061567E+03 -0.13440012773E+04  0.98448349900E+03  0.16965485870E+04  0.46999998093E+01 0. -1.
</event>
<event>
 5   0  0.1337854E-06  0.1995716E+04  0.7818609E-02  0.8608626E-01
        2   -1    0    0  501    0  0.00000000000E+00  0.00000000000E+00  0.10569157961E+04  0.10569157961E+04  0.25500000920E-02 0. -1.
       -2   -1    0    0    0  501  0.00000000000E+00  0.00000000000E+00 -0.94209985261E+03  0.94209985261E+03  0.25500000920E-02 0.  1.
    10030    2    1    2    0    0  0.00000000000E+00  0.00000000000E+00  0.11481594346E+03  0.19990156487E+04  0.19957156267E+04 0.  0.
        3    1    3    3  502    0 -0.26028870176E+03  0.12880936254E+03  0.10136478275E+04  0.10544306466E+04  0.10100000352E+00 0. -1.
       -3    1    3    3    0  502  0.26028870176E+03 -0.12880936254E+03 -0.89883188404E+03  0.94458500206E+03  0.10100000352E+00 0.  1.
</event>
<event>
 5   0  0.5284458E-07  0.3929414E+04  0.7818609E-02  0.8018939E-01
       -1   -1    0    0    0  501  0.00000000000E+00  0.00000000000E+00  0.18728310677E+04  0.18728310677E+04  0.50400001928E-02 0.  1.
        1   -1    0    0  501    0  0.00000000000E+00  0.00000000000E+00 -0.20610905620E+04  0.20610905620E+04  0.50400001928E-02 0. -1.
    10030    2    1    2    0    0  0.00000000000E+00  0.00000000000E+00 -0.18825949432E+03  0.39339216298E+04  0.39294144286E+04 0.  0.
        5    1    3    3  502    0 -0.34305802864E+03  0.13726688879E+04  0.12705712609E+04  0.19016524672E+04  0.46999998093E+01 0.  1.
       -5    1    3    3    0  502  0.34305802864E+03 -0.13726688879E+04 -0.14588307552E+04  0.20322691626E+04  0.46999998093E+01 0. -1.
</event>
<event>
 5   0  0.1214844E-06  0.2773568E+04  0.7818609E-02  0.8311522E-01
        2   -1    0    0  501    0  0.00000000000E+00  0.00000000000E+00  0.18191225961E+04  0.18191225961E+04  0.25500000920E-02 0. -1.
       -2   -1    0    0    0  501  0.00000000000E+00  0.00000000000E+00 -0.10571962586E+04  0.10571962586E+04  0.25500000920E-02 0.  1.
    10030    2    1    2    0    0  0.00000000000E+00  0.00000000000E+00  0.76192633745E+03  0.28763188547E+04  0.27735678125E+04 0.  0.
        4    1    3    3  502    0  0.10348638304E+04  0.32875198050E+02 -0.57578970807E+03  0.11847190920E+04  0.12699999809E+01 0.  1.
       -4    1    3    3    0  502 -0.10348638304E+04 -0.32875198050E+02  0.13377160455E+04  0.16915997628E+04  0.12699999809E+01 0. -1.
</event>
<event>
 5   0  0.1341932E-06  0.2571090E+04  0.7818609E-02  0.8378088E-01
       -2   -1    0    0    0  501  0.00000000000E+00  0.00000000000E+00  0.97501587956E+03  0.97501587957E+03  0.25500000920E-02 0. -1.
        2   -1    0    0  501    0  0.00000000000E+00  0.00000000000E+00 -0.16949730131E+04  0.16949730131E+04  0.25500000920E-02 0.  1.
    10030    2    1    2    0    0  0.00000000000E+00  0.00000000000E+00 -0.71995713354E+03  0.26699888927E+04  0.25710897326E+04 0.  0.
        2    1    3    3  502    0  0.54738853644E+03  0.58509043011E+03 -0.14039650708E+04  0.16165033069E+04  0.25500000920E-02 0.  1.
       -2    1    3    3    0  502 -0.54738853644E+03 -0.58509043011E+03  0.68400793724E+03  0.10534855858E+04  0.25500000920E-02 0. -1.
</event>
<event>
 5   0  0.1372748E-06  0.1902825E+04  0.7818609E-02  0.8653451E-01
        2   -1    0    0  501    0  0.00000000000E+00  0.00000000000E+00  0.25073058362E+04  0.25073058362E+04  0.25500000920E-02 0.  1.
       -2   -1    0    0    0  501  0.00000000000E+00  0.00000000000E+00 -0.36101936570E+03  0.36101936571E+03  0.25500000920E-02 0. -1.
    10030    2    1    2    0    0  0.00000000000E+00  0.00000000000E+00  0.21462864705E+04  0.28683252019E+04  0.19028252286E+04 0.  0.
        1    1    3    3  502    0 -0.12506454850E+03 -0.37319589164E+03 -0.23254104835E+03  0.45715604997E+03  0.50400001928E-02 0. -1.
       -1    1    3    3    0  502  0.12506454850E+03  0.37319589164E+03  0.23788275189E+04  0.24111691520E+04  0.50400001928E-02 0.  1.
</event>
<event>
 5   0  0.1337854E-06  0.3766870E+04  0.7818609E-02  0.8053302E-01
        2   -1    0    0  501    0  0.00000000000E+00  0.00000000000E+00  0.18481672495E+04  0.18481672495E+04  0.25500000920E-02 0.  1.
       -2   -1    0    0    0  501  0.00000000000E+00  0.00000000000E+00 -0.19193759891E+04  0.19193759891E+04  0.25500000920E-02 0. -1.
    10030    2    1    2    0    0  0.00000000000E+00  0.00000000000E+00 -0.71208739579E+02  0.37675432386E+04  0.37668702353E+04 0.  0.
        3    1    3    3  502    0  0.17533980980E+04 -0.45119726508E+03 -0.55468068674E+03  0.18935824610E+04  0.10100000352E+00 0. -1.
       -3    1    3    3    0  502 -0.17533980980E+04  0.45119726508E+03  0.48347194716E+03  0.18739607776E+04  0.10100000352E+00 0.  1.
</event>
<event>
 5   0  0.1341932E-06  0.3887927E+04  0.7818609E-02  0.8027545E-01
        2   -1    0    0  501    0  0.00000000000E+00  0.00000000000E+00  0.24918281253E+04  0.24918281253E+04  0.25500000920E-02 0. -1.
       -2   -1    0    0    0  501  0.00000000000E+00  0.00000000000E+00 -0.15165547677E+04  0.15165547677E+04  0.25500000920E-02 0.  1.
    10030    2    1    2    0    0  0.00000000000E+00  0.00000000000E+00  0.97527335758E+03  0.40083828930E+04  0.38879268633E+04 0.  0.
        2    1    3    3  502    0  0.19269571189E+04  0.85224211864E+02  0.23813279901E+03  0.19434850487E+04  0.25500000920E-02 0.  1.
       -2    1    3    3    0  502 -0.19269571189E+04 -0.85224211864E+02  0.73714055857E+03  0.20648978443E+04  0.25500000920E-02 0. -1.
</event>
<event>
 5   0  0.4255250E-07  0.2325813E+04  0.7818609E-02  0.8467812E-01
        1   -1    0    0  501    0  0.00000000000E+00  0.00000000000E+00  0.16299676021E+04  0.16299676021E+04  0.50400001928E-02 0. -1.
       -1   -1    0    0    0  501  0.00000000000E+00  0.00000000000E+00 -0.82968012161E+03  0.82968012162E+03  0.50400001928E-02 0.  1.
    10030    2    1    2    0    0  0.00000000000E+00  0.00000000000E+00  0.80028748048E+03  0.24596477237E+04  0.23258131639E+04 0.  0.
        2    1    3    3  502    0  0.10804097810E+04  0.24687385188E+03  0.27564640993E+02  0.11085990272E+04  0.25500000920E-02 0.  1.
       -2    1    3    3    0  502 -0.10804097810E+04 -0.24687385188E+03  0.77272283948E+03  0.13510486965E+04  0.25500000920E-02 0. -1.
</event>
<event>
 5   0  0.4255250E-07  0.1918882E+04  0.7818609E-02  0.8645514E-01
        1   -1    0    0  501    0  0.00000000000E+00  0.00000000000E+00  0.83394463963E+03  0.83394463965E+03  0.50400001928E-02 0. -1.
       -1   -1    0    0    0  501  0.00000000000E+00  0.00000000000E+00 -0.11038224150E+04  0.11038224151E+04  0.50400001928E-02 0.  1.
    10030    2    1    2    0    0  0.00000000000E+00  0.00000000000E+00 -0.26987777541E+03  0.19377670547E+04  0.19188817433E+04 0.  0.
        2    1    3    3  502    0 -0.18531108508E+03 -0.90184336679E+03 -0.40753096431E+03  0.10068481233E+04  0.25500000920E-02 0.  1.
       -2    1    3    3    0  502  0.18531108508E+03  0.90184336679E+03  0.13765318890E+03  0.93091893143E+03  0.25500000920E-02 0. -1.
</event>
<event>
 5   0  0.8030324E-07  0.3692821E+04  0.7818609E-02  0.8069555E-01
        1   -1    0    0  501    0  0.00000000000E+00  0.00000000000E+00  0.30674595746E+04  0.30674595746E+04  0.50400001928E-02 0. -1.
       -1   -1    0    0    0  501  0.00000000000E+00  0.00000000000E+00 -0.11114186716E+04  0.11114186716E+04  0.50400001928E-02 0.  1.
    10030    2    1    2    0    0  0.00000000000E+00  0.00000000000E+00  0.19560409030E+04  0.41788782462E+04  0.36928210601E+04 0.  0.
        1    1    3    3  502    0  0.11349000909E+03 -0.68937558615E+03 -0.95606494155E+03  0.11841363323E+04  0.50400001928E-02 0.  1.
       -1    1    3    3    0  502 -0.11349000909E+03  0.68937558615E+03  0.29121058446E+04  0.29947419139E+04  0.50400001928E-02 0. -1.
</event>
<event>
 5   0  0.1337854E-06  0.2534205E+04  0.7818609E-02  0.8390900E-01
       -2   -1    0    0    0  501  0.00000000000E+00  0.00000000000E+00  0.82936497105E+03  0.82936497105E+03  0.25500000920E-02 0. -1.
        2   -1    0    0  501    0  0.00000000000E+00  0.00000000000E+00 -0.19358773133E+04  0.19358773133E+04  0.25500000920E-02 0.  1.
    10030    2    1    2    0    0  0.00000000000E+00  0.00000000000E+00 -0.11065123422E+04  0.27652422843E+04  0.25342050682E+04 0.  0.
        3    1    3    3  502    0 -0.10635862754E+04 -0.21363542143E+03  0.16118193651E+03  0.10967385675E+04  0.10100000352E+00 0. -1.
       -3    1    3    3    0  502  0.10635862754E+04  0.21363542143E+03 -0.12676942787E+04  0.16685037168E+04  0.10100000352E+00 0.  1.
</event>
<event>
 5   0  0.1337854E-06  0.4263174E+04  0.7818609E-02  0.7953463E-01
        2   -1    0    0  501    0  0.00000000000E+00  0.00000000000E+00  0.30654293728E+04  0.30654293728E+04  0.25500000920E-02 0.  1.
       -2   -1    0    0    0  501  0.00000000000E+00  0.00000000000E+00 -0.14822275420E+04  0.14822275420E+04  0.25500000920E-02 0. -1.
    10030    2    1    2    0    0  0.00000000000E+00  0.00000000000E+00  0.15832018308E+04  0.45476569148E+04  0.42631743312E+04 0.  0.
        3    1    3    3  502    0 -0.10440171446E+03 -0.60125200837E+03  0.29702547880E+04  0.30322956999E+04  0.10100000352E+00 0.  1.
       -3    1    3    3    0  502  0.10440171446E+03  0.60125200837E+03 -0.13870529572E+04  0.15153612150E+04  0.10100000352E+00 0. -1.
</event>
<event>
 5   0  0.1372748E-06  0.3798585E+04  0.7818609E-02  0.8046459E-01
       -2   -1    0    0    0  501  0.00000000000E+00  0.00000000000E+00  0.15182167959E+04  0.15182167959E+04  0.25500000920E-02 0.  1.
        2   -1    0    0  501    0  0.00000000000E+00  0.00000000000E+00 -0.23760186208E+04  0.23760186208E+04  0.25500000920E-02 0. -1.
    10030    2    1    2    0    0  0.00000000000E+00  0.00000000000E+00 -0.85780182489E+03  0.38942354167E+04  0.37985846719E+04 0.  0.
        1    1    3    3  502    0 -0.17651106034E+04 -0.40946999435E+03 -0.10124712039E+04  0.20756635222E+04  0.50400001928E-02 0. -1.
       -1    1    3    3    0  502  0.17651106034E+04  0.40946999435E+03  0.15466937901E+03  0.18185718945E+04  0.50400001928E-02 0.  1.
</event>
<event>
 5   0  0.4255250E-07  0.4093042E+04  0.7818609E-02  0.7986036E-01
        1   -1    0    0  501    0  0.00000000000E+00  0.00000000000E+00  0.24511589130E+04  0.24511589130E+04  0.50400001928E-02 0. -1.
       -1   -1    0    0    0  501  0.00000000000E+00  0.00000000000E+00 -0.17086809293E+04  0.17086809293E+04  0.50400001928E-02 0.  1.
    10030    2    1    2    0    0  0.00000000000E+00  0.00000000000E+00  0.74247798374E+03  0.41598398423E+04  0.40930421397E+04 0.  0.
        2    1    3    3  502    0  0.12045609971E+04  0.48002260043E+03 -0.12379068217E+04  0.17927080610E+04  0.25500000920E-02 0.  1.
       -2    1    3    3    0  502 -0.12045609971E+04 -0.48002260043E+03  0.19803848054E+04  0.23671317813E+04  0.25500000920E-02 0. -1.
</event>
<event>
 5   0  0.1337854E-06  0.2067285E+04  0.7818609E-02  0.8575793E-01
       -2   -1    0    0    0  501  0.00000000000E+00  0.00000000000E+00  0.91133284057E+03  0.91133284058E+03  0.25500000920E-02 0. -1.
        2   -1    0    0  501    0  0.00000000000E+00  0.00000000000E+00 -0.11723674658E+04  0.11723674658E+04  0.25500000920E-02 0.  1.
    10030    2    1    2    0    0  0.00000000000E+00  0.00000000000E+00 -0.26103462523E+03  0.20837003064E+04  0.20672851500E+04 0.  0.
        3    1    3    3  502    0 -0.34676516055E+03 -0.50326949816E+03 -0.97073751540E+03  0.11471083638E+04  0.10100000352E+00 0.  1.
       -3    1    3    3    0  502  0.34676516055E+03  0.50326949816E+03  0.70970289017E+03  0.93659194256E+03  0.10100000352E+00 0. -1.
</event>
<event>
 5   0  0.1214844E-06  0.3806925E+04  0.7818609E-02  0.8044670E-01
       -2   -1    0    0    0  501  0.00000000000E+00  0.00000000000E+00  0.12141103989E+04  0.12141103989E+04  0.25500000920E-02 0. -1.
        2   -1    0    0  501    0  0.00000000000E+00  0.00000000000E+00 -0.29842181794E+04  0.29842181794E+04  0.25500000920E-02 0.  1.
    10030    2    1    2    0    0  0.00000000000E+00  0.00000000000E+00 -0.17701077805E+04  0.41983285783E+04  0.38069254388E+04 0.  0.
        4    1    3    3  502    0 -0.54654410159E+02  0.16957235959E+03  0.12048945168E+04  0.12179960177E+04  0.12699999809E+01 0. -1.
       -4    1    3    3    0  502  0.54654410159E+02 -0.16957235959E+03 -0.29750022973E+04  0.29803325606E+04  0.12699999809E+01 0.  1.
</event>
<event>
 5   0  0.1184616E-06  0.2773725E+04  0.7818609E-02  0.8311472E-01
       -2   -1    0    0    0  501  0.00000000000E+00  0.00000000000E+00  0.13476462825E+04  0.13476462825E+04  0.25500000920E-02 0. -1.
        2   -1    0    0  501    0  0.00000000000E+00  0.00000000000E+00 -0.14272203016E+04  0.14272203016E+04  0.25500000920E-02 0.  1.
    10030    2    1    2    0    0  0.00000000000E+00  0.00000000000E+00 -0.79574019086E+02  0.27748665842E+04  0.27737253893E+04 0.  0.
        5    1    3    3  502    0 -0.79505974412E+03 -0.33860942332E+03 -0.11249404891E+04  0.14185519139E+04  0.46999998093E+01 0.  1.
       -5    1    3    3    0  502  0.79505974412E+03  0.33860942332E+03  0.10453664700E+04  0.13563146703E+04  0.46999998093E+01 0. -1.
</event>
<event>
 5   0  0.4795023E-07  0.2317917E+04  0.7818609E-02  0.8470890E-01
       -1   -1    0    0    0  501  0.00000000000E+00  0.00000000000E+00  0.94750064253E+03  0.94750064254E+03  0.50400001928E-02 0. -1.
        1   -1    0    0  501    0  0.00000000000E+00  0.00000000000E+00 -0.14176078884E+04  0.14176078885E+04  0.50400001928E-02 0.  1.
    10030    2    1    2    0    0  0.00000000000E+00  0.00000000000E+00 -0.47010724592E+03  0.23651085310E+04  0.23179166380E+04 0.  0.
        3    1    3    3  502    0  0.30675244572E+03  0.11042549588E+04 -0.59183467232E+02  0.11475969545E+04  0.10100000352E+00 0. -1.
       -3    1    3    3    0  502 -0.30675244572E+03 -0.11042549588E+04 -0.41092377869E+03  0.12175115765E+04  0.10100000352E+00 0.  1.
</event>
<event>
 5   0  0.5284458E-07  0.2928574E+04  0.7818609E-02  0.8264426E-01
       -1   -1    0    0    0  501  0.00000000000E+00  0.00000000000E+00  0.82398223285E+03  0.82398223287E+03  0.50400001928E-02 0.  1.
        1   -1    0    0  501    0  0.00000000000E+00  0.00000000000E+00 -0.26021639077E+04  0.26021639077E+04  0.50400001928E-02 0. -1.
    10030    2    1    2    0    0  0.00000000000E+00  0.00000000000E+00 -0.17781816749E+04  0.34261461406E+04  0.29285742791E+04 0.  0.
        5    1    3    3  502    0  0.12035417447E+04 -0.33025398467E+03  0.68851102604E+01  0.12480584603E+04  0.46999998093E+01 0.  1.
       -5    1    3    3    0  502 -0.12035417447E+04  0.33025398467E+03 -0.17850667851E+04  0.21780876803E+04  0.46999998093E+01 0. -1.
</event>
<event>
 5   0  0.8030324E-07  0.1938786E+04  0.7818609E-02  0.8635787E-01
        1   -1    0    0  501    0  0.00000000000E+00  0.00000000000E+00  0.11124499810E+04  0.11124499810E+04  0.50400001928E-02 0. -1.
       -1   -1    0    0    0  501  0.00000000000E+00  0.00000000000E+00 -0.84473302248E+03  0.84473302249E+03  0.50400001928E-02 0.  1.
    10030    2    1    2    0    0  0.00000000000E+00  0.00000000000E+00  0.26771695850E+03  0.19571830035E+04  0.19387864605E+04 0.  0.
        1    1    3    3  502    0  0.75842301061E+03 -0.53128244453E+03  0.42338422799E+03  0.10181948259E+04  0.50400001928E-02 0. -1.
       -1    1    3    3    0  502 -0.75842301061E+03  0.53128244453E+03 -0.15566726949E+03  0.93898817761E+03  0.50400001928E-02 0.  1.
</event>
<event>
 5   0  0.1337854E-06  0.3829863E+04  0.7818609E-02  0.8039777E-01
       -2   -1    0    0    0  501  0.00000000000E+00  0.00000000000E+00  0.29152156737E+04  0.29152156737E+04  0.25500000920E-02 0. -1.
        2   -1    0    0  501    0  0.00000000000E+00  0.00000000000E+00 -0.12578698040E+04  0.12578698040E+04  0.25500000920E-02 0.  1.
    10030    2    1    2    0    0  0.00000000000E+00  0.00000000000E+00  0.16573458697E+04  0.41730854777E+04  0.38298625396E+04 0.  0.
        3    1    3    3  502    0 -0.10510998739E+04  0.32214072693E+03  0.25371071562E+04  0.27650494255E+04  0.10100000352E+00 0. -1.
       -3    1    3    3    0  502  0.10510998739E+04 -0.32214072693E+03 -0.87976128651E+03  0.14080360522E+04  0.10100000352E+00 0.  1.
</event>
<event>
 5   0  0.4255250E-07  0.3723608E+04  0.7818609E-02  0.8062750E-01
        1   -1    0    0  501    0  0.00000000000E+00  0.00000000000E+00  0.28040239307E+04  0.28040239307E+04  0.50400001928E-02 0.  1.
       -1   -1    0    0    0  501  0.00000000000E+00  0.00000000000E+00 -0.12361930983E+04  0.12361930983E+04  0.50400001928E-02 0. -1.
    10030    2    1    2    0    0  0.00000000000E+00  0.00000000000E+00  0.15678308325E+04  0.40402170290E+04  0.37236084813E+04 0.  0.
        2    1    3    3  502    0 -0.11233372503E+04 -0.80205345537E+03 -0.57177782194E+03  0.14940234941E+04  0.25500000920E-02 0. -1.
       -2    1    3    3    0  502  0.11233372503E+04  0.80205345537E+03  0.21396086544E+04  0.25461935349E+04  0.25500000920E-02 0.  1.
</event>
<event>
 5   0  0.1079205E-06  0.2679188E+04  0.7818609E-02  0.8341789E-01
        1   -1    0    0  501    0  0.00000000000E+00  0.00000000000E+00  0.17028379594E+04  0.17028379594E+04  0.50400001928E-02 0. -1.
       -1   -1    0    0    0  501  0.00000000000E+00  0.00000000000E+00 -0.10538363588E+04  0.10538363588E+04  0.50400001928E-02 0.  1.
    10030    2    1    2    0    0  0.00000000000E+00  0.00000000000E+00  0.64900160057E+03  0.27566743183E+04  0.26791883509E+04 0.  0.
        4    1    3    3  502    0  0.12494757045E+04 -0.17642024953E+03  0.78716925694E+03  0.14872628189E+04  0.12699999809E+01 0. -1.
       -4    1    3    3    0  502 -0.12494757045E+04  0.17642024953E+03 -0.13816765637E+03  0.12694114994E+04  0.12699999809E+01 0.  1.
</event>
<event>
 5   0  0.5809660E-07  0.2056002E+04  0.7818609E-02  0.8580876E-01
        1   -1    0    0  501    0  0.00000000000E+00  0.00000000000E+00  0.10737560019E+04  0.10737560019E+04  0.50400001928E-02 0.  1.
       -1   -1    0    0    0  501  0.00000000000E+00  0.00000000000E+00 -0.98419615685E+03  0.98419615686E+03  0.50400001928E-02 0. -1.
    10030    2    1    2    0    0  0.00000000000E+00  0.00000000000E+00  0.89559845015E+02  0.20579521587E+04  0.20560024615E+04 0.  0.
        5    1    3    3  502    0  0.48492472683E+02 -0.83142469682E+03  0.64796725628E+03  0.10552261377E+04  0.46999998093E+01 0.  1.
       -5    1    3    3    0  502 -0.48492472683E+02  0.83142469682E+03 -0.55840741126E+03  0.10027260211E+04  0.46999998093E+01 0. -1.
</event>
<event>
 5   0  0.8030324E-07  0.2276195E+04  0.7818609E-02  0.8487366E-01
        1   -1    0    0  501    0  0.00000000000E+00  0.00000000000E+00  0.18554206842E+04  0.18554206842E+04  0.50400001928E-02 0. -1.
       -1   -1    0    0    0  501  0.00000000000E+00  0.00000000000E+00 -0.69809850793E+03  0.69809850795E+03  0.50400001928E-02 0.  1.
    10030    2    1    2    0    0  0.00000000000E+00  0.00000000000E+00  0.11573221763E+04  0.25535191922E+04  0.22761954321E+04 0.  0.
        1    1    3    3  502    0  0.89706630918E+03  0.41313295812E+03 -0.55806262741E+02  0.98920227615E+03  0.50400001928E-02 0.  1.
       -1    1    3    3    0  502 -0.89706630918E+03 -0.41313295812E+03  0.12131284390E+04  0.15643169160E+04  0.50400001928E-02 0. -1.
</event>
<event>
 5   0  0.1341932E-06  0.2958427E+04  0.7818609E-02  0.8255703E-01
       -2   -1    0    0    0  501  0.00000000000E+00  0.00000000000E+00  0.10614634800E+04  0.10614634800E+04  0.25500000920E-02 0.  1.
        2   -1    0    0  501    0  0.00000000000E+00  0.00000000000E+00 -0.20613737938E+04  0.20613737938E+04  0.25500000920E-02 0. -1.
    10030    2    1    2    0    0  0.00000000000E+00  0.00000000000E+00 -0.99991031382E+03  0.31228372739E+04  0.29584272855E+04 0.  0.
        2    1    3    3  502    0  0.55653796101E+02  0.52417034902E+03 -0.19588711130E+04  0.20285531635E+04  0.25500000920E-02 0. -1.
       -2    1    3    3    0  502 -0.55653796101E+02 -0.52417034902E+03  0.95896079918E+03  0.10942841104E+04  0.25500000920E-02 0.  1.
</event>
<event>
 5   0  0.1184616E-06  0.2671457E+04  0.7818609E-02  0.8344326E-01
        2   -1    0    0  501    0  0.00000000000E+00  0.00000000000E+00  0.19865767970E+04  0.19865767970E+04  0.25500000920E-02 0. -1.
       -2   -1    0    0    0  501  0.00000000000E+00  0.00000000000E+00 -0.89811305793E+03  0.89811305793E+03  0.25500000920E-02 0.  1.
    10030    2    1    2    0    0  0.00000000000E+00  0.00000000000E+00  0.10884637391E+04  0.28846898549E+04  0.26714569523E+04 0.  0.
        5    1    3    3  502    0 -0.41567096480E+03  0.79783812846E+03 -0.52190573180E+03  0.10400652446E+04  0.46999998093E+01 0.  1.
       -5    1    3    3    0  502  0.41567096480E+03 -0.79783812846E+03  0.16103694709E+04  0.18446246103E+04  0.46999998093E+01 0. -1.
</event>
<event>
 5   0  0.1337854E-06  0.2840623E+04  0.7818609E-02  0.8290766E-01
       -2   -1    0    0    0  501  0.00000000000E+00  0.00000000000E+00  0.14217580325E+04  0.14217580325E+04  0.25500000920E-02 0.  1.
        2   -1    0    0  501    0  0.00000000000E+00  0.00000000000E+00 -0.14188668715E+04  0.14188668715E+04  0.25500000920E-02 0. -1.
    10030    2    1    2    0    0  0.00000000000E+00  0.00000000000E+00  0.28911609979E+01  0.28406249040E+04  0.28406234327E+04 0.  0.
        3    1    3    3  502    0  0.12744420962E+04  0.47696819238E+03  0.40836599028E+03  0.14207266117E+04  0.10100000352E+00 0. -1.
       -3    1    3    3    0  502 -0.12744420962E+04 -0.47696819238E+03 -0.40547482928E+03  0.14198982923E+04  0.10100000352E+00 0.  1.
</event>
<event>
 5   0  0.1184616E-06  0.2268999E+04  0.7818609E-02  0.8490245E-01
       -2   -1    0    0    0  501  0.00000000000E+00  0.00000000000E+00  0.11244135481E+04  0.11244135481E+04  0.25500000920E-02 0. -1.
        2   -1    0    0  501    0  0.00000000000E+00  0.00000000000E+00 -0.11446762782E+04  0.11446762782E+04  0.25500000920E-02 0.  1.
    10030    2    1    2    0    0  0.00000000000E+00  0.00000000000E+00 -0.20262730164E+02  0.22690898263E+04  0.22689993525E+04 0.  0.
        5    1    3    3  502    0 -0.30704878696E+03  0.10786307081E+04  0.16117713910E+03  0.11330151465E+04  0.46999998093E+01 0. -1.
       -5    1    3    3    0  502  0.30704878696E+03 -0.10786307081E+04 -0.18143986926E+03  0.11360746798E+04  0.46999998093E+01 0.  1.
</event>
<event>
 5   0  0.8030324E-07  0.3480404E+04  0.7818609E-02  0.8118450E-01
       -1   -1    0    0    0  501  0.00000000000E+00  0.00000000000E+00  0.16948349046E+04  0.16948349046E+04  0.50400001928E-02 0.  1.
        1   -1    0    0  501    0  0.00000000000E+00  0.00000000000E+00 -0.17867836389E+04  0.17867836389E+04  0.50400001928E-02 0. -1.
    10030    2    1    2    0    0  0.00000000000E+00  0.00000000000E+00 -0.91948734243E+02  0.34816185435E+04  0.34804041594E+04 0.  0.
        1    1    3    3  502    0 -0.96605109126E+03  0.11113448297E+04  0.88169015067E+03  0.17163098681E+04  0.50400001928E-02 0.  1.
       -1    1    3    3    0  502  0.96605109126E+03 -0.11113448297E+04 -0.97363888491E+03  0.17653086755E+04  0.50400001928E-02 0. -1.
</event>
<event>
 5   0  0.4255250E-07  0.3774473E+04  0.7818609E-02  0.8051655E-01
       -3   -1    0    0    0  501  0.00000000000E+00  0.00000000000E+00  0.17062469329E+04  0.17062469359E+04  0.10100000352E+00 0. -1.
        3   -1    0    0  501    0  0.00000000000E+00  0.00000000000E+00 -0.20874244012E+04  0.20874244037E+04  0.10100000352E+00 0.  1.
    10030    2    1    2    0    0  0.00000000000E+00  0.00000000000E+00 -0.38117746828E+03  0.37936713396E+04  0.37744729394E+04 0.  0.
        3    1    3    3  502    0  0.13133431669E+04  0.11185709837E+04  0.57854219091E+03  0.18195555491E+04  0.10100000352E+00 0. -1.
       -3    1    3    3    0  502 -0.13133431669E+04 -0.11185709837E+04 -0.95971965919E+03  0.19741157904E+04  0.10100000352E+00 0.  1.
</event>
<event>
 5   0  0.5284458E-07  0.3540669E+04  0.7818609E-02  0.8104219E-01
        1   -1    0    0  501    0  0.00000000000E+00  0.00000000000E+00  0.16578482234E+04  0.16578482234E+04  0.50400001928E-02 0. -1.
       -1   -1    0    0    0  501  0.00000000000E+00  0.00000000000E+00 -0.18904534402E+04  0.18904534402E+04  0.50400001928E-02 0.  1.
    10030    2    1    2    0    0  0.00000000000E+00  0.00000000000E+00 -0.23260521675E+03  0.35483016636E+04  0.35406693589E+04 0.  0.
        5    1    3    3  502    0  0.17570808940E+03 -0.12734079732E+04 -0.13361452506E+04  0.18541163446E+04  0.46999998093E+01 0.  1.
       -5    1    3    3    0  502 -0.17570808940E+03  0.12734079732E+04  0.11035400338E+04  0.16941853190E+04  0.46999998093E+01 0. -1.
</event>
<event>
 5   0  0.1341932E-06  0.2076170E+04  0.7818609E-02  0.8571814E-01
       -2   -1    0    0    0  501  0.00000000000E+00  0.00000000000E+00  0.47614815303E+03  0.47614815304E+03  0.25500000920E-02 0.  1.
        2   -1    0    0  501    0  0.00000000000E+00  0.00000000000E+00 -0.22632040958E+04  0.22632040958E+04  0.25500000920E-02 0. -1.
    10030    2    1    2    0    0  0.00000000000E+00  0.00000000000E+00 -0.17870559428E+04  0.27393522489E+04  0.20761699836E+04 0.  0.
        2    1    3    3  502    0 -0.63321485071E+03 -0.57966183753E+03 -0.12344031469E+03  0.86729833642E+03  0.25500000920E-02 0.  1.
       -2    1    3    3    0  502  0.63321485071E+03  0.57966183753E+03 -0.16636156281E+04  0.18720539125E+04  0.25500000920E-02 0. -1.
</event>
<event>
 5   0  0.1337854E-06  0.3651550E+04  0.7818609E-02  0.8078785E-01
       -2   -1    0    0    0  501  0.00000000000E+00  0.00000000000E+00  0.17773236305E+04  0.17773236306E+04  0.25500000920E-02 0. -1.
        2   -1    0    0  501    0  0.00000000000E+00  0.00000000000E+00 -0.18755473986E+04  0.18755473986E+04  0.25500000920E-02 0.  1.
    10030    2    1    2    0    0  0.00000000000E+00  0.00000000000E+00 -0.98223768037E+02  0.36528710291E+04  0.36515501978E+04 0.  0.
        3    1    3    3  502    0 -0.16532043636E+04 -0.15491496173E+03 -0.80857776966E+03  0.18468571502E+04  0.10100000352E+00 0.  1.
       -3    1    3    3    0  502  0.16532043636E+04  0.15491496173E+03  0.71035400162E+03  0.18060138790E+04  0.10100000352E+00 0. -1.
</event>
<event>
 5   0  0.1337854E-06  0.3384574E+04  0.7818609E-02  0.8141703E-01
        2   -1    0    0  501    0  0.00000000000E+00  0.00000000000E+00  0.23828877390E+04  0.23828877390E+04  0.25500000920E-02 0.  1.
       -2   -1    0    0    0  501  0.00000000000E+00  0.00000000000E+00 -0.12018340810E+04  0.12018340810E+04  0.25500000920E-02 0. -1.
    10030    2    1    2    0    0  0.00000000000E+00  0.00000000000E+00  0.11810536580E+04  0.35847218200E+04  0.33845742396E+04 0.  0.
        3    1    3    3  502    0 -0.13385263818E+04  0.77704964796E+03 -0.13432465997E+03  0.15535450282E+04  0.10100000352E+00 0. -1.
       -3    1    3    3    0  502  0.13385263818E+04 -0.77704964796E+03  0.13153783180E+04  0.20311767918E+04  0.10100000352E+00 0.  1.
</event>
<event>
 5   0  0.4255250E-07  0.2283791E+04  0.7818609E-02  0.8484340E-01
        1   -1    0    0  501    0  0.00000000000E+00  0.00000000000E+00  0.14966199292E+04  0.14966199292E+04  0.50400001928E-02 0.  1.
       -1   -1    0    0    0  501  0.00000000000E+00  0.00000000000E+00 -0.87124695559E+03  0.87124695561E+03  0.50400001928E-02 0. -1.
    10030    2    1    2    0    0  0.00000000000E+00  0.00000000000E+00  0.62537297360E+03  0.23678668848E+04  0.22837911963E+04 0.  0.
        2    1    3    3  502    0  0.32158583713E+03  0.10887452864E+04  0.44026858901E+03  0.12176289171E+04  0.25500000920E-02 0.  1.
       -2    1    3    3    0  502 -0.32158583713E+03 -0.10887452864E+04  0.18510438459E+03  0.11502379677E+04  0.25500000920E-02 0. -1.
</event>
<event>
 5   0  0.1214844E-06  0.3733313E+04  0.7818609E-02  0.8060619E-01
        2   -1    0    0  501    0  0.00000000000E+00  0.00000000000E+00  0.24625075744E+04  0.24625075744E+04  0.25500000920E-02 0.  1.
       -2   -1    0    0    0  501  0.00000000000E+00  0.00000000000E+00 -0.14149833882E+04  0.14149833882E+04  0.25500000920E-02 0. -1.
    10030    2    1    2    0    0  0.00000000000E+00  0.00000000000E+00  0.10475241862E+04  0.38774909626E+04  0.37333134405E+04 0.  0.
        4    1    3    3  502    0  0.91377883895E+03  0.56835902352E+03 -0.10603899085E+04  0.15107786460E+04  0.12699999809E+01 0. -1.
       -4    1    3    3    0  502 -0.91377883895E+03 -0.56835902352E+03  0.21079140948E+04  0.23667123167E+04  0.12699999809E+01 0.  1.
</event>
<event>
 5   0  0.1337854E-06  0.3705028E+04  0.7818609E-02  0.8066849E-01
       -2   -1    0    0    0  501  0.00000000000E+00  0.00000000000E+00  0.13476863972E+04  0.13476863972E+04  0.25500000920E-02 0.  1.
        2   -1    0    0  501    0  0.00000000000E+00  0.00000000000E+00 -0.25464436678E+04  0.25464436679E+04  0.25500000920E-02 0. -1.
    10030    2    1    2    0    0  0.00000000000E+00  0.00000000000E+00 -0.11987572706E+04  0.38941300651E+04  0.37050276612E+04 0.  0.
        3    1    3    3  502    0 -0.14479116996E+04  0.44217477888E+03 -0.17215032014E+04  0.22924964793E+04  0.10100000352E+00 0. -1.
       -3    1    3    3    0  502  0.14479116996E+04 -0.44217477888E+03  0.52274593082E+03  0.16016335858E+04  0.10100000352E+00 0.  1.
</event>
<event>
 5   0  0.1337854E-06  0.4186286E+04  0.7818609E-02  0.7967986E-01
        2   -1    0    0  501    0  0.00000000000E+00  0.00000000000E+00  0.19766740830E+04  0.19766740830E+04  0.25500000920E-02 0. -1.
       -2   -1    0    0    0  501  0.00000000000E+00  0.00000000000E+00 -0.22164742404E+04  0.22164742404E+04  0.25500000920E-02 0.  1.
    10030    2    1    2    0    0  0.00000000000E+00  0.00000000000E+00 -0.23980015733E+03  0.41931483234E+04  0.41862857937E+04 0.  0.
        3    1    3    3  502    0  0.12311654666E+04 -0.16223432564E+04  0.36409087365E+03  0.20688954111E+04  0.10100000352E+00 0. -1.
       -3    1    3    3    0  502 -0.12311654666E+04  0.16223432564E+04 -0.60389103099E+03  0.21242529123E+04  0.10100000352E+00 0.  1.
</event>
<event>
 5   0  0.1337854E-06  0.3121628E+04  0.7818609E-02  0.8209827E-01
        2   -1    0    0  501    0  0.00000000000E+00  0.00000000000E+00  0.25814434094E+04  0.25814434094E+04  0.25500000920E-02 0. -1.
       -2   -1    0    0    0  501  0.00000000000E+00  0.00000000000E+00 -0.94371272558E+03  0.94371272559E+03  0.25500000920E-02 0.  1.
    10030    2    1    2    0    0  0.00000000000E+00  0.00000000000E+00  0.16377306838E+04  0.35251561350E+04  0.31216284185E+04 0.  0.
        3    1    3    3  502    0 -0.82038424570E+02  0.14264097503E+04  0.15283891467E+04  0.20922113835E+04  0.10100000352E+00 0. -1.
       -3    1    3    3    0  502  0.82038424570E+02 -0.14264097503E+04  0.10934153704E+03  0.14329447515E+04  0.10100000352E+00 0.  1.
</event>
<event>
 5   0  0.1184616E-06  0.3912787E+04  0.7818609E-02  0.8022375E-01
       -2   -1    0    0    0  501  0.00000000000E+00  0.00000000000E+00  0.17005390384E+04  0.17005390384E+04  0.25500000920E-02 0.  1.
        2   -1    0    0  501    0  0.00000000000E+00  0.00000000000E+00 -0.22507425920E+04  0.22507425920E+04  0.25500000920E-02 0. -1.
    10030    2    1    2    0    0  0.00000000000E+00  0.00000000000E+00 -0.55020355363E+03  0.39512816304E+04  0.39127870594E+04 0.  0.
        5    1    3    3  502    0  0.10737366773E+03 -0.38007315643E+03 -0.22100604577E+04  0.22450777326E+04  0.46999998093E+01 0. -1.
       -5    1    3    3    0  502 -0.10737366773E+03  0.38007315643E+03  0.16598569041E+04  0.17062038978E+04  0.46999998093E+01 0.  1.
</event>
<event>
 5   0  0.5284458E-07  0.2551418E+04  0.7818609E-02  0.8384893E-01
        1   -1    0    0  501    0  0.00000000000E+00  0.00000000000E+00  0.54508541821E+03  0.54508541823E+03  0.50400001928E-02 0. -1.
       -1   -1    0    0    0  501  0.00000000000E+00  0.00000000000E+00 -0.29856484420E+04  0.29856484420E+04  0.50400001928E-02 0.  1.
    10030    2    1    2    0    0  0.00000000000E+00  0.00000000000E+00 -0.24405630238E+04  0.35307338602E+04  0.25514179820E+04 0.  0.
        5    1    3    3  502    0  0.59664441030E+03  0.79856890315E+03 -0.11866562439E+03  0.10038926565E+04  0.46999998093E+01 0. -1.
       -5    1    3    3    0  502 -0.59664441030E+03 -0.79856890315E+03 -0.23218973994E+04  0.25268412037E+04  0.46999998093E+01 0.  1.
</event>
<event>
 5   0  0.4255250E-07  0.2409625E+04  0.7818609E-02  0.8435909E-01
        1   -1    0    0  501    0  0.00000000000E+00  0.00000000000E+00  0.17046283638E+04  0.17046283638E+04  0.50400001928E-02 0. -1.
       -1   -1    0    0    0  501  0.00000000000E+00  0.00000000000E+00 -0.85154816533E+03  0.85154816534E+03  0.50400001928E-02 0.  1.
    10030    2    1    2    0    0  0.00000000000E+00  0.00000000000E+00  0.85308019847E+03  0.25561765291E+04  0.24096249964E+04 0.  0.
        2    1    3    3  502    0 -0.82019561519E+03  0.18656495874E+02 -0.50945133711E+03  0.96571713090E+03  0.25500000920E-02 0.  1.
       -2    1    3    3    0  502  0.82019561519E+03 -0.18656495874E+02  0.13625315356E+04  0.15904593983E+04  0.25500000920E-02 0. -1.
</event>
<event>
 5   0  0.8030324E-07  0.3746380E+04  0.7818609E-02  0.8057760E-01
       -1   -1    0    0    0  501  0.00000000000E+00  0.00000000000E+00  0.14927726590E+04  0.14927726590E+04  0.50400001928E-02 0.  1.
        1   -1    0    0  501    0  0.00000000000E+00  0.00000000000E+00 -0.23505532321E+04  0.23505532321E+04  0.50400001928E-02 0. -1.
    10030    2    1    2    0    0  0.00000000000E+00  0.00000000000E+00 -0.85778057310E+03  0.38433258911E+04  0.37463804390E+04 0.  0.
        1    1    3    3  502    0 -0.14617575126E+03  0.11645510560E+04  0.10687831473E+04  0.15874016279E+04  0.50400001928E-02 0.  1.
       -1    1    3    3    0  502  0.14617575126E+03 -0.11645510560E+04 -0.19265637204E+04  0.22559242632E+04  0.50400001928E-02 0. -1.
</event>
<event>
 5   0  0.1337854E-06  0.3765197E+04  0.7818609E-02  0.8053665E-01
       -2   -1    0    0    0  501  0.00000000000E+00  0.00000000000E+00  0.21485565392E+04  0.21485565392E+04  0.25500000920E-02 0.  1.
        2   -1    0    0  501    0  0.00000000000E+00  0.00000000000E+00 -0.16495616881E+04  0.16495616881E+04  0.25500000920E-02 0. -1.
    10030    2    1    2    0    0  0.00000000000E+00  0.00000000000E+00  0.49899485114E+03  0.37981182273E+04  0.37651967023E+04 0.  0.
        3    1    3    3  502    0  0.67414217129E+03 -0.10702327423E+04  0.16560748688E+04  0.20838545465E+04  0.10100000352E+00 0.  1.
       -3    1    3    3    0  502 -0.67414217129E+03  0.10702327423E+04 -0.11570800176E+04  0.17142636808E+04  0.10100000352E+00 0. -1.
</event>
<event>
 5   0  0.1337854E-06  0.2308516E+04  0.7818609E-02  0.8474571E-01
        2   -1    0    0  501    0  0.00000000000E+00  0.00000000000E+00  0.12266159872E+04  0.12266159872E+04  0.25500000920E-02 0.  1.
       -2   -1    0    0    0  501  0.00000000000E+00  0.00000000000E+00 -0.10861682569E+04  0.10861682569E+04  0.25500000920E-02 0. -1.
    10030    2    1    2    0    0  0.00000000000E+00  0.00000000000E+00  0.14044773036E+03  0.23127842441E+04  0.23085158425E+04 0.  0.
        3    1    3    3  502    0  0.80876878418E+03 -0.29339339285E+03 -0.70069531875E+03  0.11095767523E+04  0.10100000352E+00 0. -1.
       -3    1    3    3    0  502 -0.80876878418E+03  0.29339339285E+03  0.84114304910E+03  0.12032074919E+04  0.10100000352E+00 0.  1.
</event>
<event>
 5   0  0.1372748E-06  0.3836038E+04  0.7818609E-02  0.8038465E-01
        2   -1    0    0  501    0  0.00000000000E+00  0.00000000000E+00  0.18655636776E+04  0.18655636776E+04  0.25500000920E-02 0.  1.
       -2   -1    0    0    0  501  0.00000000000E+00  0.00000000000E+00 -0.19719489670E+04  0.19719489670E+04  0.25500000920E-02 0. -1.
    10030    2    1    2    0    0  0.00000000000E+00  0.00000000000E+00 -0.10638528938E+03  0.38375126446E+04  0.38360377302E+04 0.  0.
        1    1    3    3  502    0  0.19751417700E+03  0.19052574787E+04 -0.15211674521E+03  0.19214987417E+04  0.50400001928E-02 0.  1.
       -1    1    3    3    0  502 -0.19751417700E+03 -0.19052574787E+04  0.45731455829E+02  0.19160139029E+04  0.50400001928E-02 0. -1.
</event>
<event>
 5   0  0.4795023E-07  0.3027984E+04  0.7818609E-02  0.8235785E-01
        1   -1    0    0  501    0  0.00000000000E+00  0.00000000000E+00  0.15921299188E+04  0.15921299188E+04  0.50400001928E-02 0. -1.
       -1   -1    0    0    0  501  0.00000000000E+00  0.00000000000E+00 -0.14396891700E+04  0.14396891700E+04  0.50400001928E-02 0.  1.
    10030    2    1    2    0    0  0.00000000000E+00  0.00000000000E+00  0.15244074879E+03  0.30318190889E+04  0.30279842810E+04 0.  0.
        3    1    3    3  502    0 -0.14870304867E+04 -0.22421879125E+03 -0.99039747098E+02  0.15070974144E+04  0.10100000352E+00 0.  1.
       -3    1    3    3    0  502  0.14870304867E+04  0.22421879125E+03  0.25148049588E+03  0.15247216745E+04  0.10100000352E+00 0. -1.
</event>
<event>
 5   0  0.1341932E-06  0.3774884E+04  0.7818609E-02  0.8051566E-01
       -2   -1    0    0    0  501  0.00000000000E+00  0.00000000000E+00  0.15850035804E+04  0.15850035804E+04  0.25500000920E-02 0. -1.
        2   -1    0    0  501    0  0.00000000000E+00  0.00000000000E+00 -0.22475898821E+04  0.22475898821E+04  0.25500000920E-02 0.  1.
    10030    2    1    2    0    0  0.00000000000E+00  0.00000000000E+00 -0.66258630175E+03  0.38325934625E+04  0.37748843746E+04 0.  0.
        2    1    3    3  502    0 -0.10815318940E+04  0.71353587646E+03  0.10621288785E+04  0.16753991881E+04  0.25500000920E-02 0.  1.
       -2    1    3    3    0  502  0.10815318940E+04 -0.71353587646E+03 -0.17247151803E+04  0.21571942745E+04  0.25500000920E-02 0. -1.
</event>
<event>
 5   0  0.1337854E-06  0.3798752E+04  0.7818609E-02  0.8046423E-01
       -2   -1    0    0    0  501  0.00000000000E+00  0.00000000000E+00  0.21260567380E+04  0.21260567380E+04  0.25500000920E-02 0. -1.
        2   -1    0    0  501    0  0.00000000000E+00  0.00000000000E+00 -0.16968639199E+04  0.16968639199E+04  0.25500000920E-02 0.  1.
    10030    2    1    2    0    0  0.00000000000E+00  0.00000000000E+00  0.42919281810E+03  0.38229206578E+04  0.37987518846E+04 0.  0.
        3    1    3    3  502    0  0.76573701010E+03  0.70738506046E+03 -0.13832338049E+04  0.17320746409E+04  0.10100000352E+00 0.  1.
       -3    1    3    3    0  502 -0.76573701010E+03 -0.70738506046E+03  0.18124266230E+04  0.20908460169E+04  0.10100000352E+00 0. -1.
</event>
<event>
 5   0  0.4795023E-07  0.2680813E+04  0.7818609E-02  0.8341257E-01
       -1   -1    0    0    0  501  0.00000000000E+00  0.00000000000E+00  0.12933336795E+04  0.12933336795E+04  0.50400001928E-02 0. -1.
        1   -1    0    0  501    0  0.00000000000E+00  0.00000000000E+00 -0.13891924498E+04  0.13891924498E+04  0.50400001928E-02 0.  1.
    10030    2    1    2    0    0  0.00000000000E+00  0.00000000000E+00 -0.95858770341E+02  0.26825261293E+04  0.26808128488E+04 0.  0.
        3    1    3    3  502    0  0.22643780408E+02 -0.39305150756E+03  0.12341728674E+04  0.12954477624E+04  0.10100000352E+00 0. -1.
       -3    1    3    3    0  502 -0.22643780408E+02  0.39305150756E+03 -0.13300316377E+04  0.13870783669E+04  0.10100000352E+00 0.  1.
</event>
<event>
 5   0  0.1214844E-06  0.3811985E+04  0.7818609E-02  0.8043588E-01
       -2   -1    0    0    0  501  0.00000000000E+00  0.00000000000E+00  0.30307543949E+04  0.30307543949E+04  0.25500000920E-02 0.  1.
        2   -1    0    0  501    0  0.00000000000E+00  0.00000000000E+00 -0.11986479227E+04  0.11986479227E+04  0.25500000920E-02 0. -1.
    10030    2    1    2    0    0  0.00000000000E+00  0.00000000000E+00  0.18321064723E+04  0.42294023176E+04  0.38119850260E+04 0.  0.
        4    1    3    3  502    0  0.64399044180E+03 -0.50078704258E+03 -0.99515557261E+03  0.12867974113E+04  0.12699999809E+01 0. -1.
       -4    1    3    3    0  502 -0.64399044180E+03  0.50078704258E+03  0.28272620449E+04  0.29426049063E+04  0.12699999809E+01 0.  1.
</event>
<event>
 5   0  0.1184616E-06  0.2511457E+04  0.7818609E-02  0.8398915E-01
        2   -1    0    0  501    0  0.00000000000E+00  0.00000000000E+00  0.16257920447E+04  0.16257920447E+04  0.25500000920E-02 0. -1.
       -2   -1    0    0    0  501  0.00000000000E+00  0.00000000000E+00 -0.96989889684E+03  0.96989889684E+03  0.25500000920E-02 0.  1.
    10030    2    1    2    0    0  0.00000000000E+00  0.00000000000E+00  0.65589314784E+03  0.25956909415E+04  0.25114568765E+04 0.  0.
        5    1    3    3  502    0 -0.70349259238E+03  0.99629086302E+03  0.19033076564E+02  0.12197875468E+04  0.46999998093E+01 0.  1.
       -5    1    3    3    0  502  0.70349259238E+03 -0.99629086302E+03  0.63686007128E+03  0.13759033947E+04  0.46999998093E+01 0. -1.
</event>
<event>
 5   0  0.1214844E-06  0.2630776E+04  0.7818609E-02  0.8357822E-01
       -2   -1    0    0    0  501  0.00000000000E+00  0.00000000000E+00  0.97150932133E+03  0.97150932134E+03  0.25500000920E-02 0.  1.
        2   -1    0    0  501    0  0.00000000000E+00  0.00000000000E+00 -0.17809866490E+04  0.17809866490E+04  0.25500000920E-02 0. -1.
    10030    2    1    2    0    0  0.00000000000E+00  0.00000000000E+00 -0.80947732768E+03  0.27524959703E+04  0.26307756504E+04 0.  0.
        4    1    3    3  502    0  0.11000283201E+04 -0.67154256167E+03 -0.12948509878E+03  0.12952990855E+04  0.12699999809E+01 0.  1.
       -4    1    3    3    0  502 -0.11000283201E+04  0.67154256167E+03 -0.67999222890E+03  0.14571968849E+04  0.12699999809E+01 0. -1.
</event>
<event>
 5   0  0.1337854E-06  0.3861361E+04  0.7818609E-02  0.8033114E-01
       -2   -1    0    0    0  501  0.00000000000E+00  0.00000000000E+00  0.16352034371E+04  0.16352034371E+04  0.25500000920E-02 0.  1.
        2   -1    0    0  501    0  0.00000000000E+00  0.00000000000E+00 -0.22795495031E+04  0.22795495031E+04  0.25500000920E-02 0. -1.
    10030    2    1    2    0    0  0.00000000000E+00  0.00000000000E+00 -0.64434606601E+03  0.39147529402E+04  0.38613609945E+04 0.  0.
        3    1    3    3  502    0  0.13306468858E+04  0.60667457617E+03  0.95575287732E+03  0.17470371344E+04  0.10100000352E+00 0.  1.
       -3    1    3    3    0  502 -0.13306468858E+04 -0.60667457617E+03 -0.16000989433E+04  0.21677158058E+04  0.10100000352E+00 0. -1.
</event>
<event>
 5   0  0.1337854E-06  0.2172411E+04  0.7818609E-02  0.8530000E-01
        2   -1    0    0  501    0  0.00000000000E+00  0.00000000000E+00  0.16555123985E+04  0.16555123985E+04  0.25500000920E-02 0. -1.
       -2   -1    0    0    0  501  0.00000000000E+00  0.00000000000E+00 -0.71267486745E+03  0.71267486746E+03  0.25500000920E-02 0.  1.
    10030    2    1    2    0    0  0.00000000000E+00  0.00000000000E+00  0.94283753106E+03  0.23681872660E+04  0.21724107155E+04 0.  0.
        3    1    3    3  502    0 -0.35428990094E+02 -0.58151396814E+03 -0.52794696971E+03  0.78621989387E+03  0.10100000352E+00 0.  1.
       -3    1    3    3    0  502  0.35428990094E+02  0.58151396814E+03  0.14707845008E+04  0.15819673721E+04  0.10100000352E+00 0. -1.
</event>
<event>
 5   0  0.1214844E-06  0.3915974E+04  0.7818609E-02  0.8021715E-01
        2   -1    0    0  501    0  0.00000000000E+00  0.00000000000E+00  0.24376097367E+04  0.24376097367E+04  0.25500000920E-02 0. -1.
       -2   -1    0    0    0  501  0.00000000000E+00  0.00000000000E+00 -0.15727342854E+04  0.15727342854E+04  0.25500000920E-02 0.  1.
    10030    2    1    2    0    0  0.00000000000E+00  0.00000000000E+00  0.86487545135E+03  0.40103440221E+04  0.39159736503E+04 0.  0.
        4    1    3    3  502    0  0.26653632082E+03 -0.12564396773E+03 -0.15498966944E+04  0.15776594668E+04  0.12699999809E+01 0.  1.
       -4    1    3    3    0  502 -0.26653632082E+03  0.12564396773E+03  0.24147721458E+04  0.24326845553E+04  0.12699999809E+01 0. -1.
</event>
<event>
 5   0  0.1337854E-06  0.3785848E+04  0.7818609E-02  0.8049199E-01
        2   -1    0    0  501    0  0.00000000000E+00  0.00000000000E+00  0.20107956659E+04  0.20107956659E+04  0.25500000920E-02 0. -1.
       -2   -1    0    0    0  501  0.00000000000E+00  0.00000000000E+00 -0.17819623082E+04  0.17819623082E+04  0.25500000920E-02 0.  1.
    10030    2    1    2    0    0  0.00000000000E+00  0.00000000000E+00  0.22883335776E+03  0.37927579741E+04  0.37858484313E+04 0.  0.
        3    1    3    3  502    0  0.51322274890E+03 -0.13759184063E+04  0.13110056614E+04  0.19685743332E+04  0.10100000352E+00 0. -1.
       -3    1    3    3    0  502 -0.51322274890E+03  0.13759184063E+04 -0.10821723037E+04  0.18241836409E+04  0.10100000352E+00 0.  1.
</event>
<event>
 5   0  0.1372748E-06  0.3830767E+04  0.7818609E-02  0.8039584E-01
       -2   -1    0    0    0  501  0.00000000000E+00  0.00000000000E+00  0.15219435787E+04  0.15219435787E+04  0.25500000920E-02 0.  1.
        2   -1    0    0  501    0  0.00000000000E+00  0.00000000000E+00 -0.24105318728E+04  0.24105318728E+04  0.25500000920E-02 0. -1.
    10030    2    1    2    0    0  0.00000000000E+00  0.00000000000E+00 -0.88858829408E+03  0.39324754515E+04  0.38307667667E+04 0.  0.
        1    1    3    3  502    0 -0.95213002695E+03 -0.11944097328E+04 -0.16306273766E+04  0.22343034349E+04  0.50400001928E-02 0. -1.
       -1    1    3    3    0  502  0.95213002695E+03  0.11944097328E+04  0.74203908252E+03  0.16981720166E+04  0.50400001928E-02 0.  1.
</event>
<event>
 5   0  0.5284458E-07  0.3728596E+04  0.7818609E-02  0.8061654E-01
        1   -1    0    0  501    0  0.00000000000E+00  0.00000000000E+00  0.11954932670E+04  0.11954932670E+04  0.50400001928E-02 0.  1.
       -1   -1    0    0    0  501  0.00000000000E+00  0.00000000000E+00 -0.29072582321E+04  0.29072582321E+04  0.50400001928E-02 0. -1.
    10030    2    1    2    0    0  0.00000000000E+00  0.00000000000E+00 -0.17117649651E+04  0.41027514991E+04  0.37285963267E+04 0.  0.
        5    1    3    3  502    0 -0.18628511320E+01  0.60359560370E+03  0.10849927112E+04  0.12415967124E+04  0.46999998093E+01 0.  1.
       -5    1    3    3    0  502  0.18628511320E+01 -0.60359560370E+03 -0.27967576763E+04  0.28611547866E+04  0.46999998093E+01 0. -1.
</event>
<event>
 5   0  0.1214844E-06  0.3714921E+04  0.7818609E-02  0.8064663E-01
        2   -1    0    0  501    0  0.00000000000E+00  0.00000000000E+00  0.14885239612E+04  0.14885239612E+04  0.25500000920E-02 0.  1.
       -2   -1    0    0    0  501  0.00000000000E+00  0.00000000000E+00 -0.23178397200E+04  0.23178397200E+04  0.25500000920E-02 0. -1.
    10030    2    1    2    0    0  0.00000000000E+00  0.00000000000E+00 -0.82931575878E+03  0.38063636812E+04  0.37149212436E+04 0.  0.
        4    1    3    3  502    0  0.71719043563E+03  0.20769316439E+03 -0.21573045788E+04  0.22828629459E+04  0.12699999809E+01 0. -1.
       -4    1    3    3    0  502 -0.71719043563E+03 -0.20769316439E+03  0.13279888200E+04  0.15235007353E+04  0.12699999809E+01 0.  1.
</event>
<event>
 5   0  0.1214844E-06  0.3884980E+04  0.7818609E-02  0.8028160E-01
        2   -1    0    0  501    0  0.00000000000E+00  0.00000000000E+00  0.16731243929E+04  0.16731243929E+04  0.25500000920E-02 0.  1.
       -2   -1    0    0    0  501  0.00000000000E+00  0.00000000000E+00 -0.22552223657E+04  0.22552223657E+04  0.25500000920E-02 0. -1.
    10030    2    1    2    0    0  0.00000000000E+00  0.00000000000E+00 -0.58209797279E+03  0.39283467585E+04  0.38849800779E+04 0.  0.
        4    1    3    3  502    0 -0.45795191383E+03  0.16938698630E+04 -0.11336277566E+04  0.20890257470E+04  0.12699999809E+01 0. -1.
       -4    1    3    3    0  502  0.45795191383E+03 -0.16938698630E+04  0.55152978378E+03  0.18393210116E+04  0.12699999809E+01 0.  1.
</event>
<event>
 5   0  0.1214844E-06  0.3463760E+04  0.7818609E-02  0.8122432E-01
        2   -1    0    0  501    0  0.00000000000E+00  0.00000000000E+00  0.18462793880E+04  0.18462793880E+04  0.25500000920E-02 0. -1.
       -2   -1    0    0    0  501  0.00000000000E+00  0.00000000000E+00 -0.16245691118E+04  0.16245691118E+04  0.25500000920E-02 0.  1.
    10030    2    1    2    0    0  0.00000000000E+00  0.00000000000E+00  0.22171027617E+03  0.34708484998E+04  0.34637600757E+04 0.  0.
        4    1    3    3  502    0  0.10084434619E+04 -0.97877782159E+03 -0.90336369994E+03  0.16706381497E+04  0.12699999809E+01 0.  1.
       -4    1    3    3    0  502 -0.10084434619E+04  0.97877782159E+03  0.11250739761E+04  0.18002103501E+04  0.12699999809E+01 0. -1.
</event>
<event>
 5   0  0.1372748E-06  0.2768699E+04  0.7818609E-02  0.8313052E-01
        2   -1    0    0  501    0  0.00000000000E+00  0.00000000000E+00  0.94566367913E+03  0.94566367914E+03  0.25500000920E-02 0.  1.
       -2   -1    0    0    0  501  0.00000000000E+00  0.00000000000E+00 -0.20265388302E+04  0.20265388302E+04  0.25500000920E-02 0. -1.
    10030    2    1    2    0    0  0.00000000000E+00  0.00000000000E+00 -0.10808751511E+04  0.29722025094E+04  0.27686994536E+04 0.  0.
        1    1    3    3  502    0  0.58126891109E+03 -0.79057729410E+03  0.50782871612E+03  0.11048873290E+04  0.50400001928E-02 0.  1.
       -1    1    3    3    0  502 -0.58126891109E+03  0.79057729410E+03 -0.15887038672E+04  0.18673151803E+04  0.50400001928E-02 0. -1.
</event>
<event>
 5   0  0.8030324E-07  0.3223233E+04  0.7818609E-02  0.8182708E-01
        1   -1    0    0  501    0  0.00000000000E+00  0.00000000000E+00  0.22769400321E+04  0.22769400321E+04  0.50400001928E-02 0.  1.
       -1   -1    0    0    0  501  0.00000000000E+00  0.00000000000E+00 -0.11407007036E+04  0.11407007036E+04  0.50400001928E-02 0. -1.
    10030    2    1    2    0    0  0.00000000000E+00  0.00000000000E+00  0.11362393285E+04  0.34176407358E+04  0.32232325990E+04 0.  0.
        1    1    3    3  502    0  0.76380355795E+03 -0.22385428698E+03 -0.91775932490E+03  0.12148204787E+04  0.50400001928E-02 0. -1.
       -1    1    3    3    0  502 -0.76380355795E+03  0.22385428698E+03  0.20539986534E+04  0.22028202571E+04  0.50400001928E-02 0.  1.
</event>
<event>
 5   0  0.1214844E-06  0.2271949E+04  0.7818609E-02  0.8489064E-01
       -2   -1    0    0    0  501  0.00000000000E+00  0.00000000000E+00  0.77276047424E+03  0.77276047424E+03  0.25500000920E-02 0. -1.
        2   -1    0    0  501    0  0.00000000000E+00  0.00000000000E+00 -0.16699072816E+04  0.16699072816E+04  0.25500000920E-02 0.  1.
    10030    2    1    2    0    0  0.00000000000E+00  0.00000000000E+00 -0.89714680736E+03  0.24426677558E+04  0.22719492449E+04 0.  0.
        4    1    3    3  502    0 -0.11241859294E+04 -0.67398787468E+02 -0.60840520110E+03  0.12800371487E+04  0.12699999809E+01 0.  1.
       -4    1    3    3    0  502  0.11241859294E+04  0.67398787468E+02 -0.28874160626E+03  0.11626306071E+04  0.12699999809E+01 0. -1.
</event>
<event>
 5   0  0.1372748E-06  0.2178096E+04  0.7818609E-02  0.8527601E-01
       -2   -1    0    0    0  501  0.00000000000E+00  0.00000000000E+00  0.10264232632E+04  0.10264232632E+04  0.25500000920E-02 0. -1.
        2   -1    0    0  501    0  0.00000000000E+00  0.00000000000E+00 -0.11554932673E+04  0.11554932673E+04  0.25500000920E-02 0.  1.
    10030    2    1    2    0    0  0.00000000000E+00  0.00000000000E+00 -0.12907000409E+03  0.21819165305E+04  0.21780956545E+04 0.  0.
        1    1    3    3  502    0  0.75128742686E+02 -0.34151360818E+03  0.96865650403E+03  0.10298404223E+04  0.50400001928E-02 0. -1.
       -1    1    3    3    0  502 -0.75128742686E+02  0.34151360818E+03 -0.10977265081E+04  0.11520761082E+04  0.50400001928E-02 0.  1.
</event>
<event>
 5   0  0.1341932E-06  0.1911253E+04  0.7818609E-02  0.8649275E-01
       -2   -1    0    0    0  501  0.00000000000E+00  0.00000000000E+00  0.47445205856E+03  0.47445205857E+03  0.25500000920E-02 0. -1.
        2   -1    0    0  501    0  0.00000000000E+00  0.00000000000E+00 -0.19247921191E+04  0.19247921191E+04  0.25500000920E-02 0.  1.
    10030    2    1    2    0    0  0.00000000000E+00  0.00000000000E+00 -0.14503400605E+04  0.23992441776E+04  0.19112525560E+04 0.  0.
        2    1    3    3  502    0  0.60662838933E+03  0.54089657107E+01 -0.16520682180E+04  0.17599308670E+04  0.25500000920E-02 0.  1.
       -2    1    3    3    0  502 -0.60662838933E+03 -0.54089657107E+01  0.20172815749E+03  0.63931331065E+03  0.25500000920E-02 0. -1.
</event>
<event>
 5   0  0.1184616E-06  0.3779871E+04  0.7818609E-02  0.8050488E-01
        2   -1    0    0  501    0  0.00000000000E+00  0.00000000000E+00  0.19036508425E+04  0.19036508425E+04  0.25500000920E-02 0. -1.
       -2   -1    0    0    0  501  0.00000000000E+00  0.00000000000E+00 -0.18763185057E+04  0.18763185057E+04  0.25500000920E-02 0.  1.
    10030    2    1    2    0    0  0.00000000000E+00  0.00000000000E+00  0.27332336771E+02  0.37799693482E+04  0.37798705291E+04 0.  0.
        5    1    3    3  502    0 -0.65807855293E+03  0.98269487392E+03 -0.14605082590E+04  0.18793251612E+04  0.46999998093E+01 0.  1.
       -5    1    3    3    0  502  0.65807855293E+03 -0.98269487392E+03  0.14878405958E+04  0.19006441870E+04  0.46999998093E+01 0. -1.
</event>
<event>
 5   0  0.1341932E-06  0.3044791E+04  0.7818609E-02  0.8231055E-01
       -2   -1    0    0    0  501  0.00000000000E+00  0.00000000000E+00  0.99655377927E+03  0.99655377927E+03  0.25500000920E-02 0. -1.
        2   -1    0    0  501    0  0.00000000000E+00  0.00000000000E+00 -0.23257027194E+04  0.23257027194E+04  0.25500000920E-02 0.  1.
    10030    2    1    2    0    0  0.00000000000E+00  0.00000000000E+00 -0.13291489401E+04  0.33222564987E+04  0.30447908529E+04 0.  0.
        2    1    3    3  502    0 -0.48211682273E+03 -0.12959495490E+03  0.90469987122E+03  0.10333021533E+04  0.25500000920E-02 0. -1.
       -2    1    3    3    0  502  0.48211682273E+03  0.12959495490E+03 -0.22338488113E+04  0.22889543453E+04  0.25500000920E-02 0.  1.
</event>
<event>
 5   0  0.5284458E-07  0.3474718E+04  0.7818609E-02  0.8119808E-01
       -1   -1    0    0    0  501  0.00000000000E+00  0.00000000000E+00  0.22421769128E+04  0.22421769128E+04  0.50400001928E-02 0. -1.
        1   -1    0    0  501    0  0.00000000000E+00  0.00000000000E+00 -0.13461986878E+04  0.13461986878E+04  0.50400001928E-02 0.  1.
    10030    2    1    2    0    0  0.00000000000E+00  0.00000000000E+00  0.89597822495E+03  0.35883756006E+04  0.34747176103E+04 0.  0.
        5    1    3    3  502    0  0.60410973343E+03 -0.99153493719E+03 -0.88668754687E+03  0.14609336047E+04  0.46999998093E+01 0.  1.
       -5    1    3    3    0  502 -0.60410973343E+03  0.99153493719E+03  0.17826657718E+04  0.21274419959E+04  0.46999998093E+01 0. -1.
</event>
<event>
 5   0  0.1372748E-06  0.3784958E+04  0.7818609E-02  0.8049391E-01
       -2   -1    0    0    0  501  0.00000000000E+00  0.00000000000E+00  0.30184895352E+04  0.30184895352E+04  0.25500000920E-02 0.  1.
        2   -1    0    0  501    0  0.00000000000E+00  0.00000000000E+00 -0.11865129531E+04  0.11865129531E+04  0.25500000920E-02 0. -1.
    10030    2    1    2    0    0  0.00000000000E+00  0.00000000000E+00  0.18319765821E+04  0.42050024884E+04  0.37849580882E+04 0.  0.
        1    1    3    3  502    0 -0.47551834191E+03 -0.91150181320E+03  0.26811923076E+04  0.28715406038E+04  0.50400001928E-02 0.  1.
       -1    1    3    3    0  502  0.47551834191E+03  0.91150181320E+03 -0.84921572553E+03  0.13334618845E+04  0.50400001928E-02 0. -1.
</event>
<event>
 5   0  0.4399330E-07  0.2225741E+04  0.7818609E-02  0.8507790E-01
        1   -1    0    0  501    0  0.00000000000E+00  0.00000000000E+00  0.15543856129E+04  0.15543856129E+04  0.50400001928E-02 0.  1.
       -1   -1    0    0    0  501  0.00000000000E+00  0.00000000000E+00 -0.79676540036E+03  0.79676540038E+03  0.50400001928E-02 0. -1.
    10030    2    1    2    0    0  0.00000000000E+00  0.00000000000E+00  0.75762021255E+03  0.23511510133E+04  0.22257409330E+04 0.  0.
        2    1    3    3  502    0  0.51836366144E+03  0.84294641988E+03  0.91663525436E+03  0.13488809220E+04  0.25500000920E-02 0.  1.
       -2    1    3    3    0  502 -0.51836366144E+03 -0.84294641988E+03 -0.15901504182E+03  0.10022700913E+04  0.25500000920E-02 0. -1.
</event>
<event>
 5   0  0.1079205E-06  0.2035198E+04  0.7818609E-02  0.8590339E-01
        1   -1    0    0  501    0  0.00000000000E+00  0.00000000000E+00  0.78862414861E+03  0.78862414863E+03  0.50400001928E-02 0. -1.
       -1   -1    0    0    0  501  0.00000000000E+00  0.00000000000E+00 -0.13130563636E+04  0.13130563636E+04  0.50400001928E-02 0.  1.
    10030    2    1    2    0    0  0.00000000000E+00  0.00000000000E+00 -0.52443221500E+03  0.21016805123E+04  0.20351982280E+04 0.  0.
        4    1    3    3  502    0 -0.21170280288E+03  0.98661414927E+03 -0.39796670457E+03  0.10847140947E+04  0.12699999809E+01 0.  1.
       -4    1    3    3    0  502  0.21170280288E+03 -0.98661414927E+03 -0.12646551044E+03  0.10169664176E+04  0.12699999809E+01 0. -1.
</event>
<event>
 5   0  0.1337854E-06  0.2048698E+04  0.7818609E-02  0.8584185E-01
        2   -1    0    0  501    0  0.00000000000E+00  0.00000000000E+00  0.17390292745E+04  0.17390292745E+04  0.25500000920E-02 0. -1.
       -2   -1    0    0    0  501  0.00000000000E+00  0.00000000000E+00 -0.60337743961E+03  0.60337743961E+03  0.25500000920E-02 0.  1.
    10030    2    1    2    0    0  0.00000000000E+00  0.00000000000E+00  0.11356518349E+04  0.23424067141E+04  0.20486981535E+04 0.  0.
        3    1    3    3  502    0  0.37223662607E+03 -0.84641269477E+03  0.63815945648E+02  0.92684790596E+03  0.10100000352E+00 0.  1.
       -3    1    3    3    0  502 -0.37223662607E+03  0.84641269477E+03  0.10718358892E+04  0.14155588081E+04  0.10100000352E+00 0. -1.
</event>
<event>
 5   0  0.1184616E-06  0.3778850E+04  0.7818609E-02  0.8050709E-01
        2   -1    0    0  501    0  0.00000000000E+00  0.00000000000E+00  0.19649276720E+04  0.19649276720E+04  0.25500000920E-02 0.  1.
       -2   -1    0    0    0  501  0.00000000000E+00  0.00000000000E+00 -0.18168239623E+04  0.18168239623E+04  0.25500000920E-02 0. -1.
    10030    2    1    2    0    0  0.00000000000E+00  0.00000000000E+00  0.14810370969E+03  0.37817516343E+04  0.37788504489E+04 0.  0.
        5    1    3    3  502    0 -0.88880323634E+03 -0.11785366396E+04  0.12543579353E+04  0.19370998229E+04  0.46999998093E+01 0.  1.
       -5    1    3    3    0  502  0.88880323634E+03  0.11785366396E+04 -0.11062542257E+04  0.18446518115E+04  0.46999998093E+01 0. -1.
</event>
<event>
 5   0  0.1184616E-06  0.3809155E+04  0.7818609E-02  0.8044193E-01
       -2   -1    0    0    0  501  0.00000000000E+00  0.00000000000E+00  0.16772626541E+04  0.16772626541E+04  0.25500000920E-02 0. -1.
        2   -1    0    0  501    0  0.00000000000E+00  0.00000000000E+00 -0.21626999664E+04  0.21626999664E+04  0.25500000920E-02 0.  1.
    10030    2    1    2    0    0  0.00000000000E+00  0.00000000000E+00 -0.48543731230E+03  0.38399626205E+04  0.38091552270E+04 0.  0.
        5    1    3    3  502    0 -0.24553982580E+03  0.14043889731E+04 -0.15157844246E+04  0.20809187167E+04  0.46999998093E+01 0.  1.
       -5    1    3    3    0  502  0.24553982580E+03 -0.14043889731E+04  0.10303471123E+04  0.17590439038E+04  0.46999998093E+01 0. -1.
</event>
<event>
 5   0  0.1372748E-06  0.3747290E+04  0.7818609E-02  0.8057562E-01
        2   -1    0    0  501    0  0.00000000000E+00  0.00000000000E+00  0.20944121339E+04  0.20944121339E+04  0.25500000920E-02 0.  1.
       -2   -1    0    0    0  501  0.00000000000E+00  0.00000000000E+00 -0.16761487125E+04  0.16761487125E+04  0.25500000920E-02 0. -1.
    10030    2    1    2    0    0  0.00000000000E+00  0.00000000000E+00  0.41826342144E+03  0.37705608464E+04  0.37472903286E+04 0.  0.
        1    1    3    3  502    0 -0.13685696023E+04 -0.11707325799E+04 -0.31074755085E+03  0.18276108914E+04  0.50400001928E-02 0. -1.
       -1    1    3    3    0  502  0.13685696023E+04  0.11707325799E+04  0.72901097229E+03  0.19429499550E+04  0.50400001928E-02 0.  1.
</event>
<event>
 5   0  0.8030324E-07  0.3174903E+04  0.7818609E-02  0.8195477E-01
       -1   -1    0    0    0  501  0.00000000000E+00  0.00000000000E+00  0.15435087891E+04  0.15435087891E+04  0.50400001928E-02 0. -1.
        1   -1    0    0  501    0  0.00000000000E+00  0.00000000000E+00 -0.16326454100E+04  0.16326454101E+04  0.50400001928E-02 0.  1.
    10030    2    1    2    0    0  0.00000000000E+00  0.00000000000E+00 -0.89136620994E+02  0.31761541991E+04  0.31749031732E+04 0.  0.
        1    1    3    3  502    0  0.12557141055E+04  0.93124788398E+03 -0.32028896411E+03  0.15958150134E+04  0.50400001928E-02 0.  1.
       -1    1    3    3    0  502 -0.12557141055E+04 -0.93124788398E+03  0.23115234311E+03  0.15803391858E+04  0.50400001928E-02 0. -1.
</event>
<event>
 5   0  0.1184616E-06  0.2000197E+04  0.7818609E-02  0.8606529E-01
       -2   -1    0    0    0  501  0.00000000000E+00  0.00000000000E+00  0.10343626450E+04  0.10343626450E+04  0.25500000920E-02 0. -1.
        2   -1    0    0  501    0  0.00000000000E+00  0.00000000000E+00 -0.96696939369E+03  0.96696939370E+03  0.25500000920E-02 0.  1.
    10030    2    1    2    0    0  0.00000000000E+00  0.00000000000E+00  0.67393251330E+02  0.20013320387E+04  0.20001970100E+04 0.  0.
        5    1    3    3  502    0 -0.32710505995E+03  0.39423655844E+03  0.89311053838E+03  0.10296060936E+04  0.46999998093E+01 0. -1.
       -5    1    3    3    0  502  0.32710505995E+03 -0.39423655844E+03 -0.82571728705E+03  0.97172594510E+03  0.46999998093E+01 0.  1.
</event>
<event>
 5   0  0.1341932E-06  0.2748732E+04  0.7818609E-02  0.8319364E-01
        2   -1    0    0  501    0  0.00000000000E+00  0.00000000000E+00  0.23461475936E+04  0.23461475936E+04  0.25500000920E-02 0.  1.
       -2   -1    0    0    0  501  0.00000000000E+00  0.00000000000E+00 -0.80509919014E+03  0.80509919014E+03  0.25500000920E-02 0. -1.
    10030    2    1    2    0    0  0.00000000000E+00  0.00000000000E+00  0.15410484035E+04  0.31512467838E+04  0.27487317276E+04 0.  0.
        2    1    3    3  502    0 -0.82341239796E+03 -0.82148959038E+03 -0.68827473421E+02  0.11651567900E+04  0.25500000920E-02 0. -1.
       -2    1    3    3    0  502  0.82341239796E+03  0.82148959038E+03  0.16098758769E+04  0.19860899937E+04  0.25500000920E-02 0.  1.
</event>
<event>
 5   0  0.1337854E-06  0.2411359E+04  0.7818609E-02  0.8435263E-01
        2   -1    0    0  501    0  0.00000000000E+00  0.00000000000E+00  0.11919742114E+04  0.11919742114E+04  0.25500000920E-02 0. -1.
       -2   -1    0    0    0  501  0.00000000000E+00  0.00000000000E+00 -0.12195427997E+04  0.12195427997E+04  0.25500000920E-02 0.  1.
    10030    2    1    2    0    0  0.00000000000E+00  0.00000000000E+00 -0.27568588234E+02  0.24115170111E+04  0.24113594232E+04 0.  0.
        3    1    3    3  502    0 -0.83006435763E+03  0.31341448416E+03  0.80261952027E+03  0.11964253346E+04  0.10100000352E+00 0. -1.
       -3    1    3    3    0  502  0.83006435763E+03 -0.31341448416E+03 -0.83018810850E+03  0.12150916765E+04  0.10100000352E+00 0.  1.
</event>
<event>
 5   0  0.4795023E-07  0.3570907E+04  0.7818609E-02  0.8097188E-01
       -1   -1    0    0    0  501  0.00000000000E+00  0.00000000000E+00  0.29757043291E+04  0.29757043291E+04  0.50400001928E-02 0.  1.
        1   -1    0    0  501    0  0.00000000000E+00  0.00000000000E+00 -0.10712908404E+04  0.10712908404E+04  0.50400001928E-02 0. -1.
    10030    2    1    2    0    0  0.00000000000E+00  0.00000000000E+00  0.19044134887E+04  0.40469951695E+04  0.35709073309E+04 0.  0.
        3    1    3    3  502    0 -0.16517624707E+04  0.63472253677E+03  0.68245461382E+03  0.18965590601E+04  0.10100000352E+00 0. -1.
       -3    1    3    3    0  502  0.16517624707E+04 -0.63472253677E+03  0.12219588748E+04  0.21504361093E+04  0.10100000352E+00 0.  1.
</event>
<event>
 5   0  0.1337854E-06  0.3132589E+04  0.7818609E-02  0.8206851E-01
        2   -1    0    0  501    0  0.00000000000E+00  0.00000000000E+00  0.30426851256E+04  0.30426851256E+04  0.25500000920E-02 0.  1.
       -2   -1    0    0    0  501  0.00000000000E+00  0.00000000000E+00 -0.80628750562E+03  0.80628750562E+03  0.25500000920E-02 0. -1.
    10030    2    1    2    0    0  0.00000000000E+00  0.00000000000E+00  0.22363976200E+04  0.38489726313E+04  0.31325893445E+04 0.  0.
        3    1    3    3  502    0  0.11792933248E+04  0.50827578173E+03  0.16345136292E+02  0.12842679588E+04  0.10100000352E+00 0. -1.
       -3    1    3    3    0  502 -0.11792933248E+04 -0.50827578173E+03  0.22200524837E+04  0.25647046725E+04  0.10100000352E+00 0.  1.
</event>
<event>
 5   0  0.1184616E-06  0.3140684E+04  0.7818609E-02  0.8204660E-01
       -2   -1    0    0    0  501  0.00000000000E+00  0.00000000000E+00  0.14882422236E+04  0.14882422236E+04  0.25500000920E-02 0.  1.
        2   -1    0    0  501    0  0.00000000000E+00  0.00000000000E+00 -0.16569712731E+04  0.16569712731E+04  0.25500000920E-02 0. -1.
    10030    2    1    2    0    0  0.00000000000E+00  0.00000000000E+00 -0.16872904946E+03  0.31452134967E+04  0.31406843916E+04 0.  0.
        5    1    3    3  502    0  0.14572384559E+04  0.18435001142E+03 -0.64052444765E+03  0.16024426673E+04  0.46999998093E+01 0. -1.
       -5    1    3    3    0  502 -0.14572384559E+04 -0.18435001142E+03  0.47179539819E+03  0.15427708293E+04  0.46999998093E+01 0.  1.
</event>
<event>
 5   0  0.4795023E-07  0.3512723E+04  0.7818609E-02  0.8110781E-01
       -1   -1    0    0    0  501  0.00000000000E+00  0.00000000000E+00  0.17403007849E+04  0.17403007849E+04  0.50400001928E-02 0. -1.
        1   -1    0    0  501    0  0.00000000000E+00  0.00000000000E+00 -0.17725704596E+04  0.17725704596E+04  0.50400001928E-02 0.  1.
    10030    2    1    2    0    0  0.00000000000E+00  0.00000000000E+00 -0.32269674633E+02  0.35128712445E+04  0.35127230248E+04 0.  0.
        3    1    3    3  502    0 -0.16301244918E+03 -0.12316812280E+02 -0.17649455953E+04  0.17725004166E+04  0.10100000352E+00 0.  1.
       -3    1    3    3    0  502  0.16301244918E+03  0.12316812280E+02  0.17326759206E+04  0.17403708279E+04  0.10100000352E+00 0. -1.
</event>
<event>
 5   0  0.4255250E-07  0.3263504E+04  0.7818609E-02  0.8172244E-01
       -1   -1    0    0    0  501  0.00000000000E+00  0.00000000000E+00  0.18360778663E+04  0.18360778663E+04  0.50400001928E-02 0. -1.
        1   -1    0    0  501    0  0.00000000000E+00  0.00000000000E+00 -0.14501640865E+04  0.14501640865E+04  0.50400001928E-02 0.  1.
    10030    2    1    2    0    0  0.00000000000E+00  0.00000000000E+00  0.38591377974E+03  0.32862419528E+04  0.32635037501E+04 0.  0.
        2    1    3    3  502    0  0.19522445357E+03 -0.15240349813E+04  0.74616518826E+03  0.17080859755E+04  0.25500000920E-02 0.  1.
       -2    1    3    3    0  502 -0.19522445357E+03  0.15240349813E+04 -0.36025140851E+03  0.15781559773E+04  0.25500000920E-02 0. -1.
</event>
<event>
 5   0  0.1573135E-06  0.1875804E+04  0.7818609E-02  0.8666995E-01
        2   -1    0    0  501    0  0.00000000000E+00  0.00000000000E+00  0.16654189382E+04  0.16654189382E+04  0.25500000920E-02 0.  1.
       -2   -1    0    0    0  501  0.00000000000E+00  0.00000000000E+00 -0.52819140563E+03  0.52819140563E+03  0.25500000920E-02 0. -1.
    10030    2    1    2    0    0  0.00000000000E+00  0.00000000000E+00  0.11372275326E+04  0.21936103438E+04  0.18758037956E+04 0.  0.
        4    1    3    3  502    0 -0.25862428293E+03  0.12573719662E+03  0.16125906460E+04  0.16380313082E+04  0.12699999809E+01 0.  1.
       -4    1    3    3    0  502  0.25862428293E+03 -0.12573719662E+03 -0.47536311340E+03  0.55557903562E+03  0.12699999809E+01 0. -1.
</event>
<event>
 5   0  0.1214844E-06  0.2961657E+04  0.7818609E-02  0.8254766E-01
        2   -1    0    0  501    0  0.00000000000E+00  0.00000000000E+00  0.13446797804E+04  0.13446797804E+04  0.25500000920E-02 0. -1.
       -2   -1    0    0    0  501  0.00000000000E+00  0.00000000000E+00 -0.16307619889E+04  0.16307619889E+04  0.25500000920E-02 0.  1.
    10030    2    1    2    0    0  0.00000000000E+00  0.00000000000E+00 -0.28608220844E+03  0.29754417693E+04  0.29616567480E+04 0.  0.
        4    1    3    3  502    0 -0.78956323989E+03  0.12226065381E+03 -0.13956374988E+04  0.16081552842E+04  0.12699999809E+01 0.  1.
       -4    1    3    3    0  502  0.78956323989E+03 -0.12226065381E+03  0.11095552903E+04  0.13672864851E+04  0.12699999809E+01 0. -1.
</event>
<event>
 5   0  0.1341932E-06  0.1899613E+04  0.7818609E-02  0.8655049E-01
       -2   -1    0    0    0  501  0.00000000000E+00  0.00000000000E+00  0.14612244613E+04  0.14612244613E+04  0.25500000920E-02 0.  1.
        2   -1    0    0  501    0  0.00000000000E+00  0.00000000000E+00 -0.61738107429E+03  0.61738107429E+03  0.25500000920E-02 0. -1.
    10030    2    1    2    0    0  0.00000000000E+00  0.00000000000E+00  0.84384338697E+03  0.20786055356E+04  0.18996129371E+04 0.  0.
        2    1    3    3  502    0  0.71467793963E+03  0.46565249184E+03  0.87906133341E+03  0.12248859655E+04  0.25500000920E-02 0.  1.
       -2    1    3    3    0  502 -0.71467793963E+03 -0.46565249184E+03 -0.35217946439E+02  0.85371957006E+03  0.25500000920E-02 0. -1.
</event>
<event>
 5   0  0.1372748E-06  0.3417865E+04  0.7818609E-02  0.8133535E-01
        2   -1    0    0  501    0  0.00000000000E+00  0.00000000000E+00  0.16766307158E+04  0.16766307158E+04  0.25500000920E-02 0.  1.
       -2   -1    0    0    0  501  0.00000000000E+00  0.00000000000E+00 -0.17418571074E+04  0.17418571074E+04  0.25500000920E-02 0. -1.
    10030    2    1    2    0    0  0.00000000000E+00  0.00000000000E+00 -0.65226391641E+02  0.34184878232E+04  0.34178654911E+04 0.  0.
        1    1    3    3  502    0  0.10274964592E+04  0.80662692402E+03 -0.11346555345E+04  0.17302714094E+04  0.50400001928E-02 0. -1.
       -1    1    3    3    0  502 -0.10274964592E+04 -0.80662692402E+03  0.10694291429E+04  0.16882164138E+04  0.50400001928E-02 0.  1.
</event>
<event>
 5   0  0.1214844E-06  0.3370751E+04  0.7818609E-02  0.8145122E-01
       -2   -1    0    0    0  501  0.00000000000E+00  0.00000000000E+00  0.18293618294E+04  0.18293618294E+04  0.25500000920E-02 0.  1.
        2   -1    0    0  501    0  0.00000000000E+00  0.00000000000E+00 -0.15527223883E+04  0.15527223883E+04  0.25500000920E-02 0. -1.
    10030    2    1    2    0    0  0.00000000000E+00  0.00000000000E+00  0.27663944112E+03  0.33820842178E+04  0.33707512925E+04 0.  0.
        4    1    3    3  502    0 -0.15656960976E+04 -0.12259202505E+03 -0.47533805594E+03  0.16408476331E+04  0.12699999809E+01 0. -1.
       -4    1    3    3    0  502  0.15656960976E+04  0.12259202505E+03  0.75197749707E+03  0.17412365847E+04  0.12699999809E+01 0.  1.
</event>
<event>
 5   0  0.1184616E-06  0.4001857E+04  0.7818609E-02  0.8004172E-01
        2   -1    0    0  501    0  0.00000000000E+00  0.00000000000E+00  0.19716182352E+04  0.19716182352E+04  0.25500000920E-02 0.  1.
       -2   -1    0    0    0  501  0.00000000000E+00  0.00000000000E+00 -0.20306747748E+04  0.20306747748E+04  0.25500000920E-02 0. -1.
    10030    2    1    2    0    0  0.00000000000E+00  0.00000000000E+00 -0.59056539606E+02  0.40022930100E+04  0.40018572767E+04 0.  0.
        5    1    3    3  502    0  0.11780536761E+03 -0.51678483309E+03  0.19001243901E+04  0.19726731752E+04  0.46999998093E+01 0.  1.
       -5    1    3    3    0  502 -0.11780536761E+03  0.51678483309E+03 -0.19591809297E+04  0.20296198348E+04  0.46999998093E+01 0. -1.
</event>
<event>
 5   0  0.5284458E-07  0.3614287E+04  0.7818609E-02  0.8087227E-01
       -1   -1    0    0    0  501  0.00000000000E+00  0.00000000000E+00  0.24205262886E+04  0.24205262886E+04  0.50400001928E-02 0.  1.
        1   -1    0    0  501    0  0.00000000000E+00  0.00000000000E+00 -0.13491975572E+04  0.13491975573E+04  0.50400001928E-02 0. -1.
    10030    2    1    2    0    0  0.00000000000E+00  0.00000000000E+00  0.10713287314E+04  0.37697238459E+04  0.36142872912E+04 0.  0.
        5    1    3    3  502    0 -0.76615858279E+03  0.15005514209E+04 -0.14596430800E+03  0.16911478972E+04  0.46999998093E+01 0. -1.
       -5    1    3    3    0  502  0.76615858279E+03 -0.15005514209E+04  0.12172930394E+04  0.20785759487E+04  0.46999998093E+01 0.  1.
</event>
<event>
 5   0  0.5284458E-07  0.2660216E+04  0.7818609E-02  0.8348030E-01
        1   -1    0    0  501    0  0.00000000000E+00  0.00000000000E+00  0.10703631363E+04  0.10703631363E+04  0.50400001928E-02 0.  1.
       -1   -1    0    0    0  501  0.00000000000E+00  0.00000000000E+00 -0.16528854095E+04  0.16528854095E+04  0.50400001928E-02 0. -1.
    10030    2    1    2    0    0  0.00000000000E+00  0.00000000000E+00 -0.58252227314E+03  0.27232485458E+04  0.26602162400E+04 0.  0.
        5    1    3    3  502    0  0.85864018838E+03  0.90747657403E+03  0.17605151937E+03  0.12616627652E+04  0.46999998093E+01 0.  1.
       -5    1    3    3    0  502 -0.85864018838E+03 -0.90747657403E+03 -0.75857379252E+03  0.14615857807E+04  0.46999998093E+01 0. -1.
</event>
<event>
 5   0  0.8030324E-07  0.1986523E+04  0.7818609E-02  0.8612948E-01
        1   -1    0    0  501    0  0.00000000000E+00  0.00000000000E+00  0.70844553410E+03  0.70844553412E+03  0.50400001928E-02 0. -1.
       -1   -1    0    0    0  501  0.00000000000E+00  0.00000000000E+00 -0.13925813033E+04  0.13925813034E+04  0.50400001928E-02 0.  1.
    10030    2    1    2    0    0  0.00000000000E+00  0.00000000000E+00 -0.68413576924E+03  0.21010268375E+04  0.19865225951E+04 0.  0.
        1    1    3    3  502    0  0.45187325755E+02  0.10346673870E+03  0.70163672519E+03  0.71066261657E+03  0.50400001928E-02 0. -1.
       -1    1    3    3    0  502 -0.45187325755E+02 -0.10346673870E+03 -0.13857724944E+04  0.13903642209E+04  0.50400001928E-02 0.  1.
</event>
<event>
 5   0  0.4795023E-07  0.2414324E+04  0.7818609E-02  0.8434160E-01
        1   -1    0    0  501    0  0.00000000000E+00  0.00000000000E+00  0.16903270661E+04  0.16903270661E+04  0.50400001928E-02 0.  1.
       -1   -1    0    0    0  501  0.00000000000E+00  0.00000000000E+00 -0.86210539334E+03  0.86210539335E+03  0.50400001928E-02 0. -1.
    10030    2    1    2    0    0  0.00000000000E+00  0.00000000000E+00  0.82822167275E+03  0.25524324594E+04  0.24143239884E+04 0.  0.
        3    1    3    3  502    0  0.47090011916E+03 -0.10438180449E+04  0.10240950754E+02  0.11451672020E+04  0.10100000352E+00 0. -1.
       -3    1    3    3    0  502 -0.47090011916E+03  0.10438180449E+04  0.81798072200E+03  0.14072652575E+04  0.10100000352E+00 0.  1.
</event>
<event>
 5   0  0.1372748E-06  0.3428466E+04  0.7818609E-02  0.8130955E-01
        2   -1    0    0  501    0  0.00000000000E+00  0.00000000000E+00  0.33015918225E+04  0.33015918225E+04  0.25500000920E-02 0.  1.
       -2   -1    0    0    0  501  0.00000000000E+00  0.00000000000E+00 -0.89005376095E+03  0.89005376095E+03  0.25500000920E-02 0. -1.
    10030    2    1    2    0    0  0.00000000000E+00  0.00000000000E+00  0.24115380616E+04  0.41916455835E+04  0.34284656736E+04 0.  0.
        1    1    3    3  502    0 -0.12669998550E+03 -0.93661162346E+03  0.29542594546E+04  0.31017645212E+04  0.50400001928E-02 0.  1.
       -1    1    3    3    0  502  0.12669998550E+03  0.93661162346E+03 -0.54272139303E+03  0.10898810623E+04  0.50400001928E-02 0. -1.
</event>
<event>
 5   0  0.1214844E-06  0.3714104E+04  0.7818609E-02  0.8064843E-01
       -2   -1    0    0    0  501  0.00000000000E+00  0.00000000000E+00  0.19474310595E+04  0.19474310595E+04  0.25500000920E-02 0.  1.
        2   -1    0    0  501    0  0.00000000000E+00  0.00000000000E+00 -0.17708676041E+04  0.17708676041E+04  0.25500000920E-02 0. -1.
    10030    2    1    2    0    0  0.00000000000E+00  0.00000000000E+00  0.17656345534E+03  0.37182986636E+04  0.37141042390E+04 0.  0.
        4    1    3    3  502    0 -0.14017316114E+04  0.11100597034E+04 -0.41383917910E+03  0.18353061147E+04  0.12699999809E+01 0. -1.
       -4    1    3    3    0  502  0.14017316114E+04 -0.11100597034E+04  0.59040263444E+03  0.18829925489E+04  0.12699999809E+01 0.  1.
</event>
<event>
 5   0  0.1341932E-06  0.3777399E+04  0.7818609E-02  0.8051022E-01
        2   -1    0    0  501    0  0.00000000000E+00  0.00000000000E+00  0.17248366985E+04  0.17248366985E+04  0.25500000920E-02 0.  1.
       -2   -1    0    0    0  501  0.00000000000E+00  0.00000000000E+00 -0.20681300541E+04  0.20681300541E+04  0.25500000920E-02 0. -1.
    10030    2    1    2    0    0  0.00000000000E+00  0.00000000000E+00 -0.34329335560E+03  0.37929667526E+04  0.37773994306E+04 0.  0.
        2    1    3    3  502    0 -0.10907683633E+03  0.10062323148E+01  0.17216710853E+04  0.17251232114E+04  0.25500000920E-02 0.  1.
       -2    1    3    3    0  502  0.10907683633E+03 -0.10062323148E+01 -0.20649644409E+04  0.20678435412E+04  0.25500000920E-02 0. -1.
</event>
<event>
 5   0  0.5284458E-07  0.3743601E+04  0.7818609E-02  0.8058367E-01
       -1   -1    0    0    0  501  0.00000000000E+00  0.00000000000E+00  0.31246872999E+04  0.31246872999E+04  0.50400001928E-02 0. -1.
        1   -1    0    0  501    0  0.00000000000E+00  0.00000000000E+00 -0.11212762424E+04  0.11212762425E+04  0.50400001928E-02 0.  1.
    10030    2    1    2    0    0  0.00000000000E+00  0.00000000000E+00  0.20034110575E+04  0.42459635424E+04  0.37436012793E+04 0.  0.
        5    1    3    3  502    0  0.10157341490E+04 -0.14045220041E+04  0.20033820860E+03  0.17448654416E+04  0.46999998093E+01 0. -1.
       -5    1    3    3    0  502 -0.10157341490E+04  0.14045220041E+04  0.18030728489E+04  0.25010981008E+04  0.46999998093E+01 0.  1.
</event>
<event>
 5   0  0.1372748E-06  0.3819487E+04  0.7818609E-02  0.8041986E-01
       -2   -1    0    0    0  501  0.00000000000E+00  0.00000000000E+00  0.13905610718E+04  0.13905610718E+04  0.25500000920E-02 0. -1.
        2   -1    0    0  501    0  0.00000000000E+00  0.00000000000E+00 -0.26227688436E+04  0.26227688436E+04  0.25500000920E-02 0.  1.
    10030    2    1    2    0    0  0.00000000000E+00  0.00000000000E+00 -0.12322077718E+04  0.40133299153E+04  0.38194870096E+04 0.  0.
        1    1    3    3  502    0  0.16848407973E+04  0.40188782859E+03 -0.14612356292E+04  0.22661447224E+04  0.50400001928E-02 0.  1.
       -1    1    3    3    0  502 -0.16848407973E+04 -0.40188782859E+03  0.22902785738E+03  0.17471851929E+04  0.50400001928E-02 0. -1.
</event>
<event>
 5   0  0.8030324E-07  0.2010644E+04  0.7818609E-02  0.8601661E-01
       -1   -1    0    0    0  501  0.00000000000E+00  0.00000000000E+00  0.82476472135E+03  0.82476472136E+03  0.50400001928E-02 0. -1.
        1   -1    0    0  501    0  0.00000000000E+00  0.00000000000E+00 -0.12254063551E+04  0.12254063551E+04  0.50400001928E-02 0.  1.
    10030    2    1    2    0    0  0.00000000000E+00  0.00000000000E+00 -0.40064163372E+03  0.20501710764E+04  0.20106436094E+04 0.  0.
        1    1    3    3  502    0 -0.69732285805E+03  0.35331079930E+03 -0.84487462818E+03  0.11510433644E+04  0.50400001928E-02 0.  1.
       -1    1    3    3    0  502  0.69732285805E+03 -0.35331079930E+03  0.44423299446E+03  0.89912771209E+03  0.50400001928E-02 0. -1.
</event>
<event>
 5   0  0.5284458E-07  0.2351435E+04  0.7818609E-02  0.8457913E-01
       -1   -1    0    0    0  501  0.00000000000E+00  0.00000000000E+00  0.78710189222E+03  0.78710189224E+03  0.50400001928E-02 0. -1.
        1   -1    0    0  501    0  0.00000000000E+00  0.00000000000E+00 -0.17562047869E+04  0.17562047869E+04  0.50400001928E-02 0.  1.
    10030    2    1    2    0    0  0.00000000000E+00  0.00000000000E+00 -0.96910289471E+03  0.25433066792E+04  0.23514354007E+04 0.  0.
        5    1    3    3  502    0  0.22358564354E+03  0.79605520479E+03 -0.13885726160E+04  0.16161220340E+04  0.46999998093E+01 0.  1.
       -5    1    3    3    0  502 -0.22358564354E+03 -0.79605520479E+03  0.41946972128E+03  0.92718464512E+03  0.46999998093E+01 0. -1.
</event>
<event>
 5   0  0.4795023E-07  0.2106828E+04  0.7818609E-02  0.8558242E-01
        1   -1    0    0  501    0  0.00000000000E+00  0.00000000000E+00  0.10270867310E+04  0.10270867310E+04  0.50400001928E-02 0. -1.
       -1   -1    0    0    0  501  0.00000000000E+00  0.00000000000E+00 -0.10804157219E+04  0.10804157219E+04  0.50400001928E-02 0.  1.
    10030    2    1    2    0    0  0.00000000000E+00  0.00000000000E+00 -0.53328990914E+02  0.21075024529E+04  0.21068276170E+04 0.  0.
        3    1    3    3  502    0 -0.82029418422E+03  0.58388848058E+03 -0.33639625478E+03  0.10615887890E+04  0.10100000352E+00 0.  1.
       -3    1    3    3    0  502  0.82029418422E+03 -0.58388848058E+03  0.28306726386E+03  0.10459136640E+04  0.10100000352E+00 0. -1.
</event>
<event>
 5   0  0.5284458E-07  0.3621958E+04  0.7818609E-02  0.8085480E-01
       -1   -1    0    0    0  501  0.00000000000E+00  0.00000000000E+00  0.11843134655E+04  0.11843134656E+04  0.50400001928E-02 0. -1.
        1   -1    0    0  501    0  0.00000000000E+00  0.00000000000E+00 -0.27692365258E+04  0.27692365258E+04  0.50400001928E-02 0.  1.
    10030    2    1    2    0    0  0.00000000000E+00  0.00000000000E+00 -0.15849230603E+04  0.39535499914E+04  0.36219575408E+04 0.  0.
        5    1    3    3  502    0  0.12577256328E+04 -0.54230003181E+03 -0.20856882688E+04  0.24952115615E+04  0.46999998093E+01 0.  1.
       -5    1    3    3    0  502 -0.12577256328E+04  0.54230003181E+03  0.50076520853E+03  0.14583384299E+04  0.46999998093E+01 0. -1.
</event>
<event>
 5   0  0.1214844E-06  0.3731189E+04  0.7818609E-02  0.8061085E-01
       -2   -1    0    0    0  501  0.00000000000E+00  0.00000000000E+00  0.12607198287E+04  0.12607198287E+04  0.25500000920E-02 0. -1.
        2   -1    0    0  501    0  0.00000000000E+00  0.00000000000E+00 -0.27606796962E+04  0.27606796962E+04  0.25500000920E-02 0.  1.
    10030    2    1    2    0    0  0.00000000000E+00  0.00000000000E+00 -0.14999598675E+04  0.40213995249E+04  0.37311894263E+04 0.  0.
        4    1    3    3  502    0  0.14208510686E+04 -0.82594594948E+03  0.20154590606E+03  0.16557858665E+04  0.12699999809E+01 0. -1.
       -4    1    3    3    0  502 -0.14208510686E+04  0.82594594948E+03 -0.17015057736E+04  0.23656136584E+04  0.12699999809E+01 0.  1.
</event>
<event>
 5   0  0.1372748E-06  0.2444499E+04  0.7818609E-02  0.8423029E-01
        2   -1    0    0  501    0  0.00000000000E+00  0.00000000000E+00  0.21006591138E+04  0.21006591138E+04  0.25500000920E-02 0.  1.
       -2   -1    0    0    0  501  0.00000000000E+00  0.00000000000E+00 -0.71115459631E+03  0.71115459631E+03  0.25500000920E-02 0. -1.
    10030    2    1    2    0    0  0.00000000000E+00  0.00000000000E+00  0.13895045175E+04  0.28118137101E+04  0.24444986267E+04 0.  0.
        1    1    3    3  502    0 -0.33427583833E+03 -0.87432553613E+01 -0.65751584413E+03  0.73766107794E+03  0.50400001928E-02 0. -1.
       -1    1    3    3    0  502  0.33427583833E+03  0.87432553613E+01  0.20470203616E+04  0.20741526321E+04  0.50400001928E-02 0.  1.
</event>
<event>
 5   0  0.8030324E-07  0.3708824E+04  0.7818609E-02  0.8066009E-01
        1   -1    0    0  501    0  0.00000000000E+00  0.00000000000E+00  0.18617899921E+04  0.18617899921E+04  0.50400001928E-02 0. -1.
       -1   -1    0    0    0  501  0.00000000000E+00  0.00000000000E+00 -0.18470634005E+04  0.18470634005E+04  0.50400001928E-02 0.  1.
    10030    2    1    2    0    0  0.00000000000E+00  0.00000000000E+00  0.14726591538E+02  0.37088533926E+04  0.37088241554E+04 0.  0.
        1    1    3    3  502    0 -0.98434253147E+03  0.87161559313E+03  0.13151198312E+04  0.18596193514E+04  0.50400001928E-02 0. -1.
       -1    1    3    3    0  502  0.98434253147E+03 -0.87161559313E+03 -0.13003932397E+04  0.18492340412E+04  0.50400001928E-02 0.  1.
</event>
<event>
 5   0  0.1184616E-06  0.1895350E+04  0.7818609E-02  0.8657175E-01
       -2   -1    0    0    0  501  0.00000000000E+00  0.00000000000E+00  0.60992495612E+03  0.60992495612E+03  0.25500000920E-02 0. -1.
        2   -1    0    0  501    0  0.00000000000E+00  0.00000000000E+00 -0.14724560516E+04  0.14724560516E+04  0.25500000920E-02 0.  1.
    10030    2    1    2    0    0  0.00000000000E+00  0.00000000000E+00 -0.86253109546E+03  0.20823810077E+04  0.18953497753E+04 0.  0.
        5    1    3    3  502    0  0.34542931254E+03  0.61469053068E+03 -0.11269122258E+04  0.13293303251E+04  0.46999998093E+01 0.  1.
       -5    1    3    3    0  502 -0.34542931254E+03 -0.61469053068E+03  0.26438113038E+03  0.75305068260E+03  0.46999998093E+01 0. -1.
</event>
<event>
 5   0  0.1079205E-06  0.3510582E+04  0.7818609E-02  0.8111287E-01
        1   -1    0    0  501    0  0.00000000000E+00  0.00000000000E+00  0.12637949643E+04  0.12637949643E+04  0.50400001928E-02 0.  1.
       -1   -1    0    0    0  501  0.00000000000E+00  0.00000000000E+00 -0.24379318677E+04  0.24379318677E+04  0.50400001928E-02 0. -1.
    10030    2    1    2    0    0  0.00000000000E+00  0.00000000000E+00 -0.11741369035E+04  0.37017268320E+04  0.35105817282E+04 0.  0.
        4    1    3    3  502    0 -0.73881662824E+03  0.55852028402E+03 -0.21593103997E+04  0.23495569653E+04  0.12699999809E+01 0. -1.
       -4    1    3    3    0  502  0.73881662824E+03 -0.55852028402E+03  0.98517349625E+03  0.13521698667E+04  0.12699999809E+01 0.  1.
</event>
<event>
 5   0  0.4795023E-07  0.2958127E+04  0.7818609E-02  0.8255790E-01
       -1   -1    0    0    0  501  0.00000000000E+00  0.00000000000E+00  0.81162233192E+03  0.81162233194E+03  0.50400001928E-02 0.  1.
        1   -1    0    0  501    0  0.00000000000E+00  0.00000000000E+00 -0.26953780580E+04  0.26953780580E+04  0.50400001928E-02 0. -1.
    10030    2    1    2    0    0  0.00000000000E+00  0.00000000000E+00 -0.18837557260E+04  0.35070003899E+04  0.29581271270E+04 0.  0.
        3    1    3    3  502    0  0.70938574333E+03  0.81201669986E+02 -0.24775199392E+04  0.25783574041E+04  0.10100000352E+00 0. -1.
       -3    1    3    3    0  502 -0.70938574333E+03 -0.81201669986E+02  0.59376421315E+03  0.92864298580E+03  0.10100000352E+00 0.  1.
</event>
<event>
 5   0  0.4795023E-07  0.2675571E+04  0.7818609E-02  0.8342975E-01
       -1   -1    0    0    0  501  0.00000000000E+00  0.00000000000E+00  0.13789542691E+04  0.13789542691E+04  0.50400001928E-02 0.  1.
        1   -1    0    0  501    0  0.00000000000E+00  0.00000000000E+00 -0.12978457372E+04  0.12978457372E+04  0.50400001928E-02 0. -1.
    10030    2    1    2    0    0  0.00000000000E+00  0.00000000000E+00  0.81108531931E+02  0.26768000063E+04  0.26755709073E+04 0.  0.
        3    1    3    3  502    0 -0.58282215811E+03  0.95594877690E+03 -0.69200486636E+03  0.13162030532E+04  0.10100000352E+00 0. -1.
       -3    1    3    3    0  502  0.58282215811E+03 -0.95594877690E+03  0.77311339829E+03  0.13605969531E+04  0.10100000352E+00 0.  1.
</event>
<event>
 5   0  0.5284458E-07  0.3260468E+04  0.7818609E-02  0.8173028E-01
       -1   -1    0    0    0  501  0.00000000000E+00  0.00000000000E+00  0.17159742986E+04  0.17159742986E+04  0.50400001928E-02 0.  1.
        1   -1    0    0  501    0  0.00000000000E+00  0.00000000000E+00 -0.15487780733E+04  0.15487780733E+04  0.50400001928E-02 0. -1.
    10030    2    1    2    0    0  0.00000000000E+00  0.00000000000E+00  0.16719622523E+03  0.32647523719E+04  0.32604682903E+04 0.  0.
        5    1    3    3  502    0  0.46857351994E+03 -0.42729246749E+03 -0.14202078565E+04  0.15553624793E+04  0.46999998093E+01 0. -1.
       -5    1    3    3    0  502 -0.46857351994E+03  0.42729246749E+03  0.15874040817E+04  0.17093898926E+04  0.46999998093E+01 0.  1.
</event>
<event>
 5   0  0.1184616E-06  0.4177120E+04  0.7818609E-02  0.7969739E-01
       -2   -1    0    0    0  501  0.00000000000E+00  0.00000000000E+00  0.17406456402E+04  0.17406456402E+04  0.25500000920E-02 0. -1.
        2   -1    0    0  501    0  0.00000000000E+00  0.00000000000E+00 -0.25060143563E+04  0.25060143563E+04  0.25500000920E-02 0.  1.
    10030    2    1    2    0    0  0.00000000000E+00  0.00000000000E+00 -0.76536871612E+03  0.42466599965E+04  0.41771200431E+04 0.  0.
        5    1    3    3  502    0 -0.10898846912E+04  0.28779673374E+02  0.14283715035E+04  0.17969263067E+04  0.46999998093E+01 0. -1.
       -5    1    3    3    0  502  0.10898846912E+04 -0.28779673374E+02 -0.21937402196E+04  0.24497336898E+04  0.46999998093E+01 0.  1.
</event>
<event>
 5   0  0.1372748E-06  0.3919405E+04  0.7818609E-02  0.8021005E-01
       -2   -1    0    0    0  501  0.00000000000E+00  0.00000000000E+00  0.25974223404E+04  0.25974223404E+04  0.25500000920E-02 0.  1.
        2   -1    0    0  501    0  0.00000000000E+00  0.00000000000E+00 -0.14785555049E+04  0.14785555049E+04  0.25500000920E-02 0. -1.
    10030    2    1    2    0    0  0.00000000000E+00  0.00000000000E+00  0.11188668355E+04  0.40759778453E+04  0.39194045976E+04 0.  0.
        1    1    3    3  502    0 -0.89249964729E+03 -0.12500793366E+04 -0.70622207827E+03  0.16905630991E+04  0.50400001928E-02 0. -1.
       -1    1    3    3    0  502  0.89249964729E+03  0.12500793366E+04  0.18250889137E+04  0.23854147462E+04  0.50400001928E-02 0.  1.
</event>
<event>
 5   0  0.8030324E-07  0.3810864E+04  0.7818609E-02  0.8043828E-01
       -1   -1    0    0    0  501  0.00000000000E+00  0.00000000000E+00  0.24237389435E+04  0.24237389435E+04  0.50400001928E-02 0. -1.
        1   -1    0    0  501    0  0.00000000000E+00  0.00000000000E+00 -0.14979629240E+04  0.14979629240E+04  0.50400001928E-02 0.  1.
    10030    2    1    2    0    0  0.00000000000E+00  0.00000000000E+00  0.92577601958E+03  0.39217018675E+04  0.38108639833E+04 0.  0.
        1    1    3    3  502    0  0.49441564608E+03 -0.14577859611E+04  0.16185296773E+04  0.22336573273E+04  0.50400001928E-02 0. -1.
       -1    1    3    3    0  502 -0.49441564608E+03  0.14577859611E+04 -0.69275365775E+03  0.16880445402E+04  0.50400001928E-02 0.  1.
</event>
<event>
 5   0  0.5284458E-07  0.3722372E+04  0.7818609E-02  0.8063022E-01
       -1   -1    0    0    0  501  0.00000000000E+00  0.00000000000E+00  0.22866808401E+04  0.22866808401E+04  0.50400001928E-02 0.  1.
        1   -1    0    0  501    0  0.00000000000E+00  0.00000000000E+00 -0.15148655494E+04  0.15148655494E+04  0.50400001928E-02 0. -1.
    10030    2    1    2    0    0  0.00000000000E+00  0.00000000000E+00  0.77181529072E+03  0.38015463895E+04  0.37223723764E+04 0.  0.
        5    1    3    3  502    0 -0.13383145633E+04 -0.19985219314E+03 -0.91914772552E+03  0.16358121533E+04  0.46999998093E+01 0.  1.
       -5    1    3    3    0  502  0.13383145633E+04  0.19985219314E+03  0.16909630162E+04  0.21657342362E+04  0.46999998093E+01 0. -1.
</event>
<event>
 5   0  0.1184616E-06  0.4001531E+04  0.7818609E-02  0.8004238E-01
        2   -1    0    0  501    0  0.00000000000E+00  0.00000000000E+00  0.27880937258E+04  0.27880937258E+04  0.25500000920E-02 0.  1.
       -2   -1    0    0    0  501  0.00000000000E+00  0.00000000000E+00 -0.14357703432E+04  0.14357703432E+04  0.25500000920E-02 0. -1.
    10030    2    1    2    0    0  0.00000000000E+00  0.00000000000E+00  0.13523233826E+04  0.42238640690E+04  0.40015308498E+04 0.  0.
        5    1    3    3  502    0 -0.82851016283E+03 -0.18170286216E+04  0.54680432345E+03  0.20705166408E+04  0.46999998093E+01 0.  1.
       -5    1    3    3    0  502  0.82851016283E+03  0.18170286216E+04  0.80551905916E+03  0.21533474282E+04  0.46999998093E+01 0. -1.
</event>
<event>
 5   0  0.4255250E-07  0.2639750E+04  0.7818609E-02  0.8354823E-01
       -3   -1    0    0    0  501  0.00000000000E+00  0.00000000000E+00  0.87038578445E+03  0.87038579031E+03  0.10100000352E+00 0.  1.
        3   -1    0    0  501    0  0.00000000000E+00  0.00000000000E+00 -0.20014925039E+04  0.20014925064E+04  0.10100000352E+00 0. -1.
    10030    2    1    2    0    0  0.00000000000E+00  0.00000000000E+00 -0.11311067195E+04  0.28718782968E+04  0.26397504694E+04 0.  0.
        4    1    3    3  502    0 -0.36967447554E+02 -0.11428034019E+04  0.15174424718E+03  0.11534271269E+04  0.12699999809E+01 0.  1.
       -4    1    3    3    0  502  0.36967447554E+02  0.11428034019E+04 -0.12828509666E+04  0.17184511698E+04  0.12699999809E+01 0. -1.
</event>
<event>
 5   0  0.5284458E-07  0.2706291E+04  0.7818609E-02  0.8332966E-01
        1   -1    0    0  501    0  0.00000000000E+00  0.00000000000E+00  0.25995253582E+04  0.25995253582E+04  0.50400001928E-02 0. -1.
       -1   -1    0    0    0  501  0.00000000000E+00  0.00000000000E+00 -0.70436065525E+03  0.70436065527E+03  0.50400001928E-02 0.  1.
    10030    2    1    2    0    0  0.00000000000E+00  0.00000000000E+00  0.18951647029E+04  0.33038860135E+04  0.27062914733E+04 0.  0.
        5    1    3    3  502    0 -0.13706937425E+03 -0.76162375530E+03  0.23027013587E+04  0.24292621093E+04  0.46999998093E+01 0. -1.
       -5    1    3    3    0  502  0.13706937425E+03  0.76162375530E+03 -0.40753665579E+03  0.87462390420E+03  0.46999998093E+01 0.  1.
</event>
<event>
 5   0  0.1214844E-06  0.2024170E+04  0.7818609E-02  0.8595403E-01
       -2   -1    0    0    0  501  0.00000000000E+00  0.00000000000E+00  0.51434036628E+03  0.51434036629E+03  0.25500000920E-02 0. -1.
        2   -1    0    0  501    0  0.00000000000E+00  0.00000000000E+00 -0.19915144205E+04  0.19915144205E+04  0.25500000920E-02 0.  1.
    10030    2    1    2    0    0  0.00000000000E+00  0.00000000000E+00 -0.14771740542E+04  0.25058547868E+04  0.20241702068E+04 0.  0.
        4    1    3    3  502    0  0.42178440425E+03  0.17063105424E+03 -0.18577645634E+04  0.19126703391E+04  0.12699999809E+01 0.  1.
       -4    1    3    3    0  502 -0.42178440425E+03 -0.17063105424E+03  0.38059050918E+03  0.59318444764E+03  0.12699999809E+01 0. -1.
</event>
<event>
 5   0  0.1341932E-06  0.3705243E+04  0.7818609E-02  0.8066801E-01
       -2   -1    0    0    0  501  0.00000000000E+00  0.00000000000E+00  0.17737222233E+04  0.17737222233E+04  0.25500000920E-02 0.  1.
        2   -1    0    0  501    0  0.00000000000E+00  0.00000000000E+00 -0.19350305514E+04  0.19350305514E+04  0.25500000920E-02 0. -1.
    10030    2    1    2    0    0  0.00000000000E+00  0.00000000000E+00 -0.16130832816E+03  0.37087527747E+04  0.37052431455E+04 0.  0.
        2    1    3    3  502    0 -0.64712163371E+03  0.13668711531E+04  0.99045454164E+03  0.18077896330E+04  0.25500000920E-02 0. -1.
       -2    1    3    3    0  502  0.64712163371E+03 -0.13668711531E+04 -0.11517628698E+04  0.19009631417E+04  0.25500000920E-02 0.  1.
</event>
<event>
 5   0  0.4255250E-07  0.2417954E+04  0.7818609E-02  0.8432812E-01
       -1   -1    0    0    0  501  0.00000000000E+00  0.00000000000E+00  0.75445622802E+03  0.75445622804E+03  0.50400001928E-02 0.  1.
        1   -1    0    0  501    0  0.00000000000E+00  0.00000000000E+00 -0.19373226257E+04  0.19373226258E+04  0.50400001928E-02 0. -1.
    10030    2    1    2    0    0  0.00000000000E+00  0.00000000000E+00 -0.11828663977E+04  0.26917788538E+04  0.24179537801E+04 0.  0.
        2    1    3    3  502    0 -0.73120209679E+03 -0.57181428508E+03  0.27088179019E+03  0.96695657981E+03  0.25500000920E-02 0.  1.
       -2    1    3    3    0  502  0.73120209679E+03  0.57181428508E+03 -0.14537481879E+04  0.17248222740E+04  0.25500000920E-02 0. -1.
</event>
<event>
 5   0  0.1341932E-06  0.3730457E+04  0.7818609E-02  0.8061245E-01
       -2   -1    0    0    0  501  0.00000000000E+00  0.00000000000E+00  0.15099783004E+04  0.15099783004E+04  0.25500000920E-02 0.  1.
        2   -1    0    0  501    0  0.00000000000E+00  0.00000000000E+00 -0.23040583811E+04  0.23040583811E+04  0.25500000920E-02 0. -1.
    10030    2    1    2    0    0  0.00000000000E+00  0.00000000000E+00 -0.79408008066E+03  0.38140366816E+04  0.37304574296E+04 0.  0.
        2    1    3    3  502    0 -0.12190653266E+04  0.11863573089E+04  0.38529269321E+03  0.17441371490E+04  0.25500000920E-02 0.  1.
       -2    1    3    3    0  502  0.12190653266E+04 -0.11863573089E+04 -0.11793727739E+04  0.20698995325E+04  0.25500000920E-02 0. -1.
</event>
<event>
 5   0  0.4255250E-07  0.3774716E+04  0.7818609E-02  0.8051603E-01
        1   -1    0    0  501    0  0.00000000000E+00  0.00000000000E+00  0.26242730001E+04  0.26242730001E+04  0.50400001928E-02 0.  1.
       -1   -1    0    0    0  501  0.00000000000E+00  0.00000000000E+00 -0.13573741751E+04  0.13573741751E+04  0.50400001928E-02 0. -1.
    10030    2    1    2    0    0  0.00000000000E+00  0.00000000000E+00  0.12668988250E+04  0.39816471752E+04  0.37747160946E+04 0.  0.
        2    1    3    3  502    0  0.10788566387E+04  0.14320039654E+04  0.12553045807E+04  0.21886883273E+04  0.25500000920E-02 0. -1.
       -2    1    3    3    0  502 -0.10788566387E+04 -0.14320039654E+04  0.11594244296E+02  0.17929588479E+04  0.25500000920E-02 0.  1.
</event>
<event>
 5   0  0.4795023E-07  0.3785028E+04  0.7818609E-02  0.8049375E-01
        1   -1    0    0  501    0  0.00000000000E+00  0.00000000000E+00  0.19803707722E+04  0.19803707722E+04  0.50400001928E-02 0.  1.
       -1   -1    0    0    0  501  0.00000000000E+00  0.00000000000E+00 -0.18085548505E+04  0.18085548505E+04  0.50400001928E-02 0. -1.
    10030    2    1    2    0    0  0.00000000000E+00  0.00000000000E+00  0.17181592169E+03  0.37889256228E+04  0.37850279608E+04 0.  0.
        3    1    3    3  502    0  0.13114827715E+03 -0.16514625883E+04  0.10017712001E+04  0.19359943436E+04  0.10100000352E+00 0.  1.
       -3    1    3    3    0  502 -0.13114827715E+03  0.16514625883E+04 -0.82995527837E+03  0.18529312792E+04  0.10100000352E+00 0. -1.
</event>
<event>
 5   0  0.1341932E-06  0.2153919E+04  0.7818609E-02  0.8537857E-01
       -2   -1    0    0    0  501  0.00000000000E+00  0.00000000000E+00  0.56110078030E+03  0.56110078031E+03  0.25500000920E-02 0.  1.
        2   -1    0    0  501    0  0.00000000000E+00  0.00000000000E+00 -0.20670828514E+04  0.20670828514E+04  0.25500000920E-02 0. -1.
    10030    2    1    2    0    0  0.00000000000E+00  0.00000000000E+00 -0.15059820711E+04  0.26281836317E+04  0.21539190337E+04 0.  0.
        2    1    3    3  502    0 -0.89614887124E+03 -0.66019445163E+02 -0.14773345062E+04  0.17291496782E+04  0.25500000920E-02 0. -1.
       -2    1    3    3    0  502  0.89614887124E+03  0.66019445163E+02 -0.28647564951E+02  0.89903395351E+03  0.25500000920E-02 0.  1.
</event>
<event>
 5   0  0.1214844E-06  0.2620435E+04  0.7818609E-02  0.8361293E-01
       -2   -1    0    0    0  501  0.00000000000E+00  0.00000000000E+00  0.63391824952E+03  0.63391824953E+03  0.25500000920E-02 0.  1.
        2   -1    0    0  501    0  0.00000000000E+00  0.00000000000E+00 -0.27080302680E+04  0.27080302680E+04  0.25500000920E-02 0. -1.
    10030    2    1    2    0    0  0.00000000000E+00  0.00000000000E+00 -0.20741120185E+04  0.33419485176E+04  0.26204349312E+04 0.  0.
        4    1    3    3  502    0  0.38831695053E+03  0.29290455916E+03  0.51450805591E+03  0.70802774476E+03  0.12699999809E+01 0.  1.
       -4    1    3    3    0  502 -0.38831695053E+03 -0.29290455916E+03 -0.25886200744E+04  0.26339207728E+04  0.12699999809E+01 0. -1.
</event>
<event>
 5   0  0.1372748E-06  0.3170945E+04  0.7818609E-02  0.8196533E-01
       -2   -1    0    0    0  501  0.00000000000E+00  0.00000000000E+00  0.14375909563E+04  0.14375909563E+04  0.25500000920E-02 0.  1.
        2   -1    0    0  501    0  0.00000000000E+00  0.00000000000E+00 -0.17485667452E+04  0.17485667452E+04  0.25500000920E-02 0. -1.
    10030    2    1    2    0    0  0.00000000000E+00  0.00000000000E+00 -0.31097578892E+03  0.31861577015E+04  0.31709454359E+04 0.  0.
        1    1    3    3  502    0 -0.14811271905E+04  0.47644584830E+03  0.15090997230E+03  0.15631737653E+04  0.50400001928E-02 0. -1.
       -1    1    3    3    0  502  0.14811271905E+04 -0.47644584830E+03 -0.46188576123E+03  0.16229839362E+04  0.50400001928E-02 0.  1.
</event>
<event>
 5   0  0.1372748E-06  0.3955168E+04  0.7818609E-02  0.8013652E-01
        2   -1    0    0  501    0  0.00000000000E+00  0.00000000000E+00  0.17033397259E+04  0.17033397259E+04  0.25500000920E-02 0.  1.
       -2   -1    0    0    0  501  0.00000000000E+00  0.00000000000E+00 -0.22959821184E+04  0.22959821184E+04  0.25500000920E-02 0. -1.
    10030    2    1    2    0    0  0.00000000000E+00  0.00000000000E+00 -0.59264239250E+03  0.39993218444E+04  0.39551675324E+04 0.  0.
        1    1    3    3  502    0  0.18563932161E+03  0.19140380025E+04  0.17016854425E+03  0.19305338035E+04  0.50400001928E-02 0.  1.
       -1    1    3    3    0  502 -0.18563932161E+03 -0.19140380025E+04 -0.76281093675E+03  0.20687880409E+04  0.50400001928E-02 0. -1.
</event>
<event>
 5   0  0.4255250E-07  0.3788601E+04  0.7818609E-02  0.8048605E-01
        1   -1    0    0  501    0  0.00000000000E+00  0.00000000000E+00  0.13845345863E+04  0.13845345863E+04  0.50400001928E-02 0.  1.
       -1   -1    0    0    0  501  0.00000000000E+00  0.00000000000E+00 -0.25917550009E+04  0.25917550009E+04  0.50400001928E-02 0. -1.
    10030    2    1    2    0    0  0.00000000000E+00  0.00000000000E+00 -0.12072204146E+04  0.39762895872E+04  0.37886010283E+04 0.  0.
        2    1    3    3  502    0  0.11579477126E+04  0.10984252003E+04  0.46722629132E+03  0.16630337438E+04  0.25500000920E-02 0.  1.
       -2    1    3    3    0  502 -0.11579477126E+04 -0.10984252003E+04 -0.16744467059E+04  0.23132558433E+04  0.25500000920E-02 0. -1.
</event>
<event>
 5   0  0.1184616E-06  0.3795026E+04  0.7818609E-02  0.8047223E-01
        2   -1    0    0  501    0  0.00000000000E+00  0.00000000000E+00  0.25311054679E+04  0.25311054679E+04  0.25500000920E-02 0. -1.
       -2   -1    0    0    0  501  0.00000000000E+00  0.00000000000E+00 -0.14225230619E+04  0.14225230619E+04  0.25500000920E-02 0.  1.
    10030    2    1    2    0    0  0.00000000000E+00  0.00000000000E+00  0.11085824060E+04  0.39536285298E+04  0.37950261660E+04 0.  0.
        5    1    3    3  502    0  0.15313627393E+04 -0.10302316464E+04  0.95329163929E+02  0.18481230544E+04  0.46999998093E+01 0.  1.
       -5    1    3    3    0  502 -0.15313627393E+04  0.10302316464E+04  0.10132532421E+04  0.21055054754E+04  0.46999998093E+01 0. -1.
</event>
<event>
 5   0  0.1372748E-06  0.3679048E+04  0.7818609E-02  0.8072621E-01
       -2   -1    0    0    0  501  0.00000000000E+00  0.00000000000E+00  0.16784130718E+04  0.16784130718E+04  0.25500000920E-02 0. -1.
        2   -1    0    0  501    0  0.00000000000E+00  0.00000000000E+00 -0.20160999195E+04  0.20160999195E+04  0.25500000920E-02 0.  1.
    10030    2    1    2    0    0  0.00000000000E+00  0.00000000000E+00 -0.33768684774E+03  0.36945129913E+04  0.36790479523E+04 0.  0.
        1    1    3    3  502    0 -0.31781553033E+03 -0.82518615185E+03  0.14509806464E+04  0.16992009101E+04  0.50400001928E-02 0. -1.
       -1    1    3    3    0  502  0.31781553033E+03  0.82518615185E+03 -0.17886674942E+04  0.19953120812E+04  0.50400001928E-02 0.  1.
</event>
<event>
 5   0  0.1184616E-06  0.3210181E+04  0.7818609E-02  0.8186134E-01
       -2   -1    0    0    0  501  0.00000000000E+00  0.00000000000E+00  0.12253744225E+04  0.12253744225E+04  0.25500000920E-02 0.  1.
        2   -1    0    0  501    0  0.00000000000E+00  0.00000000000E+00 -0.21024722858E+04  0.21024722858E+04  0.25500000920E-02 0. -1.
    10030    2    1    2    0    0  0.00000000000E+00  0.00000000000E+00 -0.87709786330E+03  0.33278467083E+04  0.32101811557E+04 0.  0.
        5    1    3    3  502    0  0.58793680603E+03 -0.11370095495E+03 -0.19823267134E+04  0.20708063366E+04  0.46999998093E+01 0. -1.
       -5    1    3    3    0  502 -0.58793680603E+03  0.11370095495E+03  0.11052288501E+04  0.12570403717E+04  0.46999998093E+01 0.  1.
</event>
<event>
 5   0  0.1214844E-06  0.3156052E+04  0.7818609E-02  0.8200521E-01
       -2   -1    0    0    0  501  0.00000000000E+00  0.00000000000E+00  0.11071467247E+04  0.11071467247E+04  0.25500000920E-02 0. -1.
        2   -1    0    0  501    0  0.00000000000E+00  0.00000000000E+00 -0.22491741358E+04  0.22491741358E+04  0.25500000920E-02 0.  1.
    10030    2    1    2    0    0  0.00000000000E+00  0.00000000000E+00 -0.11420274111E+04  0.33563208606E+04  0.31560518233E+04 0.  0.
        4    1    3    3  502    0  0.12814094086E+04  0.90655955063E+03 -0.74348991580E+03  0.17368474772E+04  0.12699999809E+01 0.  1.
       -4    1    3    3    0  502 -0.12814094086E+04 -0.90655955063E+03 -0.39853749534E+03  0.16194733833E+04  0.12699999809E+01 0. -1.
</event>
<event>
 5   0  0.4795023E-07  0.3589651E+04  0.7818609E-02  0.8092866E-01
       -1   -1    0    0    0  501  0.00000000000E+00  0.00000000000E+00  0.26642681924E+04  0.26642681924E+04  0.50400001928E-02 0.  1.
        1   -1    0    0  501    0  0.00000000000E+00  0.00000000000E+00 -0.12091117285E+04  0.12091117285E+04  0.50400001928E-02 0. -1.
    10030    2    1    2    0    0  0.00000000000E+00  0.00000000000E+00  0.14551564640E+04  0.38733799209E+04  0.35896506344E+04 0.  0.
        3    1    3    3  502    0  0.93844426851E+03 -0.88518456883E+03  0.20740762709E+04  0.24425441150E+04  0.10100000352E+00 0.  1.
       -3    1    3    3    0  502 -0.93844426851E+03  0.88518456883E+03 -0.61891980694E+03  0.14308358060E+04  0.10100000352E+00 0. -1.
</event>
<event>
 5   0  0.1337854E-06  0.1916676E+04  0.7818609E-02  0.8646600E-01
       -2   -1    0    0    0  501  0.00000000000E+00  0.00000000000E+00  0.61058285197E+03  0.61058285197E+03  0.25500000920E-02 0. -1.
        2   -1    0    0  501    0  0.00000000000E+00  0.00000000000E+00 -0.15041564493E+04  0.15041564493E+04  0.25500000920E-02 0.  1.
    10030    2    1    2    0    0  0.00000000000E+00  0.00000000000E+00 -0.89357359729E+03  0.21147393012E+04  0.19166764303E+04 0.  0.
        3    1    3    3  502    0  0.69593369169E+03 -0.43138078588E+03 -0.99624294127E+03  0.12895398768E+04  0.10100000352E+00 0.  1.
       -3    1    3    3    0  502 -0.69593369169E+03  0.43138078588E+03  0.10266934398E+03  0.82519942442E+03  0.10100000352E+00 0. -1.
</event>
<event>
 5   0  0.1372748E-06  0.3750542E+04  0.7818609E-02  0.8056853E-01
        2   -1    0    0  501    0  0.00000000000E+00  0.00000000000E+00  0.23322525697E+04  0.23322525697E+04  0.25500000920E-02 0. -1.
       -2   -1    0    0    0  501  0.00000000000E+00  0.00000000000E+00 -0.15078302401E+04  0.15078302401E+04  0.25500000920E-02 0.  1.
    10030    2    1    2    0    0  0.00000000000E+00  0.00000000000E+00  0.82442232959E+03  0.38400828098E+04  0.37505418020E+04 0.  0.
        1    1    3    3  502    0  0.32448188043E+03  0.61248343496E+01 -0.14788583264E+04  0.15140501821E+04  0.50400001928E-02 0.  1.
       -1    1    3    3    0  502 -0.32448188043E+03 -0.61248343496E+01  0.23032806560E+04  0.23260326276E+04  0.50400001928E-02 0. -1.
</event>
<event>
 5   0  0.1079205E-06  0.3422971E+04  0.7818609E-02  0.8132291E-01
       -1   -1    0    0    0  501  0.00000000000E+00  0.00000000000E+00  0.18799020285E+04  0.18799020285E+04  0.50400001928E-02 0. -1.
        1   -1    0    0  501    0  0.00000000000E+00  0.00000000000E+00 -0.15581573283E+04  0.15581573283E+04  0.50400001928E-02 0.  1.
    10030    2    1    2    0    0  0.00000000000E+00  0.00000000000E+00  0.32174470027E+03  0.34380593568E+04  0.34229712954E+04 0.  0.
        4    1    3    3  502    0 -0.36750696027E+03 -0.11809406718E+04 -0.10273465381E+04  0.16078323166E+04  0.12699999809E+01 0.  1.
       -4    1    3    3    0  502  0.36750696027E+03  0.11809406718E+04  0.13490912383E+04  0.18302270402E+04  0.12699999809E+01 0. -1.
</event>
<event>
 5   0  0.1337854E-06  0.3346021E+04  0.7818609E-02  0.8151283E-01
       -2   -1    0    0    0  501  0.00000000000E+00  0.00000000000E+00  0.18987073781E+04  0.18987073781E+04  0.25500000920E-02 0. -1.
        2   -1    0    0  501    0  0.00000000000E+00  0.00000000000E+00 -0.14741418588E+04  0.14741418588E+04  0.25500000920E-02 0.  1.
    10030    2    1    2    0    0  0.00000000000E+00  0.00000000000E+00  0.42456551935E+03  0.33728492369E+04  0.33460209345E+04 0.  0.
        3    1    3    3  502    0 -0.14142169353E+04 -0.88622592503E+03  0.32965554817E+03  0.17011992008E+04  0.10100000352E+00 0. -1.
       -3    1    3    3    0  502  0.14142169353E+04  0.88622592503E+03  0.94909971185E+02  0.16716500361E+04  0.10100000352E+00 0.  1.
</event>
<event>
 5   0  0.1372748E-06  0.2537999E+04  0.7818609E-02  0.8389572E-01
        2   -1    0    0  501    0  0.00000000000E+00  0.00000000000E+00  0.84828235464E+03  0.84828235465E+03  0.25500000920E-02 0.  1.
       -2   -1    0    0    0  501  0.00000000000E+00  0.00000000000E+00 -0.18983770789E+04  0.18983770789E+04  0.25500000920E-02 0. -1.
    10030    2    1    2    0    0  0.00000000000E+00  0.00000000000E+00 -0.10500947243E+04  0.27466594335E+04  0.25379990374E+04 0.  0.
        1    1    3    3  502    0  0.45288250521E+03 -0.91041082409E+03  0.29658751732E+03  0.10592046958E+04  0.50400001928E-02 0.  1.
       -1    1    3    3    0  502 -0.45288250521E+03  0.91041082409E+03 -0.13466822416E+04  0.16874547378E+04  0.50400001928E-02 0. -1.
</event>
<event>
 5   0  0.5573564E-07  0.2041568E+04  0.7818609E-02  0.8587429E-01
       -1   -1    0    0    0  501  0.00000000000E+00  0.00000000000E+00  0.10745865370E+04  0.10745865370E+04  0.50400001928E-02 0.  1.
        1   -1    0    0  501    0  0.00000000000E+00  0.00000000000E+00 -0.96967516635E+03  0.96967516637E+03  0.50400001928E-02 0. -1.
    10030    2    1    2    0    0  0.00000000000E+00  0.00000000000E+00  0.10491137061E+03  0.20442617033E+04  0.20415679063E+04 0.  0.
        2    1    3    3  502    0 -0.22203431163E+03 -0.37339861163E+03 -0.87249153100E+03  0.97466262388E+03  0.25500000920E-02 0. -1.
       -2    1    3    3    0  502  0.22203431163E+03  0.37339861163E+03  0.97740290161E+03  0.10695990795E+04  0.25500000920E-02 0.  1.
</event>
<event>
 5   0  0.1184616E-06  0.2901342E+04  0.7818609E-02  0.8272478E-01
       -2   -1    0    0    0  501  0.00000000000E+00  0.00000000000E+00  0.11394588146E+04  0.11394588147E+04  0.25500000920E-02 0.  1.
        2   -1    0    0  501    0  0.00000000000E+00  0.00000000000E+00 -0.18468819789E+04  0.18468819789E+04  0.25500000920E-02 0. -1.
    10030    2    1    2    0    0  0.00000000000E+00  0.00000000000E+00 -0.70742316425E+03  0.29863407936E+04  0.29013417244E+04 0.  0.
        5    1    3    3  502    0 -0.44445914892E+03 -0.70674432197E+03  0.86737956357E+03  0.12039106566E+04  0.46999998093E+01 0.  1.
       -5    1    3    3    0  502  0.44445914892E+03  0.70674432197E+03 -0.15748027278E+04  0.17824301370E+04  0.46999998093E+01 0. -1.
</event>
<event>
 5   0  0.4795023E-07  0.2642118E+04  0.7818609E-02  0.8354034E-01
       -1   -1    0    0    0  501  0.00000000000E+00  0.00000000000E+00  0.11492077719E+04  0.11492077720E+04  0.50400001928E-02 0. -1.
        1   -1    0    0  501    0  0.00000000000E+00  0.00000000000E+00 -0.15186092342E+04  0.15186092342E+04  0.50400001928E-02 0.  1.
    10030    2    1    2    0    0  0.00000000000E+00  0.00000000000E+00 -0.36940146227E+03  0.26678170062E+04  0.26421184943E+04 0.  0.
        3    1    3    3  502    0 -0.12597757171E+04 -0.29660401313E+03  0.82807670707E+02  0.12968677336E+04  0.10100000352E+00 0. -1.
       -3    1    3    3    0  502  0.12597757171E+04  0.29660401313E+03 -0.45220913298E+03  0.13709492726E+04  0.10100000352E+00 0.  1.
</event>
<event>
 5   0  0.1372748E-06  0.3731689E+04  0.7818609E-02  0.8060975E-01
       -2   -1    0    0    0  501  0.00000000000E+00  0.00000000000E+00  0.11842135434E+04  0.11842135434E+04  0.25500000920E-02 0. -1.
        2   -1    0    0  501    0  0.00000000000E+00  0.00000000000E+00 -0.29398215700E+04  0.29398215700E+04  0.25500000920E-02 0.  1.
    10030    2    1    2    0    0  0.00000000000E+00  0.00000000000E+00 -0.17556080265E+04  0.41240351134E+04  0.37316894396E+04 0.  0.
        1    1    3    3  502    0  0.17275653498E+04 -0.10684332274E+03 -0.10778388381E+03  0.17342188152E+04  0.50400001928E-02 0. -1.
       -1    1    3    3    0  502 -0.17275653498E+04  0.10684332274E+03 -0.16478241427E+04  0.23898162981E+04  0.50400001928E-02 0.  1.
</event>
<event>
 5   0  0.1341932E-06  0.3029215E+04  0.7818609E-02  0.8235437E-01
        2   -1    0    0  501    0  0.00000000000E+00  0.00000000000E+00  0.16053982965E+04  0.16053982965E+04  0.25500000920E-02 0.  1.
       -2   -1    0    0    0  501  0.00000000000E+00  0.00000000000E+00 -0.14289511445E+04  0.14289511445E+04  0.25500000920E-02 0. -1.
    10030    2    1    2    0    0  0.00000000000E+00  0.00000000000E+00  0.17644715204E+03  0.30343494410E+04  0.30292149037E+04 0.  0.
        2    1    3    3  502    0  0.87449549579E+03  0.12366093981E+04  0.97755883494E+02  0.15177290233E+04  0.25500000920E-02 0. -1.
       -2    1    3    3    0  502 -0.87449549579E+03 -0.12366093981E+04  0.78691268548E+02  0.15166204177E+04  0.25500000920E-02 0.  1.
</event>
<event>
 5   0  0.6279420E-07  0.1974704E+04  0.7818609E-02  0.8618539E-01
       -1   -1    0    0    0  501  0.00000000000E+00  0.00000000000E+00  0.89321152870E+03  0.89321152872E+03  0.50400001928E-02 0.  1.
        1   -1    0    0  501    0  0.00000000000E+00  0.00000000000E+00 -0.10914145271E+04  0.10914145271E+04  0.50400001928E-02 0. -1.
    10030    2    1    2    0    0  0.00000000000E+00  0.00000000000E+00 -0.19820299840E+03  0.19846260558E+04  0.19747040672E+04 0.  0.
        5    1    3    3  502    0 -0.50553158517E+03  0.83754820875E+03  0.34958237108E+02  0.97892459052E+03  0.46999998093E+01 0.  1.
       -5    1    3    3    0  502  0.50553158517E+03 -0.83754820875E+03 -0.23316123551E+03  0.10057014653E+04  0.46999998093E+01 0. -1.
</event>
<event>
 5   0  0.1337854E-06  0.3776070E+04  0.7818609E-02  0.8051310E-01
       -2   -1    0    0    0  501  0.00000000000E+00  0.00000000000E+00  0.13524547745E+04  0.13524547745E+04  0.25500000920E-02 0. -1.
        2   -1    0    0  501    0  0.00000000000E+00  0.00000000000E+00 -0.26357077155E+04  0.26357077155E+04  0.25500000920E-02 0.  1.
    10030    2    1    2    0    0  0.00000000000E+00  0.00000000000E+00 -0.12832529410E+04  0.39881624900E+04  0.37760696413E+04 0.  0.
        3    1    3    3  502    0  0.21292929223E+03 -0.12484911443E+04  0.83723693698E+03  0.15182340793E+04  0.10100000352E+00 0.  1.
       -3    1    3    3    0  502 -0.21292929223E+03  0.12484911443E+04 -0.21204898780E+04  0.24699284107E+04  0.10100000352E+00 0. -1.
</event>
<event>
 5   0  0.1184616E-06  0.3748370E+04  0.7818609E-02  0.8057326E-01
        2   -1    0    0  501    0  0.00000000000E+00  0.00000000000E+00  0.16453847071E+04  0.16453847071E+04  0.25500000920E-02 0. -1.
       -2   -1    0    0    0  501  0.00000000000E+00  0.00000000000E+00 -0.21348010119E+04  0.21348010119E+04  0.25500000920E-02 0.  1.
    10030    2    1    2    0    0  0.00000000000E+00  0.00000000000E+00 -0.48941630472E+03  0.37801857190E+04  0.37483697457E+04 0.  0.
        5    1    3    3  502    0 -0.15952624820E+04 -0.86173411166E+03  0.23376468231E+03  0.18281455310E+04  0.46999998093E+01 0. -1.
       -5    1    3    3    0  502  0.15952624820E+04  0.86173411166E+03 -0.72318098704E+03  0.19520401880E+04  0.46999998093E+01 0.  1.
</event>
<event>
 5   0  0.1372748E-06  0.3859602E+04  0.7818609E-02  0.8033484E-01
        2   -1    0    0  501    0  0.00000000000E+00  0.00000000000E+00  0.12380082477E+04  0.12380082477E+04  0.25500000920E-02 0. -1.
       -2   -1    0    0    0  501  0.00000000000E+00  0.00000000000E+00 -0.30081637332E+04  0.30081637332E+04  0.25500000920E-02 0.  1.
    10030    2    1    2    0    0  0.00000000000E+00  0.00000000000E+00 -0.17701554855E+04  0.42461719809E+04  0.38596017993E+04 0.  0.
        1    1    3    3  502    0  0.17709831115E+04 -0.67943074770E+03 -0.12757875161E+04  0.22859661215E+04  0.50400001928E-02 0.  1.
       -1    1    3    3    0  502 -0.17709831115E+04  0.67943074770E+03 -0.49436796942E+03  0.19602058595E+04  0.50400001928E-02 0. -1.
</event>
<event>
 5   0  0.4795023E-07  0.3681404E+04  0.7818609E-02  0.8072095E-01
       -1   -1    0    0    0  501  0.00000000000E+00  0.00000000000E+00  0.21136961612E+04  0.21136961612E+04  0.50400001928E-02 0.  1.
        1   -1    0    0  501    0  0.00000000000E+00  0.00000000000E+00 -0.16029664513E+04  0.16029664513E+04  0.50400001928E-02 0. -1.
    10030    2    1    2    0    0  0.00000000000E+00  0.00000000000E+00  0.51072970991E+03  0.37166626125E+04  0.36814040988E+04 0.  0.
        3    1    3    3  502    0  0.13372288971E+04 -0.77441227832E+03 -0.75435824205E+03  0.17195789797E+04  0.10100000352E+00 0.  1.
       -3    1    3    3    0  502 -0.13372288971E+04  0.77441227832E+03  0.12650879520E+04  0.19970836328E+04  0.10100000352E+00 0. -1.
</event>
<event>
 5   0  0.1337854E-06  0.3967329E+04  0.7818609E-02  0.8011170E-01
       -2   -1    0    0    0  501  0.00000000000E+00  0.00000000000E+00  0.17269693559E+04  0.17269693559E+04  0.25500000920E-02 0. -1.
        2   -1    0    0  501    0  0.00000000000E+00  0.00000000000E+00 -0.22785140797E+04  0.22785140797E+04  0.25500000920E-02 0.  1.
    10030    2    1    2    0    0  0.00000000000E+00  0.00000000000E+00 -0.55154472384E+03  0.40054834357E+04  0.39673285686E+04 0.  0.
        3    1    3    3  502    0 -0.61003134288E+03 -0.14201389772E+04 -0.15311091471E+04  0.21755983509E+04  0.10100000352E+00 0.  1.
       -3    1    3    3    0  502  0.61003134288E+03  0.14201389772E+04  0.97956442323E+03  0.18298850848E+04  0.10100000352E+00 0. -1.
</event>
<event>
 5   0  0.1214844E-06  0.3712153E+04  0.7818609E-02  0.8065274E-01
        2   -1    0    0  501    0  0.00000000000E+00  0.00000000000E+00  0.18190462994E+04  0.18190462994E+04  0.25500000920E-02 0. -1.
       -2   -1    0    0    0  501  0.00000000000E+00  0.00000000000E+00 -0.18938603059E+04  0.18938603059E+04  0.25500000920E-02 0.  1.
    10030    2    1    2    0    0  0.00000000000E+00  0.00000000000E+00 -0.74814006523E+02  0.37129066053E+04  0.37121527884E+04 0.  0.
        4    1    3    3  502    0 -0.28372147080E+03  0.11515257431E+04 -0.14654604166E+04  0.18852281706E+04  0.12699999809E+01 0.  1.
       -4    1    3    3    0  502  0.28372147080E+03 -0.11515257431E+04  0.13906464100E+04  0.18276784347E+04  0.12699999809E+01 0. -1.
</event>
<event>
 5   0  0.1341932E-06  0.3481343E+04  0.7818609E-02  0.8118226E-01
       -2   -1    0    0    0  501  0.00000000000E+00  0.00000000000E+00  0.94629996732E+03  0.94629996733E+03  0.25500000920E-02 0. -1.
        2   -1    0    0  501    0  0.00000000000E+00  0.00000000000E+00 -0.32018791432E+04  0.32018791432E+04  0.25500000920E-02 0.  1.
    10030    2    1    2    0    0  0.00000000000E+00  0.00000000000E+00 -0.22555791759E+04  0.41481791105E+04  0.34813434927E+04 0.  0.
        2    1    3    3  502    0  0.98616607675E+03  0.34936244590E+02 -0.28363985266E+04  0.30031484601E+04  0.25500000920E-02 0.  1.
       -2    1    3    3    0  502 -0.98616607675E+03 -0.34936244590E+02  0.58081935071E+03  0.11450306504E+04  0.25500000920E-02 0. -1.
</event>
<event>
 5   0  0.1214844E-06  0.3797506E+04  0.7818609E-02  0.8046690E-01
       -2   -1    0    0    0  501  0.00000000000E+00  0.00000000000E+00  0.27258218417E+04  0.27258218417E+04  0.25500000920E-02 0.  1.
        2   -1    0    0  501    0  0.00000000000E+00  0.00000000000E+00 -0.13226334976E+04  0.13226334976E+04  0.25500000920E-02 0. -1.
    10030    2    1    2    0    0  0.00000000000E+00  0.00000000000E+00  0.14031883441E+04  0.40484553393E+04  0.37975061692E+04 0.  0.
        4    1    3    3  502    0  0.56294277485E+02  0.90044986715E+03  0.24827125017E+04  0.26415605214E+04  0.12699999809E+01 0.  1.
       -4    1    3    3    0  502 -0.56294277485E+02 -0.90044986715E+03 -0.10795241576E+04  0.14068948179E+04  0.12699999809E+01 0. -1.
</event>
<event>
 5   0  0.1372748E-06  0.3794315E+04  0.7818609E-02  0.8047376E-01
        2   -1    0    0  501    0  0.00000000000E+00  0.00000000000E+00  0.17747791555E+04  0.17747791555E+04  0.25500000920E-02 0. -1.
       -2   -1    0    0    0  501  0.00000000000E+00  0.00000000000E+00 -0.20279744233E+04  0.20279744233E+04  0.25500000920E-02 0.  1.
    10030    2    1    2    0    0  0.00000000000E+00  0.00000000000E+00 -0.25319526776E+03  0.38027535788E+04  0.37943150815E+04 0.  0.
        1    1    3    3  502    0 -0.12771994561E+04  0.50354817496E+03 -0.14388634719E+04  0.19887501870E+04  0.50400001928E-02 0.  1.
       -1    1    3    3    0  502  0.12771994561E+04 -0.50354817496E+03  0.11856682042E+04  0.18140033918E+04  0.50400001928E-02 0. -1.
</event>
<event>
 5   0  0.4795023E-07  0.2680301E+04  0.7818609E-02  0.8341425E-01
        1   -1    0    0  501    0  0.00000000000E+00  0.00000000000E+00  0.19111426776E+04  0.19111426777E+04  0.50400001928E-02 0. -1.
       -1   -1    0    0    0  501  0.00000000000E+00  0.00000000000E+00 -0.93975392688E+03  0.93975392689E+03  0.50400001928E-02 0.  1.
    10030    2    1    2    0    0  0.00000000000E+00  0.00000000000E+00  0.97138875077E+03  0.28508966045E+04  0.26803013533E+04 0.  0.
        3    1    3    3  502    0 -0.12506092138E+04  0.48054742011E+03  0.45115287624E+03  0.14136789439E+04  0.10100000352E+00 0. -1.
       -3    1    3    3    0  502  0.12506092138E+04 -0.48054742011E+03  0.52023587453E+03  0.14372176606E+04  0.10100000352E+00 0.  1.
</event>
<event>
 5   0  0.1372748E-06  0.3546974E+04  0.7818609E-02  0.8102747E-01
        2   -1    0    0  501    0  0.00000000000E+00  0.00000000000E+00  0.31687884986E+04  0.31687884986E+04  0.25500000920E-02 0.  1.
       -2   -1    0    0    0  501  0.00000000000E+00  0.00000000000E+00 -0.99257382706E+03  0.99257382706E+03  0.25500000920E-02 0. -1.
    10030    2    1    2    0    0  0.00000000000E+00  0.00000000000E+00  0.21762146716E+04  0.41613623257E+04  0.35469742188E+04 0.  0.
        1    1    3    3  502    0 -0.55024499279E+03 -0.15434788130E+04  0.18839587498E+04  0.24968774438E+04  0.50400001928E-02 0.  1.
       -1    1    3    3    0  502  0.55024499279E+03  0.15434788130E+04  0.29225592175E+03  0.16644848819E+04  0.50400001928E-02 0. -1.
</event>
<event>
 5   0  0.4255250E-07  0.3823208E+04  0.7818609E-02  0.8041193E-01
        1   -1    0    0  501    0  0.00000000000E+00  0.00000000000E+00  0.18822840706E+04  0.18822840706E+04  0.50400001928E-02 0. -1.
       -1   -1    0    0    0  501  0.00000000000E+00  0.00000000000E+00 -0.19413801333E+04  0.19413801333E+04  0.50400001928E-02 0.  1.
    10030    2    1    2    0    0  0.00000000000E+00  0.00000000000E+00 -0.59096062753E+02  0.38236642039E+04  0.38232075015E+04 0.  0.
        2    1    3    3  502    0  0.10861598391E+03 -0.29939526890E+03  0.18555627855E+04  0.18826970574E+04  0.25500000920E-02 0. -1.
       -2    1    3    3    0  502 -0.10861598391E+03  0.29939526890E+03 -0.19146588482E+04  0.19409671466E+04  0.25500000920E-02 0.  1.
</event>
<event>
 5   0  0.5284458E-07  0.3793670E+04  0.7818609E-02  0.8047515E-01
        1   -1    0    0  501    0  0.00000000000E+00  0.00000000000E+00  0.19460162230E+04  0.19460162230E+04  0.50400001928E-02 0. -1.
       -1   -1    0    0    0  501  0.00000000000E+00  0.00000000000E+00 -0.18488970120E+04  0.18488970120E+04  0.50400001928E-02 0.  1.
    10030    2    1    2    0    0  0.00000000000E+00  0.00000000000E+00  0.97119210990E+02  0.37949132351E+04  0.37936702968E+04 0.  0.
        5    1    3    3  502    0  0.13833244194E+04  0.61229144611E+02 -0.12482547514E+04  0.18642686158E+04  0.46999998093E+01 0.  1.
       -5    1    3    3    0  502 -0.13833244194E+04 -0.61229144611E+02  0.13453739623E+04  0.19306446193E+04  0.46999998093E+01 0. -1.
</event>
<event>
 5   0  0.1151971E-06  0.1919849E+04  0.7818609E-02  0.8645039E-01
       -1   -1    0    0    0  501  0.00000000000E+00  0.00000000000E+00  0.11301525243E+04  0.11301525243E+04  0.50400001928E-02 0.  1.
        1   -1    0    0  501    0  0.00000000000E+00  0.00000000000E+00 -0.81533715356E+03  0.81533715358E+03  0.50400001928E-02 0. -1.
    10030    2    1    2    0    0  0.00000000000E+00  0.00000000000E+00  0.31481537073E+03  0.19454896779E+04  0.19198493090E+04 0.  0.
        1    1    3    3  502    0  0.26726490161E+03  0.24807382229E+03  0.10572331615E+04  0.11183528543E+04  0.50400001928E-02 0.  1.
       -1    1    3    3    0  502 -0.26726490161E+03 -0.24807382229E+03 -0.74241779074E+03  0.82713682361E+03  0.50400001928E-02 0. -1.
</event>
<event>
 5   0  0.1372748E-06  0.2329422E+04  0.7818609E-02  0.8466410E-01
       -2   -1    0    0    0  501  0.00000000000E+00  0.00000000000E+00  0.48473401764E+03  0.48473401764E+03  0.25500000920E-02 0.  1.
        2   -1    0    0  501    0  0.00000000000E+00  0.00000000000E+00 -0.27985490983E+04  0.27985490983E+04  0.25500000920E-02 0. -1.
    10030    2    1    2    0    0  0.00000000000E+00  0.00000000000E+00 -0.23138150806E+04  0.32832831159E+04  0.23294222013E+04 0.  0.
        1    1    3    3  502    0  0.26769723129E+03  0.29772717732E+03  0.38468946022E+03  0.55523802156E+03  0.50400001928E-02 0.  1.
       -1    1    3    3    0  502 -0.26769723129E+03 -0.29772717732E+03 -0.26985045409E+04  0.27280450944E+04  0.50400001928E-02 0. -1.
</event>
<event>
 5   0  0.4255250E-07  0.2620834E+04  0.7818609E-02  0.8361159E-01
        1   -1    0    0  501    0  0.00000000000E+00  0.00000000000E+00  0.14121755644E+04  0.14121755644E+04  0.50400001928E-02 0. -1.
       -1   -1    0    0    0  501  0.00000000000E+00  0.00000000000E+00 -0.12159906724E+04  0.12159906724E+04  0.50400001928E-02 0.  1.
    10030    2    1    2    0    0  0.00000000000E+00  0.00000000000E+00  0.19618489200E+03  0.26281662368E+04  0.26208336949E+04 0.  0.
        2    1    3    3  502    0  0.76614718895E+03 -0.81116832087E+03 -0.59101043235E+03  0.12626436121E+04  0.25500000920E-02 0.  1.
       -2    1    3    3    0  502 -0.76614718895E+03  0.81116832087E+03  0.78719532436E+03  0.13655226247E+04  0.25500000920E-02 0. -1.
</event>
<event>
 5   0  0.4255250E-07  0.3805734E+04  0.7818609E-02  0.8044926E-01
       -3   -1    0    0    0  501  0.00000000000E+00  0.00000000000E+00  0.19995275305E+04  0.19995275330E+04  0.10100000352E+00 0. -1.
        3   -1    0    0  501    0  0.00000000000E+00  0.00000000000E+00 -0.18108790530E+04  0.18108790558E+04  0.10100000352E+00 0.  1.
    10030    2    1    2    0    0  0.00000000000E+00  0.00000000000E+00  0.18864847746E+03  0.38104065888E+04  0.38057338483E+04 0.  0.
        5    1    3    3  502    0 -0.84229836313E+03 -0.15698386955E+04 -0.57509249986E+03  0.18720613066E+04  0.46999998093E+01 0. -1.
       -5    1    3    3    0  502  0.84229836313E+03  0.15698386955E+04  0.76374097732E+03  0.19383452822E+04  0.46999998093E+01 0.  1.
</event>
<event>
 5   0  0.1806094E-06  0.1885364E+04  0.7818609E-02  0.8662176E-01
       -2   -1    0    0    0  501  0.00000000000E+00  0.00000000000E+00  0.55238891677E+03  0.55238891677E+03  0.25500000920E-02 0. -1.
        2   -1    0    0  501    0  0.00000000000E+00  0.00000000000E+00 -0.16087390673E+04  0.16087390673E+04  0.25500000920E-02 0.  1.
    10030    2    1    2    0    0  0.00000000000E+00  0.00000000000E+00 -0.10563501505E+04  0.21611279840E+04  0.18853642945E+04 0.  0.
        1    1    3    3  502    0 -0.55153279332E+03 -0.58383023136E+03 -0.10939281770E+04  0.13571016976E+04  0.50400001928E-02 0.  1.
       -1    1    3    3    0  502  0.55153279332E+03  0.58383023136E+03  0.37578026532E+02  0.80402628642E+03  0.50400001928E-02 0. -1.
</event>
<event>
 5   0  0.1341932E-06  0.2699636E+04  0.7818609E-02  0.8335123E-01
       -2   -1    0    0    0  501  0.00000000000E+00  0.00000000000E+00  0.10120440209E+04  0.10120440209E+04  0.25500000920E-02 0. -1.
        2   -1    0    0  501    0  0.00000000000E+00  0.00000000000E+00 -0.18003259382E+04  0.18003259382E+04  0.25500000920E-02 0.  1.
    10030    2    1    2    0    0  0.00000000000E+00  0.00000000000E+00 -0.78828191729E+03  0.28123699592E+04  0.26996363470E+04 0.  0.
        2    1    3    3  502    0 -0.45605511832E+03  0.10947231457E+04  0.27745345793E+03  0.12179431259E+04  0.25500000920E-02 0. -1.
       -2    1    3    3    0  502  0.45605511832E+03 -0.10947231457E+04 -0.10657353752E+04  0.15944268333E+04  0.25500000920E-02 0.  1.
</event>
<event>
 5   0  0.4255250E-07  0.3216906E+04  0.7818609E-02  0.8184367E-01
       -1   -1    0    0    0  501  0.00000000000E+00  0.00000000000E+00  0.13345755387E+04  0.13345755387E+04  0.50400001928E-02 0.  1.
        1   -1    0    0  501    0  0.00000000000E+00  0.00000000000E+00 -0.19385346881E+04  0.19385346881E+04  0.50400001928E-02 0. -1.
    10030    2    1    2    0    0  0.00000000000E+00  0.00000000000E+00 -0.60395914936E+03  0.32731102268E+04  0.32169059518E+04 0.  0.
        2    1    3    3  502    0  0.12447888357E+04 -0.98774426527E+03 -0.48665948537E+02  0.15898133078E+04  0.25500000920E-02 0.  1.
       -2    1    3    3    0  502 -0.12447888357E+04  0.98774426527E+03 -0.55529320082E+03  0.16832969191E+04  0.25500000920E-02 0. -1.
</event>
<event>
 5   0  0.1184616E-06  0.3815972E+04  0.7818609E-02  0.8042736E-01
        2   -1    0    0  501    0  0.00000000000E+00  0.00000000000E+00  0.22844742078E+04  0.22844742078E+04  0.25500000920E-02 0. -1.
       -2   -1    0    0    0  501  0.00000000000E+00  0.00000000000E+00 -0.15935443411E+04  0.15935443411E+04  0.25500000920E-02 0.  1.
    10030    2    1    2    0    0  0.00000000000E+00  0.00000000000E+00  0.69092986672E+03  0.38780185490E+04  0.38159721940E+04 0.  0.
        5    1    3    3  502    0 -0.69953510274E+03 -0.90185913604E+03 -0.12083457476E+04  0.16621735159E+04  0.46999998093E+01 0.  1.
       -5    1    3    3    0  502  0.69953510274E+03  0.90185913604E+03  0.18992756143E+04  0.22158450330E+04  0.46999998093E+01 0. -1.
</event>
<event>
 5   0  0.1214844E-06  0.3532139E+04  0.7818609E-02  0.8106215E-01
       -2   -1    0    0    0  501  0.00000000000E+00  0.00000000000E+00  0.99436654646E+03  0.99436654647E+03  0.25500000920E-02 0. -1.
        2   -1    0    0  501    0  0.00000000000E+00  0.00000000000E+00 -0.31366719778E+04  0.31366719778E+04  0.25500000920E-02 0.  1.
    10030    2    1    2    0    0  0.00000000000E+00  0.00000000000E+00 -0.21423054314E+04  0.41310385243E+04  0.35321391150E+04 0.  0.
        4    1    3    3  502    0  0.23595869146E+03  0.98140534449E+00  0.97584714223E+03  0.10039704802E+04  0.12699999809E+01 0. -1.
       -4    1    3    3    0  502 -0.23595869146E+03 -0.98140534449E+00 -0.31181525736E+04  0.31270680441E+04  0.12699999809E+01 0.  1.
</event>
<event>
 5   0  0.1214844E-06  0.3445214E+04  0.7818609E-02  0.8126898E-01
       -2   -1    0    0    0  501  0.00000000000E+00  0.00000000000E+00  0.23558372538E+04  0.23558372538E+04  0.25500000920E-02 0.  1.
        2   -1    0    0  501    0  0.00000000000E+00  0.00000000000E+00 -0.12595840690E+04  0.12595840690E+04  0.25500000920E-02 0. -1.
    10030    2    1    2    0    0  0.00000000000E+00  0.00000000000E+00  0.10962531848E+04  0.36154213229E+04  0.34452141148E+04 0.  0.
        4    1    3    3  502    0  0.32294408362E+03  0.11975462877E+04  0.18025763167E+04  0.21880797478E+04  0.12699999809E+01 0.  1.
       -4    1    3    3    0  502 -0.32294408362E+03 -0.11975462877E+04 -0.70632313195E+03  0.14273415751E+04  0.12699999809E+01 0. -1.
</event>
<event>
 5   0  0.1214844E-06  0.3830105E+04  0.7818609E-02  0.8039725E-01
       -2   -1    0    0    0  501  0.00000000000E+00  0.00000000000E+00  0.16405977240E+04  0.16405977240E+04  0.25500000920E-02 0. -1.
        2   -1    0    0  501    0  0.00000000000E+00  0.00000000000E+00 -0.22354210323E+04  0.22354210323E+04  0.25500000920E-02 0.  1.
    10030    2    1    2    0    0  0.00000000000E+00  0.00000000000E+00 -0.59482330829E+03  0.38760187564E+04  0.38301053029E+04 0.  0.
        4    1    3    3  502    0 -0.47754875186E+03  0.17902718179E+04 -0.78725861945E+03  0.20131824903E+04  0.12699999809E+01 0.  1.
       -4    1    3    3    0  502  0.47754875186E+03 -0.17902718179E+04  0.19243531116E+03  0.18628362661E+04  0.12699999809E+01 0. -1.
</event>
<event>
 5   0  0.1184616E-06  0.3820048E+04  0.7818609E-02  0.8041866E-01
        2   -1    0    0  501    0  0.00000000000E+00  0.00000000000E+00  0.20830344987E+04  0.20830344987E+04  0.25500000920E-02 0. -1.
       -2   -1    0    0    0  501  0.00000000000E+00  0.00000000000E+00 -0.17513832825E+04  0.17513832825E+04  0.25500000920E-02 0.  1.
    10030    2    1    2    0    0  0.00000000000E+00  0.00000000000E+00  0.33165121618E+03  0.38344177812E+04  0.38200480614E+04 0.  0.
        5    1    3    3  502    0  0.18026605429E+04 -0.43567265862E+03 -0.29281110790E+03  0.18775399152E+04  0.46999998093E+01 0.  1.
       -5    1    3    3    0  502 -0.18026605429E+04  0.43567265862E+03  0.62446232407E+03  0.19568778660E+04  0.46999998093E+01 0. -1.
</event>
<event>
 5   0  0.4255250E-07  0.3892337E+04  0.7818609E-02  0.8026625E-01
       -3   -1    0    0    0  501  0.00000000000E+00  0.00000000000E+00  0.15426267423E+04  0.15426267456E+04  0.10100000352E+00 0.  1.
        3   -1    0    0  501    0  0.00000000000E+00  0.00000000000E+00 -0.24552743992E+04  0.24552744013E+04  0.10100000352E+00 0. -1.
    10030    2    1    2    0    0  0.00000000000E+00  0.00000000000E+00 -0.91264765693E+03  0.39979011469E+04  0.38923370659E+04 0.  0.
        1    1    3    3  502    0  0.58545920317E+03  0.16722785211E+04  0.37068019015E+03  0.18101606929E+04  0.50400001928E-02 0.  1.
       -1    1    3    3    0  502 -0.58545920317E+03 -0.16722785211E+04 -0.12833278471E+04  0.21877404540E+04  0.50400001928E-02 0. -1.
</event>
<event>
 5   0  0.1214844E-06  0.2849989E+04  0.7818609E-02  0.8287915E-01
       -2   -1    0    0    0  501  0.00000000000E+00  0.00000000000E+00  0.10793090780E+04  0.10793090780E+04  0.25500000920E-02 0.  1.
        2   -1    0    0  501    0  0.00000000000E+00  0.00000000000E+00 -0.18813979722E+04  0.18813979722E+04  0.25500000920E-02 0. -1.
    10030    2    1    2    0    0  0.00000000000E+00  0.00000000000E+00 -0.80208889415E+03  0.29607070502E+04  0.28499894110E+04 0.  0.
        4    1    3    3  502    0  0.25837960469E+03 -0.11241093720E+04 -0.12703479525E+04  0.17158576380E+04  0.12699999809E+01 0. -1.
       -4    1    3    3    0  502 -0.25837960469E+03  0.11241093720E+04  0.46825905839E+03  0.12448494122E+04  0.12699999809E+01 0.  1.
</event>
<event>
 5   0  0.1372748E-06  0.3617373E+04  0.7818609E-02  0.8086524E-01
        2   -1    0    0  501    0  0.00000000000E+00  0.00000000000E+00  0.11511242831E+04  0.11511242831E+04  0.25500000920E-02 0.  1.
       -2   -1    0    0    0  501  0.00000000000E+00  0.00000000000E+00 -0.28418713989E+04  0.28418713989E+04  0.25500000920E-02 0. -1.
    10030    2    1    2    0    0  0.00000000000E+00  0.00000000000E+00 -0.16907471158E+04  0.39929956820E+04  0.36173731777E+04 0.  0.
        1    1    3    3  502    0 -0.12315201347E+04  0.20073634719E+03  0.59994275425E+03  0.13845101053E+04  0.50400001928E-02 0.  1.
       -1    1    3    3    0  502  0.12315201347E+04 -0.20073634719E+03 -0.22906898700E+04  0.26084855767E+04  0.50400001928E-02 0. -1.
</event>
<event>
 5   0  0.5284458E-07  0.2719358E+04  0.7818609E-02  0.8328751E-01
        1   -1    0    0  501    0  0.00000000000E+00  0.00000000000E+00  0.91423143338E+03  0.91423143339E+03  0.50400001928E-02 0.  1.
       -1   -1    0    0    0  501  0.00000000000E+00  0.00000000000E+00 -0.20221654777E+04  0.20221654777E+04  0.50400001928E-02 0. -1.
    10030    2    1    2    0    0  0.00000000000E+00  0.00000000000E+00 -0.11079340444E+04  0.29363969111E+04  0.27193581914E+04 0.  0.
        5    1    3    3  502    0 -0.19051107424E+03  0.12618084244E+03  0.89333987925E+03  0.92211404081E+03  0.46999998093E+01 0.  1.
       -5    1    3    3    0  502  0.19051107424E+03 -0.12618084244E+03 -0.20012739236E+04  0.20142828703E+04  0.46999998093E+01 0. -1.
</event>
<event>
 5   0  0.1337854E-06  0.3863476E+04  0.7818609E-02  0.8032669E-01
        2   -1    0    0  501    0  0.00000000000E+00  0.00000000000E+00  0.27305092195E+04  0.27305092195E+04  0.25500000920E-02 0.  1.
       -2   -1    0    0    0  501  0.00000000000E+00  0.00000000000E+00 -0.13666358005E+04  0.13666358005E+04  0.25500000920E-02 0. -1.
    10030    2    1    2    0    0  0.00000000000E+00  0.00000000000E+00  0.13638734189E+04  0.40971450200E+04  0.38634759753E+04 0.  0.
        3    1    3    3  502    0  0.17536547282E+04  0.61498868697E+03  0.12411792754E+04  0.22347353299E+04  0.10100000352E+00 0. -1.
       -3    1    3    3    0  502 -0.17536547282E+04 -0.61498868697E+03  0.12269414351E+03  0.18624096901E+04  0.10100000352E+00 0.  1.
</event>
<event>
 5   0  0.5284458E-07  0.2130461E+04  0.7818609E-02  0.8547942E-01
       -1   -1    0    0    0  501  0.00000000000E+00  0.00000000000E+00  0.16727634391E+04  0.16727634391E+04  0.50400001928E-02 0.  1.
        1   -1    0    0  501    0  0.00000000000E+00  0.00000000000E+00 -0.67834829747E+03  0.67834829749E+03  0.50400001928E-02 0. -1.
    10030    2    1    2    0    0  0.00000000000E+00  0.00000000000E+00  0.99441514159E+03  0.23511117366E+04  0.21304611998E+04 0.  0.
        5    1    3    3  502    0 -0.73046115231E+03  0.75082137890E+03  0.28382192894E+03  0.10853032827E+04  0.46999998093E+01 0.  1.
       -5    1    3    3    0  502  0.73046115231E+03 -0.75082137890E+03  0.71059321265E+03  0.12658084539E+04  0.46999998093E+01 0. -1.
</event>
<event>
 5   0  0.4795023E-07  0.3812637E+04  0.7818609E-02  0.8043448E-01
        1   -1    0    0  501    0  0.00000000000E+00  0.00000000000E+00  0.21673535089E+04  0.21673535089E+04  0.50400001928E-02 0.  1.
       -1   -1    0    0    0  501  0.00000000000E+00  0.00000000000E+00 -0.16767226577E+04  0.16767226577E+04  0.50400001928E-02 0. -1.
    10030    2    1    2    0    0  0.00000000000E+00  0.00000000000E+00  0.49063085117E+03  0.38440761665E+04  0.38126372686E+04 0.  0.
        3    1    3    3  502    0  0.12437320138E+04  0.13520331026E+04  0.75861848258E+03  0.19875524760E+04  0.10100000352E+00 0.  1.
       -3    1    3    3    0  502 -0.12437320138E+04 -0.13520331026E+04 -0.26798763141E+03  0.18565236905E+04  0.10100000352E+00 0. -1.
</event>
<event>
 5   0  0.4795023E-07  0.2816635E+04  0.7818609E-02  0.8298122E-01
        1   -1    0    0  501    0  0.00000000000E+00  0.00000000000E+00  0.21861008619E+04  0.21861008619E+04  0.50400001928E-02 0.  1.
       -1   -1    0    0    0  501  0.00000000000E+00  0.00000000000E+00 -0.90725849205E+03  0.90725849207E+03  0.50400001928E-02 0. -1.
    10030    2    1    2    0    0  0.00000000000E+00  0.00000000000E+00  0.12788423699E+04  0.30933593540E+04  0.28166352774E+04 0.  0.
        3    1    3    3  502    0  0.10016690910E+04 -0.44713775904E+03 -0.33057681819E+03  0.11456675723E+04  0.10100000352E+00 0. -1.
       -3    1    3    3    0  502 -0.10016690910E+04  0.44713775904E+03  0.16094191880E+04  0.19476917817E+04  0.10100000352E+00 0.  1.
</event>
<event>
 5   0  0.1337854E-06  0.3827195E+04  0.7818609E-02  0.8040344E-01
       -2   -1    0    0    0  501  0.00000000000E+00  0.00000000000E+00  0.28708177163E+04  0.28708177163E+04  0.25500000920E-02 0.  1.
        2   -1    0    0  501    0  0.00000000000E+00  0.00000000000E+00 -0.12755443373E+04  0.12755443373E+04  0.25500000920E-02 0. -1.
    10030    2    1    2    0    0  0.00000000000E+00  0.00000000000E+00  0.15952733789E+04  0.41463620536E+04  0.38271949423E+04 0.  0.
        3    1    3    3  502    0  0.21767558426E+03  0.15212573785E+04 -0.43774122983E+03  0.15978811176E+04  0.10100000352E+00 0. -1.
       -3    1    3    3    0  502 -0.21767558426E+03 -0.15212573785E+04  0.20330146088E+04  0.25484809360E+04  0.10100000352E+00 0.  1.
</event>
<event>
 5   0  0.4795023E-07  0.3755960E+04  0.7818609E-02  0.8055672E-01
        1   -1    0    0  501    0  0.00000000000E+00  0.00000000000E+00  0.19349925347E+04  0.19349925347E+04  0.50400001928E-02 0. -1.
       -1   -1    0    0    0  501  0.00000000000E+00  0.00000000000E+00 -0.18226468685E+04  0.18226468685E+04  0.50400001928E-02 0.  1.
    10030    2    1    2    0    0  0.00000000000E+00  0.00000000000E+00  0.11234566618E+03  0.37576394033E+04  0.37559595760E+04 0.  0.
        3    1    3    3  502    0 -0.56572469643E+03  0.14697543856E+04 -0.96731241536E+03  0.18482196041E+04  0.10100000352E+00 0.  1.
       -3    1    3    3    0  502  0.56572469643E+03 -0.14697543856E+04  0.10796580815E+04  0.19094197991E+04  0.10100000352E+00 0. -1.
</event>
<event>
 5   0  0.4255250E-07  0.3798276E+04  0.7818609E-02  0.8046525E-01
       -1   -1    0    0    0  501  0.00000000000E+00  0.00000000000E+00  0.23613928211E+04  0.23613928211E+04  0.50400001928E-02 0. -1.
        1   -1    0    0  501    0  0.00000000000E+00  0.00000000000E+00 -0.15273721881E+04  0.15273721881E+04  0.50400001928E-02 0.  1.
    10030    2    1    2    0    0  0.00000000000E+00  0.00000000000E+00  0.83402063307E+03  0.38887650092E+04  0.37982763039E+04 0.  0.
        2    1    3    3  502    0 -0.12242362821E+04 -0.22627008027E+03  0.18853222812E+04  0.22592903150E+04  0.25500000920E-02 0. -1.
       -2    1    3    3    0  502  0.12242362821E+04  0.22627008027E+03 -0.10513016481E+04  0.16294746942E+04  0.25500000920E-02 0.  1.
</event>
<event>
 5   0  0.1214844E-06  0.3420563E+04  0.7818609E-02  0.8132878E-01
        2   -1    0    0  501    0  0.00000000000E+00  0.00000000000E+00  0.17442038322E+04  0.17442038322E+04  0.25500000920E-02 0.  1.
       -2   -1    0    0    0  501  0.00000000000E+00  0.00000000000E+00 -0.16770185297E+04  0.16770185297E+04  0.25500000920E-02 0. -1.
    10030    2    1    2    0    0  0.00000000000E+00  0.00000000000E+00  0.67185302510E+02  0.34212223619E+04  0.34205626123E+04 0.  0.
        4    1    3    3  502    0 -0.14173801909E+04 -0.94020495895E+03  0.21281583678E+03  0.17141307312E+04  0.12699999809E+01 0. -1.
       -4    1    3    3    0  502  0.14173801909E+04  0.94020495895E+03 -0.14563053427E+03  0.17070916307E+04  0.12699999809E+01 0.  1.
</event>
<event>
 5   0  0.1337854E-06  0.3759020E+04  0.7818609E-02  0.8055007E-01
        2   -1    0    0  501    0  0.00000000000E+00  0.00000000000E+00  0.23268294112E+04  0.23268294112E+04  0.25500000920E-02 0.  1.
       -2   -1    0    0    0  501  0.00000000000E+00  0.00000000000E+00 -0.15181847619E+04  0.15181847619E+04  0.25500000920E-02 0. -1.
    10030    2    1    2    0    0  0.00000000000E+00  0.00000000000E+00  0.80864464939E+03  0.38450141731E+04  0.37590195294E+04 0.  0.
        3    1    3    3  502    0  0.14209216442E+04 -0.12276239500E+04  0.48665002252E+03  0.19398214187E+04  0.10100000352E+00 0. -1.
       -3    1    3    3    0  502 -0.14209216442E+04  0.12276239500E+04  0.32199462687E+03  0.19051927544E+04  0.10100000352E+00 0.  1.
</event>
<event>
 5   0  0.8030324E-07  0.3748213E+04  0.7818609E-02  0.8057360E-01
        1   -1    0    0  501    0  0.00000000000E+00  0.00000000000E+00  0.17510574038E+04  0.17510574039E+04  0.50400001928E-02 0.  1.
       -1   -1    0    0    0  501  0.00000000000E+00  0.00000000000E+00 -0.20058022108E+04  0.20058022108E+04  0.50400001928E-02 0. -1.
    10030    2    1    2    0    0  0.00000000000E+00  0.00000000000E+00 -0.25474480698E+03  0.37568596147E+04  0.37482128072E+04 0.  0.
        1    1    3    3  502    0  0.16133215483E+04 -0.15195847822E+02  0.82836677921E+03  0.18136231287E+04  0.50400001928E-02 0. -1.
       -1    1    3    3    0  502 -0.16133215483E+04  0.15195847822E+02 -0.10831115862E+04  0.19432364859E+04  0.50400001928E-02 0.  1.
</event>
<event>
 5   0  0.4255250E-07  0.2844915E+04  0.7818609E-02  0.8289458E-01
       -1   -1    0    0    0  501  0.00000000000E+00  0.00000000000E+00  0.12457258524E+04  0.12457258524E+04  0.50400001928E-02 0. -1.
        1   -1    0    0  501    0  0.00000000000E+00  0.00000000000E+00 -0.16242621933E+04  0.16242621933E+04  0.50400001928E-02 0.  1.
    10030    2    1    2    0    0  0.00000000000E+00  0.00000000000E+00 -0.37853634086E+03  0.28699880457E+04  0.28449150463E+04 0.  0.
        2    1    3    3  502    0 -0.13071016301E+04 -0.49996871042E+03  0.67735840004E+02  0.14010965445E+04  0.25500000920E-02 0.  1.
       -2    1    3    3    0  502  0.13071016301E+04  0.49996871042E+03 -0.44627218086E+03  0.14688915012E+04  0.25500000920E-02 0. -1.
</event>
<event>
 5   0  0.1079205E-06  0.3753694E+04  0.7818609E-02  0.8056166E-01
       -1   -1    0    0    0  501  0.00000000000E+00  0.00000000000E+00  0.28279642329E+04  0.28279642329E+04  0.50400001928E-02 0. -1.
        1   -1    0    0  501    0  0.00000000000E+00  0.00000000000E+00 -0.12456147893E+04  0.12456147893E+04  0.50400001928E-02 0.  1.
    10030    2    1    2    0    0  0.00000000000E+00  0.00000000000E+00  0.15823494436E+04  0.40735790223E+04  0.37536936861E+04 0.  0.
        4    1    3    3  502    0 -0.15538869980E+04 -0.54732424883E+02 -0.34959211187E+03  0.15936676876E+04  0.12699999809E+01 0.  1.
       -4    1    3    3    0  502  0.15538869980E+04  0.54732424883E+02  0.19319415555E+04  0.24799113346E+04  0.12699999809E+01 0. -1.
</event>
<event>
 5   0  0.4795023E-07  0.3042177E+04  0.7818609E-02  0.8231788E-01
        1   -1    0    0  501    0  0.00000000000E+00  0.00000000000E+00  0.23351068761E+04  0.23351068761E+04  0.50400001928E-02 0.  1.
       -1   -1    0    0    0  501  0.00000000000E+00  0.00000000000E+00 -0.99083704804E+03  0.99083704806E+03  0.50400001928E-02 0. -1.
    10030    2    1    2    0    0  0.00000000000E+00  0.00000000000E+00  0.13442698280E+04  0.33259439241E+04  0.30421771178E+04 0.  0.
        3    1    3    3  502    0  0.55687372072E+03  0.11746262769E+04 -0.19138491351E+03  0.13139571631E+04  0.10100000352E+00 0. -1.
       -3    1    3    3    0  502 -0.55687372072E+03 -0.11746262769E+04  0.15356547415E+04  0.20119867610E+04  0.10100000352E+00 0.  1.
</event>
<event>
 5   0  0.8030324E-07  0.3996772E+04  0.7818609E-02  0.8005198E-01
        1   -1    0    0  501    0  0.00000000000E+00  0.00000000000E+00  0.25691026031E+04  0.25691026031E+04  0.50400001928E-02 0. -1.
       -1   -1    0    0    0  501  0.00000000000E+00  0.00000000000E+00 -0.15544520378E+04  0.15544520378E+04  0.50400001928E-02 0.  1.
    10030    2    1    2    0    0  0.00000000000E+00  0.00000000000E+00  0.10146505653E+04  0.41235546410E+04  0.39967720860E+04 0.  0.
        1    1    3    3  502    0  0.18811048622E+04 -0.36109524021E+03  0.10951361791E+04  0.22064153113E+04  0.50400001928E-02 0.  1.
       -1    1    3    3    0  502 -0.18811048622E+04  0.36109524021E+03 -0.80485613832E+02  0.19171393296E+04  0.50400001928E-02 0. -1.
</event>
<event>
 5   0  0.1214844E-06  0.2239600E+04  0.7818609E-02  0.8502124E-01
       -2   -1    0    0    0  501  0.00000000000E+00  0.00000000000E+00  0.71908980287E+03  0.71908980288E+03  0.25500000920E-02 0.  1.
        2   -1    0    0  501    0  0.00000000000E+00  0.00000000000E+00 -0.17438038373E+04  0.17438038373E+04  0.25500000920E-02 0. -1.
    10030    2    1    2    0    0  0.00000000000E+00  0.00000000000E+00 -0.10247140344E+04  0.24628936402E+04  0.22395995692E+04 0.  0.
        4    1    3    3  502    0  0.11026112576E+04 -0.95797159525E+02 -0.32501575538E+03  0.11535014240E+04  0.12699999809E+01 0.  1.
       -4    1    3    3    0  502 -0.11026112576E+04  0.95797159525E+02 -0.69969827906E+03  0.13093922162E+04  0.12699999809E+01 0. -1.
</event>
<event>
 5   0  0.1214844E-06  0.3443712E+04  0.7818609E-02  0.8127261E-01
       -2   -1    0    0    0  501  0.00000000000E+00  0.00000000000E+00  0.18077156195E+04  0.18077156195E+04  0.25500000920E-02 0.  1.
        2   -1    0    0  501    0  0.00000000000E+00  0.00000000000E+00 -0.16400741477E+04  0.16400741477E+04  0.25500000920E-02 0. -1.
    10030    2    1    2    0    0  0.00000000000E+00  0.00000000000E+00  0.16764147178E+03  0.34477897673E+04  0.34437117499E+04 0.  0.
        4    1    3    3  502    0  0.45915677480E+03 -0.10753009330E+04  0.13493147832E+04  0.17854268502E+04  0.12699999809E+01 0.  1.
       -4    1    3    3    0  502 -0.45915677480E+03  0.10753009330E+04 -0.11816733114E+04  0.16623629171E+04  0.12699999809E+01 0. -1.
</event>
<event>
 5   0  0.4795023E-07  0.3343195E+04  0.7818609E-02  0.8151990E-01
       -1   -1    0    0    0  501  0.00000000000E+00  0.00000000000E+00  0.20500856937E+04  0.20500856937E+04  0.50400001928E-02 0.  1.
        1   -1    0    0  501    0  0.00000000000E+00  0.00000000000E+00 -0.13629863832E+04  0.13629863832E+04  0.50400001928E-02 0. -1.
    10030    2    1    2    0    0  0.00000000000E+00  0.00000000000E+00  0.68709931049E+03  0.34130720769E+04  0.33431954085E+04 0.  0.
        3    1    3    3  502    0  0.26471853759E+03  0.36722193610E+03  0.19863160417E+04  0.20372479678E+04  0.10100000352E+00 0.  1.
       -3    1    3    3    0  502 -0.26471853759E+03 -0.36722193610E+03 -0.12992167312E+04  0.13758241091E+04  0.10100000352E+00 0. -1.
</event>
<event>
 5   0  0.1079205E-06  0.3939967E+04  0.7818609E-02  0.8016768E-01
       -1   -1    0    0    0  501  0.00000000000E+00  0.00000000000E+00  0.31603826545E+04  0.31603826546E+04  0.50400001928E-02 0. -1.
        1   -1    0    0  501    0  0.00000000000E+00  0.00000000000E+00 -0.12279634452E+04  0.12279634453E+04  0.50400001928E-02 0.  1.
    10030    2    1    2    0    0  0.00000000000E+00  0.00000000000E+00  0.19324192093E+04  0.43883460998E+04  0.39399666866E+04 0.  0.
        4    1    3    3  502    0 -0.68784142897E+03  0.83529582849E+03 -0.86733715887E+03  0.13867661348E+04  0.12699999809E+01 0.  1.
       -4    1    3    3    0  502  0.68784142897E+03 -0.83529582849E+03  0.27997563682E+04  0.30015799650E+04  0.12699999809E+01 0. -1.
</event>
<event>
 5   0  0.1214844E-06  0.3629221E+04  0.7818609E-02  0.8083831E-01
        2   -1    0    0  501    0  0.00000000000E+00  0.00000000000E+00  0.25518490101E+04  0.25518490101E+04  0.25500000920E-02 0.  1.
       -2   -1    0    0    0  501  0.00000000000E+00  0.00000000000E+00 -0.12903626989E+04  0.12903626989E+04  0.25500000920E-02 0. -1.
    10030    2    1    2    0    0  0.00000000000E+00  0.00000000000E+00  0.12614863112E+04  0.38422117090E+04  0.36292207295E+04 0.  0.
        4    1    3    3  502    0 -0.29173101635E+03 -0.13342394279E+04 -0.63415943268E+03  0.15058092959E+04  0.12699999809E+01 0. -1.
       -4    1    3    3    0  502  0.29173101635E+03  0.13342394279E+04  0.18956457439E+04  0.23364024131E+04  0.12699999809E+01 0.  1.
</event>
<event>
 5   0  0.1214844E-06  0.2331649E+04  0.7818609E-02  0.8465546E-01
        2   -1    0    0  501    0  0.00000000000E+00  0.00000000000E+00  0.13530559127E+04  0.13530559127E+04  0.25500000920E-02 0.  1.
       -2   -1    0    0    0  501  0.00000000000E+00  0.00000000000E+00 -0.10045012433E+04  0.10045012433E+04  0.25500000920E-02 0. -1.
    10030    2    1    2    0    0  0.00000000000E+00  0.00000000000E+00  0.34855466940E+03  0.23575571561E+04  0.23316486413E+04 0.  0.
        4    1    3    3  502    0  0.15851299440E+03 -0.11295695788E+04  0.41797607924E+03  0.12148083876E+04  0.12699999809E+01 0. -1.
       -4    1    3    3    0  502 -0.15851299440E+03  0.11295695788E+04 -0.69421409846E+02  0.11427487685E+04  0.12699999809E+01 0.  1.
</event>
<event>
 5   0  0.1184616E-06  0.2190950E+04  0.7818609E-02  0.8522204E-01
       -2   -1    0    0    0  501  0.00000000000E+00  0.00000000000E+00  0.15787409970E+04  0.15787409970E+04  0.25500000920E-02 0.  1.
        2   -1    0    0  501    0  0.00000000000E+00  0.00000000000E+00 -0.76014102226E+03  0.76014102227E+03  0.25500000920E-02 0. -1.
    10030    2    1    2    0    0  0.00000000000E+00  0.00000000000E+00  0.81859997472E+03  0.23388820193E+04  0.21909502919E+04 0.  0.
        5    1    3    3  502    0  0.20624399970E+03 -0.24364034224E+03  0.15279801372E+04  0.15609748856E+04  0.46999998093E+01 0.  1.
       -5    1    3    3    0  502 -0.20624399970E+03  0.24364034224E+03 -0.70938016245E+03  0.77790713369E+03  0.46999998093E+01 0. -1.
</event>
<event>
 5   0  0.1372748E-06  0.3835207E+04  0.7818609E-02  0.8038642E-01
       -2   -1    0    0    0  501  0.00000000000E+00  0.00000000000E+00  0.16609377735E+04  0.16609377735E+04  0.25500000920E-02 0.  1.
        2   -1    0    0  501    0  0.00000000000E+00  0.00000000000E+00 -0.22139318921E+04  0.22139318921E+04  0.25500000920E-02 0. -1.
    10030    2    1    2    0    0  0.00000000000E+00  0.00000000000E+00 -0.55299411867E+03  0.38748696656E+04  0.38352069605E+04 0.  0.
        1    1    3    3  502    0 -0.11832828335E+04  0.27402132905E+03 -0.17757424645E+04  0.21513965820E+04  0.50400001928E-02 0. -1.
       -1    1    3    3    0  502  0.11832828335E+04 -0.27402132905E+03  0.12227483458E+04  0.17234730836E+04  0.50400001928E-02 0.  1.
</event>
<event>
 5   0  0.1184616E-06  0.2345208E+04  0.7818609E-02  0.8460307E-01
       -2   -1    0    0    0  501  0.00000000000E+00  0.00000000000E+00  0.58128329316E+03  0.58128329317E+03  0.25500000920E-02 0.  1.
        2   -1    0    0  501    0  0.00000000000E+00  0.00000000000E+00 -0.23654561610E+04  0.23654561610E+04  0.25500000920E-02 0. -1.
    10030    2    1    2    0    0  0.00000000000E+00  0.00000000000E+00 -0.17841728678E+04  0.29467394541E+04  0.23452080053E+04 0.  0.
        5    1    3    3  502    0 -0.10801229291E+04  0.25688552491E+03 -0.41806616631E+03  0.11863629817E+04  0.46999998093E+01 0.  1.
       -5    1    3    3    0  502  0.10801229291E+04 -0.25688552491E+03 -0.13661067015E+04  0.17603764724E+04  0.46999998093E+01 0. -1.
</event>
<event>
 5   0  0.4255250E-07  0.3649322E+04  0.7818609E-02  0.8079286E-01
        1   -1    0    0  501    0  0.00000000000E+00  0.00000000000E+00  0.20062931866E+04  0.20062931867E+04  0.50400001928E-02 0. -1.
       -1   -1    0    0    0  501  0.00000000000E+00  0.00000000000E+00 -0.16594724192E+04  0.16594724192E+04  0.50400001928E-02 0.  1.
    10030    2    1    2    0    0  0.00000000000E+00  0.00000000000E+00  0.34682076741E+03  0.36657656059E+04  0.36493222429E+04 0.  0.
        2    1    3    3  502    0  0.17016067625E+04 -0.50476947888E+03  0.59855544102E+03  0.18731060880E+04  0.25500000920E-02 0. -1.
       -2    1    3    3    0  502 -0.17016067625E+04  0.50476947888E+03 -0.25173467361E+03  0.17926595179E+04  0.25500000920E-02 0.  1.
</event>
<event>
 5   0  0.1184616E-06  0.2125891E+04  0.7818609E-02  0.8549923E-01
       -2   -1    0    0    0  501  0.00000000000E+00  0.00000000000E+00  0.83777991697E+03  0.83777991698E+03  0.25500000920E-02 0. -1.
        2   -1    0    0  501    0  0.00000000000E+00  0.00000000000E+00 -0.13486275866E+04  0.13486275866E+04  0.25500000920E-02 0.  1.
    10030    2    1    2    0    0  0.00000000000E+00  0.00000000000E+00 -0.51084766963E+03  0.21864075036E+04  0.21258909733E+04 0.  0.
        5    1    3    3  502    0  0.26401849245E+02  0.21282171279E+03  0.81528869451E+03  0.84303492482E+03  0.46999998093E+01 0. -1.
       -5    1    3    3    0  502 -0.26401849245E+02 -0.21282171279E+03 -0.13261363641E+04  0.13433725788E+04  0.46999998093E+01 0.  1.
</event>
<event>
 5   0  0.5284458E-07  0.3812322E+04  0.7818609E-02  0.8043516E-01
        1   -1    0    0  501    0  0.00000000000E+00  0.00000000000E+00  0.17221246547E+04  0.17221246547E+04  0.50400001928E-02 0.  1.
       -1   -1    0    0    0  501  0.00000000000E+00  0.00000000000E+00 -0.21098643249E+04  0.21098643249E+04  0.50400001928E-02 0. -1.
    10030    2    1    2    0    0  0.00000000000E+00  0.00000000000E+00 -0.38773967018E+03  0.38319889796E+04  0.38123217975E+04 0.  0.
        5    1    3    3  502    0  0.13752808451E+04 -0.13161059558E+04 -0.93883091592E+02  0.19058773347E+04  0.46999998093E+01 0.  1.
       -5    1    3    3    0  502 -0.13752808451E+04  0.13161059558E+04 -0.29385657859E+03  0.19261116449E+04  0.46999998093E+01 0. -1.
</event>
<event>
 5   0  0.1079205E-06  0.2215270E+04  0.7818609E-02  0.8512099E-01
       -1   -1    0    0    0  501  0.00000000000E+00  0.00000000000E+00  0.15818034962E+04  0.15818034962E+04  0.50400001928E-02 0.  1.
        1   -1    0    0  501    0  0.00000000000E+00  0.00000000000E+00 -0.77560534174E+03  0.77560534176E+03  0.50400001928E-02 0. -1.
    10030    2    1    2    0    0  0.00000000000E+00  0.00000000000E+00  0.80619815448E+03  0.23574088380E+04  0.22152699531E+04 0.  0.
        4    1    3    3  502    0  0.32108211914E+03  0.99753785180E+03  0.78483288991E+03  0.13092516072E+04  0.12699999809E+01 0. -1.
       -4    1    3    3    0  502 -0.32108211914E+03 -0.99753785180E+03  0.21365264570E+02  0.10481572308E+04  0.12699999809E+01 0.  1.
</event>
<event>
 5   0  0.5284458E-07  0.3752154E+04  0.7818609E-02  0.8056501E-01
       -1   -1    0    0    0  501  0.00000000000E+00  0.00000000000E+00  0.23483078559E+04  0.23483078559E+04  0.50400001928E-02 0.  1.
        1   -1    0    0  501    0  0.00000000000E+00  0.00000000000E+00 -0.14988091440E+04  0.14988091440E+04  0.50400001928E-02 0. -1.
    10030    2    1    2    0    0  0.00000000000E+00  0.00000000000E+00  0.84949871183E+03  0.38471169999E+04  0.37521542012E+04 0.  0.
        5    1    3    3  502    0  0.25224581877E+03  0.15008827269E+04 -0.69999451689E+03  0.16751988917E+04  0.46999998093E+01 0. -1.
       -5    1    3    3    0  502 -0.25224581877E+03 -0.15008827269E+04  0.15494932287E+04  0.21719181082E+04  0.46999998093E+01 0.  1.
</event>
<event>
 5   0  0.5284458E-07  0.1969747E+04  0.7818609E-02  0.8620897E-01
        1   -1    0    0  501    0  0.00000000000E+00  0.00000000000E+00  0.77432189387E+03  0.77432189389E+03  0.50400001928E-02 0.  1.
       -1   -1    0    0    0  501  0.00000000000E+00  0.00000000000E+00 -0.12526777025E+04  0.12526777025E+04  0.50400001928E-02 0. -1.
    10030    2    1    2    0    0  0.00000000000E+00  0.00000000000E+00 -0.47835580865E+03  0.20269995964E+04  0.19697469594E+04 0.  0.
        5    1    3    3  502    0 -0.85772540006E+03  0.40302559427E+03  0.36625582650E+02  0.94841236540E+03  0.46999998093E+01 0. -1.
       -5    1    3    3    0  502  0.85772540006E+03 -0.40302559427E+03 -0.51498139130E+03  0.10785872310E+04  0.46999998093E+01 0.  1.
</event>
<event>
 5   0  0.1341932E-06  0.2335306E+04  0.7818609E-02  0.8464129E-01
       -2   -1    0    0    0  501  0.00000000000E+00  0.00000000000E+00  0.95740235595E+03  0.95740235596E+03  0.25500000920E-02 0.  1.
        2   -1    0    0  501    0  0.00000000000E+00  0.00000000000E+00 -0.14240756946E+04  0.14240756946E+04  0.25500000920E-02 0. -1.
    10030    2    1    2    0    0  0.00000000000E+00  0.00000000000E+00 -0.46667333861E+03  0.23814780505E+04  0.23353059115E+04 0.  0.
        2    1    3    3  502    0  0.42653585634E+03 -0.53709501260E+03 -0.11970122465E+04  0.13795804462E+04  0.25500000920E-02 0. -1.
       -2    1    3    3    0  502 -0.42653585634E+03  0.53709501260E+03  0.73033890784E+03  0.10018976044E+04  0.25500000920E-02 0.  1.
</event>
<event>
 5   0  0.4255250E-07  0.2395223E+04  0.7818609E-02  0.8441294E-01
        1   -1    0    0  501    0  0.00000000000E+00  0.00000000000E+00  0.11218388197E+04  0.11218388197E+04  0.50400001928E-02 0. -1.
       -1   -1    0    0    0  501  0.00000000000E+00  0.00000000000E+00 -0.12785022790E+04  0.12785022790E+04  0.50400001928E-02 0.  1.
    10030    2    1    2    0    0  0.00000000000E+00  0.00000000000E+00 -0.15666345928E+03  0.24003410987E+04  0.23952231526E+04 0.  0.
        2    1    3    3  502    0 -0.15286859721E+03 -0.99155531047E+03  0.57707086051E+03  0.11573942802E+04  0.25500000920E-02 0. -1.
       -2    1    3    3    0  502  0.15286859721E+03  0.99155531047E+03 -0.73373431980E+03  0.12429468186E+04  0.25500000920E-02 0.  1.
</event>
<event>
 5   0  0.5284458E-07  0.2660370E+04  0.7818609E-02  0.8347979E-01
        1   -1    0    0  501    0  0.00000000000E+00  0.00000000000E+00  0.13673933860E+04  0.13673933860E+04  0.50400001928E-02 0.  1.
       -1   -1    0    0    0  501  0.00000000000E+00  0.00000000000E+00 -0.12939892858E+04  0.12939892858E+04  0.50400001928E-02 0. -1.
    10030    2    1    2    0    0  0.00000000000E+00  0.00000000000E+00  0.73404100199E+02  0.26613826718E+04  0.26603701930E+04 0.  0.
        5    1    3    3  502    0 -0.14016959742E+02  0.13300152137E+04  0.21420204548E+02  0.13302698444E+04  0.46999998093E+01 0.  1.
       -5    1    3    3    0  502  0.14016959742E+02 -0.13300152137E+04  0.51983895651E+02  0.13311128274E+04  0.46999998093E+01 0. -1.
</event>
<event>
 5   0  0.1372748E-06  0.3834104E+04  0.7818609E-02  0.8038876E-01
       -2   -1    0    0    0  501  0.00000000000E+00  0.00000000000E+00  0.23623926964E+04  0.23623926964E+04  0.25500000920E-02 0. -1.
        2   -1    0    0  501    0  0.00000000000E+00  0.00000000000E+00 -0.15556636515E+04  0.15556636515E+04  0.25500000920E-02 0.  1.
    10030    2    1    2    0    0  0.00000000000E+00  0.00000000000E+00  0.80672904489E+03  0.39180563478E+04  0.38341040404E+04 0.  0.
        1    1    3    3  502    0 -0.40927562086E+03 -0.43343182417E+03 -0.14585401033E+04  0.15756614208E+04  0.50400001928E-02 0.  1.
       -1    1    3    3    0  502  0.40927562086E+03  0.43343182417E+03  0.22652691482E+04  0.23423949270E+04  0.50400001928E-02 0. -1.
</event>
<event>
 5   0  0.1341932E-06  0.3742805E+04  0.7818609E-02  0.8058541E-01
        2   -1    0    0  501    0  0.00000000000E+00  0.00000000000E+00  0.23109579730E+04  0.23109579730E+04  0.25500000920E-02 0. -1.
       -2   -1    0    0    0  501  0.00000000000E+00  0.00000000000E+00 -0.15154524578E+04  0.15154524578E+04  0.25500000920E-02 0.  1.
    10030    2    1    2    0    0  0.00000000000E+00  0.00000000000E+00  0.79550551519E+03  0.38264104308E+04  0.37428047986E+04 0.  0.
        2    1    3    3  502    0 -0.11322638377E+04  0.14614509000E+04  0.10094572981E+03  0.18514994387E+04  0.25500000920E-02 0.  1.
       -2    1    3    3    0  502  0.11322638377E+04 -0.14614509000E+04  0.69455978538E+03  0.19749109921E+04  0.25500000920E-02 0. -1.
</event>
<event>
 5   0  0.5284458E-07  0.3682176E+04  0.7818609E-02  0.8071923E-01
       -1   -1    0    0    0  501  0.00000000000E+00  0.00000000000E+00  0.14565835624E+04  0.14565835624E+04  0.50400001928E-02 0. -1.
        1   -1    0    0  501    0  0.00000000000E+00  0.00000000000E+00 -0.23270924367E+04  0.23270924367E+04  0.50400001928E-02 0.  1.
    10030    2    1    2    0    0  0.00000000000E+00  0.00000000000E+00 -0.87050887426E+03  0.37836759991E+04  0.36821757652E+04 0.  0.
        5    1    3    3  502    0 -0.76222176552E+03 -0.67813497440E+03 -0.20100576429E+04  0.22541523642E+04  0.46999998093E+01 0.  1.
       -5    1    3    3    0  502  0.76222176552E+03  0.67813497440E+03  0.11395487687E+04  0.15295236348E+04  0.46999998093E+01 0. -1.
</event>
<event>
 5   0  0.1372748E-06  0.3657105E+04  0.7818609E-02  0.8077535E-01
       -2   -1    0    0    0  501  0.00000000000E+00  0.00000000000E+00  0.19875419163E+04  0.19875419163E+04  0.25500000920E-02 0. -1.
        2   -1    0    0  501    0  0.00000000000E+00  0.00000000000E+00 -0.16822815743E+04  0.16822815743E+04  0.25500000920E-02 0.  1.
    10030    2    1    2    0    0  0.00000000000E+00  0.00000000000E+00  0.30526034201E+03  0.36698234906E+04  0.36571054915E+04 0.  0.
        1    1    3    3  502    0  0.94950883698E+03 -0.11208819852E+04 -0.94003746955E+03  0.17440223337E+04  0.50400001928E-02 0.  1.
       -1    1    3    3    0  502 -0.94950883698E+03  0.11208819852E+04  0.12452978116E+04  0.19258011569E+04  0.50400001928E-02 0. -1.
</event>
<event>
 5   0  0.4795023E-07  0.3162343E+04  0.7818609E-02  0.8198834E-01
        1   -1    0    0  501    0  0.00000000000E+00  0.00000000000E+00  0.17843405982E+04  0.17843405982E+04  0.50400001928E-02 0.  1.
       -1   -1    0    0    0  501  0.00000000000E+00  0.00000000000E+00 -0.14011356896E+04  0.14011356896E+04  0.50400001928E-02 0. -1.
    10030    2    1    2    0    0  0.00000000000E+00  0.00000000000E+00  0.38320490860E+03  0.31854762878E+04  0.31623429887E+04 0.  0.
        3    1    3    3  502    0 -0.14486852508E+04 -0.46291113693E+03  0.62734938592E+03  0.16451574206E+04  0.10100000352E+00 0.  1.
       -3    1    3    3    0  502  0.14486852508E+04  0.46291113693E+03 -0.24414447732E+03  0.15403188672E+04  0.10100000352E+00 0. -1.
</event>
<event>
 5   0  0.5284458E-07  0.3856323E+04  0.7818609E-02  0.8034175E-01
        1   -1    0    0  501    0  0.00000000000E+00  0.00000000000E+00  0.12895116762E+04  0.12895116762E+04  0.50400001928E-02 0.  1.
       -1   -1    0    0    0  501  0.00000000000E+00  0.00000000000E+00 -0.28831126014E+04  0.28831126014E+04  0.50400001928E-02 0. -1.
    10030    2    1    2    0    0  0.00000000000E+00  0.00000000000E+00 -0.15936009252E+04  0.41726242776E+04  0.38563233077E+04 0.  0.
        5    1    3    3  502    0  0.68891821320E+03 -0.11531832717E+04  0.69989182749E+03  0.15146981953E+04  0.46999998093E+01 0.  1.
       -5    1    3    3    0  502 -0.68891821320E+03  0.11531832717E+04 -0.22934927527E+04  0.26579260823E+04  0.46999998093E+01 0. -1.
</event>
<event>
 5   0  0.1214844E-06  0.3807549E+04  0.7818609E-02  0.8044537E-01
        2   -1    0    0  501    0  0.00000000000E+00  0.00000000000E+00  0.22196607379E+04  0.22196607379E+04  0.25500000920E-02 0.  1.
       -2   -1    0    0    0  501  0.00000000000E+00  0.00000000000E+00 -0.16328428736E+04  0.16328428736E+04  0.25500000920E-02 0. -1.
    10030    2    1    2    0    0  0.00000000000E+00  0.00000000000E+00  0.58681786427E+03  0.38525036116E+04  0.38075489322E+04 0.  0.
        4    1    3    3  502    0 -0.18483347985E+04  0.82532747255E+02  0.74726083930E+03  0.19953830601E+04  0.12699999809E+01 0.  1.
       -4    1    3    3    0  502  0.18483347985E+04 -0.82532747255E+02 -0.16044297502E+03  0.18571205515E+04  0.12699999809E+01 0. -1.
</event>
<event>
 5   0  0.1184616E-06  0.2059000E+04  0.7818609E-02  0.8579523E-01
       -2   -1    0    0    0  501  0.00000000000E+00  0.00000000000E+00  0.17496047733E+04  0.17496047733E+04  0.25500000920E-02 0.  1.
        2   -1    0    0  501    0  0.00000000000E+00  0.00000000000E+00 -0.60577669096E+03  0.60577669097E+03  0.25500000920E-02 0. -1.
    10030    2    1    2    0    0  0.00000000000E+00  0.00000000000E+00  0.11438280824E+04  0.23553814643E+04  0.20589995533E+04 0.  0.
        5    1    3    3  502    0  0.30943907052E+03  0.18944753327E+03  0.16740290182E+04  0.17129034269E+04  0.46999998093E+01 0.  1.
       -5    1    3    3    0  502 -0.30943907052E+03 -0.18944753327E+03 -0.53020093580E+03  0.64247803740E+03  0.46999998093E+01 0. -1.
</event>
<event>
 5   0  0.1372748E-06  0.3616647E+04  0.7818609E-02  0.8086689E-01
       -2   -1    0    0    0  501  0.00000000000E+00  0.00000000000E+00  0.11626084269E+04  0.11626084269E+04  0.25500000920E-02 0. -1.
        2   -1    0    0  501    0  0.00000000000E+00  0.00000000000E+00 -0.28126701811E+04  0.28126701811E+04  0.25500000920E-02 0.  1.
    10030    2    1    2    0    0  0.00000000000E+00  0.00000000000E+00 -0.16500617542E+04  0.39752786080E+04  0.36166470962E+04 0.  0.
        1    1    3    3  502    0 -0.16426738208E+04 -0.10229058609E+03 -0.16178774596E+01  0.16458563920E+04  0.50400001928E-02 0. -1.
       -1    1    3    3    0  502  0.16426738208E+04  0.10229058609E+03 -0.16484438767E+04  0.23294222160E+04  0.50400001928E-02 0.  1.
</event>
<event>
 5   0  0.1184616E-06  0.2380971E+04  0.7818609E-02  0.8446662E-01
       -2   -1    0    0    0  501  0.00000000000E+00  0.00000000000E+00  0.81361357929E+03  0.81361357929E+03  0.25500000920E-02 0.  1.
        2   -1    0    0  501    0  0.00000000000E+00  0.00000000000E+00 -0.17419266043E+04  0.17419266043E+04  0.25500000920E-02 0. -1.
    10030    2    1    2    0    0  0.00000000000E+00  0.00000000000E+00 -0.92831302506E+03  0.25555401836E+04  0.23809705075E+04 0.  0.
        5    1    3    3  502    0 -0.85382367971E+03 -0.38526100944E+03  0.32441661192E+03  0.99131687644E+03  0.46999998093E+01 0.  1.
       -5    1    3    3    0  502  0.85382367971E+03  0.38526100944E+03 -0.12527296370E+04  0.15642233072E+04  0.46999998093E+01 0. -1.
</event>
<event>
 5   0  0.1214844E-06  0.3674802E+04  0.7818609E-02  0.8073569E-01
       -2   -1    0    0    0  501  0.00000000000E+00  0.00000000000E+00  0.18517063784E+04  0.18517063784E+04  0.25500000920E-02 0. -1.
        2   -1    0    0  501    0  0.00000000000E+00  0.00000000000E+00 -0.18232063310E+04  0.18232063310E+04  0.25500000920E-02 0.  1.
    10030    2    1    2    0    0  0.00000000000E+00  0.00000000000E+00  0.28500047389E+02  0.36749127095E+04  0.36748021946E+04 0.  0.
        4    1    3    3  502    0 -0.14863982706E+04 -0.33746268762E+03  0.10403317056E+04  0.18454139251E+04  0.12699999809E+01 0. -1.
       -4    1    3    3    0  502  0.14863982706E+04  0.33746268762E+03 -0.10118316583E+04  0.18294987843E+04  0.12699999809E+01 0.  1.
</event>
<event>
 5   0  0.5284458E-07  0.3297108E+04  0.7818609E-02  0.8163632E-01
        1   -1    0    0  501    0  0.00000000000E+00  0.00000000000E+00  0.15262770753E+04  0.15262770753E+04  0.50400001928E-02 0.  1.
       -1   -1    0    0    0  501  0.00000000000E+00  0.00000000000E+00 -0.17806266519E+04  0.17806266519E+04  0.50400001928E-02 0. -1.
    10030    2    1    2    0    0  0.00000000000E+00  0.00000000000E+00 -0.25434957662E+03  0.33069037272E+04  0.32971076042E+04 0.  0.
        5    1    3    3  502    0 -0.80792010656E+03 -0.76024158346E+03 -0.13502261661E+04  0.17475225187E+04  0.46999998093E+01 0. -1.
       -5    1    3    3    0  502  0.80792010656E+03  0.76024158346E+03  0.10958765895E+04  0.15593812084E+04  0.46999998093E+01 0.  1.
</event>
<event>
 5   0  0.5284458E-07  0.2799997E+04  0.7818609E-02  0.8303269E-01
       -1   -1    0    0    0  501  0.00000000000E+00  0.00000000000E+00  0.14814055901E+04  0.14814055901E+04  0.50400001928E-02 0. -1.
        1   -1    0    0  501    0  0.00000000000E+00  0.00000000000E+00 -0.13230649438E+04  0.13230649438E+04  0.50400001928E-02 0.  1.
    10030    2    1    2    0    0  0.00000000000E+00  0.00000000000E+00  0.15834064631E+03  0.28044705339E+04  0.27999970027E+04 0.  0.
        5    1    3    3  502    0 -0.13544683038E+04  0.33174557503E+03 -0.44858863286E+02  0.13952325685E+04  0.46999998093E+01 0.  1.
       -5    1    3    3    0  502  0.13544683038E+04 -0.33174557503E+03  0.20319950960E+03  0.14092379654E+04  0.46999998093E+01 0. -1.
</event>
<event>
 5   0  0.1337854E-06  0.3923292E+04  0.7818609E-02  0.8020202E-01
       -2   -1    0    0    0  501  0.00000000000E+00  0.00000000000E+00  0.13126370675E+04  0.13126370675E+04  0.25500000920E-02 0.  1.
        2   -1    0    0  501    0  0.00000000000E+00  0.00000000000E+00 -0.29315447202E+04  0.29315447202E+04  0.25500000920E-02 0. -1.
    10030    2    1    2    0    0  0.00000000000E+00  0.00000000000E+00 -0.16189076527E+04  0.42441817877E+04  0.39232916102E+04 0.  0.
        3    1    3    3  502    0 -0.11695055206E+04  0.22643074181E+03 -0.24954661317E+04  0.27652061891E+04  0.10100000352E+00 0. -1.
       -3    1    3    3    0  502  0.11695055206E+04 -0.22643074181E+03  0.87655847904E+03  0.14789755985E+04  0.10100000352E+00 0.  1.
</event>
<event>
 5   0  0.1214844E-06  0.3267849E+04  0.7818609E-02  0.8171125E-01
        2   -1    0    0  501    0  0.00000000000E+00  0.00000000000E+00  0.13316245009E+04  0.13316245009E+04  0.25500000920E-02 0.  1.
       -2   -1    0    0    0  501  0.00000000000E+00  0.00000000000E+00 -0.20048508345E+04  0.20048508345E+04  0.25500000920E-02 0. -1.
    10030    2    1    2    0    0  0.00000000000E+00  0.00000000000E+00 -0.67322633360E+03  0.33364753355E+04  0.32678485228E+04 0.  0.
        4    1    3    3  502    0 -0.29002566633E+03 -0.12750516160E+04  0.66367326074E+03  0.14664021688E+04  0.12699999809E+01 0.  1.
       -4    1    3    3    0  502  0.29002566633E+03  0.12750516160E+04 -0.13368995943E+04  0.18700731667E+04  0.12699999809E+01 0. -1.
</event>
<event>
 5   0  0.4255250E-07  0.3646301E+04  0.7818609E-02  0.8079967E-01
        1   -1    0    0  501    0  0.00000000000E+00  0.00000000000E+00  0.32354923979E+04  0.32354923979E+04  0.50400001928E-02 0. -1.
       -1   -1    0    0    0  501  0.00000000000E+00  0.00000000000E+00 -0.10273176169E+04  0.10273176169E+04  0.50400001928E-02 0.  1.
    10030    2    1    2    0    0  0.00000000000E+00  0.00000000000E+00  0.22081747810E+04  0.42628100148E+04  0.36463013258E+04 0.  0.
        2    1    3    3  502    0 -0.11557080823E+04 -0.13328335074E+04  0.56609305760E+03  0.18527189965E+04  0.25500000920E-02 0.  1.
       -2    1    3    3    0  502  0.11557080823E+04  0.13328335074E+04  0.16420817234E+04  0.24100910183E+04  0.25500000920E-02 0. -1.
</event>
<event>
 5   0  0.4795023E-07  0.3741358E+04  0.7818609E-02  0.8058858E-01
        1   -1    0    0  501    0  0.00000000000E+00  0.00000000000E+00  0.17447721191E+04  0.17447721191E+04  0.50400001928E-02 0.  1.
       -1   -1    0    0    0  501  0.00000000000E+00  0.00000000000E+00 -0.20056714067E+04  0.20056714067E+04  0.50400001928E-02 0. -1.
    10030    2    1    2    0    0  0.00000000000E+00  0.00000000000E+00 -0.26089928762E+03  0.37504435258E+04  0.37413578019E+04 0.  0.
        3    1    3    3  502    0  0.14204664979E+04  0.11510647322E+04 -0.52734606179E+03  0.19028318287E+04  0.10100000352E+00 0. -1.
       -3    1    3    3    0  502 -0.14204664979E+04 -0.11510647322E+04  0.26644677417E+03  0.18476116970E+04  0.10100000352E+00 0.  1.
</event>
<event>
 5   0  0.4255250E-07  0.2258011E+04  0.7818609E-02  0.8494663E-01
        1   -1    0    0  501    0  0.00000000000E+00  0.00000000000E+00  0.20306736286E+04  0.20306736286E+04  0.50400001928E-02 0.  1.
       -1   -1    0    0    0  501  0.00000000000E+00  0.00000000000E+00 -0.62769952901E+03  0.62769952903E+03  0.50400001928E-02 0. -1.
    10030    2    1    2    0    0  0.00000000000E+00  0.00000000000E+00  0.14029740996E+04  0.26583731576E+04  0.22580105228E+04 0.  0.
        2    1    3    3  502    0 -0.57270790842E+02  0.90484332668E+03 -0.90580761665E+02  0.91116752780E+03  0.25500000920E-02 0. -1.
       -2    1    3    3    0  502  0.57270790842E+02 -0.90484332668E+03  0.14935548612E+04  0.17472056298E+04  0.25500000920E-02 0.  1.
</event>
<event>
 5   0  0.1214844E-06  0.1888323E+04  0.7818609E-02  0.8660691E-01
        2   -1    0    0  501    0  0.00000000000E+00  0.00000000000E+00  0.25809565533E+04  0.25809565533E+04  0.25500000920E-02 0.  1.
       -2   -1    0    0    0  501  0.00000000000E+00  0.00000000000E+00 -0.34539179356E+03  0.34539179357E+03  0.25500000920E-02 0. -1.
    10030    2    1    2    0    0  0.00000000000E+00  0.00000000000E+00  0.22355647598E+04  0.29263483469E+04  0.18883232912E+04 0.  0.
        4    1    3    3  502    0 -0.43911198583E+03 -0.17611234228E+03  0.23840029589E+04  0.24304951377E+04  0.12699999809E+01 0.  1.
       -4    1    3    3    0  502  0.43911198583E+03  0.17611234228E+03 -0.14843819917E+03  0.49585320921E+03  0.12699999809E+01 0. -1.
</event>
<event>
 5   0  0.1214844E-06  0.2169260E+04  0.7818609E-02  0.8531333E-01
       -2   -1    0    0    0  501  0.00000000000E+00  0.00000000000E+00  0.15841500885E+04  0.15841500885E+04  0.25500000920E-02 0.  1.
        2   -1    0    0  501    0  0.00000000000E+00  0.00000000000E+00 -0.74262066857E+03  0.74262066858E+03  0.25500000920E-02 0. -1.
    10030    2    1    2    0    0  0.00000000000E+00  0.00000000000E+00  0.84152941996E+03  0.23267707571E+04  0.21692603328E+04 0.  0.
        4    1    3    3  502    0 -0.38033489836E+03 -0.46734717836E+03 -0.54658041921E+03  0.81352307133E+03  0.12699999809E+01 0. -1.
       -4    1    3    3    0  502  0.38033489836E+03  0.46734717836E+03  0.13881098392E+04  0.15132476858E+04  0.12699999809E+01 0.  1.
</event>
<event>
 5   0  0.1184616E-06  0.2173221E+04  0.7818609E-02  0.8529657E-01
        2   -1    0    0  501    0  0.00000000000E+00  0.00000000000E+00  0.18784128216E+04  0.18784128216E+04  0.25500000920E-02 0. -1.
       -2   -1    0    0    0  501  0.00000000000E+00  0.00000000000E+00 -0.62857465124E+03  0.62857465124E+03  0.25500000920E-02 0.  1.
    10030    2    1    2    0    0  0.00000000000E+00  0.00000000000E+00  0.12498381704E+04  0.25069874729E+04  0.21732212812E+04 0.  0.
        5    1    3    3  502    0 -0.82638595861E+03  0.56522383601E+03  0.13780053042E+03  0.10106447514E+04  0.46999998093E+01 0.  1.
       -5    1    3    3    0  502  0.82638595861E+03 -0.56522383601E+03  0.11120376400E+04  0.14963427215E+04  0.46999998093E+01 0. -1.
</event>
<event>
 5   0  0.5284458E-07  0.3646284E+04  0.7818609E-02  0.8079971E-01
       -1   -1    0    0    0  501  0.00000000000E+00  0.00000000000E+00  0.15470650322E+04  0.15470650322E+04  0.50400001928E-02 0.  1.
        1   -1    0    0  501    0  0.00000000000E+00  0.00000000000E+00 -0.21484851544E+04  0.21484851544E+04  0.50400001928E-02 0. -1.
    10030    2    1    2    0    0  0.00000000000E+00  0.00000000000E+00 -0.60142012226E+03  0.36955501866E+04  0.36462837271E+04 0.  0.
        5    1    3    3  502    0 -0.15934267720E+04  0.88234087956E+03 -0.22032985804E+03  0.18346938823E+04  0.46999998093E+01 0. -1.
       -5    1    3    3    0  502  0.15934267720E+04 -0.88234087956E+03 -0.38109026423E+03  0.18608563043E+04  0.46999998093E+01 0.  1.
</event>
<event>
 5   0  0.4255250E-07  0.2073783E+04  0.7818609E-02  0.8572881E-01
       -1   -1    0    0    0  501  0.00000000000E+00  0.00000000000E+00  0.12361295976E+04  0.12361295976E+04  0.50400001928E-02 0. -1.
        1   -1    0    0  501    0  0.00000000000E+00  0.00000000000E+00 -0.86976602339E+03  0.86976602340E+03  0.50400001928E-02 0.  1.
    10030    2    1    2    0    0  0.00000000000E+00  0.00000000000E+00  0.36636357421E+03  0.21058956210E+04  0.20737825581E+04 0.  0.
        2    1    3    3  502    0  0.10301203930E+04  0.70248857603E+02  0.86520613471E+02  0.10361316242E+04  0.25500000920E-02 0.  1.
       -2    1    3    3    0  502 -0.10301203930E+04 -0.70248857603E+02  0.27984296074E+03  0.10697639968E+04  0.25500000920E-02 0. -1.
</event>
<event>
 5   0  0.1372748E-06  0.2314104E+04  0.7818609E-02  0.8472381E-01
       -2   -1    0    0    0  501  0.00000000000E+00  0.00000000000E+00  0.79025088438E+03  0.79025088438E+03  0.25500000920E-02 0. -1.
        2   -1    0    0  501    0  0.00000000000E+00  0.00000000000E+00 -0.16941065711E+04  0.16941065711E+04  0.25500000920E-02 0.  1.
    10030    2    1    2    0    0  0.00000000000E+00  0.00000000000E+00 -0.90385568675E+03  0.24843574555E+04  0.23141039009E+04 0.  0.
        1    1    3    3  502    0 -0.78696304243E+03 -0.12384377218E+03  0.44892719151E+03  0.91443082481E+03  0.50400001928E-02 0. -1.
       -1    1    3    3    0  502  0.78696304243E+03  0.12384377218E+03 -0.13527828783E+04  0.15699266307E+04  0.50400001928E-02 0.  1.
</event>
<event>
 5   0  0.1079205E-06  0.4005710E+04  0.7818609E-02  0.8003396E-01
       -1   -1    0    0    0  501  0.00000000000E+00  0.00000000000E+00  0.20030003429E+04  0.20030003429E+04  0.50400001928E-02 0. -1.
        1   -1    0    0  501    0  0.00000000000E+00  0.00000000000E+00 -0.20027094160E+04  0.20027094160E+04  0.50400001928E-02 0.  1.
    10030    2    1    2    0    0  0.00000000000E+00  0.00000000000E+00  0.29092697760E+00  0.40057097589E+04  0.40057097483E+04 0.  0.
        4    1    3    3  502    0  0.86599867573E+03  0.11129061069E+04  0.14224366909E+04  0.20029581777E+04  0.12699999809E+01 0. -1.
       -4    1    3    3    0  502 -0.86599867573E+03 -0.11129061069E+04 -0.14221457640E+04  0.20027515812E+04  0.12699999809E+01 0.  1.
</event>
<event>
 5   0  0.1214844E-06  0.1950919E+04  0.7818609E-02  0.8629918E-01
        2   -1    0    0  501    0  0.00000000000E+00  0.00000000000E+00  0.75106012832E+03  0.75106012832E+03  0.25500000920E-02 0.  1.
       -2   -1    0    0    0  501  0.00000000000E+00  0.00000000000E+00 -0.12669039467E+04  0.12669039467E+04  0.25500000920E-02 0. -1.
    10030    2    1    2    0    0  0.00000000000E+00  0.00000000000E+00 -0.51584381840E+03  0.20179640750E+04  0.19509187997E+04 0.  0.
        4    1    3    3  502    0 -0.81082153527E+03 -0.21245933114E+03 -0.77401654025E+03  0.11409091756E+04  0.12699999809E+01 0. -1.
       -4    1    3    3    0  502  0.81082153527E+03  0.21245933114E+03  0.25817272185E+03  0.87705489945E+03  0.12699999809E+01 0.  1.
</event>
<event>
 5   0  0.1341932E-06  0.2845201E+04  0.7818609E-02  0.8289371E-01
        2   -1    0    0  501    0  0.00000000000E+00  0.00000000000E+00  0.12640103413E+04  0.12640103413E+04  0.25500000920E-02 0.  1.
       -2   -1    0    0    0  501  0.00000000000E+00  0.00000000000E+00 -0.16010884996E+04  0.16010884996E+04  0.25500000920E-02 0. -1.
    10030    2    1    2    0    0  0.00000000000E+00  0.00000000000E+00 -0.33707815825E+03  0.28650988409E+04  0.28452011674E+04 0.  0.
        2    1    3    3  502    0  0.70989724191E+03 -0.11481241113E+04  0.28365518141E+03  0.13793488794E+04  0.25500000920E-02 0.  1.
       -2    1    3    3    0  502 -0.70989724191E+03  0.11481241113E+04 -0.62073333966E+03  0.14857499615E+04  0.25500000920E-02 0. -1.
</event>
<event>
 5   0  0.8030324E-07  0.3767286E+04  0.7818609E-02  0.8053212E-01
       -1   -1    0    0    0  501  0.00000000000E+00  0.00000000000E+00  0.16659375175E+04  0.16659375175E+04  0.50400001928E-02 0. -1.
        1   -1    0    0  501    0  0.00000000000E+00  0.00000000000E+00 -0.21297979097E+04  0.21297979097E+04  0.50400001928E-02 0.  1.
    10030    2    1    2    0    0  0.00000000000E+00  0.00000000000E+00 -0.46386039220E+03  0.37957354273E+04  0.37672856237E+04 0.  0.
        1    1    3    3  502    0 -0.92756706169E+03  0.69931572174E+03  0.12620646532E+04  0.17152930716E+04  0.50400001928E-02 0. -1.
       -1    1    3    3    0  502  0.92756706169E+03 -0.69931572174E+03 -0.17259250454E+04  0.20804423556E+04  0.50400001928E-02 0.  1.
</event>
<event>
 5   0  0.1214844E-06  0.3750369E+04  0.7818609E-02  0.8056890E-01
        2   -1    0    0  501    0  0.00000000000E+00  0.00000000000E+00  0.17468447438E+04  0.17468447438E+04  0.25500000920E-02 0.  1.
       -2   -1    0    0    0  501  0.00000000000E+00  0.00000000000E+00 -0.20129529306E+04  0.20129529306E+04  0.25500000920E-02 0. -1.
    10030    2    1    2    0    0  0.00000000000E+00  0.00000000000E+00 -0.26610818684E+03  0.37597976744E+04  0.37503686466E+04 0.  0.
        4    1    3    3  502    0  0.17705382863E+04  0.29240407443E+03 -0.67848875033E+03  0.19185032091E+04  0.12699999809E+01 0. -1.
       -4    1    3    3    0  502 -0.17705382863E+04 -0.29240407443E+03  0.41238056349E+03  0.18412944653E+04  0.12699999809E+01 0.  1.
</event>
<event>
 5   0  0.5284458E-07  0.3823907E+04  0.7818609E-02  0.8041044E-01
        1   -1    0    0  501    0  0.00000000000E+00  0.00000000000E+00  0.15994199643E+04  0.15994199643E+04  0.50400001928E-02 0. -1.
       -1   -1    0    0    0  501  0.00000000000E+00  0.00000000000E+00 -0.22855574097E+04  0.22855574097E+04  0.50400001928E-02 0.  1.
    10030    2    1    2    0    0  0.00000000000E+00  0.00000000000E+00 -0.68613744539E+03  0.38849773741E+04  0.38239069815E+04 0.  0.
        5    1    3    3  502    0  0.15572129838E+04 -0.10890416387E+04 -0.55767697119E+03  0.19803912901E+04  0.46999998093E+01 0. -1.
       -5    1    3    3    0  502 -0.15572129838E+04  0.10890416387E+04 -0.12846047420E+03  0.19045860840E+04  0.46999998093E+01 0.  1.
</event>
<event>
 5   0  0.1184616E-06  0.3759003E+04  0.7818609E-02  0.8055010E-01
        2   -1    0    0  501    0  0.00000000000E+00  0.00000000000E+00  0.16621717993E+04  0.16621717993E+04  0.25500000920E-02 0. -1.
       -2   -1    0    0    0  501  0.00000000000E+00  0.00000000000E+00 -0.21252477145E+04  0.21252477145E+04  0.25500000920E-02 0.  1.
    10030    2    1    2    0    0  0.00000000000E+00  0.00000000000E+00 -0.46307591525E+03  0.37874195138E+04  0.37590034943E+04 0.  0.
        5    1    3    3  502    0 -0.10210939493E+04  0.12061060980E+03  0.13536720051E+04  0.16998911024E+04  0.46999998093E+01 0. -1.
       -5    1    3    3    0  502  0.10210939493E+04 -0.12061060980E+03 -0.18167479204E+04  0.20875284114E+04  0.46999998093E+01 0.  1.
</event>
<event>
 5   0  0.1184616E-06  0.3545688E+04  0.7818609E-02  0.8103047E-01
       -2   -1    0    0    0  501  0.00000000000E+00  0.00000000000E+00  0.26653959706E+04  0.26653959706E+04  0.25500000920E-02 0.  1.
        2   -1    0    0  501    0  0.00000000000E+00  0.00000000000E+00 -0.11791775983E+04  0.11791775983E+04  0.25500000920E-02 0. -1.
    10030    2    1    2    0    0  0.00000000000E+00  0.00000000000E+00  0.14862183722E+04  0.38445735689E+04  0.35456876451E+04 0.  0.
        5    1    3    3  502    0  0.35619632624E+03  0.39007068752E+03 -0.10918580201E+04  0.12129332175E+04  0.46999998093E+01 0. -1.
       -5    1    3    3    0  502 -0.35619632624E+03 -0.39007068752E+03  0.25780763924E+04  0.26316403514E+04  0.46999998093E+01 0.  1.
</event>
<event>
 5   0  0.1372748E-06  0.3744787E+04  0.7818609E-02  0.8058108E-01
        2   -1    0    0  501    0  0.00000000000E+00  0.00000000000E+00  0.20414169788E+04  0.20414169788E+04  0.25500000920E-02 0.  1.
       -2   -1    0    0    0  501  0.00000000000E+00  0.00000000000E+00 -0.17173646189E+04  0.17173646189E+04  0.25500000920E-02 0. -1.
    10030    2    1    2    0    0  0.00000000000E+00  0.00000000000E+00  0.32405235993E+03  0.37587815977E+04  0.37447869322E+04 0.  0.
        1    1    3    3  502    0  0.27608471304E+03 -0.16042234879E+04  0.10907415100E+04  0.19594572743E+04  0.50400001928E-02 0.  1.
       -1    1    3    3    0  502 -0.27608471304E+03  0.16042234879E+04 -0.76668915011E+03  0.17993243234E+04  0.50400001928E-02 0. -1.
</event>
<event>
 5   0  0.4255250E-07  0.1966752E+04  0.7818609E-02  0.8622325E-01
        1   -1    0    0  501    0  0.00000000000E+00  0.00000000000E+00  0.11448220133E+04  0.11448220133E+04  0.50400001928E-02 0. -1.
       -1   -1    0    0    0  501  0.00000000000E+00  0.00000000000E+00 -0.84469715236E+03  0.84469715237E+03  0.50400001928E-02 0.  1.
    10030    2    1    2    0    0  0.00000000000E+00  0.00000000000E+00  0.30012486092E+03  0.19895191657E+04  0.19667515294E+04 0.  0.
        2    1    3    3  502    0  0.15365389519E+03 -0.17371722344E+03 -0.81663654896E+03  0.84893017754E+03  0.25500000920E-02 0.  1.
       -2    1    3    3    0  502 -0.15365389519E+03  0.17371722344E+03  0.11167614099E+04  0.11405889881E+04  0.25500000920E-02 0. -1.
</event>
<event>
 5   0  0.5284458E-07  0.2366247E+04  0.7818609E-02  0.8452249E-01
       -1   -1    0    0    0  501  0.00000000000E+00  0.00000000000E+00  0.13405803879E+04  0.13405803879E+04  0.50400001928E-02 0. -1.
        1   -1    0    0  501    0  0.00000000000E+00  0.00000000000E+00 -0.10441606608E+04  0.10441606608E+04  0.50400001928E-02 0.  1.
    10030    2    1    2    0    0  0.00000000000E+00  0.00000000000E+00  0.29641972709E+03  0.23847410488E+04  0.23662470740E+04 0.  0.
        5    1    3    3  502    0  0.75071120034E+03 -0.90981903823E+03  0.24069432572E+03  0.12038662040E+04  0.46999998093E+01 0. -1.
       -5    1    3    3    0  502 -0.75071120034E+03  0.90981903823E+03  0.55725401368E+02  0.11808748448E+04  0.46999998093E+01 0.  1.
</event>
<event>
 5   0  0.5284458E-07  0.3811889E+04  0.7818609E-02  0.8043608E-01
       -1   -1    0    0    0  501  0.00000000000E+00  0.00000000000E+00  0.18667289561E+04  0.18667289561E+04  0.50400001928E-02 0.  1.
        1   -1    0    0  501    0  0.00000000000E+00  0.00000000000E+00 -0.19459836316E+04  0.19459836316E+04  0.50400001928E-02 0. -1.
    10030    2    1    2    0    0  0.00000000000E+00  0.00000000000E+00 -0.79254675465E+02  0.38127125877E+04  0.38118887671E+04 0.  0.
        5    1    3    3  502    0  0.10330002563E+04  0.10671538509E+04 -0.12343288778E+04  0.19311904980E+04  0.46999998093E+01 0. -1.
       -5    1    3    3    0  502 -0.10330002563E+04 -0.10671538509E+04  0.11550742023E+04  0.18815220897E+04  0.46999998093E+01 0.  1.
</event>
<event>
 5   0  0.1214844E-06  0.2428374E+04  0.7818609E-02  0.8428957E-01
       -2   -1    0    0    0  501  0.00000000000E+00  0.00000000000E+00  0.58092338328E+03  0.58092338328E+03  0.25500000920E-02 0. -1.
        2   -1    0    0  501    0  0.00000000000E+00  0.00000000000E+00 -0.25377692455E+04  0.25377692455E+04  0.25500000920E-02 0.  1.
    10030    2    1    2    0    0  0.00000000000E+00  0.00000000000E+00 -0.19568458622E+04  0.31186926288E+04  0.24283735265E+04 0.  0.
        4    1    3    3  502    0  0.25055215138E+03  0.64681193962E+03  0.30141461596E+03  0.75630314650E+03  0.12699999809E+01 0. -1.
       -4    1    3    3    0  502 -0.25055215138E+03 -0.64681193962E+03 -0.22582604782E+04  0.23623894823E+04  0.12699999809E+01 0.  1.
</event>
<event>
 5   0  0.8030324E-07  0.3806578E+04  0.7818609E-02  0.8044745E-01
       -1   -1    0    0    0  501  0.00000000000E+00  0.00000000000E+00  0.17687666914E+04  0.17687666915E+04  0.50400001928E-02 0.  1.
        1   -1    0    0  501    0  0.00000000000E+00  0.00000000000E+00 -0.20480419052E+04  0.20480419052E+04  0.50400001928E-02 0. -1.
    10030    2    1    2    0    0  0.00000000000E+00  0.00000000000E+00 -0.27927521377E+03  0.38168085967E+04  0.38065776255E+04 0.  0.
        1    1    3    3  502    0 -0.72031674387E+03 -0.22110637400E+03 -0.18921234877E+04  0.20366333820E+04  0.50400001928E-02 0. -1.
       -1    1    3    3    0  502  0.72031674387E+03  0.22110637400E+03  0.16128482739E+04  0.17801752146E+04  0.50400001928E-02 0.  1.
</event>
<event>
 5   0  0.4970483E-07  0.2130473E+04  0.7818609E-02  0.8547937E-01
       -1   -1    0    0    0  501  0.00000000000E+00  0.00000000000E+00  0.11483812853E+04  0.11483812853E+04  0.50400001928E-02 0. -1.
        1   -1    0    0  501    0  0.00000000000E+00  0.00000000000E+00 -0.98811160573E+03  0.98811160574E+03  0.50400001928E-02 0.  1.
    10030    2    1    2    0    0  0.00000000000E+00  0.00000000000E+00  0.16026967954E+03  0.21364928910E+04  0.21304730703E+04 0.  0.
        2    1    3    3  502    0  0.16856100024E+03  0.71255501376E+03  0.85600137145E+03  0.11264483150E+04  0.25500000920E-02 0.  1.
       -2    1    3    3    0  502 -0.16856100024E+03 -0.71255501376E+03 -0.69573169191E+03  0.10100445760E+04  0.25500000920E-02 0. -1.
</event>
<event>
 5   0  0.1337854E-06  0.3593497E+04  0.7818609E-02  0.8091983E-01
        2   -1    0    0  501    0  0.00000000000E+00  0.00000000000E+00  0.16868320517E+04  0.16868320517E+04  0.25500000920E-02 0. -1.
       -2   -1    0    0    0  501  0.00000000000E+00  0.00000000000E+00 -0.19138271386E+04  0.19138271386E+04  0.25500000920E-02 0.  1.
    10030    2    1    2    0    0  0.00000000000E+00  0.00000000000E+00 -0.22699508693E+03  0.36006591903E+04  0.35934968812E+04 0.  0.
        3    1    3    3  502    0  0.46986919835E+03 -0.17011036701E+04  0.22447904484E+03  0.17790226563E+04  0.10100000352E+00 0. -1.
       -3    1    3    3    0  502 -0.46986919835E+03  0.17011036701E+04 -0.45147413177E+03  0.18216365340E+04  0.10100000352E+00 0.  1.
</event>
<event>
 5   0  0.1214844E-06  0.3987631E+04  0.7818609E-02  0.8007046E-01
        2   -1    0    0  501    0  0.00000000000E+00  0.00000000000E+00  0.14104515475E+04  0.14104515475E+04  0.25500000920E-02 0. -1.
       -2   -1    0    0    0  501  0.00000000000E+00  0.00000000000E+00 -0.28184597759E+04  0.28184597759E+04  0.25500000920E-02 0.  1.
    10030    2    1    2    0    0  0.00000000000E+00  0.00000000000E+00 -0.14080082284E+04  0.42289113235E+04  0.39876313534E+04 0.  0.
        4    1    3    3  502    0 -0.17852714341E+04  0.80859786700E+03 -0.10926112127E+04  0.22438416787E+04  0.12699999809E+01 0. -1.
       -4    1    3    3    0  502  0.17852714341E+04 -0.80859786700E+03 -0.31539701569E+03  0.19850696447E+04  0.12699999809E+01 0.  1.
</event>
<event>
 5   0  0.1372748E-06  0.3274874E+04  0.7818609E-02  0.8169318E-01
       -2   -1    0    0    0  501  0.00000000000E+00  0.00000000000E+00  0.24614510556E+04  0.24614510556E+04  0.25500000920E-02 0.  1.
        2   -1    0    0  501    0  0.00000000000E+00  0.00000000000E+00 -0.10892764165E+04  0.10892764165E+04  0.25500000920E-02 0. -1.
    10030    2    1    2    0    0  0.00000000000E+00  0.00000000000E+00  0.13721746390E+04  0.35507274721E+04  0.32748744008E+04 0.  0.
        1    1    3    3  502    0 -0.79960954225E+03  0.14028387566E+04  0.98076862914E+03  0.18892429968E+04  0.50400001928E-02 0.  1.
       -1    1    3    3    0  502  0.79960954225E+03 -0.14028387566E+04  0.39140600991E+03  0.16614844753E+04  0.50400001928E-02 0. -1.
</event>
<event>
 5   0  0.1337854E-06  0.4418372E+04  0.7818609E-02  0.7925085E-01
        2   -1    0    0  501    0  0.00000000000E+00  0.00000000000E+00  0.22337605184E+04  0.22337605184E+04  0.25500000920E-02 0.  1.
       -2   -1    0    0    0  501  0.00000000000E+00  0.00000000000E+00 -0.21848822765E+04  0.21848822765E+04  0.25500000920E-02 0. -1.
    10030    2    1    2    0    0  0.00000000000E+00  0.00000000000E+00  0.48878241894E+02  0.44186427949E+04  0.44183724455E+04 0.  0.
        3    1    3    3  502    0  0.60307081853E+03  0.27391012421E+03  0.21321217746E+04  0.22326362087E+04  0.10100000352E+00 0.  1.
       -3    1    3    3    0  502 -0.60307081853E+03 -0.27391012421E+03 -0.20832435327E+04  0.21860065863E+04  0.10100000352E+00 0. -1.
</event>
<event>
 5   0  0.1079205E-06  0.3017631E+04  0.7818609E-02  0.8238714E-01
        1   -1    0    0  501    0  0.00000000000E+00  0.00000000000E+00  0.24519530630E+04  0.24519530631E+04  0.50400001928E-02 0.  1.
       -1   -1    0    0    0  501  0.00000000000E+00  0.00000000000E+00 -0.92845321758E+03  0.92845321759E+03  0.50400001928E-02 0. -1.
    10030    2    1    2    0    0  0.00000000000E+00  0.00000000000E+00  0.15234998455E+04  0.33804062806E+04  0.30176306671E+04 0.  0.
        4    1    3    3  502    0  0.56871558669E+03  0.11919630680E+04 -0.55555926721E+02  0.13218553052E+04  0.12699999809E+01 0. -1.
       -4    1    3    3    0  502 -0.56871558669E+03 -0.11919630680E+04  0.15790557722E+04  0.20585509755E+04  0.12699999809E+01 0.  1.
</event>
<event>
 5   0  0.4795023E-07  0.3293552E+04  0.7818609E-02  0.8164538E-01
       -1   -1    0    0    0  501  0.00000000000E+00  0.00000000000E+00  0.13322141286E+04  0.13322141286E+04  0.50400001928E-02 0. -1.
        1   -1    0    0  501    0  0.00000000000E+00  0.00000000000E+00 -0.20356123600E+04  0.20356123600E+04  0.50400001928E-02 0.  1.
    10030    2    1    2    0    0  0.00000000000E+00  0.00000000000E+00 -0.70339823134E+03  0.33678264886E+04  0.32935522139E+04 0.  0.
        3    1    3    3  502    0 -0.22250526780E+03  0.67561612991E+03 -0.18704223447E+04  0.20011110681E+04  0.10100000352E+00 0.  1.
       -3    1    3    3    0  502  0.22250526780E+03 -0.67561612991E+03  0.11670241134E+04  0.13667154205E+04  0.10100000352E+00 0. -1.
</event>
<event>
 5   0  0.1214844E-06  0.3207046E+04  0.7818609E-02  0.8186959E-01
        2   -1    0    0  501    0  0.00000000000E+00  0.00000000000E+00  0.18715445860E+04  0.18715445860E+04  0.25500000920E-02 0. -1.
       -2   -1    0    0    0  501  0.00000000000E+00  0.00000000000E+00 -0.13738841762E+04  0.13738841762E+04  0.25500000920E-02 0.  1.
    10030    2    1    2    0    0  0.00000000000E+00  0.00000000000E+00  0.49766040981E+03  0.32454287621E+04  0.32070456758E+04 0.  0.
        4    1    3    3  502    0 -0.11120954702E+04  0.94799160895E+03 -0.41925246439E+03  0.15202692746E+04  0.12699999809E+01 0. -1.
       -4    1    3    3    0  502  0.11120954702E+04 -0.94799160895E+03  0.91691287419E+03  0.17251594875E+04  0.12699999809E+01 0.  1.
</event>
<event>
 5   0  0.1372748E-06  0.3702512E+04  0.7818609E-02  0.8067405E-01
       -2   -1    0    0    0  501  0.00000000000E+00  0.00000000000E+00  0.25871592978E+04  0.25871592978E+04  0.25500000920E-02 0. -1.
        2   -1    0    0  501    0  0.00000000000E+00  0.00000000000E+00 -0.13246763523E+04  0.13246763523E+04  0.25500000920E-02 0.  1.
    10030    2    1    2    0    0  0.00000000000E+00  0.00000000000E+00  0.12624829455E+04  0.39118356502E+04  0.37025119806E+04 0.  0.
        1    1    3    3  502    0  0.98267275220E+03 -0.33656925211E+03  0.22502677672E+04  0.24784328968E+04  0.50400001928E-02 0. -1.
       -1    1    3    3    0  502 -0.98267275220E+03  0.33656925211E+03 -0.98778482174E+03  0.14334027534E+04  0.50400001928E-02 0.  1.
</event>
<event>
 5   0  0.1341932E-06  0.4205624E+04  0.7818609E-02  0.7964303E-01
        2   -1    0    0  501    0  0.00000000000E+00  0.00000000000E+00  0.22629712330E+04  0.22629712330E+04  0.25500000920E-02 0. -1.
       -2   -1    0    0    0  501  0.00000000000E+00  0.00000000000E+00 -0.19539879325E+04  0.19539879325E+04  0.25500000920E-02 0.  1.
    10030    2    1    2    0    0  0.00000000000E+00  0.00000000000E+00  0.30898330044E+03  0.42169591655E+04  0.42056240826E+04 0.  0.
        2    1    3    3  502    0 -0.46610849037E+03 -0.14696332146E+04 -0.12793062682E+04  0.20034229304E+04  0.25500000920E-02 0.  1.
       -2    1    3    3    0  502  0.46610849037E+03  0.14696332146E+04  0.15882895686E+04  0.22135362351E+04  0.25500000920E-02 0. -1.
</event>
<event>
 5   0  0.5284458E-07  0.3650554E+04  0.7818609E-02  0.8079009E-01
        1   -1    0    0  501    0  0.00000000000E+00  0.00000000000E+00  0.15969922538E+04  0.15969922538E+04  0.50400001928E-02 0. -1.
       -1   -1    0    0    0  501  0.00000000000E+00  0.00000000000E+00 -0.20861939111E+04  0.20861939111E+04  0.50400001928E-02 0.  1.
    10030    2    1    2    0    0  0.00000000000E+00  0.00000000000E+00 -0.48920165725E+03  0.36831861649E+04  0.36505536654E+04 0.  0.
        5    1    3    3  502    0  0.41371558336E+03 -0.12071934152E+04 -0.15613095515E+04  0.20164786464E+04  0.46999998093E+01 0.  1.
       -5    1    3    3    0  502 -0.41371558336E+03  0.12071934152E+04  0.10721078943E+04  0.16667075186E+04  0.46999998093E+01 0. -1.
</event>
<event>
 5   0  0.1337854E-06  0.3760373E+04  0.7818609E-02  0.8054713E-01
       -2   -1    0    0    0  501  0.00000000000E+00  0.00000000000E+00  0.18638947957E+04  0.18638947957E+04  0.25500000920E-02 0. -1.
        2   -1    0    0  501    0  0.00000000000E+00  0.00000000000E+00 -0.18966201810E+04  0.18966201810E+04  0.25500000920E-02 0.  1.
    10030    2    1    2    0    0  0.00000000000E+00  0.00000000000E+00 -0.32725385290E+02  0.37605149767E+04  0.37603725798E+04 0.  0.
        3    1    3    3  502    0 -0.11643866194E+03 -0.10944257538E+04 -0.15408136684E+04  0.18935238218E+04  0.10100000352E+00 0.  1.
       -3    1    3    3    0  502  0.11643866194E+03  0.10944257538E+04  0.15080882832E+04  0.18669911549E+04  0.10100000352E+00 0. -1.
</event>
<event>
 5   0  0.1184616E-06  0.3429911E+04  0.7818609E-02  0.8130604E-01
       -2   -1    0    0    0  501  0.00000000000E+00  0.00000000000E+00  0.20611246241E+04  0.20611246241E+04  0.25500000920E-02 0. -1.
        2   -1    0    0  501    0  0.00000000000E+00  0.00000000000E+00 -0.14269256309E+04  0.14269256309E+04  0.25500000920E-02 0.  1.
    10030    2    1    2    0    0  0.00000000000E+00  0.00000000000E+00  0.63419899320E+03  0.34880502549E+04  0.34299105262E+04 0.  0.
        5    1    3    3  502    0 -0.56945236040E+03  0.10545114519E+04  0.15645873155E+04  0.19708439692E+04  0.46999998093E+01 0. -1.
       -5    1    3    3    0  502  0.56945236040E+03 -0.10545114519E+04 -0.93038832233E+03  0.15172062857E+04  0.46999998093E+01 0.  1.
</event>
<event>
 5   0  0.1372748E-06  0.3833632E+04  0.7818609E-02  0.8038976E-01
       -2   -1    0    0    0  501  0.00000000000E+00  0.00000000000E+00  0.18629487245E+04  0.18629487245E+04  0.25500000920E-02 0. -1.
        2   -1    0    0  501    0  0.00000000000E+00  0.00000000000E+00 -0.19722405611E+04  0.19722405611E+04  0.25500000920E-02 0.  1.
    10030    2    1    2    0    0  0.00000000000E+00  0.00000000000E+00 -0.10929183661E+03  0.38351892855E+04  0.38336317181E+04 0.  0.
        1    1    3    3  502    0 -0.28566852140E+03  0.16557606209E+03  0.18342846443E+04  0.18637655681E+04  0.50400001928E-02 0. -1.
       -1    1    3    3    0  502  0.28566852140E+03 -0.16557606209E+03 -0.19435764809E+04  0.19714237174E+04  0.50400001928E-02 0.  1.
</event>
<event>
 5   0  0.5284458E-07  0.2278560E+04  0.7818609E-02  0.8486423E-01
        1   -1    0    0  501    0  0.00000000000E+00  0.00000000000E+00  0.20107001863E+04  0.20107001863E+04  0.50400001928E-02 0.  1.
       -1   -1    0    0    0  501  0.00000000000E+00  0.00000000000E+00 -0.64552569045E+03  0.64552569047E+03  0.50400001928E-02 0. -1.
    10030    2    1    2    0    0  0.00000000000E+00  0.00000000000E+00  0.13651744958E+04  0.26562258768E+04  0.22785597434E+04 0.  0.
        5    1    3    3  502    0  0.11354074399E+04  0.40328098793E+02  0.78122994011E+03  0.13788106177E+04  0.46999998093E+01 0.  1.
       -5    1    3    3    0  502 -0.11354074399E+04 -0.40328098793E+02  0.58394455574E+03  0.12774152591E+04  0.46999998093E+01 0. -1.
</event>
<event>
 5   0  0.8030324E-07  0.2855261E+04  0.7818609E-02  0.8286315E-01
        1   -1    0    0  501    0  0.00000000000E+00  0.00000000000E+00  0.18994391836E+04  0.18994391836E+04  0.50400001928E-02 0. -1.
       -1   -1    0    0    0  501  0.00000000000E+00  0.00000000000E+00 -0.10730157461E+04  0.10730157461E+04  0.50400001928E-02 0.  1.
    10030    2    1    2    0    0  0.00000000000E+00  0.00000000000E+00  0.82642343751E+03  0.29724549298E+04  0.28552605155E+04 0.  0.
        1    1    3    3  502    0  0.11442048495E+03  0.64179277403E+03 -0.90901314163E+03  0.11186129375E+04  0.50400001928E-02 0.  1.
       -1    1    3    3    0  502 -0.11442048495E+03 -0.64179277403E+03  0.17354365791E+04  0.18538419923E+04  0.50400001928E-02 0. -1.
</event>
<event>
 5   0  0.5284458E-07  0.2324214E+04  0.7818609E-02  0.8468435E-01
       -1   -1    0    0    0  501  0.00000000000E+00  0.00000000000E+00  0.21305159693E+04  0.21305159693E+04  0.50400001928E-02 0. -1.
        1   -1    0    0  501    0  0.00000000000E+00  0.00000000000E+00 -0.63388038118E+03  0.63388038120E+03  0.50400001928E-02 0.  1.
    10030    2    1    2    0    0  0.00000000000E+00  0.00000000000E+00  0.14966355881E+04  0.27643963505E+04  0.23242136518E+04 0.  0.
        5    1    3    3  502    0  0.73207895980E+03  0.79512846429E+02 -0.32094858916E+03  0.80330068033E+03  0.46999998093E+01 0.  1.
       -5    1    3    3    0  502 -0.73207895980E+03 -0.79512846429E+02  0.18175841773E+04  0.19610956702E+04  0.46999998093E+01 0. -1.
</event>
<event>
 5   0  0.1214844E-06  0.3789706E+04  0.7818609E-02  0.8048368E-01
       -2   -1    0    0    0  501  0.00000000000E+00  0.00000000000E+00  0.18418940650E+04  0.18418940650E+04  0.25500000920E-02 0.  1.
        2   -1    0    0  501    0  0.00000000000E+00  0.00000000000E+00 -0.19493347089E+04  0.19493347089E+04  0.25500000920E-02 0. -1.
    10030    2    1    2    0    0  0.00000000000E+00  0.00000000000E+00 -0.10744064388E+03  0.37912287739E+04  0.37897060736E+04 0.  0.
        4    1    3    3  502    0  0.29638738701E+03  0.11966141362E+04  0.13858629224E+04  0.18548176533E+04  0.12699999809E+01 0.  1.
       -4    1    3    3    0  502 -0.29638738701E+03 -0.11966141362E+04 -0.14933035663E+04  0.19364111207E+04  0.12699999809E+01 0. -1.
</event>
<event>
 5   0  0.1184616E-06  0.2119688E+04  0.7818609E-02  0.8552620E-01
        2   -1    0    0  501    0  0.00000000000E+00  0.00000000000E+00  0.13829789395E+04  0.13829789395E+04  0.25500000920E-02 0. -1.
       -2   -1    0    0    0  501  0.00000000000E+00  0.00000000000E+00 -0.81220987485E+03  0.81220987485E+03  0.25500000920E-02 0.  1.
    10030    2    1    2    0    0  0.00000000000E+00  0.00000000000E+00  0.57076906464E+03  0.21951888143E+04  0.21196878557E+04 0.  0.
        5    1    3    3  502    0  0.61222994441E+03 -0.26721964114E+03  0.11375014456E+04  0.13191525576E+04  0.46999998093E+01 0. -1.
       -5    1    3    3    0  502 -0.61222994441E+03  0.26721964114E+03 -0.56673238099E+03  0.87603625673E+03  0.46999998093E+01 0.  1.
</event>
<event>
 5   0  0.1341932E-06  0.3947563E+04  0.7818609E-02  0.8015209E-01
        2   -1    0    0  501    0  0.00000000000E+00  0.00000000000E+00  0.19828226610E+04  0.19828226610E+04  0.25500000920E-02 0.  1.
       -2   -1    0    0    0  501  0.00000000000E+00  0.00000000000E+00 -0.19647819585E+04  0.19647819585E+04  0.25500000920E-02 0. -1.
    10030    2    1    2    0    0  0.00000000000E+00  0.00000000000E+00  0.18040702468E+02  0.39476046196E+04  0.39475633960E+04 0.  0.
        2    1    3    3  502    0  0.14017168375E+04 -0.10204378184E+04  0.95227500399E+03  0.19781130192E+04  0.25500000920E-02 0.  1.
       -2    1    3    3    0  502 -0.14017168375E+04  0.10204378184E+04 -0.93423430152E+03  0.19694916003E+04  0.25500000920E-02 0. -1.
</event>
<event>
 5   0  0.1337854E-06  0.3909224E+04  0.7818609E-02  0.8023113E-01
        2   -1    0    0  501    0  0.00000000000E+00  0.00000000000E+00  0.29674030101E+04  0.29674030101E+04  0.25500000920E-02 0.  1.
       -2   -1    0    0    0  501  0.00000000000E+00  0.00000000000E+00 -0.12874922591E+04  0.12874922592E+04  0.25500000920E-02 0. -1.
    10030    2    1    2    0    0  0.00000000000E+00  0.00000000000E+00  0.16799107509E+04  0.42548952692E+04  0.39092241713E+04 0.  0.
        3    1    3    3  502    0 -0.14391892221E+04  0.12428251695E+04  0.13323136357E+04  0.23218397130E+04  0.10100000352E+00 0. -1.
       -3    1    3    3    0  502  0.14391892221E+04 -0.12428251695E+04  0.34759711525E+03  0.19330555562E+04  0.10100000352E+00 0.  1.
</event>
<event>
 5   0  0.1341932E-06  0.3484399E+04  0.7818609E-02  0.8117497E-01
        2   -1    0    0  501    0  0.00000000000E+00  0.00000000000E+00  0.12695373182E+04  0.12695373182E+04  0.25500000920E-02 0. -1.
       -2   -1    0    0    0  501  0.00000000000E+00  0.00000000000E+00 -0.23908383364E+04  0.23908383364E+04  0.25500000920E-02 0.  1.
    10030    2    1    2    0    0  0.00000000000E+00  0.00000000000E+00 -0.11213010182E+04  0.36603756546E+04  0.34843986510E+04 0.  0.
        2    1    3    3  502    0  0.40332474644E+03 -0.16541538463E+04 -0.17272744333E+03  0.17113534317E+04  0.25500000920E-02 0. -1.
       -2    1    3    3    0  502 -0.40332474644E+03  0.16541538463E+04 -0.94857357490E+03  0.19490222229E+04  0.25500000920E-02 0.  1.
</event>
<event>
 5   0  0.1337854E-06  0.3781938E+04  0.7818609E-02  0.8050042E-01
       -2   -1    0    0    0  501  0.00000000000E+00  0.00000000000E+00  0.21233548007E+04  0.21233548007E+04  0.25500000920E-02 0.  1.
        2   -1    0    0  501    0  0.00000000000E+00  0.00000000000E+00 -0.16840157216E+04  0.16840157216E+04  0.25500000920E-02 0. -1.
    10030    2    1    2    0    0  0.00000000000E+00  0.00000000000E+00  0.43933907911E+03  0.38073705222E+04  0.37819375282E+04 0.  0.
        3    1    3    3  502    0 -0.16641053798E+04  0.89789141145E+03  0.23731323270E+03  0.19057211974E+04  0.10100000352E+00 0.  1.
       -3    1    3    3    0  502  0.16641053798E+04 -0.89789141145E+03  0.20202584642E+03  0.19016493248E+04  0.10100000352E+00 0. -1.
</event>
<event>
 5   0  0.1337854E-06  0.3876633E+04  0.7818609E-02  0.8029907E-01
       -2   -1    0    0    0  501  0.00000000000E+00  0.00000000000E+00  0.16070857164E+04  0.16070857164E+04  0.25500000920E-02 0. -1.
        2   -1    0    0  501    0  0.00000000000E+00  0.00000000000E+00 -0.23378154936E+04  0.23378154936E+04  0.25500000920E-02 0.  1.
    10030    2    1    2    0    0  0.00000000000E+00  0.00000000000E+00 -0.73072977718E+03  0.39449012101E+04  0.38766325013E+04 0.  0.
        3    1    3    3  502    0 -0.67216785302E+03 -0.26047006958E+03  0.14656029959E+04  0.16332931248E+04  0.10100000352E+00 0. -1.
       -3    1    3    3    0  502  0.67216785302E+03  0.26047006958E+03 -0.21963327730E+04  0.23116080853E+04  0.10100000352E+00 0.  1.
</event>
<event>
 5   0  0.1214844E-06  0.3728185E+04  0.7818609E-02  0.8061744E-01
        2   -1    0    0  501    0  0.00000000000E+00  0.00000000000E+00  0.13650553499E+04  0.13650553499E+04  0.25500000920E-02 0. -1.
       -2   -1    0    0    0  501  0.00000000000E+00  0.00000000000E+00 -0.25455677690E+04  0.25455677690E+04  0.25500000920E-02 0.  1.
    10030    2    1    2    0    0  0.00000000000E+00  0.00000000000E+00 -0.11805124191E+04  0.39106231188E+04  0.37281850284E+04 0.  0.
        4    1    3    3  502    0  0.95555004380E+03 -0.14423746013E+04  0.13746489232E+03  0.17356320423E+04  0.12699999809E+01 0. -1.
       -4    1    3    3    0  502 -0.95555004380E+03  0.14423746013E+04 -0.13179773114E+04  0.21749910765E+04  0.12699999809E+01 0.  1.
</event>
<event>
 5   0  0.4255250E-07  0.2979646E+04  0.7818609E-02  0.8249567E-01
        3   -1    0    0  501    0  0.00000000000E+00  0.00000000000E+00  0.18082661948E+04  0.18082661977E+04  0.10100000352E+00 0. -1.
       -3   -1    0    0    0  501  0.00000000000E+00  0.00000000000E+00 -0.12274592077E+04  0.12274592119E+04  0.10100000352E+00 0.  1.
    10030    2    1    2    0    0  0.00000000000E+00  0.00000000000E+00  0.58080698712E+03  0.30357254095E+04  0.29796462887E+04 0.  0.
        5    1    3    3  502    0 -0.21633308815E+03 -0.13114541173E+04 -0.39519473530E+03  0.13866913411E+04  0.46999998093E+01 0.  1.
       -5    1    3    3    0  502  0.21633308815E+03  0.13114541173E+04  0.97600172242E+03  0.16490340684E+04  0.46999998093E+01 0. -1.
</event>
<event>
 5   0  0.4255250E-07  0.3320481E+04  0.7818609E-02  0.8157704E-01
        1   -1    0    0  501    0  0.00000000000E+00  0.00000000000E+00  0.25826073740E+04  0.25826073740E+04  0.50400001928E-02 0.  1.
       -1   -1    0    0    0  501  0.00000000000E+00  0.00000000000E+00 -0.10672925967E+04  0.10672925967E+04  0.50400001928E-02 0. -1.
    10030    2    1    2    0    0  0.00000000000E+00  0.00000000000E+00  0.15153147773E+04  0.36498999707E+04  0.33204805257E+04 0.  0.
        2    1    3    3  502    0  0.10352668742E+04  0.12971791400E+04  0.80615363865E+03  0.18450839849E+04  0.25500000920E-02 0. -1.
       -2    1    3    3    0  502 -0.10352668742E+04 -0.12971791400E+04  0.70916113864E+03  0.18048159858E+04  0.25500000920E-02 0.  1.
</event>
<event>
 5   0  0.4255250E-07  0.3315630E+04  0.7818609E-02  0.8158930E-01
        1   -1    0    0  501    0  0.00000000000E+00  0.00000000000E+00  0.24506451227E+04  0.24506451227E+04  0.50400001928E-02 0.  1.
       -1   -1    0    0    0  501  0.00000000000E+00  0.00000000000E+00 -0.11214804985E+04  0.11214804985E+04  0.50400001928E-02 0. -1.
    10030    2    1    2    0    0  0.00000000000E+00  0.00000000000E+00  0.13291646242E+04  0.35721256213E+04  0.33156300843E+04 0.  0.
        2    1    3    3  502    0 -0.15234629148E+04  0.33607633214E+03  0.60430295369E+02  0.15612617892E+04  0.25500000920E-02 0.  1.
       -2    1    3    3    0  502  0.15234629148E+04 -0.33607633214E+03  0.12687343288E+04  0.20108638321E+04  0.25500000920E-02 0. -1.
</event>
<event>
 5   0  0.5284458E-07  0.3342472E+04  0.7818609E-02  0.8152172E-01
        1   -1    0    0  501    0  0.00000000000E+00  0.00000000000E+00  0.26589035138E+04  0.26589035138E+04  0.50400001928E-02 0. -1.
       -1   -1    0    0    0  501  0.00000000000E+00  0.00000000000E+00 -0.10504442122E+04  0.10504442122E+04  0.50400001928E-02 0.  1.
    10030    2    1    2    0    0  0.00000000000E+00  0.00000000000E+00  0.16084593016E+04  0.37093477260E+04  0.33424720234E+04 0.  0.
        5    1    3    3  502    0 -0.13396843868E+04 -0.89098080961E+03  0.30249131530E+03  0.16371084708E+04  0.46999998093E+01 0.  1.
       -5    1    3    3    0  502  0.13396843868E+04  0.89098080961E+03  0.13059679863E+04  0.20722392552E+04  0.46999998093E+01 0. -1.
</event>
<event>
 5   0  0.1372748E-06  0.3782897E+04  0.7818609E-02  0.8049835E-01
       -2   -1    0    0    0  501  0.00000000000E+00  0.00000000000E+00  0.20371897009E+04  0.20371897009E+04  0.25500000920E-02 0.  1.
        2   -1    0    0  501    0  0.00000000000E+00  0.00000000000E+00 -0.17561337376E+04  0.17561337376E+04  0.25500000920E-02 0. -1.
    10030    2    1    2    0    0  0.00000000000E+00  0.00000000000E+00  0.28105596329E+03  0.37933234386E+04  0.37828970717E+04 0.  0.
        1    1    3    3  502    0 -0.96565441925E+03  0.10844915571E+04 -0.10748220999E+04  0.18066136668E+04  0.50400001928E-02 0. -1.
       -1    1    3    3    0  502  0.96565441925E+03 -0.10844915571E+04  0.13558780632E+04  0.19867097717E+04  0.50400001928E-02 0.  1.
</event>
<event>
 5   0  0.5284458E-07  0.3834943E+04  0.7818609E-02  0.8038697E-01
        1   -1    0    0  501    0  0.00000000000E+00  0.00000000000E+00  0.19445194114E+04  0.19445194114E+04  0.50400001928E-02 0. -1.
       -1   -1    0    0    0  501  0.00000000000E+00  0.00000000000E+00 -0.18908000025E+04  0.18908000025E+04  0.50400001928E-02 0.  1.
    10030    2    1    2    0    0  0.00000000000E+00  0.00000000000E+00  0.53719408975E+02  0.38353194139E+04  0.38349431850E+04 0.  0.
        5    1    3    3  502    0 -0.86560904780E+03 -0.63118876395E+03 -0.15635783420E+04  0.18953832333E+04  0.46999998093E+01 0.  1.
       -5    1    3    3    0  502  0.86560904780E+03  0.63118876395E+03  0.16172977510E+04  0.19399361806E+04  0.46999998093E+01 0. -1.
</event>
<event>
 5   0  0.1337854E-06  0.3782804E+04  0.7818609E-02  0.8049855E-01
        2   -1    0    0  501    0  0.00000000000E+00  0.00000000000E+00  0.21673397494E+04  0.21673397494E+04  0.25500000920E-02 0.  1.
       -2   -1    0    0    0  501  0.00000000000E+00  0.00000000000E+00 -0.16505954632E+04  0.16505954632E+04  0.25500000920E-02 0. -1.
    10030    2    1    2    0    0  0.00000000000E+00  0.00000000000E+00  0.51674428621E+03  0.38179352126E+04  0.37828038054E+04 0.  0.
        3    1    3    3  502    0 -0.87921233056E+03  0.11987646700E+04 -0.92182510912E+03  0.17492320024E+04  0.10100000352E+00 0. -1.
       -3    1    3    3    0  502  0.87921233056E+03 -0.11987646700E+04  0.14385693953E+04  0.20687032102E+04  0.10100000352E+00 0.  1.
</event>
<event>
 5   0  0.4795023E-07  0.2116393E+04  0.7818609E-02  0.8554056E-01
        1   -1    0    0  501    0  0.00000000000E+00  0.00000000000E+00  0.78867287569E+03  0.78867287570E+03  0.50400001928E-02 0. -1.
       -1   -1    0    0    0  501  0.00000000000E+00  0.00000000000E+00 -0.14198278339E+04  0.14198278339E+04  0.50400001928E-02 0.  1.
    10030    2    1    2    0    0  0.00000000000E+00  0.00000000000E+00 -0.63115495819E+03  0.22085007096E+04  0.21163928754E+04 0.  0.
        3    1    3    3  502    0 -0.91903102120E+03 -0.18676859876E+03 -0.82709357899E+03  0.12504336552E+04  0.10100000352E+00 0.  1.
       -3    1    3    3    0  502  0.91903102120E+03  0.18676859876E+03  0.19593862081E+03  0.95806705440E+03  0.10100000352E+00 0. -1.
</event>
<event>
 5   0  0.1214844E-06  0.3764096E+04  0.7818609E-02  0.8053904E-01
        2   -1    0    0  501    0  0.00000000000E+00  0.00000000000E+00  0.22130741165E+04  0.22130741165E+04  0.25500000920E-02 0. -1.
       -2   -1    0    0    0  501  0.00000000000E+00  0.00000000000E+00 -0.16005358768E+04  0.16005358768E+04  0.25500000920E-02 0.  1.
    10030    2    1    2    0    0  0.00000000000E+00  0.00000000000E+00  0.61253823964E+03  0.38136099933E+04  0.37640959188E+04 0.  0.
        4    1    3    3  502    0 -0.52136173579E+02  0.18479707559E+04  0.66359646919E+03  0.19641985597E+04  0.12699999809E+01 0.  1.
       -4    1    3    3    0  502  0.52136173579E+02 -0.18479707559E+04 -0.51058229556E+02  0.18494114336E+04  0.12699999809E+01 0. -1.
</event>
<event>
 5   0  0.1214844E-06  0.2531658E+04  0.7818609E-02  0.8391793E-01
        2   -1    0    0  501    0  0.00000000000E+00  0.00000000000E+00  0.12561071476E+04  0.12561071476E+04  0.25500000920E-02 0. -1.
       -2   -1    0    0    0  501  0.00000000000E+00  0.00000000000E+00 -0.12756264302E+04  0.12756264302E+04  0.25500000920E-02 0.  1.
    10030    2    1    2    0    0  0.00000000000E+00  0.00000000000E+00 -0.19519282641E+02  0.25317335778E+04  0.25316583313E+04 0.  0.
        4    1    3    3  502    0 -0.29620837832E+03 -0.12000128538E+04 -0.28280916598E+03  0.12679719594E+04  0.12699999809E+01 0.  1.
       -4    1    3    3    0  502  0.29620837832E+03  0.12000128538E+04  0.26328988334E+03  0.12637616184E+04  0.12699999809E+01 0. -1.
</event>
<event>
 5   0  0.5284458E-07  0.2079214E+04  0.7818609E-02  0.8570455E-01
       -1   -1    0    0    0  501  0.00000000000E+00  0.00000000000E+00  0.73786134438E+03  0.73786134439E+03  0.50400001928E-02 0.  1.
        1   -1    0    0  501    0  0.00000000000E+00  0.00000000000E+00 -0.14647509707E+04  0.14647509707E+04  0.50400001928E-02 0. -1.
    10030    2    1    2    0    0  0.00000000000E+00  0.00000000000E+00 -0.72688962635E+03  0.22026123151E+04  0.20792143906E+04 0.  0.
        5    1    3    3  502    0  0.39233603032E+03 -0.18819120703E+03  0.63673797870E+03  0.77123332047E+03  0.46999998093E+01 0.  1.
       -5    1    3    3    0  502 -0.39233603032E+03  0.18819120703E+03 -0.13636276051E+04  0.14313789947E+04  0.46999998093E+01 0. -1.
</event>
<event>
 5   0  0.4255250E-07  0.3721375E+04  0.7818609E-02  0.8063241E-01
       -1   -1    0    0    0  501  0.00000000000E+00  0.00000000000E+00  0.15773385444E+04  0.15773385444E+04  0.50400001928E-02 0.  1.
        1   -1    0    0  501    0  0.00000000000E+00  0.00000000000E+00 -0.21949365669E+04  0.21949365669E+04  0.50400001928E-02 0. -1.
    10030    2    1    2    0    0  0.00000000000E+00  0.00000000000E+00 -0.61759802249E+03  0.37722751113E+04  0.37213750413E+04 0.  0.
        2    1    3    3  502    0  0.57300796891E+03  0.12384035442E+03  0.14812776973E+04  0.15930656554E+04  0.25500000920E-02 0.  1.
       -2    1    3    3    0  502 -0.57300796891E+03 -0.12384035442E+03 -0.20988757198E+04  0.21792094559E+04  0.25500000920E-02 0. -1.
</event>
<event>
 5   0  0.1214844E-06  0.3788592E+04  0.7818609E-02  0.8048608E-01
        2   -1    0    0  501    0  0.00000000000E+00  0.00000000000E+00  0.19976229121E+04  0.19976229121E+04  0.25500000920E-02 0.  1.
       -2   -1    0    0    0  501  0.00000000000E+00  0.00000000000E+00 -0.17963132446E+04  0.17963132446E+04  0.25500000920E-02 0. -1.
    10030    2    1    2    0    0  0.00000000000E+00  0.00000000000E+00  0.20130966747E+03  0.37939361567E+04  0.37885915560E+04 0.  0.
        4    1    3    3  502    0  0.44975526106E+03  0.14583234783E+04  0.12244534939E+04  0.19565978468E+04  0.12699999809E+01 0.  1.
       -4    1    3    3    0  502 -0.44975526106E+03 -0.14583234783E+04 -0.10231438265E+04  0.18373383099E+04  0.12699999809E+01 0. -1.
</event>
<event>
 5   0  0.5284458E-07  0.3566091E+04  0.7818609E-02  0.8098303E-01
       -1   -1    0    0    0  501  0.00000000000E+00  0.00000000000E+00  0.14077946825E+04  0.14077946825E+04  0.50400001928E-02 0. -1.
        1   -1    0    0  501    0  0.00000000000E+00  0.00000000000E+00 -0.22583201771E+04  0.22583201771E+04  0.50400001928E-02 0.  1.
    10030    2    1    2    0    0  0.00000000000E+00  0.00000000000E+00 -0.85052549464E+03  0.36661148596E+04  0.35660909336E+04 0.  0.
        5    1    3    3  502    0 -0.14618871806E+04  0.52365049371E+03  0.47561824503E+03  0.16240562716E+04  0.46999998093E+01 0. -1.
       -5    1    3    3    0  502  0.14618871806E+04 -0.52365049371E+03 -0.13261437397E+04  0.20420585880E+04  0.46999998093E+01 0.  1.
</event>
<event>
 5   0  0.1341932E-06  0.3841955E+04  0.7818609E-02  0.8037211E-01
        2   -1    0    0  501    0  0.00000000000E+00  0.00000000000E+00  0.15760501621E+04  0.15760501621E+04  0.25500000920E-02 0. -1.
       -2   -1    0    0    0  501  0.00000000000E+00  0.00000000000E+00 -0.23413940602E+04  0.23413940602E+04  0.25500000920E-02 0.  1.
    10030    2    1    2    0    0  0.00000000000E+00  0.00000000000E+00 -0.76534389813E+03  0.39174442223E+04  0.38419549649E+04 0.  0.
        2    1    3    3  502    0 -0.17551873853E+04  0.56074561908E+02 -0.11766420346E+04  0.21138385916E+04  0.25500000920E-02 0. -1.
       -2    1    3    3    0  502  0.17551873853E+04 -0.56074561908E+02  0.41129813647E+03  0.18036056307E+04  0.25500000920E-02 0.  1.
</event>
<event>
 5   0  0.1434776E-06  0.1917822E+04  0.7818609E-02  0.8646036E-01
       -2   -1    0    0    0  501  0.00000000000E+00  0.00000000000E+00  0.69950276928E+03  0.69950276928E+03  0.25500000920E-02 0. -1.
        2   -1    0    0  501    0  0.00000000000E+00  0.00000000000E+00 -0.13145192348E+04  0.13145192348E+04  0.25500000920E-02 0.  1.
    10030    2    1    2    0    0  0.00000000000E+00  0.00000000000E+00 -0.61501646552E+03  0.20140220041E+04  0.19178215193E+04 0.  0.
        4    1    3    3  502    0  0.30570701550E+03  0.10901219736E+02  0.64688715545E+03  0.71556985732E+03  0.12699999809E+01 0. -1.
       -4    1    3    3    0  502 -0.30570701550E+03 -0.10901219736E+02 -0.12619036210E+04  0.12984521468E+04  0.12699999809E+01 0.  1.
</event>
<event>
 5   0  0.4255250E-07  0.3393051E+04  0.7818609E-02  0.8139614E-01
       -1   -1    0    0    0  501  0.00000000000E+00  0.00000000000E+00  0.12204540587E+04  0.12204540587E+04  0.50400001928E-02 0. -1.
        1   -1    0    0  501    0  0.00000000000E+00  0.00000000000E+00 -0.23583011842E+04  0.23583011843E+04  0.50400001928E-02 0.  1.
    10030    2    1    2    0    0  0.00000000000E+00  0.00000000000E+00 -0.11378471255E+04  0.35787552430E+04  0.33930506934E+04 0.  0.
        2    1    3    3  502    0 -0.42559564839E+02  0.10586424551E+04  0.82860997316E+03  0.13450389035E+04  0.25500000920E-02 0. -1.
       -2    1    3    3    0  502  0.42559564839E+02 -0.10586424551E+04 -0.19664570987E+04  0.22337163395E+04  0.25500000920E-02 0.  1.
</event>
<event>
 5   0  0.1341932E-06  0.2096658E+04  0.7818609E-02  0.8562717E-01
       -2   -1    0    0    0  501  0.00000000000E+00  0.00000000000E+00  0.14797211985E+04  0.14797211985E+04  0.25500000920E-02 0.  1.
        2   -1    0    0  501    0  0.00000000000E+00  0.00000000000E+00 -0.74270329359E+03  0.74270329359E+03  0.25500000920E-02 0. -1.
    10030    2    1    2    0    0  0.00000000000E+00  0.00000000000E+00  0.73701790490E+03  0.22224244921E+04  0.20966581102E+04 0.  0.
        2    1    3    3  502    0 -0.97803055914E+02  0.72108515768E+03  0.11684035230E+04  0.13764795803E+04  0.25500000920E-02 0.  1.
       -2    1    3    3    0  502  0.97803055914E+02 -0.72108515768E+03 -0.43138561806E+03  0.84594491183E+03  0.25500000920E-02 0. -1.
</event>
<event>
 5   0  0.1337854E-06  0.1955251E+04  0.7818609E-02  0.8627833E-01
        2   -1    0    0  501    0  0.00000000000E+00  0.00000000000E+00  0.14078190742E+04  0.14078190742E+04  0.25500000920E-02 0. -1.
       -2   -1    0    0    0  501  0.00000000000E+00  0.00000000000E+00 -0.67888806963E+03  0.67888806963E+03  0.25500000920E-02 0.  1.
    10030    2    1    2    0    0  0.00000000000E+00  0.00000000000E+00  0.72893100456E+03  0.20867071438E+04  0.19552509544E+04 0.  0.
        3    1    3    3  502    0  0.83850992388E+03  0.50116366094E+03  0.32330219585E+03  0.10289743571E+04  0.10100000352E+00 0.  1.
       -3    1    3    3    0  502 -0.83850992388E+03 -0.50116366094E+03  0.40562880872E+03  0.10577327867E+04  0.10100000352E+00 0. -1.
</event>
<event>
 5   0  0.1184616E-06  0.2030189E+04  0.7818609E-02  0.8592635E-01
       -2   -1    0    0    0  501  0.00000000000E+00  0.00000000000E+00  0.68111877205E+03  0.68111877205E+03  0.25500000920E-02 0. -1.
        2   -1    0    0  501    0  0.00000000000E+00  0.00000000000E+00 -0.15128300728E+04  0.15128300728E+04  0.25500000920E-02 0.  1.
    10030    2    1    2    0    0  0.00000000000E+00  0.00000000000E+00 -0.83171130075E+03  0.21939488449E+04  0.20301891158E+04 0.  0.
        5    1    3    3  502    0 -0.39899590038E+03 -0.62696796220E+02  0.59053414904E+03  0.71545879543E+03  0.46999998093E+01 0. -1.
       -5    1    3    3    0  502  0.39899590038E+03  0.62696796220E+02 -0.14222454498E+04  0.14784900494E+04  0.46999998093E+01 0.  1.
</event>
<event>
 5   0  0.4255250E-07  0.3886439E+04  0.7818609E-02  0.8027856E-01
        1   -1    0    0  501    0  0.00000000000E+00  0.00000000000E+00  0.22226512653E+04  0.22226512653E+04  0.50400001928E-02 0. -1.
       -1   -1    0    0    0  501  0.00000000000E+00  0.00000000000E+00 -0.16989177354E+04  0.16989177354E+04  0.50400001928E-02 0.  1.
    10030    2    1    2    0    0  0.00000000000E+00  0.00000000000E+00  0.52373352994E+03  0.39215690007E+04  0.38864388091E+04 0.  0.
        2    1    3    3  502    0  0.56574085109E+03  0.18587017434E+04  0.29778023274E+03  0.19655808171E+04  0.25500000920E-02 0. -1.
       -2    1    3    3    0  502 -0.56574085109E+03 -0.18587017434E+04  0.22595329720E+03  0.19559881836E+04  0.25500000920E-02 0.  1.
</event>
<event>
 5   0  0.1341932E-06  0.3753556E+04  0.7818609E-02  0.8056196E-01
        2   -1    0    0  501    0  0.00000000000E+00  0.00000000000E+00  0.11632290815E+04  0.11632290815E+04  0.25500000920E-02 0. -1.
       -2   -1    0    0    0  501  0.00000000000E+00  0.00000000000E+00 -0.30280318700E+04  0.30280318700E+04  0.25500000920E-02 0.  1.
    10030    2    1    2    0    0  0.00000000000E+00  0.00000000000E+00 -0.18648027885E+04  0.41912609514E+04  0.37535555042E+04 0.  0.
        2    1    3    3  502    0 -0.18718745136E+04 -0.13260304732E+03 -0.90087877576E+03  0.20816052295E+04  0.25500000920E-02 0.  1.
       -2    1    3    3    0  502  0.18718745136E+04  0.13260304732E+03 -0.96392401274E+03  0.21096557219E+04  0.25500000920E-02 0. -1.
</event>
<event>
 5   0  0.4255250E-07  0.2474231E+04  0.7818609E-02  0.8412224E-01
       -1   -1    0    0    0  501  0.00000000000E+00  0.00000000000E+00  0.81272710135E+03  0.81272710137E+03  0.50400001928E-02 0.  1.
        1   -1    0    0  501    0  0.00000000000E+00  0.00000000000E+00 -0.18831104952E+04  0.18831104952E+04  0.50400001928E-02 0. -1.
    10030    2    1    2    0    0  0.00000000000E+00  0.00000000000E+00 -0.10703833939E+04  0.26958375966E+04  0.24742311407E+04 0.  0.
        2    1    3    3  502    0 -0.58231251469E+03 -0.10134847498E+04 -0.93661067291E+02  0.11726088855E+04  0.25500000920E-02 0.  1.
       -2    1    3    3    0  502  0.58231251469E+03  0.10134847498E+04 -0.97672232659E+03  0.15232287111E+04  0.25500000920E-02 0. -1.
</event>
<event>
 5   0  0.1184616E-06  0.3270125E+04  0.7818609E-02  0.8170539E-01
        2   -1    0    0  501    0  0.00000000000E+00  0.00000000000E+00  0.18855574528E+04  0.18855574528E+04  0.25500000920E-02 0. -1.
       -2   -1    0    0    0  501  0.00000000000E+00  0.00000000000E+00 -0.14178455413E+04  0.14178455413E+04  0.25500000920E-02 0.  1.
    10030    2    1    2    0    0  0.00000000000E+00  0.00000000000E+00  0.46771191151E+03  0.33034029941E+04  0.32701249073E+04 0.  0.
        5    1    3    3  502    0 -0.85511062950E+03 -0.13747330766E+04  0.46487938128E+03  0.16844109207E+04  0.46999998093E+01 0. -1.
       -5    1    3    3    0  502  0.85511062950E+03  0.13747330766E+04  0.28325302350E+01  0.16189920734E+04  0.46999998093E+01 0.  1.
</event>
<event>
 5   0  0.4795023E-07  0.3674183E+04  0.7818609E-02  0.8073707E-01
        1   -1    0    0  501    0  0.00000000000E+00  0.00000000000E+00  0.28444778078E+04  0.28444778078E+04  0.50400001928E-02 0.  1.
       -1   -1    0    0    0  501  0.00000000000E+00  0.00000000000E+00 -0.11864760292E+04  0.11864760292E+04  0.50400001928E-02 0. -1.
    10030    2    1    2    0    0  0.00000000000E+00  0.00000000000E+00  0.16580017787E+04  0.40309538370E+04  0.36741827578E+04 0.  0.
        3    1    3    3  502    0  0.11994402501E+04  0.46765436246E+03  0.22668105960E+04  0.26068731853E+04  0.10100000352E+00 0.  1.
       -3    1    3    3    0  502 -0.11994402501E+04 -0.46765436246E+03 -0.60880881729E+03  0.14240806517E+04  0.10100000352E+00 0. -1.
</event>
<event>
 5   0  0.4255250E-07  0.3724445E+04  0.7818609E-02  0.8062566E-01
        1   -1    0    0  501    0  0.00000000000E+00  0.00000000000E+00  0.16349980436E+04  0.16349980436E+04  0.50400001928E-02 0. -1.
       -1   -1    0    0    0  501  0.00000000000E+00  0.00000000000E+00 -0.21210256313E+04  0.21210256313E+04  0.50400001928E-02 0.  1.
    10030    2    1    2    0    0  0.00000000000E+00  0.00000000000E+00 -0.48602758767E+03  0.37560236750E+04  0.37244450635E+04 0.  0.
        2    1    3    3  502    0 -0.15769816963E+04 -0.95748208545E+03  0.12570501968E+02  0.18449393572E+04  0.25500000920E-02 0. -1.
       -2    1    3    3    0  502  0.15769816963E+04  0.95748208545E+03 -0.49859808964E+03  0.19110843177E+04  0.25500000920E-02 0.  1.
</event>
<event>
 5   0  0.4795023E-07  0.3745117E+04  0.7818609E-02  0.8058036E-01
        1   -1    0    0  501    0  0.00000000000E+00  0.00000000000E+00  0.19595189048E+04  0.19595189048E+04  0.50400001928E-02 0. -1.
       -1   -1    0    0    0  501  0.00000000000E+00  0.00000000000E+00 -0.17894570903E+04  0.17894570903E+04  0.50400001928E-02 0.  1.
    10030    2    1    2    0    0  0.00000000000E+00  0.00000000000E+00  0.17006181455E+03  0.37489759951E+04  0.37451168194E+04 0.  0.
        3    1    3    3  502    0  0.93498086720E+03  0.13933461224E+04 -0.74701290678E+03  0.18367446562E+04  0.10100000352E+00 0. -1.
       -3    1    3    3    0  502 -0.93498086720E+03 -0.13933461224E+04  0.91707472133E+03  0.19122313389E+04  0.10100000352E+00 0.  1.
</event>
<event>
 5   0  0.1184616E-06  0.3843268E+04  0.7818609E-02  0.8036933E-01
        2   -1    0    0  501    0  0.00000000000E+00  0.00000000000E+00  0.16058835007E+04  0.16058835007E+04  0.25500000920E-02 0. -1.
       -2   -1    0    0    0  501  0.00000000000E+00  0.00000000000E+00 -0.22994672415E+04  0.22994672415E+04  0.25500000920E-02 0.  1.
    10030    2    1    2    0    0  0.00000000000E+00  0.00000000000E+00 -0.69358374088E+03  0.39053507422E+04  0.38432676220E+04 0.  0.
        5    1    3    3  502    0  0.67303456995E+03  0.10775099716E+02  0.14821614330E+04  0.16278563323E+04  0.46999998093E+01 0. -1.
       -5    1    3    3    0  502 -0.67303456995E+03 -0.10775099716E+02 -0.21757451739E+04  0.22774944099E+04  0.46999998093E+01 0.  1.
</event>
<event>
 5   0  0.5284458E-07  0.3846341E+04  0.7818609E-02  0.8036283E-01
       -1   -1    0    0    0  501  0.00000000000E+00  0.00000000000E+00  0.17034422435E+04  0.17034422435E+04  0.50400001928E-02 0. -1.
        1   -1    0    0  501    0  0.00000000000E+00  0.00000000000E+00 -0.21712420387E+04  0.21712420387E+04  0.50400001928E-02 0.  1.
    10030    2    1    2    0    0  0.00000000000E+00  0.00000000000E+00 -0.46779979522E+03  0.38746842822E+04  0.38463413315E+04 0.  0.
        5    1    3    3  502    0  0.11938470960E+03 -0.16817623198E+04  0.69811286218E+03  0.18248180369E+04  0.46999998093E+01 0.  1.
       -5    1    3    3    0  502 -0.11938470960E+03  0.16817623198E+04 -0.11659126574E+04  0.20498662454E+04  0.46999998093E+01 0. -1.
</event>
<event>
 5   0  0.1372748E-06  0.3987160E+04  0.7818609E-02  0.8007142E-01
        2   -1    0    0  501    0  0.00000000000E+00  0.00000000000E+00  0.24294069411E+04  0.24294069411E+04  0.25500000920E-02 0.  1.
       -2   -1    0    0    0  501  0.00000000000E+00  0.00000000000E+00 -0.16359385542E+04  0.16359385542E+04  0.25500000920E-02 0. -1.
    10030    2    1    2    0    0  0.00000000000E+00  0.00000000000E+00  0.79346838689E+03  0.40653454954E+04  0.39871596301E+04 0.  0.
        1    1    3    3  502    0  0.13682129159E+04  0.49962412677E+03 -0.99110727517E+03  0.17617958117E+04  0.50400001928E-02 0. -1.
       -1    1    3    3    0  502 -0.13682129159E+04 -0.49962412677E+03  0.17845756621E+04  0.23035496836E+04  0.50400001928E-02 0.  1.
</event>
<event>
 5   0  0.5556666E-07  0.2029404E+04  0.7818609E-02  0.8592995E-01
        1   -1    0    0  501    0  0.00000000000E+00  0.00000000000E+00  0.10488067197E+04  0.10488067197E+04  0.50400001928E-02 0. -1.
       -1   -1    0    0    0  501  0.00000000000E+00  0.00000000000E+00 -0.98170632969E+03  0.98170632970E+03  0.50400001928E-02 0.  1.
    10030    2    1    2    0    0  0.00000000000E+00  0.00000000000E+00  0.67100390037E+02  0.20305130494E+04  0.20294040459E+04 0.  0.
        5    1    3    3  502    0 -0.25325685433E+03 -0.97918014617E+03 -0.48135784382E+02  0.10125571276E+04  0.46999998093E+01 0.  1.
       -5    1    3    3    0  502  0.25325685433E+03  0.97918014617E+03  0.11523617442E+03  0.10179559218E+04  0.46999998093E+01 0. -1.
</event>
<event>
 5   0  0.1337854E-06  0.3499951E+04  0.7818609E-02  0.8113802E-01
        2   -1    0    0  501    0  0.00000000000E+00  0.00000000000E+00  0.24316093042E+04  0.24316093042E+04  0.25500000920E-02 0. -1.
       -2   -1    0    0    0  501  0.00000000000E+00  0.00000000000E+00 -0.12594186939E+04  0.12594186939E+04  0.25500000920E-02 0.  1.
    10030    2    1    2    0    0  0.00000000000E+00  0.00000000000E+00  0.11721906103E+04  0.36910279980E+04  0.34999509790E+04 0.  0.
        3    1    3    3  502    0 -0.10003894447E+04 -0.10744458694E+04 -0.41837521340E+03  0.15265159012E+04  0.10100000352E+00 0.  1.
       -3    1    3    3    0  502  0.10003894447E+04  0.10744458694E+04  0.15905658237E+04  0.21645120968E+04  0.10100000352E+00 0. -1.
</event>
<event>
 5   0  0.4795023E-07  0.3671356E+04  0.7818609E-02  0.8074340E-01
        1   -1    0    0  501    0  0.00000000000E+00  0.00000000000E+00  0.29128693504E+04  0.29128693504E+04  0.50400001928E-02 0.  1.
       -1   -1    0    0    0  501  0.00000000000E+00  0.00000000000E+00 -0.11568364810E+04  0.11568364810E+04  0.50400001928E-02 0. -1.
    10030    2    1    2    0    0  0.00000000000E+00  0.00000000000E+00  0.17560328694E+04  0.40697058314E+04  0.36713558961E+04 0.  0.
        3    1    3    3  502    0 -0.81841409837E+03 -0.66405344602E+03  0.25440714996E+04  0.27537371735E+04  0.10100000352E+00 0.  1.
       -3    1    3    3    0  502  0.81841409837E+03  0.66405344602E+03 -0.78803863023E+03  0.13159686579E+04  0.10100000352E+00 0. -1.
</event>
<event>
 5   0  0.4795023E-07  0.3869706E+04  0.7818609E-02  0.8031359E-01
        1   -1    0    0  501    0  0.00000000000E+00  0.00000000000E+00  0.13790980039E+04  0.13790980039E+04  0.50400001928E-02 0. -1.
       -1   -1    0    0    0  501  0.00000000000E+00  0.00000000000E+00 -0.27145690049E+04  0.27145690049E+04  0.50400001928E-02 0.  1.
    10030    2    1    2    0    0  0.00000000000E+00  0.00000000000E+00 -0.13354710010E+04  0.40936670087E+04  0.38697062917E+04 0.  0.
        3    1    3    3  502    0  0.76625392790E+03 -0.16021460549E+04 -0.14800567968E+04  0.23118358928E+04  0.10100000352E+00 0.  1.
       -3    1    3    3    0  502 -0.76625392790E+03  0.16021460549E+04  0.14458579577E+03  0.17818311160E+04  0.10100000352E+00 0. -1.
</event>
<event>
 5   0  0.1372748E-06  0.3819210E+04  0.7818609E-02  0.8042045E-01
       -2   -1    0    0    0  501  0.00000000000E+00  0.00000000000E+00  0.16259143665E+04  0.16259143665E+04  0.25500000920E-02 0. -1.
        2   -1    0    0  501    0  0.00000000000E+00  0.00000000000E+00 -0.22427943242E+04  0.22427943242E+04  0.25500000920E-02 0.  1.
    10030    2    1    2    0    0  0.00000000000E+00  0.00000000000E+00 -0.61687995770E+03  0.38687086907E+04  0.38192101345E+04 0.  0.
        1    1    3    3  502    0 -0.18906387707E+04  0.28679299555E+02 -0.57883410324E+03  0.19774696919E+04  0.50400001928E-02 0. -1.
       -1    1    3    3    0  502  0.18906387707E+04 -0.28679299555E+02 -0.38045854455E+02  0.18912389988E+04  0.50400001928E-02 0.  1.
</event>
<event>
 5   0  0.4795023E-07  0.1897525E+04  0.7818609E-02  0.8656089E-01
       -1   -1    0    0    0  501  0.00000000000E+00  0.00000000000E+00  0.46535287795E+03  0.46535287798E+03  0.50400001928E-02 0.  1.
        1   -1    0    0  501    0  0.00000000000E+00  0.00000000000E+00 -0.19343396507E+04  0.19343396507E+04  0.50400001928E-02 0. -1.
    10030    2    1    2    0    0  0.00000000000E+00  0.00000000000E+00 -0.14689867727E+04  0.23996925287E+04  0.18975252551E+04 0.  0.
        3    1    3    3  502    0  0.55247876992E+03 -0.49608666130E+03  0.12412832520E+02  0.74262295639E+03  0.10100000352E+00 0.  1.
       -3    1    3    3    0  502 -0.55247876992E+03  0.49608666130E+03 -0.14813996052E+04  0.16570695723E+04  0.10100000352E+00 0. -1.
</event>
<event>
 5   0  0.4795023E-07  0.1980827E+04  0.7818609E-02  0.8615638E-01
       -1   -1    0    0    0  501  0.00000000000E+00  0.00000000000E+00  0.69859683244E+03  0.69859683246E+03  0.50400001928E-02 0.  1.
        1   -1    0    0  501    0  0.00000000000E+00  0.00000000000E+00 -0.14041270772E+04  0.14041270772E+04  0.50400001928E-02 0. -1.
    10030    2    1    2    0    0  0.00000000000E+00  0.00000000000E+00 -0.70553024472E+03  0.21027239096E+04  0.19808268258E+04 0.  0.
        3    1    3    3  502    0  0.32517106309E+03 -0.41675009510E+03  0.53633394843E+03  0.75304115192E+03  0.10100000352E+00 0.  1.
       -3    1    3    3    0  502 -0.32517106309E+03  0.41675009510E+03 -0.12418641932E+04  0.13496827577E+04  0.10100000352E+00 0. -1.
</event>
<event>
 5   0  0.1337854E-06  0.2102583E+04  0.7818609E-02  0.8560106E-01
        2   -1    0    0  501    0  0.00000000000E+00  0.00000000000E+00  0.93968165031E+03  0.93968165032E+03  0.25500000920E-02 0. -1.
       -2   -1    0    0    0  501  0.00000000000E+00  0.00000000000E+00 -0.11761578113E+04  0.11761578113E+04  0.25500000920E-02 0.  1.
    10030    2    1    2    0    0  0.00000000000E+00  0.00000000000E+00 -0.23647616103E+03  0.21158394617E+04  0.21025830906E+04 0.  0.
        3    1    3    3  502    0  0.20434711726E+02 -0.10510775739E+04 -0.12395360399E+03  0.10585585246E+04  0.10100000352E+00 0.  1.
       -3    1    3    3    0  502 -0.20434711726E+02  0.10510775739E+04 -0.11252255704E+03  0.10572809371E+04  0.10100000352E+00 0. -1.
</event>
<event>
 5   0  0.1184616E-06  0.1872464E+04  0.7818609E-02  0.8668685E-01
        2   -1    0    0  501    0  0.00000000000E+00  0.00000000000E+00  0.11083299259E+04  0.11083299259E+04  0.25500000920E-02 0.  1.
       -2   -1    0    0    0  501  0.00000000000E+00  0.00000000000E+00 -0.79085720455E+03  0.79085720455E+03  0.25500000920E-02 0. -1.
    10030    2    1    2    0    0  0.00000000000E+00  0.00000000000E+00  0.31747272136E+03  0.18991871305E+04  0.18724643729E+04 0.  0.
        5    1    3    3  502    0 -0.63759817867E+03 -0.52992855980E+03 -0.28238765132E+03  0.87585420679E+03  0.46999998093E+01 0.  1.
       -5    1    3    3    0  502  0.63759817867E+03  0.52992855980E+03  0.59986037268E+03  0.10233329237E+04  0.46999998093E+01 0. -1.
</event>
<event>
 5   0  0.1341932E-06  0.2812658E+04  0.7818609E-02  0.8299349E-01
       -2   -1    0    0    0  501  0.00000000000E+00  0.00000000000E+00  0.11753789196E+04  0.11753789196E+04  0.25500000920E-02 0.  1.
        2   -1    0    0  501    0  0.00000000000E+00  0.00000000000E+00 -0.16826585652E+04  0.16826585652E+04  0.25500000920E-02 0. -1.
    10030    2    1    2    0    0  0.00000000000E+00  0.00000000000E+00 -0.50727964564E+03  0.28580374848E+04  0.28126581068E+04 0.  0.
        2    1    3    3  502    0 -0.44619188069E+02  0.90272563396E+03  0.84117414979E+03  0.12346976927E+04  0.25500000920E-02 0.  1.
       -2    1    3    3    0  502  0.44619188069E+02 -0.90272563396E+03 -0.13484537954E+04  0.16233397921E+04  0.25500000920E-02 0. -1.
</event>
<event>
 5   0  0.1341932E-06  0.3757104E+04  0.7818609E-02  0.8055423E-01
        2   -1    0    0  501    0  0.00000000000E+00  0.00000000000E+00  0.28839227329E+04  0.28839227329E+04  0.25500000920E-02 0.  1.
       -2   -1    0    0    0  501  0.00000000000E+00  0.00000000000E+00 -0.12236659023E+04  0.12236659023E+04  0.25500000920E-02 0. -1.
    10030    2    1    2    0    0  0.00000000000E+00  0.00000000000E+00  0.16602568306E+04  0.41075886352E+04  0.37571041578E+04 0.  0.
        2    1    3    3  502    0 -0.10074065989E+03 -0.11947394693E+04 -0.75094839811E+03  0.14147348079E+04  0.25500000920E-02 0. -1.
       -2    1    3    3    0  502  0.10074065989E+03  0.11947394693E+04  0.24112052287E+04  0.26928538273E+04  0.25500000920E-02 0.  1.
</event>
<event>
 5   0  0.1337854E-06  0.3062139E+04  0.7818609E-02  0.8226206E-01
       -2   -1    0    0    0  501  0.00000000000E+00  0.00000000000E+00  0.74115381659E+03  0.74115381660E+03  0.25500000920E-02 0. -1.
        2   -1    0    0  501    0  0.00000000000E+00  0.00000000000E+00 -0.31628706099E+04  0.31628706099E+04  0.25500000920E-02 0.  1.
    10030    2    1    2    0    0  0.00000000000E+00  0.00000000000E+00 -0.24217167933E+04  0.39040244265E+04  0.30621388760E+04 0.  0.
        3    1    3    3  502    0  0.75126210503E+03  0.23238585684E+03  0.46400663350E+03  0.91307179512E+03  0.10100000352E+00 0. -1.
       -3    1    3    3    0  502 -0.75126210503E+03 -0.23238585684E+03 -0.28857234268E+04  0.29909526314E+04  0.10100000352E+00 0.  1.
</event>
<event>
 5   0  0.4255250E-07  0.2833455E+04  0.7818609E-02  0.8292957E-01
        1   -1    0    0  501    0  0.00000000000E+00  0.00000000000E+00  0.10446605704E+04  0.10446605704E+04  0.50400001928E-02 0.  1.
       -1   -1    0    0    0  501  0.00000000000E+00  0.00000000000E+00 -0.19213101097E+04  0.19213101097E+04  0.50400001928E-02 0. -1.
    10030    2    1    2    0    0  0.00000000000E+00  0.00000000000E+00 -0.87664953931E+03  0.29659706801E+04  0.28334550747E+04 0.  0.
        2    1    3    3  502    0  0.11629576007E+04 -0.67293884893E+03 -0.90855541696E+03  0.16219710297E+04  0.25500000920E-02 0. -1.
       -2    1    3    3    0  502 -0.11629576007E+04  0.67293884893E+03  0.31905877654E+02  0.13439996504E+04  0.25500000920E-02 0.  1.
</event>
<event>
 5   0  0.1372748E-06  0.3600716E+04  0.7818609E-02  0.8090328E-01
       -2   -1    0    0    0  501  0.00000000000E+00  0.00000000000E+00  0.20032717950E+04  0.20032717950E+04  0.25500000920E-02 0. -1.
        2   -1    0    0  501    0  0.00000000000E+00  0.00000000000E+00 -0.16179972802E+04  0.16179972802E+04  0.25500000920E-02 0.  1.
    10030    2    1    2    0    0  0.00000000000E+00  0.00000000000E+00  0.38527451487E+03  0.36212690752E+04  0.36007156599E+04 0.  0.
        1    1    3    3  502    0 -0.49724701302E+03  0.29732722568E+03 -0.15216837304E+04  0.16282442835E+04  0.50400001928E-02 0.  1.
       -1    1    3    3    0  502  0.49724701302E+03 -0.29732722568E+03  0.19069582453E+04  0.19930247917E+04  0.50400001928E-02 0. -1.
</event>
<event>
 5   0  0.5284458E-07  0.3784408E+04  0.7818609E-02  0.8049509E-01
        1   -1    0    0  501    0  0.00000000000E+00  0.00000000000E+00  0.14929139357E+04  0.14929139357E+04  0.50400001928E-02 0.  1.
       -1   -1    0    0    0  501  0.00000000000E+00  0.00000000000E+00 -0.23982864180E+04  0.23982864181E+04  0.50400001928E-02 0. -1.
    10030    2    1    2    0    0  0.00000000000E+00  0.00000000000E+00 -0.90537248237E+03  0.38912003537E+04  0.37844075971E+04 0.  0.
        5    1    3    3  502    0  0.10478846641E+04 -0.15064517385E+04 -0.92717792363E+03  0.20560009975E+04  0.46999998093E+01 0. -1.
       -5    1    3    3    0  502 -0.10478846641E+04  0.15064517385E+04  0.21805441259E+02  0.18351993562E+04  0.46999998093E+01 0.  1.
</event>
<event>
 5   0  0.5284458E-07  0.2706334E+04  0.7818609E-02  0.8332953E-01
        1   -1    0    0  501    0  0.00000000000E+00  0.00000000000E+00  0.15687183984E+04  0.15687183984E+04  0.50400001928E-02 0.  1.
       -1   -1    0    0    0  501  0.00000000000E+00  0.00000000000E+00 -0.11672335957E+04  0.11672335957E+04  0.50400001928E-02 0. -1.
    10030    2    1    2    0    0  0.00000000000E+00  0.00000000000E+00  0.40148480269E+03  0.27359519941E+04  0.27063339164E+04 0.  0.
        5    1    3    3  502    0 -0.30103884058E+03 -0.98424172386E+03  0.10888108459E+04  0.14982947983E+04  0.46999998093E+01 0.  1.
       -5    1    3    3    0  502  0.30103884058E+03  0.98424172386E+03 -0.68732604321E+03  0.12376571958E+04  0.46999998093E+01 0. -1.
</event>
<event>
 5   0  0.1079205E-06  0.3825101E+04  0.7818609E-02  0.8040790E-01
        1   -1    0    0  501    0  0.00000000000E+00  0.00000000000E+00  0.24274294120E+04  0.24274294120E+04  0.50400001928E-02 0. -1.
       -1   -1    0    0    0  501  0.00000000000E+00  0.00000000000E+00 -0.15068817192E+04  0.15068817192E+04  0.50400001928E-02 0.  1.
    10030    2    1    2    0    0  0.00000000000E+00  0.00000000000E+00  0.92054769280E+03  0.39343111311E+04  0.38251007858E+04 0.  0.
        4    1    3    3  502    0  0.52103174827E+03  0.62371122870E+03 -0.13204439525E+04  0.15505043128E+04  0.12699999809E+01 0.  1.
       -4    1    3    3    0  502 -0.52103174827E+03 -0.62371122870E+03  0.22409916453E+04  0.23838068183E+04  0.12699999809E+01 0. -1.
</event>
<event>
 5   0  0.1214844E-06  0.2404232E+04  0.7818609E-02  0.8437921E-01
       -2   -1    0    0    0  501  0.00000000000E+00  0.00000000000E+00  0.14527876290E+04  0.14527876290E+04  0.25500000920E-02 0.  1.
        2   -1    0    0  501    0  0.00000000000E+00  0.00000000000E+00 -0.99469618870E+03  0.99469618870E+03  0.25500000920E-02 0. -1.
    10030    2    1    2    0    0  0.00000000000E+00  0.00000000000E+00  0.45809144033E+03  0.24474838177E+04  0.24042315343E+04 0.  0.
        4    1    3    3  502    0 -0.44012049392E+03  0.54812299479E+03  0.12217482929E+04  0.14095443841E+04  0.12699999809E+01 0.  1.
       -4    1    3    3    0  502  0.44012049392E+03 -0.54812299479E+03 -0.76365685256E+03  0.10379394337E+04  0.12699999809E+01 0. -1.
</event>
<event>
 5   0  0.5284458E-07  0.3208406E+04  0.7818609E-02  0.8186601E-01
       -1   -1    0    0    0  501  0.00000000000E+00  0.00000000000E+00  0.10875659775E+04  0.10875659775E+04  0.50400001928E-02 0.  1.
        1   -1    0    0  501    0  0.00000000000E+00  0.00000000000E+00 -0.23662635018E+04  0.23662635018E+04  0.50400001928E-02 0. -1.
    10030    2    1    2    0    0  0.00000000000E+00  0.00000000000E+00 -0.12786975243E+04  0.34538294793E+04  0.32084062576E+04 0.  0.
        5    1    3    3  502    0  0.10548284652E+04 -0.10983894385E+04 -0.11822295529E+04  0.19279033314E+04  0.46999998093E+01 0. -1.
       -5    1    3    3    0  502 -0.10548284652E+04  0.10983894385E+04 -0.96467971421E+02  0.15259261480E+04  0.46999998093E+01 0.  1.
</event>
<event>
 5   0  0.1184616E-06  0.2994735E+04  0.7818609E-02  0.8245236E-01
       -2   -1    0    0    0  501  0.00000000000E+00  0.00000000000E+00  0.13887619944E+04  0.13887619944E+04  0.25500000920E-02 0. -1.
        2   -1    0    0  501    0  0.00000000000E+00  0.00000000000E+00 -0.16144662995E+04  0.16144662995E+04  0.25500000920E-02 0.  1.
    10030    2    1    2    0    0  0.00000000000E+00  0.00000000000E+00 -0.22570430515E+03  0.30032282939E+04  0.29947350053E+04 0.  0.
        5    1    3    3  502    0  0.10714847066E+04  0.20088831851E+02 -0.11615733695E+04  0.15804296316E+04  0.46999998093E+01 0.  1.
       -5    1    3    3    0  502 -0.10714847066E+04 -0.20088831851E+02  0.93586906438E+03  0.14227986623E+04  0.46999998093E+01 0. -1.
</event>
<event>
 5   0  0.5284458E-07  0.3291795E+04  0.7818609E-02  0.8164986E-01
       -1   -1    0    0    0  501  0.00000000000E+00  0.00000000000E+00  0.12350285320E+04  0.12350285320E+04  0.50400001928E-02 0.  1.
        1   -1    0    0  501    0  0.00000000000E+00  0.00000000000E+00 -0.21934540048E+04  0.21934540049E+04  0.50400001928E-02 0. -1.
    10030    2    1    2    0    0  0.00000000000E+00  0.00000000000E+00 -0.95842547281E+03  0.34284825369E+04  0.32917948172E+04 0.  0.
        5    1    3    3  502    0  0.13217761862E+03  0.18114543196E+03  0.12190369097E+04  0.12394989583E+04  0.46999998093E+01 0.  1.
       -5    1    3    3    0  502 -0.13217761862E+03 -0.18114543196E+03 -0.21774623825E+04  0.21889835786E+04  0.46999998093E+01 0. -1.
</event>
<event>
 5   0  0.1372748E-06  0.3789841E+04  0.7818609E-02  0.8048338E-01
        2   -1    0    0  501    0  0.00000000000E+00  0.00000000000E+00  0.23273252605E+04  0.23273252605E+04  0.25500000920E-02 0.  1.
       -2   -1    0    0    0  501  0.00000000000E+00  0.00000000000E+00 -0.15428545101E+04  0.15428545101E+04  0.25500000920E-02 0. -1.
    10030    2    1    2    0    0  0.00000000000E+00  0.00000000000E+00  0.78447075034E+03  0.38701797706E+04  0.37898413025E+04 0.  0.
        1    1    3    3  502    0  0.43416305214E+03 -0.27226121118E+03 -0.14707452298E+04  0.15574707875E+04  0.50400001928E-02 0. -1.
       -1    1    3    3    0  502 -0.43416305214E+03  0.27226121118E+03  0.22552159802E+04  0.23127089830E+04  0.50400001928E-02 0.  1.
</event>
<event>
 5   0  0.5284458E-07  0.3812070E+04  0.7818609E-02  0.8043570E-01
        1   -1    0    0  501    0  0.00000000000E+00  0.00000000000E+00  0.12855544738E+04  0.12855544738E+04  0.50400001928E-02 0. -1.
       -1   -1    0    0    0  501  0.00000000000E+00  0.00000000000E+00 -0.28259936095E+04  0.28259936095E+04  0.50400001928E-02 0.  1.
    10030    2    1    2    0    0  0.00000000000E+00  0.00000000000E+00 -0.15404391357E+04  0.41115480833E+04  0.38120696361E+04 0.  0.
        5    1    3    3  502    0  0.56719177071E+03 -0.21585551635E+03  0.11785596123E+04  0.13256413386E+04  0.46999998093E+01 0. -1.
       -5    1    3    3    0  502 -0.56719177071E+03  0.21585551635E+03 -0.27189987480E+04  0.27859067448E+04  0.46999998093E+01 0.  1.
</event>
<event>
 5   0  0.1184616E-06  0.3890058E+04  0.7818609E-02  0.8027100E-01
        2   -1    0    0  501    0  0.00000000000E+00  0.00000000000E+00  0.18334635573E+04  0.18334635573E+04  0.25500000920E-02 0.  1.
       -2   -1    0    0    0  501  0.00000000000E+00  0.00000000000E+00 -0.20633827414E+04  0.20633827414E+04  0.25500000920E-02 0. -1.
    10030    2    1    2    0    0  0.00000000000E+00  0.00000000000E+00 -0.22991918401E+03  0.38968462987E+04  0.38900576146E+04 0.  0.
        5    1    3    3  502    0 -0.26827909634E+03 -0.44865091816E+03 -0.19916893788E+04  0.20591527363E+04  0.46999998093E+01 0. -1.
       -5    1    3    3    0  502  0.26827909634E+03  0.44865091816E+03  0.17617701948E+04  0.18376935624E+04  0.46999998093E+01 0.  1.
</event>
<event>
 5   0  0.1337854E-06  0.2888066E+04  0.7818609E-02  0.8276437E-01
        2   -1    0    0  501    0  0.00000000000E+00  0.00000000000E+00  0.21502583693E+04  0.21502583693E+04  0.25500000920E-02 0. -1.
       -2   -1    0    0    0  501  0.00000000000E+00  0.00000000000E+00 -0.96975827987E+03  0.96975827988E+03  0.25500000920E-02 0.  1.
    10030    2    1    2    0    0  0.00000000000E+00  0.00000000000E+00  0.11805000894E+04  0.31200166492E+04  0.28880656900E+04 0.  0.
        3    1    3    3  502    0  0.10470504213E+04  0.40869446283E+03 -0.38913935139E+03  0.11894432284E+04  0.10100000352E+00 0.  1.
       -3    1    3    3    0  502 -0.10470504213E+04 -0.40869446283E+03  0.15696394408E+04  0.19305734208E+04  0.10100000352E+00 0. -1.
</event>
<event>
 5   0  0.1337854E-06  0.3808745E+04  0.7818609E-02  0.8044281E-01
        2   -1    0    0  501    0  0.00000000000E+00  0.00000000000E+00  0.26805761225E+04  0.26805761225E+04  0.25500000920E-02 0. -1.
       -2   -1    0    0    0  501  0.00000000000E+00  0.00000000000E+00 -0.13529307659E+04  0.13529307659E+04  0.25500000920E-02 0.  1.
    10030    2    1    2    0    0  0.00000000000E+00  0.00000000000E+00  0.13276453566E+04  0.40335068884E+04  0.38087446259E+04 0.  0.
        3    1    3    3  502    0 -0.59049586166E+03  0.16650867210E+03  0.25730496216E+04  0.26451833331E+04  0.10100000352E+00 0. -1.
       -3    1    3    3    0  502  0.59049586166E+03 -0.16650867210E+03 -0.12454042650E+04  0.13883235552E+04  0.10100000352E+00 0.  1.
</event>
<event>
 5   0  0.4795023E-07  0.3773490E+04  0.7818609E-02  0.8051868E-01
       -1   -1    0    0    0  501  0.00000000000E+00  0.00000000000E+00  0.21253533533E+04  0.21253533533E+04  0.50400001928E-02 0. -1.
        1   -1    0    0  501    0  0.00000000000E+00  0.00000000000E+00 -0.16749247326E+04  0.16749247326E+04  0.50400001928E-02 0.  1.
    10030    2    1    2    0    0  0.00000000000E+00  0.00000000000E+00  0.45042862071E+03  0.38002780859E+04  0.37734901070E+04 0.  0.
        3    1    3    3  502    0 -0.74518732543E+03  0.43899533751E+03 -0.14635275961E+04  0.16999806149E+04  0.10100000352E+00 0.  1.
       -3    1    3    3    0  502  0.74518732543E+03 -0.43899533751E+03  0.19139562168E+04  0.21002974710E+04  0.10100000352E+00 0. -1.
</event>
<event>
 5   0  0.8030324E-07  0.1971042E+04  0.7818609E-02  0.8620280E-01
       -1   -1    0    0    0  501  0.00000000000E+00  0.00000000000E+00  0.10681404936E+04  0.10681404936E+04  0.50400001928E-02 0.  1.
        1   -1    0    0  501    0  0.00000000000E+00  0.00000000000E+00 -0.90929244720E+03  0.90929244722E+03  0.50400001928E-02 0. -1.
    10030    2    1    2    0    0  0.00000000000E+00  0.00000000000E+00  0.15884804636E+03  0.19774329408E+04  0.19710424484E+04 0.  0.
        1    1    3    3  502    0  0.94289382718E+03 -0.27454122356E+03  0.16233839748E+03  0.99537701807E+03  0.50400001928E-02 0.  1.
       -1    1    3    3    0  502 -0.94289382718E+03  0.27454122356E+03 -0.34903511239E+01  0.98205592272E+03  0.50400001928E-02 0. -1.
</event>
<event>
 5   0  0.4795023E-07  0.2076931E+04  0.7818609E-02  0.8571474E-01
        1   -1    0    0  501    0  0.00000000000E+00  0.00000000000E+00  0.94843496298E+03  0.94843496300E+03  0.50400001928E-02 0.  1.
       -1   -1    0    0    0  501  0.00000000000E+00  0.00000000000E+00 -0.11370422091E+04  0.11370422091E+04  0.50400001928E-02 0. -1.
    10030    2    1    2    0    0  0.00000000000E+00  0.00000000000E+00 -0.18860724610E+03  0.20854771721E+04  0.20769309912E+04 0.  0.
        3    1    3    3  502    0 -0.19893353544E+03 -0.56145849435E+03  0.75984366753E+03  0.96549086049E+03  0.10100000352E+00 0.  1.
       -3    1    3    3    0  502  0.19893353544E+03  0.56145849435E+03 -0.94845091363E+03  0.11199863116E+04  0.10100000352E+00 0. -1.
</event>
<event>
 5   0  0.4255250E-07  0.3777845E+04  0.7818609E-02  0.8050926E-01
       -3   -1    0    0    0  501  0.00000000000E+00  0.00000000000E+00  0.23391023102E+04  0.23391023124E+04  0.10100000352E+00 0.  1.
        3   -1    0    0  501    0  0.00000000000E+00  0.00000000000E+00 -0.15253837064E+04  0.15253837097E+04  0.10100000352E+00 0. -1.
    10030    2    1    2    0    0  0.00000000000E+00  0.00000000000E+00  0.81371860379E+03  0.38644860221E+04  0.37778451859E+04 0.  0.
        1    1    3    3  502    0  0.58805936385E+03  0.17827549750E+04  0.19228822156E+03  0.18870622344E+04  0.50400001928E-02 0.  1.
       -1    1    3    3    0  502 -0.58805936385E+03 -0.17827549750E+04  0.62143038223E+03  0.19774237877E+04  0.50400001928E-02 0. -1.
</event>
<event>
 5   0  0.1079205E-06  0.2862689E+04  0.7818609E-02  0.8284066E-01
        1   -1    0    0  501    0  0.00000000000E+00  0.00000000000E+00  0.18719317053E+04  0.18719317054E+04  0.50400001928E-02 0.  1.
       -1   -1    0    0    0  501  0.00000000000E+00  0.00000000000E+00 -0.10944562582E+04  0.10944562582E+04  0.50400001928E-02 0. -1.
    10030    2    1    2    0    0  0.00000000000E+00  0.00000000000E+00  0.77747544718E+03  0.29663879635E+04  0.28626892041E+04 0.  0.
        4    1    3    3  502    0 -0.37056119605E+03  0.12932615659E+04 -0.11774668162E+03  0.13504469526E+04  0.12699999809E+01 0. -1.
       -4    1    3    3    0  502  0.37056119605E+03 -0.12932615659E+04  0.89522212881E+03  0.16159410109E+04  0.12699999809E+01 0.  1.
</event>
<event>
 5   0  0.4255250E-07  0.3678874E+04  0.7818609E-02  0.8072660E-01
       -1   -1    0    0    0  501  0.00000000000E+00  0.00000000000E+00  0.24377597061E+04  0.24377597061E+04  0.50400001928E-02 0.  1.
        1   -1    0    0  501    0  0.00000000000E+00  0.00000000000E+00 -0.13879664926E+04  0.13879664926E+04  0.50400001928E-02 0. -1.
    10030    2    1    2    0    0  0.00000000000E+00  0.00000000000E+00  0.10497932135E+04  0.38257261986E+04  0.36788741696E+04 0.  0.
        2    1    3    3  502    0 -0.15340508417E+04  0.17227992608E+03  0.15650931462E+04  0.21982968212E+04  0.25500000920E-02 0.  1.
       -2    1    3    3    0  502  0.15340508417E+04 -0.17227992608E+03 -0.51529993273E+03  0.16274293774E+04  0.25500000920E-02 0. -1.
</event>
<event>
 5   0  0.1341932E-06  0.3823749E+04  0.7818609E-02  0.8041078E-01
        2   -1    0    0  501    0  0.00000000000E+00  0.00000000000E+00  0.19736617032E+04  0.19736617032E+04  0.25500000920E-02 0. -1.
       -2   -1    0    0    0  501  0.00000000000E+00  0.00000000000E+00 -0.18520215033E+04  0.18520215033E+04  0.25500000920E-02 0.  1.
    10030    2    1    2    0    0  0.00000000000E+00  0.00000000000E+00  0.12164019990E+03  0.38256832066E+04  0.38237489011E+04 0.  0.
        2    1    3    3  502    0 -0.11496690984E+04  0.15273324602E+04  0.88770500226E+02  0.19137303053E+04  0.25500000920E-02 0. -1.
       -2    1    3    3    0  502  0.11496690984E+04 -0.15273324602E+04  0.32869699669E+02  0.19119529013E+04  0.25500000920E-02 0.  1.
</event>
<event>
 5   0  0.5284458E-07  0.3405614E+04  0.7818609E-02  0.8136530E-01
       -1   -1    0    0    0  501  0.00000000000E+00  0.00000000000E+00  0.21041674012E+04  0.21041674012E+04  0.50400001928E-02 0. -1.
        1   -1    0    0  501    0  0.00000000000E+00  0.00000000000E+00 -0.13780038956E+04  0.13780038956E+04  0.50400001928E-02 0.  1.
    10030    2    1    2    0    0  0.00000000000E+00  0.00000000000E+00  0.72616350560E+03  0.34821712968E+04  0.34056135282E+04 0.  0.
        5    1    3    3  502    0 -0.75506238740E+03 -0.12580123596E+04  0.12466927940E+04  0.19253517389E+04  0.46999998093E+01 0. -1.
       -5    1    3    3    0  502  0.75506238740E+03  0.12580123596E+04 -0.52052928837E+03  0.15568195579E+04  0.46999998093E+01 0.  1.
</event>
<event>
 5   0  0.1341932E-06  0.3819661E+04  0.7818609E-02  0.8041949E-01
       -2   -1    0    0    0  501  0.00000000000E+00  0.00000000000E+00  0.13404701737E+04  0.13404701737E+04  0.25500000920E-02 0.  1.
        2   -1    0    0  501    0  0.00000000000E+00  0.00000000000E+00 -0.27210245127E+04  0.27210245127E+04  0.25500000920E-02 0. -1.
    10030    2    1    2    0    0  0.00000000000E+00  0.00000000000E+00 -0.13805543390E+04  0.40614946864E+04  0.38196608233E+04 0.  0.
        2    1    3    3  502    0 -0.18221138047E+04  0.36606205560E+02 -0.12974032102E+04  0.22371173017E+04  0.25500000920E-02 0. -1.
       -2    1    3    3    0  502  0.18221138047E+04 -0.36606205560E+02 -0.83151128779E+02  0.18243773847E+04  0.25500000920E-02 0.  1.
</event>
<event>
 5   0  0.4255250E-07  0.2663067E+04  0.7818609E-02  0.8347089E-01
       -1   -1    0    0    0  501  0.00000000000E+00  0.00000000000E+00  0.78318212970E+03  0.78318212972E+03  0.50400001928E-02 0.  1.
        1   -1    0    0  501    0  0.00000000000E+00  0.00000000000E+00 -0.22638168794E+04  0.22638168794E+04  0.50400001928E-02 0. -1.
    10030    2    1    2    0    0  0.00000000000E+00  0.00000000000E+00 -0.14806347497E+04  0.30469990091E+04  0.26630665969E+04 0.  0.
        2    1    3    3  502    0  0.57560001595E+03  0.11984413695E+04 -0.82442611740E+03  0.15643706458E+04  0.25500000920E-02 0. -1.
       -2    1    3    3    0  502 -0.57560001595E+03 -0.11984413695E+04 -0.65620863225E+03  0.14826283633E+04  0.25500000920E-02 0.  1.
</event>
<event>
 5   0  0.1372748E-06  0.2105675E+04  0.7818609E-02  0.8558747E-01
        2   -1    0    0  501    0  0.00000000000E+00  0.00000000000E+00  0.16032720872E+04  0.16032720872E+04  0.25500000920E-02 0.  1.
       -2   -1    0    0    0  501  0.00000000000E+00  0.00000000000E+00 -0.69137806034E+03  0.69137806034E+03  0.25500000920E-02 0. -1.
    10030    2    1    2    0    0  0.00000000000E+00  0.00000000000E+00  0.91189402689E+03  0.22946501476E+04  0.21056753272E+04 0.  0.
        1    1    3    3  502    0  0.86551634006E+03 -0.27117960621E+03 -0.12664423758E+03  0.91580329584E+03  0.50400001928E-02 0. -1.
       -1    1    3    3    0  502 -0.86551634006E+03  0.27117960621E+03  0.10385382645E+04  0.13788468517E+04  0.50400001928E-02 0.  1.
</event>
<event>
 5   0  0.1341932E-06  0.3810413E+04  0.7818609E-02  0.8043924E-01
       -2   -1    0    0    0  501  0.00000000000E+00  0.00000000000E+00  0.26535544820E+04  0.26535544820E+04  0.25500000920E-02 0. -1.
        2   -1    0    0  501    0  0.00000000000E+00  0.00000000000E+00 -0.13679052262E+04  0.13679052262E+04  0.25500000920E-02 0.  1.
    10030    2    1    2    0    0  0.00000000000E+00  0.00000000000E+00  0.12856492558E+04  0.40214597082E+04  0.38104125992E+04 0.  0.
        2    1    3    3  502    0  0.67250633315E+03  0.18096275153E+03 -0.12287543005E+04  0.14123913823E+04  0.25500000920E-02 0.  1.
       -2    1    3    3    0  502 -0.67250633315E+03 -0.18096275153E+03  0.25144035563E+04  0.26090683260E+04  0.25500000920E-02 0. -1.
</event>
<event>
 5   0  0.1214844E-06  0.3195119E+04  0.7818609E-02  0.8190107E-01
        2   -1    0    0  501    0  0.00000000000E+00  0.00000000000E+00  0.16173336265E+04  0.16173336265E+04  0.25500000920E-02 0. -1.
       -2   -1    0    0    0  501  0.00000000000E+00  0.00000000000E+00 -0.15780271330E+04  0.15780271330E+04  0.25500000920E-02 0.  1.
    10030    2    1    2    0    0  0.00000000000E+00  0.00000000000E+00  0.39306493509E+02  0.31953607596E+04  0.31951189936E+04 0.  0.
        4    1    3    3  502    0  0.12349482556E+04 -0.98692401271E+03  0.25005846593E+03  0.16005146204E+04  0.12699999809E+01 0. -1.
       -4    1    3    3    0  502 -0.12349482556E+04  0.98692401271E+03 -0.21075197242E+03  0.15948461392E+04  0.12699999809E+01 0.  1.
</event>
<event>
 5   0  0.1184616E-06  0.3953537E+04  0.7818609E-02  0.8013986E-01
       -2   -1    0    0    0  501  0.00000000000E+00  0.00000000000E+00  0.21867113348E+04  0.21867113348E+04  0.25500000920E-02 0. -1.
        2   -1    0    0  501    0  0.00000000000E+00  0.00000000000E+00 -0.17869818641E+04  0.17869818641E+04  0.25500000920E-02 0.  1.
    10030    2    1    2    0    0  0.00000000000E+00  0.00000000000E+00  0.39972947064E+03  0.39736931989E+04  0.39535368962E+04 0.  0.
        5    1    3    3  502    0  0.60509171264E+03 -0.47358063030E+03  0.20304621614E+04  0.21709936142E+04  0.46999998093E+01 0. -1.
       -5    1    3    3    0  502 -0.60509171264E+03  0.47358063030E+03 -0.16307326907E+04  0.18026995847E+04  0.46999998093E+01 0.  1.
</event>
<event>
 5   0  0.1214844E-06  0.3714996E+04  0.7818609E-02  0.8064647E-01
       -2   -1    0    0    0  501  0.00000000000E+00  0.00000000000E+00  0.19791801477E+04  0.19791801477E+04  0.25500000920E-02 0. -1.
        2   -1    0    0  501    0  0.00000000000E+00  0.00000000000E+00 -0.17432974275E+04  0.17432974275E+04  0.25500000920E-02 0.  1.
    10030    2    1    2    0    0  0.00000000000E+00  0.00000000000E+00  0.23588272020E+03  0.37224775753E+04  0.37149964523E+04 0.  0.
        4    1    3    3  502    0 -0.41945017577E+03  0.55199027915E+03 -0.16088008850E+04  0.17518200874E+04  0.12699999809E+01 0.  1.
       -4    1    3    3    0  502  0.41945017577E+03 -0.55199027915E+03  0.18446836052E+04  0.19706574879E+04  0.12699999809E+01 0. -1.
</event>
<event>
 5   0  0.1372748E-06  0.3885668E+04  0.7818609E-02  0.8028017E-01
       -2   -1    0    0    0  501  0.00000000000E+00  0.00000000000E+00  0.12539571536E+04  0.12539571536E+04  0.25500000920E-02 0.  1.
        2   -1    0    0  501    0  0.00000000000E+00  0.00000000000E+00 -0.30101534658E+04  0.30101534658E+04  0.25500000920E-02 0. -1.
    10030    2    1    2    0    0  0.00000000000E+00  0.00000000000E+00 -0.17561963121E+04  0.42641106194E+04  0.38856677532E+04 0.  0.
        1    1    3    3  502    0 -0.27573045307E+03  0.96183498818E+03 -0.27056636181E+04  0.28847477258E+04  0.50400001928E-02 0. -1.
       -1    1    3    3    0  502  0.27573045307E+03 -0.96183498818E+03  0.94946730595E+03  0.13793628936E+04  0.50400001928E-02 0.  1.
</event>
<event>
 5   0  0.4255250E-07  0.3834848E+04  0.7818609E-02  0.8038718E-01
       -1   -1    0    0    0  501  0.00000000000E+00  0.00000000000E+00  0.17943120952E+04  0.17943120952E+04  0.50400001928E-02 0. -1.
        1   -1    0    0  501    0  0.00000000000E+00  0.00000000000E+00 -0.20489827163E+04  0.20489827163E+04  0.50400001928E-02 0.  1.
    10030    2    1    2    0    0  0.00000000000E+00  0.00000000000E+00 -0.25467062113E+03  0.38432948115E+04  0.38348478305E+04 0.  0.
        2    1    3    3  502    0  0.39121631075E+03 -0.12639904193E+04 -0.15181213043E+04  0.20138059183E+04  0.25500000920E-02 0.  1.
       -2    1    3    3    0  502 -0.39121631075E+03  0.12639904193E+04  0.12634506831E+04  0.18294888933E+04  0.25500000920E-02 0. -1.
</event>
<event>
 5   0  0.1341932E-06  0.3626844E+04  0.7818609E-02  0.8084370E-01
       -2   -1    0    0    0  501  0.00000000000E+00  0.00000000000E+00  0.18665541146E+04  0.18665541146E+04  0.25500000920E-02 0.  1.
        2   -1    0    0  501    0  0.00000000000E+00  0.00000000000E+00 -0.17618019753E+04  0.17618019753E+04  0.25500000920E-02 0. -1.
    10030    2    1    2    0    0  0.00000000000E+00  0.00000000000E+00  0.10475213935E+03  0.36283560899E+04  0.36268436559E+04 0.  0.
        2    1    3    3  502    0  0.17006986734E+04 -0.56848643142E+03 -0.21782159285E+03  0.18063773268E+04  0.25500000920E-02 0. -1.
       -2    1    3    3    0  502 -0.17006986734E+04  0.56848643142E+03  0.32257373220E+03  0.18219787631E+04  0.25500000920E-02 0.  1.
</event>
<event>
 5   0  0.1337854E-06  0.3819759E+04  0.7818609E-02  0.8041928E-01
       -2   -1    0    0    0  501  0.00000000000E+00  0.00000000000E+00  0.12718222575E+04  0.12718222575E+04  0.25500000920E-02 0. -1.
        2   -1    0    0  501    0  0.00000000000E+00  0.00000000000E+00 -0.28680415417E+04  0.28680415417E+04  0.25500000920E-02 0.  1.
    10030    2    1    2    0    0  0.00000000000E+00  0.00000000000E+00 -0.15962192842E+04  0.41398637991E+04  0.38197586667E+04 0.  0.
        3    1    3    3  502    0  0.53236561209E+03  0.78378295768E+03  0.99914404481E+03  0.13769595862E+04  0.10100000352E+00 0. -1.
       -3    1    3    3    0  502 -0.53236561209E+03 -0.78378295768E+03 -0.25953633290E+04  0.27629042129E+04  0.10100000352E+00 0.  1.
</event>
<event>
 5   0  0.1184616E-06  0.3764073E+04  0.7818609E-02  0.8053909E-01
        2   -1    0    0  501    0  0.00000000000E+00  0.00000000000E+00  0.14504803859E+04  0.14504803859E+04  0.25500000920E-02 0.  1.
       -2   -1    0    0    0  501  0.00000000000E+00  0.00000000000E+00 -0.24419916726E+04  0.24419916726E+04  0.25500000920E-02 0. -1.
    10030    2    1    2    0    0  0.00000000000E+00  0.00000000000E+00 -0.99151128666E+03  0.38924720585E+04  0.37640728068E+04 0.  0.
        5    1    3    3  502    0  0.93511026674E+03  0.10413146683E+04 -0.17969590256E+04  0.22776855093E+04  0.46999998093E+01 0. -1.
       -5    1    3    3    0  502 -0.93511026674E+03 -0.10413146683E+04  0.80544773894E+03  0.16147865492E+04  0.46999998093E+01 0.  1.
</event>
<event>
 5   0  0.1372748E-06  0.3759465E+04  0.7818609E-02  0.8054910E-01
        2   -1    0    0  501    0  0.00000000000E+00  0.00000000000E+00  0.23522062753E+04  0.23522062753E+04  0.25500000920E-02 0. -1.
       -2   -1    0    0    0  501  0.00000000000E+00  0.00000000000E+00 -0.15021616142E+04  0.15021616142E+04  0.25500000920E-02 0.  1.
    10030    2    1    2    0    0  0.00000000000E+00  0.00000000000E+00  0.85004466112E+03  0.38543678895E+04  0.37594648424E+04 0.  0.
        1    1    3    3  502    0 -0.38990402462E+03  0.16715582063E+04  0.12106975998E+04  0.21004572511E+04  0.50400001928E-02 0. -1.
       -1    1    3    3    0  502  0.38990402462E+03 -0.16715582063E+04 -0.36065293867E+03  0.17539106384E+04  0.50400001928E-02 0.  1.
</event>
<event>
 5   0  0.4795023E-07  0.3714430E+04  0.7818609E-02  0.8064772E-01
        1   -1    0    0  501    0  0.00000000000E+00  0.00000000000E+00  0.17234298738E+04  0.17234298738E+04  0.50400001928E-02 0.  1.
       -1   -1    0    0    0  501  0.00000000000E+00  0.00000000000E+00 -0.20013850383E+04  0.20013850383E+04  0.50400001928E-02 0. -1.
    10030    2    1    2    0    0  0.00000000000E+00  0.00000000000E+00 -0.27795516443E+03  0.37248149121E+04  0.37144295734E+04 0.  0.
        3    1    3    3  502    0 -0.49295867499E+02 -0.14501310058E+04  0.10235465630E+04  0.17756569469E+04  0.10100000352E+00 0.  1.
       -3    1    3    3    0  502  0.49295867499E+02  0.14501310058E+04 -0.13015017274E+04  0.19491579652E+04  0.10100000352E+00 0. -1.
</event>
<event>
 5   0  0.1341932E-06  0.3608904E+04  0.7818609E-02  0.8088455E-01
        2   -1    0    0  501    0  0.00000000000E+00  0.00000000000E+00  0.22145559217E+04  0.22145559217E+04  0.25500000920E-02 0.  1.
       -2   -1    0    0    0  501  0.00000000000E+00  0.00000000000E+00 -0.14702936245E+04  0.14702936245E+04  0.25500000920E-02 0. -1.
    10030    2    1    2    0    0  0.00000000000E+00  0.00000000000E+00  0.74426229721E+03  0.36848495462E+04  0.36089042397E+04 0.  0.
        2    1    3    3  502    0  0.17335370181E+03 -0.93909237852E+03  0.19353961452E+04  0.21581715038E+04  0.25500000920E-02 0.  1.
       -2    1    3    3    0  502 -0.17335370181E+03  0.93909237852E+03 -0.11911338479E+04  0.15266780424E+04  0.25500000920E-02 0. -1.
</event>
<event>
 5   0  0.4255250E-07  0.2092278E+04  0.7818609E-02  0.8564653E-01
        3   -1    0    0  501    0  0.00000000000E+00  0.00000000000E+00  0.53644315507E+03  0.53644316458E+03  0.10100000352E+00 0. -1.
       -3   -1    0    0    0  501  0.00000000000E+00  0.00000000000E+00 -0.20401171213E+04  0.20401171238E+04  0.10100000352E+00 0.  1.
    10030    2    1    2    0    0  0.00000000000E+00  0.00000000000E+00 -0.15036739662E+04  0.25765602884E+04  0.20922780702E+04 0.  0.
        5    1    3    3  502    0 -0.53289877552E+03 -0.54082044191E+03  0.13440222943E+03  0.77107321612E+03  0.46999998093E+01 0. -1.
       -5    1    3    3    0  502  0.53289877552E+03  0.54082044191E+03 -0.16380761956E+04  0.18054870722E+04  0.46999998093E+01 0.  1.
</event>
<event>
 5   0  0.1184616E-06  0.3135622E+04  0.7818609E-02  0.8206029E-01
       -2   -1    0    0    0  501  0.00000000000E+00  0.00000000000E+00  0.16189904491E+04  0.16189904491E+04  0.25500000920E-02 0. -1.
        2   -1    0    0  501    0  0.00000000000E+00  0.00000000000E+00 -0.15182489745E+04  0.15182489745E+04  0.25500000920E-02 0.  1.
    10030    2    1    2    0    0  0.00000000000E+00  0.00000000000E+00  0.10074147463E+03  0.31372394237E+04  0.31356215264E+04 0.  0.
        5    1    3    3  502    0  0.87968637946E+03 -0.10876889221E+04  0.75861533949E+03  0.15913625108E+04  0.46999998093E+01 0. -1.
       -5    1    3    3    0  502 -0.87968637946E+03  0.10876889221E+04 -0.65787386486E+03  0.15458769128E+04  0.46999998093E+01 0.  1.
</event>
<event>
 5   0  0.1079205E-06  0.3868369E+04  0.7818609E-02  0.8031640E-01
       -1   -1    0    0    0  501  0.00000000000E+00  0.00000000000E+00  0.23823591489E+04  0.23823591489E+04  0.50400001928E-02 0.  1.
        1   -1    0    0  501    0  0.00000000000E+00  0.00000000000E+00 -0.15703211731E+04  0.15703211731E+04  0.50400001928E-02 0. -1.
    10030    2    1    2    0    0  0.00000000000E+00  0.00000000000E+00  0.81203797586E+03  0.39526803220E+04  0.38683686553E+04 0.  0.
        4    1    3    3  502    0 -0.10298813793E+03  0.14815586583E+04  0.16721566811E+04  0.22364552742E+04  0.12699999809E+01 0.  1.
       -4    1    3    3    0  502  0.10298813793E+03 -0.14815586583E+04 -0.86011870525E+03  0.17162250478E+04  0.12699999809E+01 0. -1.
</event>
<event>
 5   0  0.1214844E-06  0.3798179E+04  0.7818609E-02  0.8046546E-01
       -2   -1    0    0    0  501  0.00000000000E+00  0.00000000000E+00  0.21650744075E+04  0.21650744075E+04  0.25500000920E-02 0.  1.
        2   -1    0    0  501    0  0.00000000000E+00  0.00000000000E+00 -0.16657818421E+04  0.16657818421E+04  0.25500000920E-02 0. -1.
    10030    2    1    2    0    0  0.00000000000E+00  0.00000000000E+00  0.49929256549E+03  0.38308562496E+04  0.37981793716E+04 0.  0.
        4    1    3    3  502    0 -0.16110822928E+04 -0.86899928092E+03  0.75975842522E+03  0.19819133134E+04  0.12699999809E+01 0.  1.
       -4    1    3    3    0  502  0.16110822928E+04  0.86899928092E+03 -0.26046585974E+03  0.18489429362E+04  0.12699999809E+01 0. -1.
</event>
<event>
 5   0  0.4795023E-07  0.2223630E+04  0.7818609E-02  0.8508657E-01
        1   -1    0    0  501    0  0.00000000000E+00  0.00000000000E+00  0.19884845290E+04  0.19884845290E+04  0.50400001928E-02 0. -1.
       -1   -1    0    0    0  501  0.00000000000E+00  0.00000000000E+00 -0.62164579587E+03  0.62164579589E+03  0.50400001928E-02 0.  1.
    10030    2    1    2    0    0  0.00000000000E+00  0.00000000000E+00  0.13668387331E+04  0.26101303249E+04  0.22236304078E+04 0.  0.
        3    1    3    3  502    0  0.33170155325E+03 -0.41220723275E+03  0.18312352028E+04  0.19061382692E+04  0.10100000352E+00 0. -1.
       -3    1    3    3    0  502 -0.33170155325E+03  0.41220723275E+03 -0.46439646970E+03  0.70399205566E+03  0.10100000352E+00 0.  1.
</event>
<event>
 5   0  0.1372748E-06  0.3880895E+04  0.7818609E-02  0.8029014E-01
        2   -1    0    0  501    0  0.00000000000E+00  0.00000000000E+00  0.13080420976E+04  0.13080420976E+04  0.25500000920E-02 0. -1.
       -2   -1    0    0    0  501  0.00000000000E+00  0.00000000000E+00 -0.28786054514E+04  0.28786054514E+04  0.25500000920E-02 0.  1.
    10030    2    1    2    0    0  0.00000000000E+00  0.00000000000E+00 -0.15705633538E+04  0.41866475491E+04  0.38808953158E+04 0.  0.
        1    1    3    3  502    0 -0.13746722643E+04  0.12075955888E+04 -0.14821845977E+04  0.23547573382E+04  0.50400001928E-02 0.  1.
       -1    1    3    3    0  502  0.13746722643E+04 -0.12075955888E+04 -0.88378756124E+02  0.18318902109E+04  0.50400001928E-02 0. -1.
</event>
<event>
 5   0  0.1079205E-06  0.3691905E+04  0.7818609E-02  0.8069758E-01
       -1   -1    0    0    0  501  0.00000000000E+00  0.00000000000E+00  0.20378596462E+04  0.20378596462E+04  0.50400001928E-02 0.  1.
        1   -1    0    0  501    0  0.00000000000E+00  0.00000000000E+00 -0.16721175373E+04  0.16721175373E+04  0.50400001928E-02 0. -1.
    10030    2    1    2    0    0  0.00000000000E+00  0.00000000000E+00  0.36574210884E+03  0.37099771835E+04  0.36919051196E+04 0.  0.
        4    1    3    3  502    0  0.12075481343E+04 -0.67663061328E+02  0.15842542037E+04  0.19931416862E+04  0.12699999809E+01 0.  1.
       -4    1    3    3    0  502 -0.12075481343E+04  0.67663061328E+02 -0.12185120949E+04  0.17168354973E+04  0.12699999809E+01 0. -1.
</event>
<event>
 5   0  0.1337854E-06  0.3796313E+04  0.7818609E-02  0.8046947E-01
       -2   -1    0    0    0  501  0.00000000000E+00  0.00000000000E+00  0.12258963695E+04  0.12258963695E+04  0.25500000920E-02 0. -1.
        2   -1    0    0  501    0  0.00000000000E+00  0.00000000000E+00 -0.29390717406E+04  0.29390717406E+04  0.25500000920E-02 0.  1.
    10030    2    1    2    0    0  0.00000000000E+00  0.00000000000E+00 -0.17131753710E+04  0.41649681101E+04  0.37963126196E+04 0.  0.
        3    1    3    3  502    0  0.80278494004E+03  0.17126353726E+04 -0.10314855090E+04  0.21544247364E+04  0.10100000352E+00 0. -1.
       -3    1    3    3    0  502 -0.80278494004E+03 -0.17126353726E+04 -0.68168986199E+03  0.20105433737E+04  0.10100000352E+00 0.  1.
</event>
<event>
 5   0  0.5284458E-07  0.4035931E+04  0.7818609E-02  0.7997337E-01
        1   -1    0    0  501    0  0.00000000000E+00  0.00000000000E+00  0.26743742195E+04  0.26743742195E+04  0.50400001928E-02 0.  1.
       -1   -1    0    0    0  501  0.00000000000E+00  0.00000000000E+00 -0.15226682272E+04  0.15226682272E+04  0.50400001928E-02 0. -1.
    10030    2    1    2    0    0  0.00000000000E+00  0.00000000000E+00  0.11517059923E+04  0.41970424467E+04  0.40359309467E+04 0.  0.
        5    1    3    3  502    0  0.70609420229E+03 -0.18901345213E+04  0.54321492676E+03  0.20895650451E+04  0.46999998093E+01 0.  1.
       -5    1    3    3    0  502 -0.70609420229E+03  0.18901345213E+04  0.60849106555E+03  0.21074774016E+04  0.46999998093E+01 0. -1.
</event>
<event>
 5   0  0.1372748E-06  0.2616160E+04  0.7818609E-02  0.8362733E-01
       -2   -1    0    0    0  501  0.00000000000E+00  0.00000000000E+00  0.90848924776E+03  0.90848924777E+03  0.25500000920E-02 0. -1.
        2   -1    0    0  501    0  0.00000000000E+00  0.00000000000E+00 -0.18834266979E+04  0.18834266979E+04  0.25500000920E-02 0.  1.
    10030    2    1    2    0    0  0.00000000000E+00  0.00000000000E+00 -0.97493745014E+03  0.27919159457E+04  0.26161597077E+04 0.  0.
        1    1    3    3  502    0 -0.10743794201E+04  0.46666631239E+03  0.13388756880E+03  0.11789802656E+04  0.50400001928E-02 0. -1.
       -1    1    3    3    0  502  0.10743794201E+04 -0.46666631239E+03 -0.11088250189E+04  0.16129356801E+04  0.50400001928E-02 0.  1.
</event>
<event>
 5   0  0.1079205E-06  0.3656015E+04  0.7818609E-02  0.8077780E-01
        1   -1    0    0  501    0  0.00000000000E+00  0.00000000000E+00  0.27294695001E+04  0.27294695001E+04  0.50400001928E-02 0.  1.
       -1   -1    0    0    0  501  0.00000000000E+00  0.00000000000E+00 -0.12242716693E+04  0.12242716693E+04  0.50400001928E-02 0. -1.
    10030    2    1    2    0    0  0.00000000000E+00  0.00000000000E+00  0.15051978308E+04  0.39537411694E+04  0.36560154164E+04 0.  0.
        4    1    3    3  502    0  0.14847472477E+04  0.40052492879E+03 -0.31617134051E+03  0.15699874323E+04  0.12699999809E+01 0. -1.
       -4    1    3    3    0  502 -0.14847472477E+04 -0.40052492879E+03  0.18213691713E+04  0.23837537371E+04  0.12699999809E+01 0.  1.
</event>
<event>
 5   0  0.1337854E-06  0.3796493E+04  0.7818609E-02  0.8046908E-01
        2   -1    0    0  501    0  0.00000000000E+00  0.00000000000E+00  0.23168602247E+04  0.23168602247E+04  0.25500000920E-02 0. -1.
       -2   -1    0    0    0  501  0.00000000000E+00  0.00000000000E+00 -0.15552686354E+04  0.15552686354E+04  0.25500000920E-02 0.  1.
    10030    2    1    2    0    0  0.00000000000E+00  0.00000000000E+00  0.76159158926E+03  0.38721288601E+04  0.37964931398E+04 0.  0.
        3    1    3    3  502    0  0.50510191267E+03 -0.67820996309E+03  0.21141370431E+04  0.22769875150E+04  0.10100000352E+00 0. -1.
       -3    1    3    3    0  502 -0.50510191267E+03  0.67820996309E+03 -0.13525454538E+04  0.15951413452E+04  0.10100000352E+00 0.  1.
</event>
<event>
 5   0  0.8030324E-07  0.4004966E+04  0.7818609E-02  0.8003546E-01
        1   -1    0    0  501    0  0.00000000000E+00  0.00000000000E+00  0.27535212480E+04  0.27535212480E+04  0.50400001928E-02 0. -1.
       -1   -1    0    0    0  501  0.00000000000E+00  0.00000000000E+00 -0.14562942679E+04  0.14562942679E+04  0.50400001928E-02 0.  1.
    10030    2    1    2    0    0  0.00000000000E+00  0.00000000000E+00  0.12972269801E+04  0.42098155160E+04  0.40049655230E+04 0.  0.
        1    1    3    3  502    0 -0.65166170338E+03  0.14598374628E+04 -0.61894704684E+03  0.17143173102E+04  0.50400001928E-02 0.  1.
       -1    1    3    3    0  502  0.65166170338E+03 -0.14598374628E+04  0.19161740269E+04  0.24954982058E+04  0.50400001928E-02 0. -1.
</event>
<event>
 5   0  0.1079205E-06  0.3756498E+04  0.7818609E-02  0.8055555E-01
       -1   -1    0    0    0  501  0.00000000000E+00  0.00000000000E+00  0.22508145203E+04  0.22508145203E+04  0.50400001928E-02 0. -1.
        1   -1    0    0  501    0  0.00000000000E+00  0.00000000000E+00 -0.15673526249E+04  0.15673526249E+04  0.50400001928E-02 0.  1.
    10030    2    1    2    0    0  0.00000000000E+00  0.00000000000E+00  0.68346189540E+03  0.38181671452E+04  0.37564983943E+04 0.  0.
        4    1    3    3  502    0 -0.16966870222E+04  0.40950147533E+03 -0.36347473954E+03  0.17828499120E+04  0.12699999809E+01 0.  1.
       -4    1    3    3    0  502  0.16966870222E+04 -0.40950147533E+03  0.10469366349E+04  0.20353172333E+04  0.12699999809E+01 0. -1.
</event>
<event>
 5   0  0.1341932E-06  0.3777036E+04  0.7818609E-02  0.8051101E-01
       -2   -1    0    0    0  501  0.00000000000E+00  0.00000000000E+00  0.24304430850E+04  0.24304430850E+04  0.25500000920E-02 0.  1.
        2   -1    0    0  501    0  0.00000000000E+00  0.00000000000E+00 -0.14674276805E+04  0.14674276805E+04  0.25500000920E-02 0. -1.
    10030    2    1    2    0    0  0.00000000000E+00  0.00000000000E+00  0.96301540457E+03  0.38978707655E+04  0.37770355882E+04 0.  0.
        2    1    3    3  502    0  0.82638345148E+03  0.16948402310E+04  0.37274904849E+03  0.19220652618E+04  0.25500000920E-02 0. -1.
       -2    1    3    3    0  502 -0.82638345148E+03 -0.16948402310E+04  0.59026635608E+03  0.19758055037E+04  0.25500000920E-02 0.  1.
</event>
<event>
 5   0  0.1214844E-06  0.3775130E+04  0.7818609E-02  0.8051513E-01
        2   -1    0    0  501    0  0.00000000000E+00  0.00000000000E+00  0.27248534767E+04  0.27248534767E+04  0.25500000920E-02 0.  1.
       -2   -1    0    0    0  501  0.00000000000E+00  0.00000000000E+00 -0.13075572772E+04  0.13075572772E+04  0.25500000920E-02 0. -1.
    10030    2    1    2    0    0  0.00000000000E+00  0.00000000000E+00  0.14172961995E+04  0.40324107538E+04  0.37751301925E+04 0.  0.
        4    1    3    3  502    0 -0.13723949285E+04  0.48568416692E+03 -0.57470970998E+03  0.15651357173E+04  0.12699999809E+01 0. -1.
       -4    1    3    3    0  502  0.13723949285E+04 -0.48568416692E+03  0.19920059095E+04  0.24672750366E+04  0.12699999809E+01 0.  1.
</event>
<event>
 5   0  0.1184616E-06  0.2153240E+04  0.7818609E-02  0.8538147E-01
        2   -1    0    0  501    0  0.00000000000E+00  0.00000000000E+00  0.18795798533E+04  0.18795798533E+04  0.25500000920E-02 0. -1.
       -2   -1    0    0    0  501  0.00000000000E+00  0.00000000000E+00 -0.61668596588E+03  0.61668596589E+03  0.25500000920E-02 0.  1.
    10030    2    1    2    0    0  0.00000000000E+00  0.00000000000E+00  0.12628938874E+04  0.24962658192E+04  0.21532399005E+04 0.  0.
        5    1    3    3  502    0 -0.88433571149E+03  0.61071834661E+03  0.55756099773E+03  0.12107530325E+04  0.46999998093E+01 0. -1.
       -5    1    3    3    0  502  0.88433571149E+03 -0.61071834661E+03  0.70533288968E+03  0.12855127867E+04  0.46999998093E+01 0.  1.
</event>
<event>
 5   0  0.1184616E-06  0.2587773E+04  0.7818609E-02  0.8372366E-01
        2   -1    0    0  501    0  0.00000000000E+00  0.00000000000E+00  0.14688377823E+04  0.14688377823E+04  0.25500000920E-02 0.  1.
       -2   -1    0    0    0  501  0.00000000000E+00  0.00000000000E+00 -0.11397733420E+04  0.11397733420E+04  0.25500000920E-02 0. -1.
    10030    2    1    2    0    0  0.00000000000E+00  0.00000000000E+00  0.32906444034E+03  0.26086111243E+04  0.25877729019E+04 0.  0.
        5    1    3    3  502    0 -0.22500414542E+03 -0.84954964404E+03 -0.79272428500E+03  0.11835520036E+04  0.46999998093E+01 0. -1.
       -5    1    3    3    0  502  0.22500414542E+03  0.84954964404E+03  0.11217887253E+04  0.14250591207E+04  0.46999998093E+01 0.  1.
</event>
<event>
 5   0  0.1079205E-06  0.3835477E+04  0.7818609E-02  0.8038584E-01
        1   -1    0    0  501    0  0.00000000000E+00  0.00000000000E+00  0.13660773270E+04  0.13660773270E+04  0.50400001928E-02 0.  1.
       -1   -1    0    0    0  501  0.00000000000E+00  0.00000000000E+00 -0.26921764297E+04  0.26921764297E+04  0.50400001928E-02 0. -1.
    10030    2    1    2    0    0  0.00000000000E+00  0.00000000000E+00 -0.13260991027E+04  0.40582537567E+04  0.38354771181E+04 0.  0.
        4    1    3    3  502    0  0.10165374166E+04 -0.54920694754E+03 -0.22825539262E+04  0.25583257474E+04  0.12699999809E+01 0. -1.
       -4    1    3    3    0  502 -0.10165374166E+04  0.54920694754E+03  0.95645482353E+03  0.14999280093E+04  0.12699999809E+01 0.  1.
</event>
<event>
 5   0  0.4795023E-07  0.3867494E+04  0.7818609E-02  0.8031824E-01
        1   -1    0    0  501    0  0.00000000000E+00  0.00000000000E+00  0.20451499687E+04  0.20451499687E+04  0.50400001928E-02 0.  1.
       -1   -1    0    0    0  501  0.00000000000E+00  0.00000000000E+00 -0.18284126126E+04  0.18284126126E+04  0.50400001928E-02 0. -1.
    10030    2    1    2    0    0  0.00000000000E+00  0.00000000000E+00  0.21673735611E+03  0.38735625813E+04  0.38674942779E+04 0.  0.
        3    1    3    3  502    0  0.15934271874E+04  0.93332125818E+03 -0.46636024791E+03  0.19046234966E+04  0.10100000352E+00 0. -1.
       -3    1    3    3    0  502 -0.15934271874E+04 -0.93332125818E+03  0.68309760402E+03  0.19689390848E+04  0.10100000352E+00 0.  1.
</event>
<event>
 5   0  0.1337854E-06  0.3778206E+04  0.7818609E-02  0.8050848E-01
        2   -1    0    0  501    0  0.00000000000E+00  0.00000000000E+00  0.33877326088E+04  0.33877326088E+04  0.25500000920E-02 0.  1.
       -2   -1    0    0    0  501  0.00000000000E+00  0.00000000000E+00 -0.10534211951E+04  0.10534211951E+04  0.25500000920E-02 0. -1.
    10030    2    1    2    0    0  0.00000000000E+00  0.00000000000E+00  0.23343114137E+04  0.44411538039E+04  0.37782055706E+04 0.  0.
        3    1    3    3  502    0 -0.59706795887E+03 -0.16238302618E+04  0.27550847318E+03  0.17519188895E+04  0.10100000352E+00 0.  1.
       -3    1    3    3    0  502  0.59706795887E+03  0.16238302618E+04  0.20588029405E+04  0.26892349143E+04  0.10100000352E+00 0. -1.
</event>
<event>
 5   0  0.1372748E-06  0.2058945E+04  0.7818609E-02  0.8579547E-01
        2   -1    0    0  501    0  0.00000000000E+00  0.00000000000E+00  0.13991082845E+04  0.13991082845E+04  0.25500000920E-02 0. -1.
       -2   -1    0    0    0  501  0.00000000000E+00  0.00000000000E+00 -0.75749200867E+03  0.75749200868E+03  0.25500000920E-02 0.  1.
    10030    2    1    2    0    0  0.00000000000E+00  0.00000000000E+00  0.64161627585E+03  0.21566002932E+04  0.20589447247E+04 0.  0.
        1    1    3    3  502    0 -0.19479923204E+03  0.97402938028E+03  0.37549758263E+02  0.99402714189E+03  0.50400001928E-02 0.  1.
       -1    1    3    3    0  502  0.19479923204E+03 -0.97402938028E+03  0.60406651759E+03  0.11625731513E+04  0.50400001928E-02 0. -1.
</event>
<event>
 5   0  0.1184616E-06  0.3760767E+04  0.7818609E-02  0.8054627E-01
       -2   -1    0    0    0  501  0.00000000000E+00  0.00000000000E+00  0.13799276251E+04  0.13799276251E+04  0.25500000920E-02 0. -1.
        2   -1    0    0  501    0  0.00000000000E+00  0.00000000000E+00 -0.25623390264E+04  0.25623390265E+04  0.25500000920E-02 0.  1.
    10030    2    1    2    0    0  0.00000000000E+00  0.00000000000E+00 -0.11824114013E+04  0.39422666516E+04  0.37607671598E+04 0.  0.
        5    1    3    3  502    0  0.12645289355E+04  0.10535608479E+04 -0.15443723679E+04  0.22570183849E+04  0.46999998093E+01 0.  1.
       -5    1    3    3    0  502 -0.12645289355E+04 -0.10535608479E+04  0.36196096654E+03  0.16852482667E+04  0.46999998093E+01 0. -1.
</event>
<event>
 5   0  0.4255250E-07  0.3750053E+04  0.7818609E-02  0.8056959E-01
        3   -1    0    0  501    0  0.00000000000E+00  0.00000000000E+00  0.24172607038E+04  0.24172607059E+04  0.10100000352E+00 0.  1.
       -3   -1    0    0    0  501  0.00000000000E+00  0.00000000000E+00 -0.14544247189E+04  0.14544247224E+04  0.10100000352E+00 0. -1.
    10030    2    1    2    0    0  0.00000000000E+00  0.00000000000E+00  0.96283598493E+03  0.38716854283E+04  0.37500526558E+04 0.  0.
        2    1    3    3  502    0  0.17308384110E+04  0.87271757982E+02 -0.25755287904E+03  0.17520706179E+04  0.25500000920E-02 0.  1.
       -2    1    3    3    0  502 -0.17308384110E+04 -0.87271757982E+02  0.12203888640E+04  0.21196148103E+04  0.25500000920E-02 0. -1.
</event>
<event>
 5   0  0.1341932E-06  0.2189403E+04  0.7818609E-02  0.8522852E-01
        2   -1    0    0  501    0  0.00000000000E+00  0.00000000000E+00  0.14876110662E+04  0.14876110662E+04  0.25500000920E-02 0.  1.
       -2   -1    0    0    0  501  0.00000000000E+00  0.00000000000E+00 -0.80556765320E+03  0.80556765320E+03  0.25500000920E-02 0. -1.
    10030    2    1    2    0    0  0.00000000000E+00  0.00000000000E+00  0.68204341300E+03  0.22931787194E+04  0.21894029830E+04 0.  0.
        2    1    3    3  502    0  0.85975441431E+03 -0.54964783491E+03  0.75614200596E+03  0.12700555612E+04  0.25500000920E-02 0.  1.
       -2    1    3    3    0  502 -0.85975441431E+03  0.54964783491E+03 -0.74098592959E+02  0.10231231582E+04  0.25500000920E-02 0. -1.
</event>
<event>
 5   0  0.4795023E-07  0.3655538E+04  0.7818609E-02  0.8077887E-01
        1   -1    0    0  501    0  0.00000000000E+00  0.00000000000E+00  0.22929221821E+04  0.22929221821E+04  0.50400001928E-02 0.  1.
       -1   -1    0    0    0  501  0.00000000000E+00  0.00000000000E+00 -0.14569791178E+04  0.14569791178E+04  0.50400001928E-02 0. -1.
    10030    2    1    2    0    0  0.00000000000E+00  0.00000000000E+00  0.83594306430E+03  0.37499012998E+04  0.36555381207E+04 0.  0.
        3    1    3    3  502    0  0.16636708816E+04  0.62251509890E+03 -0.23740914769E+02  0.17764823365E+04  0.10100000352E+00 0. -1.
       -3    1    3    3    0  502 -0.16636708816E+04 -0.62251509890E+03  0.85968397907E+03  0.19734189633E+04  0.10100000352E+00 0.  1.
</event>
<event>
 5   0  0.1337854E-06  0.4077595E+04  0.7818609E-02  0.7989073E-01
        2   -1    0    0  501    0  0.00000000000E+00  0.00000000000E+00  0.19716925823E+04  0.19716925823E+04  0.25500000920E-02 0.  1.
       -2   -1    0    0    0  501  0.00000000000E+00  0.00000000000E+00 -0.21081866310E+04  0.21081866310E+04  0.25500000920E-02 0. -1.
    10030    2    1    2    0    0  0.00000000000E+00  0.00000000000E+00 -0.13649404865E+03  0.40798792133E+04  0.40775953416E+04 0.  0.
        3    1    3    3  502    0  0.19794631669E+03 -0.50739974532E+03 -0.20340506653E+04  0.21057063815E+04  0.10100000352E+00 0. -1.
       -3    1    3    3    0  502 -0.19794631669E+03  0.50739974532E+03  0.18975566167E+04  0.19741728317E+04  0.10100000352E+00 0.  1.
</event>
<event>
 5   0  0.1341932E-06  0.3779209E+04  0.7818609E-02  0.8050631E-01
        2   -1    0    0  501    0  0.00000000000E+00  0.00000000000E+00  0.21551131838E+04  0.21551131838E+04  0.25500000920E-02 0.  1.
       -2   -1    0    0    0  501  0.00000000000E+00  0.00000000000E+00 -0.16568066101E+04  0.16568066101E+04  0.25500000920E-02 0. -1.
    10030    2    1    2    0    0  0.00000000000E+00  0.00000000000E+00  0.49830657375E+03  0.38119197939E+04  0.37792093186E+04 0.  0.
        2    1    3    3  502    0 -0.15740686283E+04 -0.58225956227E+03  0.11249354293E+04  0.20204449917E+04  0.25500000920E-02 0.  1.
       -2    1    3    3    0  502  0.15740686283E+04  0.58225956227E+03 -0.62662885551E+03  0.17914748022E+04  0.25500000920E-02 0. -1.
</event>
<event>
 5   0  0.4795023E-07  0.2003007E+04  0.7818609E-02  0.8605216E-01
       -1   -1    0    0    0  501  0.00000000000E+00  0.00000000000E+00  0.79939599035E+03  0.79939599036E+03  0.50400001928E-02 0. -1.
        1   -1    0    0  501    0  0.00000000000E+00  0.00000000000E+00 -0.12547094488E+04  0.12547094488E+04  0.50400001928E-02 0.  1.
    10030    2    1    2    0    0  0.00000000000E+00  0.00000000000E+00 -0.45531345848E+03  0.20541054392E+04  0.20030074413E+04 0.  0.
        3    1    3    3  502    0 -0.45832698644E+03 -0.36797111147E+03 -0.10592335152E+04  0.12113802109E+04  0.10100000352E+00 0.  1.
       -3    1    3    3    0  502  0.45832698644E+03  0.36797111147E+03  0.60392005671E+03  0.84272522834E+03  0.10100000352E+00 0. -1.
</event>
<event>
 5   0  0.1530731E-06  0.2081966E+04  0.7818609E-02  0.8569229E-01
       -2   -1    0    0    0  501  0.00000000000E+00  0.00000000000E+00  0.10384569091E+04  0.10384569091E+04  0.25500000920E-02 0.  1.
        2   -1    0    0  501    0  0.00000000000E+00  0.00000000000E+00 -0.10435150300E+04  0.10435150300E+04  0.25500000920E-02 0. -1.
    10030    2    1    2    0    0  0.00000000000E+00  0.00000000000E+00 -0.50581209520E+01  0.20819719391E+04  0.20819657948E+04 0.  0.
        5    1    3    3  502    0  0.29907348033E+03 -0.73592417709E+03 -0.67528208575E+03  0.10426204134E+04  0.46999998093E+01 0. -1.
       -5    1    3    3    0  502 -0.29907348033E+03  0.73592417709E+03  0.67022396480E+03  0.10393515257E+04  0.46999998093E+01 0.  1.
</event>
<event>
 5   0  0.1341932E-06  0.3782515E+04  0.7818609E-02  0.8049918E-01
        2   -1    0    0  501    0  0.00000000000E+00  0.00000000000E+00  0.24780188038E+04  0.24780188038E+04  0.25500000920E-02 0. -1.
       -2   -1    0    0    0  501  0.00000000000E+00  0.00000000000E+00 -0.14434329903E+04  0.14434329903E+04  0.25500000920E-02 0.  1.
    10030    2    1    2    0    0  0.00000000000E+00  0.00000000000E+00  0.10345858136E+04  0.39214517941E+04  0.37825145562E+04 0.  0.
        2    1    3    3  502    0 -0.51630069774E+03  0.14817350068E+04 -0.57730554200E+03  0.16719410066E+04  0.25500000920E-02 0.  1.
       -2    1    3    3    0  502  0.51630069774E+03 -0.14817350068E+04  0.16118913556E+04  0.22495107875E+04  0.25500000920E-02 0. -1.
</event>
<event>
 5   0  0.1184616E-06  0.3807683E+04  0.7818609E-02  0.8044508E-01
        2   -1    0    0  501    0  0.00000000000E+00  0.00000000000E+00  0.25579129358E+04  0.25579129358E+04  0.25500000920E-02 0. -1.
       -2   -1    0    0    0  501  0.00000000000E+00  0.00000000000E+00 -0.14170197729E+04  0.14170197729E+04  0.25500000920E-02 0.  1.
    10030    2    1    2    0    0  0.00000000000E+00  0.00000000000E+00  0.11408931629E+04  0.39749327087E+04  0.38076833941E+04 0.  0.
        5    1    3    3  502    0  0.11460634919E+04  0.14236556596E+04  0.11270981856E+04  0.21472376149E+04  0.46999998093E+01 0. -1.
       -5    1    3    3    0  502 -0.11460634919E+04 -0.14236556596E+04  0.13794977296E+02  0.18276950939E+04  0.46999998093E+01 0.  1.
</event>
<event>
 5   0  0.4795023E-07  0.2087499E+04  0.7818609E-02  0.8566770E-01
       -1   -1    0    0    0  501  0.00000000000E+00  0.00000000000E+00  0.61879261078E+03  0.61879261080E+03  0.50400001928E-02 0. -1.
        1   -1    0    0  501    0  0.00000000000E+00  0.00000000000E+00 -0.17605464844E+04  0.17605464844E+04  0.50400001928E-02 0.  1.
    10030    2    1    2    0    0  0.00000000000E+00  0.00000000000E+00 -0.11417538736E+04  0.23793390952E+04  0.20874991310E+04 0.  0.
        3    1    3    3  502    0  0.27012474444E+03  0.44799330392E+03 -0.16003333990E+04  0.16836663494E+04  0.10100000352E+00 0.  1.
       -3    1    3    3    0  502 -0.27012474444E+03 -0.44799330392E+03  0.45857952541E+03  0.69567274579E+03  0.10100000352E+00 0. -1.
</event>
<event>
 5   0  0.1214844E-06  0.2441762E+04  0.7818609E-02  0.8424032E-01
        2   -1    0    0  501    0  0.00000000000E+00  0.00000000000E+00  0.11549274874E+04  0.11549274874E+04  0.25500000920E-02 0. -1.
       -2   -1    0    0    0  501  0.00000000000E+00  0.00000000000E+00 -0.12906004806E+04  0.12906004806E+04  0.25500000920E-02 0.  1.
    10030    2    1    2    0    0  0.00000000000E+00  0.00000000000E+00 -0.13567299323E+03  0.24455279680E+04  0.24417616348E+04 0.  0.
        4    1    3    3  502    0 -0.11587518030E+03  0.76228651908E+03  0.88021778352E+03  0.11701678315E+04  0.12699999809E+01 0. -1.
       -4    1    3    3    0  502  0.11587518030E+03 -0.76228651908E+03 -0.10158907767E+04  0.12753601365E+04  0.12699999809E+01 0.  1.
</event>
<event>
 5   0  0.1337854E-06  0.3575977E+04  0.7818609E-02  0.8096017E-01
        2   -1    0    0  501    0  0.00000000000E+00  0.00000000000E+00  0.15860960284E+04  0.15860960284E+04  0.25500000920E-02 0. -1.
       -2   -1    0    0    0  501  0.00000000000E+00  0.00000000000E+00 -0.20155796012E+04  0.20155796012E+04  0.25500000920E-02 0.  1.
    10030    2    1    2    0    0  0.00000000000E+00  0.00000000000E+00 -0.42948357284E+03  0.36016756296E+04  0.35759769576E+04 0.  0.
        3    1    3    3  502    0 -0.75486675546E+02 -0.28095742576E+03  0.15620982968E+04  0.15889576496E+04  0.10100000352E+00 0. -1.
       -3    1    3    3    0  502  0.75486675546E+02  0.28095742576E+03 -0.19915818696E+04  0.20127179800E+04  0.10100000352E+00 0.  1.
</event>
<event>
 5   0  0.1184616E-06  0.3869158E+04  0.7818609E-02  0.8031474E-01
        2   -1    0    0  501    0  0.00000000000E+00  0.00000000000E+00  0.34186750939E+04  0.34186750939E+04  0.25500000920E-02 0. -1.
       -2   -1    0    0    0  501  0.00000000000E+00  0.00000000000E+00 -0.10947504921E+04  0.10947504921E+04  0.25500000920E-02 0.  1.
    10030    2    1    2    0    0  0.00000000000E+00  0.00000000000E+00  0.23239246019E+04  0.45134255860E+04  0.38691581727E+04 0.  0.
        5    1    3    3  502    0  0.19280243663E+04  0.31288443964E+02  0.98005638181E+03  0.21630509761E+04  0.46999998093E+01 0.  1.
       -5    1    3    3    0  502 -0.19280243663E+04 -0.31288443964E+02  0.13438682201E+04  0.23503746099E+04  0.46999998093E+01 0. -1.
</event>
<event>
 5   0  0.1337854E-06  0.2834456E+04  0.7818609E-02  0.8292650E-01
        2   -1    0    0  501    0  0.00000000000E+00  0.00000000000E+00  0.14858124089E+04  0.14858124089E+04  0.25500000920E-02 0.  1.
       -2   -1    0    0    0  501  0.00000000000E+00  0.00000000000E+00 -0.13518094363E+04  0.13518094363E+04  0.25500000920E-02 0. -1.
    10030    2    1    2    0    0  0.00000000000E+00  0.00000000000E+00  0.13400297266E+03  0.28376218452E+04  0.28344560218E+04 0.  0.
        3    1    3    3  502    0  0.55492773721E+03  0.64337213347E+03 -0.10685770002E+04  0.13651847169E+04  0.10100000352E+00 0. -1.
       -3    1    3    3    0  502 -0.55492773721E+03 -0.64337213347E+03  0.12025799728E+04  0.14724371283E+04  0.10100000352E+00 0.  1.
</event>
<event>
 5   0  0.5284458E-07  0.2628571E+04  0.7818609E-02  0.8358560E-01
        1   -1    0    0  501    0  0.00000000000E+00  0.00000000000E+00  0.10470294503E+04  0.10470294504E+04  0.50400001928E-02 0.  1.
       -1   -1    0    0    0  501  0.00000000000E+00  0.00000000000E+00 -0.16497596905E+04  0.16497596905E+04  0.50400001928E-02 0. -1.
    10030    2    1    2    0    0  0.00000000000E+00  0.00000000000E+00 -0.60273024020E+03  0.26967891409E+04  0.26285714615E+04 0.  0.
        5    1    3    3  502    0  0.60646992703E+03  0.33644032768E+03 -0.14467282758E+04  0.16043823299E+04  0.46999998093E+01 0. -1.
       -5    1    3    3    0  502 -0.60646992703E+03 -0.33644032768E+03  0.84399803565E+03  0.10924068110E+04  0.46999998093E+01 0.  1.
</event>
<event>
 5   0  0.5284458E-07  0.3735973E+04  0.7818609E-02  0.8060036E-01
       -1   -1    0    0    0  501  0.00000000000E+00  0.00000000000E+00  0.29929983484E+04  0.29929983484E+04  0.50400001928E-02 0. -1.
        1   -1    0    0  501    0  0.00000000000E+00  0.00000000000E+00 -0.11658452782E+04  0.11658452782E+04  0.50400001928E-02 0.  1.
    10030    2    1    2    0    0  0.00000000000E+00  0.00000000000E+00  0.18271530702E+04  0.41588436266E+04  0.37359726938E+04 0.  0.
        5    1    3    3  502    0 -0.14617767404E+04  0.10528609262E+04  0.36365269148E+03  0.18378173844E+04  0.46999998093E+01 0.  1.
       -5    1    3    3    0  502  0.14617767404E+04 -0.10528609262E+04  0.14635003787E+04  0.23210262422E+04  0.46999998093E+01 0. -1.
</event>
<event>
 5   0  0.1214844E-06  0.2975587E+04  0.7818609E-02  0.8250737E-01
       -2   -1    0    0    0  501  0.00000000000E+00  0.00000000000E+00  0.10242001835E+04  0.10242001835E+04  0.25500000920E-02 0.  1.
        2   -1    0    0  501    0  0.00000000000E+00  0.00000000000E+00 -0.21612269586E+04  0.21612269586E+04  0.25500000920E-02 0. -1.
    10030    2    1    2    0    0  0.00000000000E+00  0.00000000000E+00 -0.11370267751E+04  0.31854271420E+04  0.29755866967E+04 0.  0.
        4    1    3    3  502    0  0.33684017758E+03  0.12647398168E+04 -0.13258637123E+04  0.18630470487E+04  0.12699999809E+01 0. -1.
       -4    1    3    3    0  502 -0.33684017758E+03 -0.12647398168E+04  0.18883693719E+03  0.13223800933E+04  0.12699999809E+01 0.  1.
</event>
<event>
 5   0  0.4255250E-07  0.1994996E+04  0.7818609E-02  0.8608964E-01
       -3   -1    0    0    0  501  0.00000000000E+00  0.00000000000E+00  0.12905133588E+04  0.12905133628E+04  0.10100000352E+00 0. -1.
        3   -1    0    0  501    0  0.00000000000E+00  0.00000000000E+00 -0.77101264115E+03  0.77101264776E+03  0.10100000352E+00 0.  1.
    10030    2    1    2    0    0  0.00000000000E+00  0.00000000000E+00  0.51950071766E+03  0.20615260105E+04  0.19949958638E+04 0.  0.
        1    1    3    3  502    0  0.86557295825E+03 -0.40760185580E+03 -0.31877920806E+02  0.95727322158E+03  0.50400001928E-02 0.  1.
       -1    1    3    3    0  502 -0.86557295825E+03  0.40760185580E+03  0.55137863846E+03  0.11042527889E+04  0.50400001928E-02 0. -1.
</event>
<event>
 5   0  0.5284458E-07  0.3879407E+04  0.7818609E-02  0.8029326E-01
        1   -1    0    0  501    0  0.00000000000E+00  0.00000000000E+00  0.23251293907E+04  0.23251293907E+04  0.50400001928E-02 0. -1.
       -1   -1    0    0    0  501  0.00000000000E+00  0.00000000000E+00 -0.16181680688E+04  0.16181680688E+04  0.50400001928E-02 0.  1.
    10030    2    1    2    0    0  0.00000000000E+00  0.00000000000E+00  0.70696132197E+03  0.39432974595E+04  0.38794072413E+04 0.  0.
        5    1    3    3  502    0  0.16868389657E+04  0.89528914655E+03  0.69887034907E+03  0.20335708021E+04  0.46999998093E+01 0. -1.
       -5    1    3    3    0  502 -0.16868389657E+04 -0.89528914655E+03  0.80909728985E+01  0.19097266574E+04  0.46999998093E+01 0.  1.
</event>
<event>
 5   0  0.1372748E-06  0.3681703E+04  0.7818609E-02  0.8072029E-01
        2   -1    0    0  501    0  0.00000000000E+00  0.00000000000E+00  0.18463133077E+04  0.18463133077E+04  0.25500000920E-02 0.  1.
       -2   -1    0    0    0  501  0.00000000000E+00  0.00000000000E+00 -0.18354055081E+04  0.18354055081E+04  0.25500000920E-02 0. -1.
    10030    2    1    2    0    0  0.00000000000E+00  0.00000000000E+00  0.10907799594E+02  0.36817188157E+04  0.36817026575E+04 0.  0.
        1    1    3    3  502    0 -0.75365395401E+03  0.40817723805E+03 -0.16237035424E+04  0.18360327158E+04  0.50400001928E-02 0. -1.
       -1    1    3    3    0  502  0.75365395401E+03 -0.40817723805E+03  0.16346113420E+04  0.18456860999E+04  0.50400001928E-02 0.  1.
</event>
<event>
 5   0  0.4255250E-07  0.2546197E+04  0.7818609E-02  0.8386710E-01
        1   -1    0    0  501    0  0.00000000000E+00  0.00000000000E+00  0.13089653887E+04  0.13089653887E+04  0.50400001928E-02 0. -1.
       -1   -1    0    0    0  501  0.00000000000E+00  0.00000000000E+00 -0.12382145634E+04  0.12382145634E+04  0.50400001928E-02 0.  1.
    10030    2    1    2    0    0  0.00000000000E+00  0.00000000000E+00  0.70750825342E+02  0.25471799521E+04  0.25461971701E+04 0.  0.
        2    1    3    3  502    0 -0.12070022873E+04  0.40477636056E+03  0.26339564697E+02  0.12733389951E+04  0.25500000920E-02 0. -1.
       -2    1    3    3    0  502  0.12070022873E+04 -0.40477636056E+03  0.44411260645E+02  0.12738409570E+04  0.25500000920E-02 0.  1.
</event>
<event>
 5   0  0.5284458E-07  0.3801796E+04  0.7818609E-02  0.8045770E-01
       -1   -1    0    0    0  501  0.00000000000E+00  0.00000000000E+00  0.16722586042E+04  0.16722586042E+04  0.50400001928E-02 0. -1.
        1   -1    0    0  501    0  0.00000000000E+00  0.00000000000E+00 -0.21607981591E+04  0.21607981591E+04  0.50400001928E-02 0.  1.
    10030    2    1    2    0    0  0.00000000000E+00  0.00000000000E+00 -0.48853955492E+03  0.38330567633E+04  0.38017960563E+04 0.  0.
        5    1    3    3  502    0 -0.10652679385E+04 -0.11747595468E+04 -0.13009984051E+04  0.20512129859E+04  0.46999998093E+01 0.  1.
       -5    1    3    3    0  502  0.10652679385E+04  0.11747595468E+04  0.81245885016E+03  0.17818437773E+04  0.46999998093E+01 0. -1.
</event>
<event>
 5   0  0.4255250E-07  0.3917917E+04  0.7818609E-02  0.8021313E-01
        1   -1    0    0  501    0  0.00000000000E+00  0.00000000000E+00  0.23396894317E+04  0.23396894317E+04  0.50400001928E-02 0.  1.
       -1   -1    0    0    0  501  0.00000000000E+00  0.00000000000E+00 -0.16401824125E+04  0.16401824125E+04  0.50400001928E-02 0. -1.
    10030    2    1    2    0    0  0.00000000000E+00  0.00000000000E+00  0.69950701916E+03  0.39798718442E+04  0.39179165160E+04 0.  0.
        2    1    3    3  502    0 -0.10155448288E+04 -0.17167826317E+03 -0.13429441185E+04  0.16924253693E+04  0.25500000920E-02 0. -1.
       -2    1    3    3    0  502  0.10155448288E+04  0.17167826317E+03  0.20424511377E+04  0.22874464748E+04  0.25500000920E-02 0.  1.
</event>
<event>
 5   0  0.5284458E-07  0.2909354E+04  0.7818609E-02  0.8270100E-01
        1   -1    0    0  501    0  0.00000000000E+00  0.00000000000E+00  0.22420152252E+04  0.22420152252E+04  0.50400001928E-02 0.  1.
       -1   -1    0    0    0  501  0.00000000000E+00  0.00000000000E+00 -0.94383185913E+03  0.94383185915E+03  0.50400001928E-02 0. -1.
    10030    2    1    2    0    0  0.00000000000E+00  0.00000000000E+00  0.12981833660E+04  0.31858470843E+04  0.29093541539E+04 0.  0.
        5    1    3    3  502    0 -0.73349779645E+03  0.12088659049E+04  0.10231510469E+04  0.17453469420E+04  0.46999998093E+01 0.  1.
       -5    1    3    3    0  502  0.73349779645E+03 -0.12088659049E+04  0.27503231915E+03  0.14405001423E+04  0.46999998093E+01 0. -1.
</event>
<event>
 5   0  0.1184616E-06  0.3732060E+04  0.7818609E-02  0.8060894E-01
        2   -1    0    0  501    0  0.00000000000E+00  0.00000000000E+00  0.18361162728E+04  0.18361162728E+04  0.25500000920E-02 0.  1.
       -2   -1    0    0    0  501  0.00000000000E+00  0.00000000000E+00 -0.18964314381E+04  0.18964314381E+04  0.25500000920E-02 0. -1.
    10030    2    1    2    0    0  0.00000000000E+00  0.00000000000E+00 -0.60315165391E+02  0.37325477109E+04  0.37320603552E+04 0.  0.
        5    1    3    3  502    0  0.56548734195E+03  0.13317693968E+04  0.11484108614E+04  0.18472290753E+04  0.46999998093E+01 0.  1.
       -5    1    3    3    0  502 -0.56548734195E+03 -0.13317693968E+04 -0.12087260268E+04  0.18853186356E+04  0.46999998093E+01 0. -1.
</event>
<event>
 5   0  0.1372748E-06  0.3723922E+04  0.7818609E-02  0.8062681E-01
        2   -1    0    0  501    0  0.00000000000E+00  0.00000000000E+00  0.24875838665E+04  0.24875838665E+04  0.25500000920E-02 0.  1.
       -2   -1    0    0    0  501  0.00000000000E+00  0.00000000000E+00 -0.13936808790E+04  0.13936808790E+04  0.25500000920E-02 0. -1.
    10030    2    1    2    0    0  0.00000000000E+00  0.00000000000E+00  0.10939029875E+04  0.38812647455E+04  0.37239216263E+04 0.  0.
        1    1    3    3  502    0 -0.30540194367E+02 -0.16706090266E+04 -0.30936546438E+03  0.16992863837E+04  0.50400001928E-02 0. -1.
       -1    1    3    3    0  502  0.30540194367E+02  0.16706090266E+04  0.14032684519E+04  0.21819783618E+04  0.50400001928E-02 0.  1.
</event>
<event>
 5   0  0.4795023E-07  0.3888164E+04  0.7818609E-02  0.8027495E-01
        1   -1    0    0  501    0  0.00000000000E+00  0.00000000000E+00  0.14707405003E+04  0.14707405004E+04  0.50400001928E-02 0. -1.
       -1   -1    0    0    0  501  0.00000000000E+00  0.00000000000E+00 -0.25697630196E+04  0.25697630196E+04  0.50400001928E-02 0.  1.
    10030    2    1    2    0    0  0.00000000000E+00  0.00000000000E+00 -0.10990225192E+04  0.40405035199E+04  0.38881638593E+04 0.  0.
        3    1    3    3  502    0 -0.18855996814E+04  0.33812256075E+03 -0.89360632384E+03  0.21138460911E+04  0.10100000352E+00 0. -1.
       -3    1    3    3    0  502  0.18855996814E+04 -0.33812256075E+03 -0.20541619538E+03  0.19266574288E+04  0.10100000352E+00 0.  1.
</event>
<event>
 5   0  0.1341932E-06  0.3545884E+04  0.7818609E-02  0.8103001E-01
        2   -1    0    0  501    0  0.00000000000E+00  0.00000000000E+00  0.22670563740E+04  0.22670563740E+04  0.25500000920E-02 0. -1.
       -2   -1    0    0    0  501  0.00000000000E+00  0.00000000000E+00 -0.13865220695E+04  0.13865220695E+04  0.25500000920E-02 0.  1.
    10030    2    1    2    0    0  0.00000000000E+00  0.00000000000E+00  0.88053430456E+03  0.36535784435E+04  0.35458842030E+04 0.  0.
        2    1    3    3  502    0 -0.77033588859E+03 -0.66649810201E+03 -0.10549034638E+04  0.14664441412E+04  0.25500000920E-02 0.  1.
       -2    1    3    3    0  502  0.77033588859E+03  0.66649810201E+03  0.19354377683E+04  0.21871343023E+04  0.25500000920E-02 0. -1.
</event>
<event>
 5   0  0.1184616E-06  0.2936539E+04  0.7818609E-02  0.8262088E-01
        2   -1    0    0  501    0  0.00000000000E+00  0.00000000000E+00  0.25497309757E+04  0.25497309757E+04  0.25500000920E-02 0. -1.
       -2   -1    0    0    0  501  0.00000000000E+00  0.00000000000E+00 -0.84550713111E+03  0.84550713112E+03  0.25500000920E-02 0.  1.
    10030    2    1    2    0    0  0.00000000000E+00  0.00000000000E+00  0.17042238446E+04  0.33952381068E+04  0.29365392709E+04 0.  0.
        5    1    3    3  502    0 -0.10876500346E+04  0.73339407980E+03  0.16146318089E+04  0.20803623344E+04  0.46999998093E+01 0. -1.
       -5    1    3    3    0  502  0.10876500346E+04 -0.73339407980E+03  0.89592035674E+02  0.13148757724E+04  0.46999998093E+01 0.  1.
</event>
<event>
 5   0  0.4255250E-07  0.2177483E+04  0.7818609E-02  0.8527859E-01
        1   -1    0    0  501    0  0.00000000000E+00  0.00000000000E+00  0.24840330763E+04  0.24840330763E+04  0.50400001928E-02 0.  1.
       -1   -1    0    0    0  501  0.00000000000E+00  0.00000000000E+00 -0.47719094821E+03  0.47719094824E+03  0.50400001928E-02 0. -1.
    10030    2    1    2    0    0  0.00000000000E+00  0.00000000000E+00  0.20068421281E+04  0.29612240246E+04  0.21774830416E+04 0.  0.
        2    1    3    3  502    0 -0.33181189038E+03  0.28881156131E+03  0.23577956382E+04  0.23984810861E+04  0.25500000920E-02 0.  1.
       -2    1    3    3    0  502  0.33181189038E+03 -0.28881156131E+03 -0.35095351013E+03  0.56274293849E+03  0.25500000920E-02 0. -1.
</event>
<event>
 5   0  0.1341932E-06  0.2716606E+04  0.7818609E-02  0.8329637E-01
        2   -1    0    0  501    0  0.00000000000E+00  0.00000000000E+00  0.87155395472E+03  0.87155395473E+03  0.25500000920E-02 0. -1.
       -2   -1    0    0    0  501  0.00000000000E+00  0.00000000000E+00 -0.21168943285E+04  0.21168943285E+04  0.25500000920E-02 0.  1.
    10030    2    1    2    0    0  0.00000000000E+00  0.00000000000E+00 -0.12453403738E+04  0.29884482832E+04  0.27166064299E+04 0.  0.
        2    1    3    3  502    0 -0.41157394572E+03 -0.83767299600E+03 -0.17082852495E+04  0.19466195454E+04  0.25500000920E-02 0.  1.
       -2    1    3    3    0  502  0.41157394572E+03  0.83767299600E+03  0.46294487568E+03  0.10418287378E+04  0.25500000920E-02 0. -1.
</event>
<event>
 5   0  0.1337854E-06  0.2923255E+04  0.7818609E-02  0.8265992E-01
       -2   -1    0    0    0  501  0.00000000000E+00  0.00000000000E+00  0.11143772669E+04  0.11143772669E+04  0.25500000920E-02 0.  1.
        2   -1    0    0  501    0  0.00000000000E+00  0.00000000000E+00 -0.19170841768E+04  0.19170841768E+04  0.25500000920E-02 0. -1.
    10030    2    1    2    0    0  0.00000000000E+00  0.00000000000E+00 -0.80270690985E+03  0.30314614437E+04  0.29232550524E+04 0.  0.
        3    1    3    3  502    0 -0.32321482502E+03  0.12078869512E+04  0.38356284987E+03  0.13078911193E+04  0.10100000352E+00 0.  1.
       -3    1    3    3    0  502  0.32321482502E+03 -0.12078869512E+04 -0.11862697597E+04  0.17235703244E+04  0.10100000352E+00 0. -1.
</event>
<event>
 5   0  0.1372748E-06  0.4234409E+04  0.7818609E-02  0.7958859E-01
       -2   -1    0    0    0  501  0.00000000000E+00  0.00000000000E+00  0.33603664763E+04  0.33603664763E+04  0.25500000920E-02 0. -1.
        2   -1    0    0  501    0  0.00000000000E+00  0.00000000000E+00 -0.13339479615E+04  0.13339479615E+04  0.25500000920E-02 0.  1.
    10030    2    1    2    0    0  0.00000000000E+00  0.00000000000E+00  0.20264185148E+04  0.46943144377E+04  0.42344085825E+04 0.  0.
        1    1    3    3  502    0  0.19357968049E+04  0.83089955234E+03  0.77842773942E+03  0.22458078906E+04  0.50400001928E-02 0.  1.
       -1    1    3    3    0  502 -0.19357968049E+04 -0.83089955234E+03  0.12479907754E+04  0.24485065471E+04  0.50400001928E-02 0. -1.
</event>
<event>
 5   0  0.1079205E-06  0.3784453E+04  0.7818609E-02  0.8049499E-01
        1   -1    0    0  501    0  0.00000000000E+00  0.00000000000E+00  0.23217893805E+04  0.23217893805E+04  0.50400001928E-02 0. -1.
       -1   -1    0    0    0  501  0.00000000000E+00  0.00000000000E+00 -0.15421388492E+04  0.15421388492E+04  0.50400001928E-02 0.  1.
    10030    2    1    2    0    0  0.00000000000E+00  0.00000000000E+00  0.77965053131E+03  0.38639282297E+04  0.37844532516E+04 0.  0.
        4    1    3    3  502    0 -0.34811846447E+03  0.12164859383E+04 -0.10466665771E+04  0.16421135892E+04  0.12699999809E+01 0.  1.
       -4    1    3    3    0  502  0.34811846447E+03 -0.12164859383E+04  0.18263171084E+04  0.22218146405E+04  0.12699999809E+01 0. -1.
</event>
<event>
 5   0  0.4255250E-07  0.2940658E+04  0.7818609E-02  0.8260882E-01
       -1   -1    0    0    0  501  0.00000000000E+00  0.00000000000E+00  0.10192586062E+04  0.10192586062E+04  0.50400001928E-02 0. -1.
        1   -1    0    0  501    0  0.00000000000E+00  0.00000000000E+00 -0.21210190281E+04  0.21210190281E+04  0.50400001928E-02 0.  1.
    10030    2    1    2    0    0  0.00000000000E+00  0.00000000000E+00 -0.11017604219E+04  0.31402776343E+04  0.29406576803E+04 0.  0.
        2    1    3    3  502    0 -0.12961104448E+04 -0.61855713315E+03 -0.21428247120E+03  0.14520441418E+04  0.25500000920E-02 0.  1.
       -2    1    3    3    0  502  0.12961104448E+04  0.61855713315E+03 -0.88747795069E+03  0.16882334925E+04  0.25500000920E-02 0. -1.
</event>
<event>
 5   0  0.1214844E-06  0.3844168E+04  0.7818609E-02  0.8036742E-01
       -2   -1    0    0    0  501  0.00000000000E+00  0.00000000000E+00  0.21948555267E+04  0.21948555267E+04  0.25500000920E-02 0.  1.
        2   -1    0    0  501    0  0.00000000000E+00  0.00000000000E+00 -0.16832122197E+04  0.16832122197E+04  0.25500000920E-02 0. -1.
    10030    2    1    2    0    0  0.00000000000E+00  0.00000000000E+00  0.51164330699E+03  0.38780677465E+04  0.38441683850E+04 0.  0.
        4    1    3    3  502    0 -0.98086005187E+03  0.15007754038E+04 -0.44310296731E+03  0.18468229765E+04  0.12699999809E+01 0. -1.
       -4    1    3    3    0  502  0.98086005187E+03 -0.15007754038E+04  0.95474627430E+03  0.20312447699E+04  0.12699999809E+01 0.  1.
</event>
<event>
 5   0  0.1341932E-06  0.3797316E+04  0.7818609E-02  0.8046731E-01
        2   -1    0    0  501    0  0.00000000000E+00  0.00000000000E+00  0.21710561786E+04  0.21710561786E+04  0.25500000920E-02 0.  1.
       -2   -1    0    0    0  501  0.00000000000E+00  0.00000000000E+00 -0.16604369284E+04  0.16604369284E+04  0.25500000920E-02 0. -1.
    10030    2    1    2    0    0  0.00000000000E+00  0.00000000000E+00  0.51061925022E+03  0.38314931069E+04  0.37973158164E+04 0.  0.
        2    1    3    3  502    0 -0.36407543323E+02  0.18982837523E+04  0.24546791401E+03  0.19144349585E+04  0.25500000920E-02 0. -1.
       -2    1    3    3    0  502  0.36407543323E+02 -0.18982837523E+04  0.26515133621E+03  0.19170581485E+04  0.25500000920E-02 0.  1.
</event>
<event>
 5   0  0.1184616E-06  0.2576576E+04  0.7818609E-02  0.8376202E-01
       -2   -1    0    0    0  501  0.00000000000E+00  0.00000000000E+00  0.11804031030E+04  0.11804031030E+04  0.25500000920E-02 0. -1.
        2   -1    0    0  501    0  0.00000000000E+00  0.00000000000E+00 -0.14060331227E+04  0.14060331227E+04  0.25500000920E-02 0.  1.
    10030    2    1    2    0    0  0.00000000000E+00  0.00000000000E+00 -0.22563001969E+03  0.25864362257E+04  0.25765759146E+04 0.  0.
        5    1    3    3  502    0 -0.19815290289E+02 -0.50694479170E+03  0.10758949674E+04  0.11895199613E+04  0.46999998093E+01 0. -1.
       -5    1    3    3    0  502  0.19815290289E+02  0.50694479170E+03 -0.13015249871E+04  0.13969162643E+04  0.46999998093E+01 0.  1.
</event>
<event>
 5   0  0.4255250E-07  0.2391216E+04  0.7818609E-02  0.8442800E-01
       -4   -1    0    0    0  501  0.00000000000E+00  0.00000000000E+00  0.11041005938E+04  0.11041013243E+04  0.12699999809E+01 0.  1.
        4   -1    0    0  501    0  0.00000000000E+00  0.00000000000E+00 -0.12946975193E+04  0.12946981422E+04  0.12699999809E+01 0. -1.
    10030    2    1    2    0    0  0.00000000000E+00  0.00000000000E+00 -0.19059692548E+03  0.23987994665E+04  0.23912155261E+04 0.  0.
        3    1    3    3  502    0 -0.31419826027E+03  0.45394029400E+02  0.10610484833E+04  0.11075220353E+04  0.10100000352E+00 0.  1.
       -3    1    3    3    0  502  0.31419826027E+03 -0.45394029400E+02 -0.12516454088E+04  0.12912774311E+04  0.10100000352E+00 0. -1.
</event>
<event>
 5   0  0.1214844E-06  0.1991676E+04  0.7818609E-02  0.8610522E-01
       -2   -1    0    0    0  501  0.00000000000E+00  0.00000000000E+00  0.10661018170E+04  0.10661018170E+04  0.25500000920E-02 0.  1.
        2   -1    0    0  501    0  0.00000000000E+00  0.00000000000E+00 -0.93020475982E+03  0.93020475982E+03  0.25500000920E-02 0. -1.
    10030    2    1    2    0    0  0.00000000000E+00  0.00000000000E+00  0.13589705715E+03  0.19963065768E+04  0.19916756610E+04 0.  0.
        4    1    3    3  502    0  0.97875161640E+03  0.11572118559E+03  0.21091696302E+03  0.10078857562E+04  0.12699999809E+01 0.  1.
       -4    1    3    3    0  502 -0.97875161640E+03 -0.11572118559E+03 -0.75019905863E+02  0.98842082059E+03  0.12699999809E+01 0. -1.
</event>
<event>
 5   0  0.1337854E-06  0.3332158E+04  0.7818609E-02  0.8154761E-01
        2   -1    0    0  501    0  0.00000000000E+00  0.00000000000E+00  0.25768260876E+04  0.25768260876E+04  0.25500000920E-02 0.  1.
       -2   -1    0    0    0  501  0.00000000000E+00  0.00000000000E+00 -0.10772244344E+04  0.10772244344E+04  0.25500000920E-02 0. -1.
    10030    2    1    2    0    0  0.00000000000E+00  0.00000000000E+00  0.14996016532E+04  0.36540505220E+04  0.33321584745E+04 0.  0.
        3    1    3    3  502    0  0.95992458674E+03  0.12521450880E+04  0.13367619046E+04  0.20679107654E+04  0.10100000352E+00 0.  1.
       -3    1    3    3    0  502 -0.95992458674E+03 -0.12521450880E+04  0.16283974852E+03  0.15861397566E+04  0.10100000352E+00 0. -1.
</event>
<event>
 5   0  0.4255250E-07  0.2080712E+04  0.7818609E-02  0.8569788E-01
        3   -1    0    0  501    0  0.00000000000E+00  0.00000000000E+00  0.73573736911E+03  0.73573737605E+03  0.10100000352E+00 0. -1.
       -3   -1    0    0    0  501  0.00000000000E+00  0.00000000000E+00 -0.14710968154E+04  0.14710968189E+04  0.10100000352E+00 0.  1.
    10030    2    1    2    0    0  0.00000000000E+00  0.00000000000E+00 -0.73535944627E+03  0.22068341949E+04  0.20807122936E+04 0.  0.
        2    1    3    3  502    0 -0.19269158813E+03 -0.10196606036E+04 -0.28900013790E+03  0.10771995518E+04  0.25500000920E-02 0. -1.
       -2    1    3    3    0  502  0.19269158813E+03  0.10196606036E+04 -0.44635930837E+03  0.11296346431E+04  0.25500000920E-02 0.  1.
</event>
<event>
 5   0  0.1337854E-06  0.2269362E+04  0.7818609E-02  0.8490100E-01
       -2   -1    0    0    0  501  0.00000000000E+00  0.00000000000E+00  0.10909377607E+04  0.10909377607E+04  0.25500000920E-02 0. -1.
        2   -1    0    0  501    0  0.00000000000E+00  0.00000000000E+00 -0.11801784125E+04  0.11801784125E+04  0.25500000920E-02 0.  1.
    10030    2    1    2    0    0  0.00000000000E+00  0.00000000000E+00 -0.89240651883E+02  0.22711161732E+04  0.22693621964E+04 0.  0.
        3    1    3    3  502    0 -0.50758840310E+03 -0.45884432091E+03 -0.95048127931E+03  0.11711527528E+04  0.10100000352E+00 0.  1.
       -3    1    3    3    0  502  0.50758840310E+03  0.45884432091E+03  0.86124062743E+03  0.10999634204E+04  0.10100000352E+00 0. -1.
</event>
<event>
 5   0  0.4255250E-07  0.2614133E+04  0.7818609E-02  0.8363416E-01
        1   -1    0    0  501    0  0.00000000000E+00  0.00000000000E+00  0.16809277819E+04  0.16809277819E+04  0.50400001928E-02 0.  1.
       -1   -1    0    0    0  501  0.00000000000E+00  0.00000000000E+00 -0.10163574309E+04  0.10163574309E+04  0.50400001928E-02 0. -1.
    10030    2    1    2    0    0  0.00000000000E+00  0.00000000000E+00  0.66457035107E+03  0.26972852128E+04  0.26141334640E+04 0.  0.
        2    1    3    3  502    0  0.36387640369E+03 -0.11702293941E+04 -0.13668351649E+03  0.12330958015E+04  0.25500000920E-02 0. -1.
       -2    1    3    3    0  502 -0.36387640369E+03  0.11702293941E+04  0.80125386756E+03  0.14641894113E+04  0.25500000920E-02 0.  1.
</event>
<event>
 5   0  0.4795023E-07  0.3777002E+04  0.7818609E-02  0.8051108E-01
       -1   -1    0    0    0  501  0.00000000000E+00  0.00000000000E+00  0.16759669267E+04  0.16759669267E+04  0.50400001928E-02 0.  1.
        1   -1    0    0  501    0  0.00000000000E+00  0.00000000000E+00 -0.21279874340E+04  0.21279874340E+04  0.50400001928E-02 0. -1.
    10030    2    1    2    0    0  0.00000000000E+00  0.00000000000E+00 -0.45202050730E+03  0.38039543607E+04  0.37770022821E+04 0.  0.
        3    1    3    3  502    0 -0.14073155944E+04  0.12430299515E+04 -0.42938164794E+03  0.19261436219E+04  0.10100000352E+00 0. -1.
       -3    1    3    3    0  502  0.14073155944E+04 -0.12430299515E+04 -0.22638859357E+02  0.18778107387E+04  0.10100000352E+00 0.  1.
</event>
<event>
 5   0  0.1214844E-06  0.4022535E+04  0.7818609E-02  0.8000016E-01
       -2   -1    0    0    0  501  0.00000000000E+00  0.00000000000E+00  0.29544334991E+04  0.29544334991E+04  0.25500000920E-02 0. -1.
        2   -1    0    0  501    0  0.00000000000E+00  0.00000000000E+00 -0.13691952566E+04  0.13691952566E+04  0.25500000920E-02 0.  1.
    10030    2    1    2    0    0  0.00000000000E+00  0.00000000000E+00  0.15852382424E+04  0.43236287557E+04  0.40225346899E+04 0.  0.
        4    1    3    3  502    0  0.19196332348E+04  0.48473990955E+03  0.41225187898E+03  0.20223545091E+04  0.12699999809E+01 0.  1.
       -4    1    3    3    0  502 -0.19196332348E+04 -0.48473990955E+03  0.11729863634E+04  0.23012742465E+04  0.12699999809E+01 0. -1.
</event>
<event>
 5   0  0.1214844E-06  0.3794887E+04  0.7818609E-02  0.8047253E-01
       -2   -1    0    0    0  501  0.00000000000E+00  0.00000000000E+00  0.12896770208E+04  0.12896770208E+04  0.25500000920E-02 0.  1.
        2   -1    0    0  501    0  0.00000000000E+00  0.00000000000E+00 -0.27916231418E+04  0.27916231418E+04  0.25500000920E-02 0. -1.
    10030    2    1    2    0    0  0.00000000000E+00  0.00000000000E+00 -0.15019461209E+04  0.40813001626E+04  0.37948872009E+04 0.  0.
        4    1    3    3  502    0 -0.81815114569E+03 -0.59587624365E+03  0.97510335191E+03  0.14054422630E+04  0.12699999809E+01 0.  1.
       -4    1    3    3    0  502  0.81815114569E+03  0.59587624365E+03 -0.24770494728E+04  0.26758578996E+04  0.12699999809E+01 0. -1.
</event>
<event>
 5   0  0.1214844E-06  0.2515234E+04  0.7818609E-02  0.8397578E-01
       -2   -1    0    0    0  501  0.00000000000E+00  0.00000000000E+00  0.67242919002E+03  0.67242919003E+03  0.25500000920E-02 0.  1.
        2   -1    0    0  501    0  0.00000000000E+00  0.00000000000E+00 -0.23520705145E+04  0.23520705145E+04  0.25500000920E-02 0. -1.
    10030    2    1    2    0    0  0.00000000000E+00  0.00000000000E+00 -0.16796413245E+04  0.30244997045E+04  0.25152342801E+04 0.  0.
        4    1    3    3  502    0 -0.42890899108E+03  0.71496248463E+03  0.29233435354E+03  0.88351302436E+03  0.12699999809E+01 0.  1.
       -4    1    3    3    0  502  0.42890899108E+03 -0.71496248463E+03 -0.19719756780E+04  0.21409866801E+04  0.12699999809E+01 0. -1.
</event>
<event>
 5   0  0.4795023E-07  0.3729963E+04  0.7818609E-02  0.8061354E-01
        1   -1    0    0  501    0  0.00000000000E+00  0.00000000000E+00  0.12526659461E+04  0.12526659461E+04  0.50400001928E-02 0.  1.
       -1   -1    0    0    0  501  0.00000000000E+00  0.00000000000E+00 -0.27766027010E+04  0.27766027010E+04  0.50400001928E-02 0. -1.
    10030    2    1    2    0    0  0.00000000000E+00  0.00000000000E+00 -0.15239367549E+04  0.40292686472E+04  0.37299628146E+04 0.  0.
        3    1    3    3  502    0 -0.70117626235E+03  0.15442187635E+04  0.76105712911E+02  0.16976606935E+04  0.10100000352E+00 0.  1.
       -3    1    3    3    0  502  0.70117626235E+03 -0.15442187635E+04 -0.16000424678E+04  0.23316079537E+04  0.10100000352E+00 0. -1.
</event>
<event>
 5   0  0.1337854E-06  0.3782796E+04  0.7818609E-02  0.8049857E-01
       -2   -1    0    0    0  501  0.00000000000E+00  0.00000000000E+00  0.14208433292E+04  0.14208433292E+04  0.25500000920E-02 0. -1.
        2   -1    0    0  501    0  0.00000000000E+00  0.00000000000E+00 -0.25177911650E+04  0.25177911650E+04  0.25500000920E-02 0.  1.
    10030    2    1    2    0    0  0.00000000000E+00  0.00000000000E+00 -0.10969478358E+04  0.39386344942E+04  0.37827962045E+04 0.  0.
        3    1    3    3  502    0  0.47674075910E+03 -0.11264993982E+04  0.95355965707E+03  0.15509863556E+04  0.10100000352E+00 0. -1.
       -3    1    3    3    0  502 -0.47674075910E+03  0.11264993982E+04 -0.20505074928E+04  0.23876481386E+04  0.10100000352E+00 0.  1.
</event>
<event>
 5   0  0.1372748E-06  0.2267076E+04  0.7818609E-02  0.8491017E-01
        2   -1    0    0  501    0  0.00000000000E+00  0.00000000000E+00  0.22181415417E+04  0.22181415417E+04  0.25500000920E-02 0. -1.
       -2   -1    0    0    0  501  0.00000000000E+00  0.00000000000E+00 -0.57927226664E+03  0.57927226665E+03  0.25500000920E-02 0.  1.
    10030    2    1    2    0    0  0.00000000000E+00  0.00000000000E+00  0.16388692750E+04  0.27974138083E+04  0.22670755423E+04 0.  0.
        1    1    3    3  502    0  0.92585970489E+03 -0.76812593279E+02  0.18052533172E+02  0.92921593916E+03  0.50400001928E-02 0.  1.
       -1    1    3    3    0  502 -0.92585970489E+03  0.76812593279E+02  0.16208167419E+04  0.18681978692E+04  0.50400001928E-02 0. -1.
</event>
<event>
 5   0  0.4255250E-07  0.1933084E+04  0.7818609E-02  0.8638561E-01
        1   -1    0    0  501    0  0.00000000000E+00  0.00000000000E+00  0.48429488320E+03  0.48429488322E+03  0.50400001928E-02 0. -1.
       -1   -1    0    0    0  501  0.00000000000E+00  0.00000000000E+00 -0.19289973651E+04  0.19289973651E+04  0.50400001928E-02 0.  1.
    10030    2    1    2    0    0  0.00000000000E+00  0.00000000000E+00 -0.14447024819E+04  0.24132922483E+04  0.19330841199E+04 0.  0.
        2    1    3    3  502    0  0.41062776015E+03 -0.25757318341E+03 -0.17662867716E+04  0.18315916744E+04  0.25500000920E-02 0.  1.
       -2    1    3    3    0  502 -0.41062776015E+03  0.25757318341E+03  0.32158428976E+03  0.58170057387E+03  0.25500000920E-02 0. -1.
</event>
<event>
 5   0  0.4795023E-07  0.3830718E+04  0.7818609E-02  0.8039595E-01
       -1   -1    0    0    0  501  0.00000000000E+00  0.00000000000E+00  0.12886376908E+04  0.12886376908E+04  0.50400001928E-02 0. -1.
        1   -1    0    0  501    0  0.00000000000E+00  0.00000000000E+00 -0.28468821824E+04  0.28468821824E+04  0.50400001928E-02 0.  1.
    10030    2    1    2    0    0  0.00000000000E+00  0.00000000000E+00 -0.15582444916E+04  0.41355198732E+04  0.38307177821E+04 0.  0.
        3    1    3    3  502    0  0.18773463473E+04  0.53744284296E+02 -0.11849046789E+04  0.22206568542E+04  0.10100000352E+00 0.  1.
       -3    1    3    3    0  502 -0.18773463473E+04 -0.53744284296E+02 -0.37333981270E+03  0.19148630190E+04  0.10100000352E+00 0. -1.
</event>
<event>
 5   0  0.4255250E-07  0.2091472E+04  0.7818609E-02  0.8565009E-01
       -1   -1    0    0    0  501  0.00000000000E+00  0.00000000000E+00  0.75429557602E+03  0.75429557603E+03  0.50400001928E-02 0. -1.
        1   -1    0    0  501    0  0.00000000000E+00  0.00000000000E+00 -0.14497820097E+04  0.14497820097E+04  0.50400001928E-02 0.  1.
    10030    2    1    2    0    0  0.00000000000E+00  0.00000000000E+00 -0.69548643364E+03  0.22040775857E+04  0.20914723580E+04 0.  0.
        2    1    3    3  502    0  0.63560425505E+03  0.82854549508E+03 -0.28922187095E+03  0.10835726543E+04  0.25500000920E-02 0.  1.
       -2    1    3    3    0  502 -0.63560425505E+03 -0.82854549508E+03 -0.40626456269E+03  0.11205049314E+04  0.25500000920E-02 0. -1.
</event>
<event>
 5   0  0.1337854E-06  0.2408304E+04  0.7818609E-02  0.8436401E-01
        2   -1    0    0  501    0  0.00000000000E+00  0.00000000000E+00  0.10140643493E+04  0.10140643493E+04  0.25500000920E-02 0.  1.
       -2   -1    0    0    0  501  0.00000000000E+00  0.00000000000E+00 -0.14298721513E+04  0.14298721513E+04  0.25500000920E-02 0. -1.
    10030    2    1    2    0    0  0.00000000000E+00  0.00000000000E+00 -0.41580780202E+03  0.24439365006E+04  0.24083042770E+04 0.  0.
        3    1    3    3  502    0  0.95593293168E+03 -0.48059836315E+03  0.35271881017E+03  0.11265847175E+04  0.10100000352E+00 0.  1.
       -3    1    3    3    0  502 -0.95593293168E+03  0.48059836315E+03 -0.76852661218E+03  0.13173517831E+04  0.10100000352E+00 0. -1.
</event>
<event>
 5   0  0.4255250E-07  0.3436680E+04  0.7818609E-02  0.8128962E-01
        1   -1    0    0  501    0  0.00000000000E+00  0.00000000000E+00  0.10664380103E+04  0.10664380103E+04  0.50400001928E-02 0. -1.
       -1   -1    0    0    0  501  0.00000000000E+00  0.00000000000E+00 -0.27687431433E+04  0.27687431433E+04  0.50400001928E-02 0.  1.
    10030    2    1    2    0    0  0.00000000000E+00  0.00000000000E+00 -0.17023051330E+04  0.38351811536E+04  0.34366803336E+04 0.  0.
        2    1    3    3  502    0  0.11944374744E+03 -0.10092096746E+04 -0.23974339674E+04  0.26039317587E+04  0.25500000920E-02 0.  1.
       -2    1    3    3    0  502 -0.11944374744E+03  0.10092096746E+04  0.69512883439E+03  0.12312493949E+04  0.25500000920E-02 0. -1.
</event>
<event>
 5   0  0.1214844E-06  0.3783752E+04  0.7818609E-02  0.8049651E-01
       -2   -1    0    0    0  501  0.00000000000E+00  0.00000000000E+00  0.17040053072E+04  0.17040053072E+04  0.25500000920E-02 0. -1.
        2   -1    0    0  501    0  0.00000000000E+00  0.00000000000E+00 -0.21004596423E+04  0.21004596423E+04  0.25500000920E-02 0.  1.
    10030    2    1    2    0    0  0.00000000000E+00  0.00000000000E+00 -0.39645433507E+03  0.38044649495E+04  0.37837517773E+04 0.  0.
        4    1    3    3  502    0 -0.80247589200E+03 -0.16025852693E+04 -0.80730364665E+03  0.19657029006E+04  0.12699999809E+01 0. -1.
       -4    1    3    3    0  502  0.80247589200E+03  0.16025852693E+04  0.41084931158E+03  0.18387620489E+04  0.12699999809E+01 0.  1.
</event>
<event>
 5   0  0.5284458E-07  0.1975074E+04  0.7818609E-02  0.8618364E-01
       -1   -1    0    0    0  501  0.00000000000E+00  0.00000000000E+00  0.53154076519E+03  0.53154076521E+03  0.50400001928E-02 0.  1.
        1   -1    0    0  501    0  0.00000000000E+00  0.00000000000E+00 -0.18347215151E+04  0.18347215151E+04  0.50400001928E-02 0. -1.
    10030    2    1    2    0    0  0.00000000000E+00  0.00000000000E+00 -0.13031807499E+04  0.23662622803E+04  0.19750739511E+04 0.  0.
        5    1    3    3  502    0 -0.14610482998E+03  0.86803183827E+03 -0.11878907597E+04  0.14784899190E+04  0.46999998093E+01 0.  1.
       -5    1    3    3    0  502  0.14610482998E+03 -0.86803183827E+03 -0.11528999015E+03  0.88777236127E+03  0.46999998093E+01 0. -1.
</event>
<event>
 5   0  0.4795023E-07  0.3795131E+04  0.7818609E-02  0.8047201E-01
        1   -1    0    0  501    0  0.00000000000E+00  0.00000000000E+00  0.23327373223E+04  0.23327373223E+04  0.50400001928E-02 0. -1.
       -1   -1    0    0    0  501  0.00000000000E+00  0.00000000000E+00 -0.15435745286E+04  0.15435745286E+04  0.50400001928E-02 0.  1.
    10030    2    1    2    0    0  0.00000000000E+00  0.00000000000E+00  0.78916279370E+03  0.38763118509E+04  0.37951305182E+04 0.  0.
        3    1    3    3  502    0 -0.46188767803E+03 -0.17723303046E+04  0.90144139658E+03  0.20413455213E+04  0.10100000352E+00 0. -1.
       -3    1    3    3    0  502  0.46188767803E+03  0.17723303046E+04 -0.11227860288E+03  0.18349663296E+04  0.10100000352E+00 0.  1.
</event>
<event>
 5   0  0.1214844E-06  0.3485439E+04  0.7818609E-02  0.8117249E-01
        2   -1    0    0  501    0  0.00000000000E+00  0.00000000000E+00  0.16249905234E+04  0.16249905234E+04  0.25500000920E-02 0. -1.
       -2   -1    0    0    0  501  0.00000000000E+00  0.00000000000E+00 -0.18689779787E+04  0.18689779787E+04  0.25500000920E-02 0.  1.
    10030    2    1    2    0    0  0.00000000000E+00  0.00000000000E+00 -0.24398745530E+03  0.34939685021E+04  0.34854391424E+04 0.  0.
        4    1    3    3  502    0 -0.82965086221E+03  0.80405465176E+03  0.11859003493E+04  0.16556526470E+04  0.12699999809E+01 0. -1.
       -4    1    3    3    0  502  0.82965086221E+03 -0.80405465176E+03 -0.14298878046E+04  0.18383158550E+04  0.12699999809E+01 0.  1.
</event>
<event>
 5   0  0.1184616E-06  0.3817241E+04  0.7818609E-02  0.8042465E-01
        2   -1    0    0  501    0  0.00000000000E+00  0.00000000000E+00  0.27515739847E+04  0.27515739847E+04  0.25500000920E-02 0.  1.
       -2   -1    0    0    0  501  0.00000000000E+00  0.00000000000E+00 -0.13239085949E+04  0.13239085949E+04  0.25500000920E-02 0. -1.
    10030    2    1    2    0    0  0.00000000000E+00  0.00000000000E+00  0.14276653898E+04  0.40754825796E+04  0.38172411230E+04 0.  0.
        5    1    3    3  502    0 -0.14468775523E+04  0.23592359346E+03 -0.59101710121E+03  0.15806447726E+04  0.46999998093E+01 0. -1.
       -5    1    3    3    0  502  0.14468775523E+04 -0.23592359346E+03  0.20186824910E+04  0.24948378070E+04  0.46999998093E+01 0.  1.
</event>
<event>
 5   0  0.4255250E-07  0.3468479E+04  0.7818609E-02  0.8121301E-01
        1   -1    0    0  501    0  0.00000000000E+00  0.00000000000E+00  0.21618801669E+04  0.21618801669E+04  0.50400001928E-02 0. -1.
       -1   -1    0    0    0  501  0.00000000000E+00  0.00000000000E+00 -0.13911899670E+04  0.13911899670E+04  0.50400001928E-02 0.  1.
    10030    2    1    2    0    0  0.00000000000E+00  0.00000000000E+00  0.77069019990E+03  0.35530701339E+04  0.34684786279E+04 0.  0.
        2    1    3    3  502    0 -0.29410535931E+03  0.60564888940E+03 -0.12518438044E+04  0.14214152983E+04  0.25500000920E-02 0.  1.
       -2    1    3    3    0  502  0.29410535931E+03 -0.60564888940E+03  0.20225340043E+04  0.21316548356E+04  0.25500000920E-02 0. -1.
</event>
<event>
 5   0  0.4255250E-07  0.3791153E+04  0.7818609E-02  0.8048056E-01
       -1   -1    0    0    0  501  0.00000000000E+00  0.00000000000E+00  0.11257464498E+04  0.11257464498E+04  0.50400001928E-02 0. -1.
        1   -1    0    0  501    0  0.00000000000E+00  0.00000000000E+00 -0.31918476394E+04  0.31918476394E+04  0.50400001928E-02 0.  1.
    10030    2    1    2    0    0  0.00000000000E+00  0.00000000000E+00 -0.20661011895E+04  0.43175940892E+04  0.37911534648E+04 0.  0.
        2    1    3    3  502    0  0.18172026823E+03  0.44424863450E+03  0.10553943652E+04  0.11594120800E+04  0.25500000920E-02 0. -1.
       -2    1    3    3    0  502 -0.18172026823E+03 -0.44424863450E+03 -0.31214955547E+04  0.31581820092E+04  0.25500000920E-02 0.  1.
</event>
<event>
 5   0  0.4795023E-07  0.2252782E+04  0.7818609E-02  0.8496775E-01
       -1   -1    0    0    0  501  0.00000000000E+00  0.00000000000E+00  0.11894521745E+04  0.11894521745E+04  0.50400001928E-02 0.  1.
        1   -1    0    0  501    0  0.00000000000E+00  0.00000000000E+00 -0.10666732328E+04  0.10666732328E+04  0.50400001928E-02 0. -1.
    10030    2    1    2    0    0  0.00000000000E+00  0.00000000000E+00  0.12277894173E+03  0.22561254073E+04  0.22527820989E+04 0.  0.
        3    1    3    3  502    0 -0.25754347249E+03 -0.41345246092E+03 -0.95573839374E+03  0.10727103361E+04  0.10100000352E+00 0. -1.
       -3    1    3    3    0  502  0.25754347249E+03  0.41345246092E+03  0.10785173355E+04  0.11834150712E+04  0.10100000352E+00 0.  1.
</event>
<event>
 5   0  0.5284458E-07  0.4134634E+04  0.7818609E-02  0.7977924E-01
        1   -1    0    0  501    0  0.00000000000E+00  0.00000000000E+00  0.20467191570E+04  0.20467191570E+04  0.50400001928E-02 0. -1.
       -1   -1    0    0    0  501  0.00000000000E+00  0.00000000000E+00 -0.20881222577E+04  0.20881222577E+04  0.50400001928E-02 0.  1.
    10030    2    1    2    0    0  0.00000000000E+00  0.00000000000E+00 -0.41403100651E+02  0.41348414147E+04  0.41346341202E+04 0.  0.
        5    1    3    3  502    0  0.94709124642E+03 -0.17295859976E+04  0.60007765640E+03  0.20612047050E+04  0.46999998093E+01 0.  1.
       -5    1    3    3    0  502 -0.94709124642E+03  0.17295859976E+04 -0.64148075705E+03  0.20736367097E+04  0.46999998093E+01 0. -1.
</event>
<event>
 5   0  0.1372748E-06  0.2262083E+04  0.7818609E-02  0.8493023E-01
        2   -1    0    0  501    0  0.00000000000E+00  0.00000000000E+00  0.27542360426E+04  0.27542360426E+04  0.25500000920E-02 0. -1.
       -2   -1    0    0    0  501  0.00000000000E+00  0.00000000000E+00 -0.46446828687E+03  0.46446828688E+03  0.25500000920E-02 0.  1.
    10030    2    1    2    0    0  0.00000000000E+00  0.00000000000E+00  0.22897677557E+04  0.32187043295E+04  0.22620833728E+04 0.  0.
        1    1    3    3  502    0  0.84894366970E+03 -0.43555136680E+03  0.28072340640E+03  0.99459337338E+03  0.50400001928E-02 0.  1.
       -1    1    3    3    0  502 -0.84894366970E+03  0.43555136680E+03  0.20090443493E+04  0.22241109561E+04  0.50400001928E-02 0. -1.
</event>
<event>
 5   0  0.4795023E-07  0.3857437E+04  0.7818609E-02  0.8033940E-01
        1   -1    0    0  501    0  0.00000000000E+00  0.00000000000E+00  0.15864437972E+04  0.15864437972E+04  0.50400001928E-02 0.  1.
       -1   -1    0    0    0  501  0.00000000000E+00  0.00000000000E+00 -0.23448382689E+04  0.23448382689E+04  0.50400001928E-02 0. -1.
    10030    2    1    2    0    0  0.00000000000E+00  0.00000000000E+00 -0.75839447172E+03  0.39312820661E+04  0.38574365203E+04 0.  0.
        3    1    3    3  502    0  0.96123541822E+03  0.16307510206E+03 -0.20752027100E+04  0.22928221292E+04  0.10100000352E+00 0. -1.
       -3    1    3    3    0  502 -0.96123541822E+03 -0.16307510206E+03  0.13168082383E+04  0.16384599369E+04  0.10100000352E+00 0.  1.
</event>
<event>
 5   0  0.4795023E-07  0.3807625E+04  0.7818609E-02  0.8044521E-01
       -1   -1    0    0    0  501  0.00000000000E+00  0.00000000000E+00  0.16513741836E+04  0.16513741837E+04  0.50400001928E-02 0.  1.
        1   -1    0    0  501    0  0.00000000000E+00  0.00000000000E+00 -0.21948400715E+04  0.21948400716E+04  0.50400001928E-02 0. -1.
    10030    2    1    2    0    0  0.00000000000E+00  0.00000000000E+00 -0.54346588790E+03  0.38462142552E+04  0.38076251031E+04 0.  0.
        3    1    3    3  502    0  0.72644922688E+03  0.12903477478E+04  0.93696253145E+03  0.17523197725E+04  0.10100000352E+00 0.  1.
       -3    1    3    3    0  502 -0.72644922688E+03 -0.12903477478E+04 -0.14804284193E+04  0.20938944827E+04  0.10100000352E+00 0. -1.
</event>
<event>
 5   0  0.1079205E-06  0.3849902E+04  0.7818609E-02  0.8035530E-01
        1   -1    0    0  501    0  0.00000000000E+00  0.00000000000E+00  0.22707574662E+04  0.22707574662E+04  0.50400001928E-02 0. -1.
       -1   -1    0    0    0  501  0.00000000000E+00  0.00000000000E+00 -0.16318066183E+04  0.16318066183E+04  0.50400001928E-02 0.  1.
    10030    2    1    2    0    0  0.00000000000E+00  0.00000000000E+00  0.63895084792E+03  0.39025640846E+04  0.38499023686E+04 0.  0.
        4    1    3    3  502    0  0.43989705519E+03 -0.71216148167E+03  0.20766084743E+04  0.22389702463E+04  0.12699999809E+01 0. -1.
       -4    1    3    3    0  502 -0.43989705519E+03  0.71216148167E+03 -0.14376576264E+04  0.16635938383E+04  0.12699999809E+01 0.  1.
</event>
<event>
 5   0  0.5284458E-07  0.3315968E+04  0.7818609E-02  0.8158844E-01
        1   -1    0    0  501    0  0.00000000000E+00  0.00000000000E+00  0.15150403312E+04  0.15150403312E+04  0.50400001928E-02 0. -1.
       -1   -1    0    0    0  501  0.00000000000E+00  0.00000000000E+00 -0.18144140134E+04  0.18144140134E+04  0.50400001928E-02 0.  1.
    10030    2    1    2    0    0  0.00000000000E+00  0.00000000000E+00 -0.29937368218E+03  0.33294543445E+04  0.33159676764E+04 0.  0.
        5    1    3    3  502    0  0.13987357903E+04  0.30445690720E+03  0.69021551172E+03  0.15892058904E+04  0.46999998093E+01 0. -1.
       -5    1    3    3    0  502 -0.13987357903E+04 -0.30445690720E+03 -0.98958919390E+03  0.17402484541E+04  0.46999998093E+01 0.  1.
</event>
<event>
 5   0  0.1372748E-06  0.2379949E+04  0.7818609E-02  0.8447049E-01
        2   -1    0    0  501    0  0.00000000000E+00  0.00000000000E+00  0.88421236429E+03  0.88421236429E+03  0.25500000920E-02 0.  1.
       -2   -1    0    0    0  501  0.00000000000E+00  0.00000000000E+00 -0.16014700460E+04  0.16014700460E+04  0.25500000920E-02 0. -1.
    10030    2    1    2    0    0  0.00000000000E+00  0.00000000000E+00 -0.71725768174E+03  0.24856824103E+04  0.23799492564E+04 0.  0.
        1    1    3    3  502    0  0.26310849329E+03 -0.10272895683E+04 -0.92251253074E+03  0.14055530249E+04  0.50400001928E-02 0. -1.
       -1    1    3    3    0  502 -0.26310849329E+03  0.10272895683E+04  0.20525484900E+03  0.10801293855E+04  0.50400001928E-02 0.  1.
</event>
<event>
 5   0  0.1337854E-06  0.3852067E+04  0.7818609E-02  0.8035073E-01
       -2   -1    0    0    0  501  0.00000000000E+00  0.00000000000E+00  0.22815539212E+04  0.22815539213E+04  0.25500000920E-02 0.  1.
        2   -1    0    0  501    0  0.00000000000E+00  0.00000000000E+00 -0.16259114184E+04  0.16259114184E+04  0.25500000920E-02 0. -1.
    10030    2    1    2    0    0  0.00000000000E+00  0.00000000000E+00  0.65564250288E+03  0.39074653396E+04  0.38520667555E+04 0.  0.
        3    1    3    3  502    0 -0.13188004281E+04  0.69754974415E+03  0.15634505166E+04  0.21610617166E+04  0.10100000352E+00 0.  1.
       -3    1    3    3    0  502  0.13188004281E+04 -0.69754974415E+03 -0.90780801376E+03  0.17464036231E+04  0.10100000352E+00 0. -1.
</event>
<event>
 5   0  0.5588311E-07  0.1939469E+04  0.7818609E-02  0.8635456E-01
        1   -1    0    0  501    0  0.00000000000E+00  0.00000000000E+00  0.10914979185E+04  0.10914979185E+04  0.50400001928E-02 0.  1.
       -1   -1    0    0    0  501  0.00000000000E+00  0.00000000000E+00 -0.86155486950E+03  0.86155486952E+03  0.50400001928E-02 0. -1.
    10030    2    1    2    0    0  0.00000000000E+00  0.00000000000E+00  0.22994304899E+03  0.19530527880E+04  0.19394693571E+04 0.  0.
        5    1    3    3  502    0  0.81404765869E+02 -0.19509692970E+03 -0.83805716067E+03  0.86432137683E+03  0.46999998093E+01 0. -1.
       -5    1    3    3    0  502 -0.81404765869E+02  0.19509692970E+03  0.10680002097E+04  0.10887314112E+04  0.46999998093E+01 0.  1.
</event>
<event>
 5   0  0.1184616E-06  0.2047041E+04  0.7818609E-02  0.8584938E-01
       -2   -1    0    0    0  501  0.00000000000E+00  0.00000000000E+00  0.54556152338E+03  0.54556152339E+03  0.25500000920E-02 0.  1.
        2   -1    0    0  501    0  0.00000000000E+00  0.00000000000E+00 -0.19202130424E+04  0.19202130424E+04  0.25500000920E-02 0. -1.
    10030    2    1    2    0    0  0.00000000000E+00  0.00000000000E+00 -0.13746515190E+04  0.24657745658E+04  0.20470411355E+04 0.  0.
        5    1    3    3  502    0  0.66118899867E+03 -0.75536990485E+03 -0.44696433942E+03  0.10988875265E+04  0.46999998093E+01 0.  1.
       -5    1    3    3    0  502 -0.66118899867E+03  0.75536990485E+03 -0.92768717962E+03  0.13668870393E+04  0.46999998093E+01 0. -1.
</event>
<event>
 5   0  0.1079205E-06  0.3827063E+04  0.7818609E-02  0.8040372E-01
        1   -1    0    0  501    0  0.00000000000E+00  0.00000000000E+00  0.18138409800E+04  0.18138409800E+04  0.50400001928E-02 0.  1.
       -1   -1    0    0    0  501  0.00000000000E+00  0.00000000000E+00 -0.20187012390E+04  0.20187012390E+04  0.50400001928E-02 0. -1.
    10030    2    1    2    0    0  0.00000000000E+00  0.00000000000E+00 -0.20486025901E+03  0.38325422189E+04  0.38270631213E+04 0.  0.
        4    1    3    3  502    0  0.77989153106E+03  0.59944965954E+03 -0.17461302794E+04  0.20041315476E+04  0.12699999809E+01 0. -1.
       -4    1    3    3    0  502 -0.77989153106E+03 -0.59944965954E+03  0.15412700204E+04  0.18284106714E+04  0.12699999809E+01 0.  1.
</event>
<event>
 5   0  0.4255250E-07  0.3326270E+04  0.7818609E-02  0.8156243E-01
       -1   -1    0    0    0  501  0.00000000000E+00  0.00000000000E+00  0.14174878361E+04  0.14174878361E+04  0.50400001928E-02 0.  1.
        1   -1    0    0  501    0  0.00000000000E+00  0.00000000000E+00 -0.19513521064E+04  0.19513521064E+04  0.50400001928E-02 0. -1.
    10030    2    1    2    0    0  0.00000000000E+00  0.00000000000E+00 -0.53386427029E+03  0.33688399426E+04  0.33262699078E+04 0.  0.
        2    1    3    3  502    0 -0.97774241229E+03  0.35546100216E+02 -0.16290511610E+04  0.19002766733E+04  0.25500000920E-02 0. -1.
       -2    1    3    3    0  502  0.97774241229E+03 -0.35546100216E+02  0.10951868907E+04  0.14685632692E+04  0.25500000920E-02 0.  1.
</event>
<event>
 5   0  0.4795023E-07  0.3792602E+04  0.7818609E-02  0.8047744E-01
       -1   -1    0    0    0  501  0.00000000000E+00  0.00000000000E+00  0.15513780890E+04  0.15513780890E+04  0.50400001928E-02 0.  1.
        1   -1    0    0  501    0  0.00000000000E+00  0.00000000000E+00 -0.23179117572E+04  0.23179117572E+04  0.50400001928E-02 0. -1.
    10030    2    1    2    0    0  0.00000000000E+00  0.00000000000E+00 -0.76653366821E+03  0.38692898463E+04  0.37926020157E+04 0.  0.
        3    1    3    3  502    0  0.11884817259E+04 -0.14351436728E+04 -0.24254592991E+02  0.18635220605E+04  0.10100000352E+00 0.  1.
       -3    1    3    3    0  502 -0.11884817259E+04  0.14351436728E+04 -0.74227907522E+03  0.20057677857E+04  0.10100000352E+00 0. -1.
</event>
<event>
 5   0  0.1184616E-06  0.3844322E+04  0.7818609E-02  0.8036710E-01
       -2   -1    0    0    0  501  0.00000000000E+00  0.00000000000E+00  0.17633484031E+04  0.17633484031E+04  0.25500000920E-02 0. -1.
        2   -1    0    0  501    0  0.00000000000E+00  0.00000000000E+00 -0.20952768806E+04  0.20952768806E+04  0.25500000920E-02 0.  1.
    10030    2    1    2    0    0  0.00000000000E+00  0.00000000000E+00 -0.33192847748E+03  0.38586252838E+04  0.38443221205E+04 0.  0.
        5    1    3    3  502    0 -0.11617999135E+04 -0.13667013029E+04  0.52727874293E+03  0.18696781683E+04  0.46999998093E+01 0. -1.
       -5    1    3    3    0  502  0.11617999135E+04  0.13667013029E+04 -0.85920722041E+03  0.19889471154E+04  0.46999998093E+01 0.  1.
</event>
<event>
 5   0  0.1214844E-06  0.3732853E+04  0.7818609E-02  0.8060720E-01
        2   -1    0    0  501    0  0.00000000000E+00  0.00000000000E+00  0.23394684397E+04  0.23394684397E+04  0.25500000920E-02 0.  1.
       -2   -1    0    0    0  501  0.00000000000E+00  0.00000000000E+00 -0.14890340881E+04  0.14890340881E+04  0.25500000920E-02 0. -1.
    10030    2    1    2    0    0  0.00000000000E+00  0.00000000000E+00  0.85043435154E+03  0.38285025278E+04  0.37328532008E+04 0.  0.
        4    1    3    3  502    0  0.72573812779E+02  0.93775948859E+03 -0.12281972058E+04  0.15469744038E+04  0.12699999809E+01 0. -1.
       -4    1    3    3    0  502 -0.72573812779E+02 -0.93775948859E+03  0.20786315573E+04  0.22815281240E+04  0.12699999809E+01 0.  1.
</event>
<event>
 5   0  0.1372748E-06  0.3690783E+04  0.7818609E-02  0.8070008E-01
        2   -1    0    0  501    0  0.00000000000E+00  0.00000000000E+00  0.17520949153E+04  0.17520949153E+04  0.25500000920E-02 0.  1.
       -2   -1    0    0    0  501  0.00000000000E+00  0.00000000000E+00 -0.19436556830E+04  0.19436556830E+04  0.25500000920E-02 0. -1.
    10030    2    1    2    0    0  0.00000000000E+00  0.00000000000E+00 -0.19156076774E+03  0.36957505983E+04  0.36907827025E+04 0.  0.
        1    1    3    3  502    0  0.13780010522E+04  0.10629051882E+04  0.51889838576E+03  0.18160148330E+04  0.50400001928E-02 0.  1.
       -1    1    3    3    0  502 -0.13780010522E+04 -0.10629051882E+04 -0.71045915349E+03  0.18797357654E+04  0.50400001928E-02 0. -1.
</event>
<event>
 5   0  0.1214844E-06  0.3789752E+04  0.7818609E-02  0.8048358E-01
       -2   -1    0    0    0  501  0.00000000000E+00  0.00000000000E+00  0.17893611558E+04  0.17893611558E+04  0.25500000920E-02 0.  1.
        2   -1    0    0  501    0  0.00000000000E+00  0.00000000000E+00 -0.20066133013E+04  0.20066133013E+04  0.25500000920E-02 0. -1.
    10030    2    1    2    0    0  0.00000000000E+00  0.00000000000E+00 -0.21725214553E+03  0.37959744570E+04  0.37897524436E+04 0.  0.
        4    1    3    3  502    0 -0.27170119425E+03 -0.16813725228E+04  0.72323076830E+03  0.18503781928E+04  0.12699999809E+01 0. -1.
       -4    1    3    3    0  502  0.27170119425E+03  0.16813725228E+04 -0.94048291383E+03  0.19455962642E+04  0.12699999809E+01 0.  1.
</event>
<event>
 5   0  0.1214844E-06  0.3780615E+04  0.7818609E-02  0.8050328E-01
        2   -1    0    0  501    0  0.00000000000E+00  0.00000000000E+00  0.19957431747E+04  0.19957431747E+04  0.25500000920E-02 0. -1.
       -2   -1    0    0    0  501  0.00000000000E+00  0.00000000000E+00 -0.17904418247E+04  0.17904418247E+04  0.25500000920E-02 0.  1.
    10030    2    1    2    0    0  0.00000000000E+00  0.00000000000E+00  0.20530135000E+03  0.37861849995E+04  0.37806147920E+04 0.  0.
        4    1    3    3  502    0 -0.32633335272E+03  0.18069372433E+04  0.55247253272E+03  0.19174835516E+04  0.12699999809E+01 0. -1.
       -4    1    3    3    0  502  0.32633335272E+03 -0.18069372433E+04 -0.34717118272E+03  0.18687014479E+04  0.12699999809E+01 0.  1.
</event>
<event>
 5   0  0.8030324E-07  0.2382642E+04  0.7818609E-02  0.8446031E-01
        1   -1    0    0  501    0  0.00000000000E+00  0.00000000000E+00  0.14402923841E+04  0.14402923841E+04  0.50400001928E-02 0. -1.
       -1   -1    0    0    0  501  0.00000000000E+00  0.00000000000E+00 -0.98538699113E+03  0.98538699114E+03  0.50400001928E-02 0.  1.
    10030    2    1    2    0    0  0.00000000000E+00  0.00000000000E+00  0.45490539297E+03  0.24256793752E+04  0.23826417093E+04 0.  0.
        1    1    3    3  502    0 -0.64199181760E+03  0.10005772087E+04  0.30589730367E+03  0.12275509785E+04  0.50400001928E-02 0. -1.
       -1    1    3    3    0  502  0.64199181760E+03 -0.10005772087E+04  0.14900808929E+03  0.11981283967E+04  0.50400001928E-02 0.  1.
</event>
<event>
 5   0  0.4255250E-07  0.2339498E+04  0.7818609E-02  0.8462508E-01
       -3   -1    0    0    0  501  0.00000000000E+00  0.00000000000E+00  0.97683931506E+03  0.97683932028E+03  0.10100000352E+00 0. -1.
        3   -1    0    0  501    0  0.00000000000E+00  0.00000000000E+00 -0.14007549914E+04  0.14007549951E+04  0.10100000352E+00 0.  1.
    10030    2    1    2    0    0  0.00000000000E+00  0.00000000000E+00 -0.42391567637E+03  0.23775943153E+04  0.23394978580E+04 0.  0.
        4    1    3    3  502    0 -0.77002397110E+03 -0.34246688053E+03  0.61247997106E+03  0.10418031523E+04  0.12699999809E+01 0. -1.
       -4    1    3    3    0  502  0.77002397110E+03  0.34246688053E+03 -0.10363956474E+04  0.13357911630E+04  0.12699999809E+01 0.  1.
</event>
<event>
 5   0  0.5284458E-07  0.3765825E+04  0.7818609E-02  0.8053529E-01
        1   -1    0    0  501    0  0.00000000000E+00  0.00000000000E+00  0.17945101547E+04  0.17945101547E+04  0.50400001928E-02 0. -1.
       -1   -1    0    0    0  501  0.00000000000E+00  0.00000000000E+00 -0.19756700360E+04  0.19756700360E+04  0.50400001928E-02 0.  1.
    10030    2    1    2    0    0  0.00000000000E+00  0.00000000000E+00 -0.18115988129E+03  0.37701801907E+04  0.37658252439E+04 0.  0.
        5    1    3    3  502    0 -0.89469466274E+03  0.16472376372E+04  0.87015952674E+02  0.18765564844E+04  0.46999998093E+01 0. -1.
       -5    1    3    3    0  502  0.89469466274E+03 -0.16472376372E+04 -0.26817583396E+03  0.18936237063E+04  0.46999998093E+01 0.  1.
</event>
<event>
 5   0  0.1214844E-06  0.2538454E+04  0.7818609E-02  0.8389413E-01
       -2   -1    0    0    0  501  0.00000000000E+00  0.00000000000E+00  0.35240977310E+04  0.35240977310E+04  0.25500000920E-02 0.  1.
        2   -1    0    0  501    0  0.00000000000E+00  0.00000000000E+00 -0.45712049987E+03  0.45712049988E+03  0.25500000920E-02 0. -1.
    10030    2    1    2    0    0  0.00000000000E+00  0.00000000000E+00  0.30669772311E+04  0.39812182309E+04  0.25384541094E+04 0.  0.
        4    1    3    3  502    0 -0.70463221309E+03  0.58479965198E+03  0.29118992900E+04  0.30524836243E+04  0.12699999809E+01 0.  1.
       -4    1    3    3    0  502  0.70463221309E+03 -0.58479965198E+03  0.15507794111E+03  0.92873460655E+03  0.12699999809E+01 0. -1.
</event>
<event>
 5   0  0.8030324E-07  0.2056135E+04  0.7818609E-02  0.8580816E-01
       -1   -1    0    0    0  501  0.00000000000E+00  0.00000000000E+00  0.70061311591E+03  0.70061311592E+03  0.50400001928E-02 0.  1.
        1   -1    0    0  501    0  0.00000000000E+00  0.00000000000E+00 -0.15085678182E+04  0.15085678182E+04  0.50400001928E-02 0. -1.
    10030    2    1    2    0    0  0.00000000000E+00  0.00000000000E+00 -0.80795470226E+03  0.22091809341E+04  0.20561346256E+04 0.  0.
        1    1    3    3  502    0  0.16609578471E+03  0.44419241441E+03 -0.13840282457E+04  0.14630204700E+04  0.50400001928E-02 0. -1.
       -1    1    3    3    0  502 -0.16609578471E+03 -0.44419241441E+03  0.57607354343E+03  0.74616046410E+03  0.50400001928E-02 0.  1.
</event>
<event>
 5   0  0.1372748E-06  0.2430820E+04  0.7818609E-02  0.8428054E-01
       -2   -1    0    0    0  501  0.00000000000E+00  0.00000000000E+00  0.98797495412E+03  0.98797495412E+03  0.25500000920E-02 0.  1.
        2   -1    0    0  501    0  0.00000000000E+00  0.00000000000E+00 -0.14952013308E+04  0.14952013308E+04  0.25500000920E-02 0. -1.
    10030    2    1    2    0    0  0.00000000000E+00  0.00000000000E+00 -0.50722637665E+03  0.24831762849E+04  0.24308199984E+04 0.  0.
        1    1    3    3  502    0  0.46398069553E+03 -0.87500345380E+03  0.46605496757E+03  0.10945850185E+04  0.50400001928E-02 0.  1.
       -1    1    3    3    0  502 -0.46398069553E+03  0.87500345380E+03 -0.97328134421E+03  0.13885912664E+04  0.50400001928E-02 0. -1.
</event>
<event>
 5   0  0.1337854E-06  0.2199475E+04  0.7818609E-02  0.8518647E-01
        2   -1    0    0  501    0  0.00000000000E+00  0.00000000000E+00  0.88989308142E+03  0.88989308142E+03  0.25500000920E-02 0.  1.
       -2   -1    0    0    0  501  0.00000000000E+00  0.00000000000E+00 -0.13590650818E+04  0.13590650818E+04  0.25500000920E-02 0. -1.
    10030    2    1    2    0    0  0.00000000000E+00  0.00000000000E+00 -0.46917200038E+03  0.22489581632E+04  0.21994750405E+04 0.  0.
        3    1    3    3  502    0  0.86954342460E+03  0.37429402456E+03  0.33766643437E+03  0.10050972168E+04  0.10100000352E+00 0.  1.
       -3    1    3    3    0  502 -0.86954342460E+03 -0.37429402456E+03 -0.80683843475E+03  0.12438609464E+04  0.10100000352E+00 0. -1.
</event>
<event>
 5   0  0.1372748E-06  0.3808382E+04  0.7818609E-02  0.8044359E-01
        2   -1    0    0  501    0  0.00000000000E+00  0.00000000000E+00  0.26276438911E+04  0.26276438912E+04  0.25500000920E-02 0. -1.
       -2   -1    0    0    0  501  0.00000000000E+00  0.00000000000E+00 -0.13799217234E+04  0.13799217234E+04  0.25500000920E-02 0.  1.
    10030    2    1    2    0    0  0.00000000000E+00  0.00000000000E+00  0.12477221677E+04  0.40075656146E+04  0.38083817491E+04 0.  0.
        1    1    3    3  502    0  0.30333236578E+01 -0.21513828289E+03  0.26148113018E+04  0.26236485714E+04  0.50400001928E-02 0. -1.
       -1    1    3    3    0  502 -0.30333236578E+01  0.21513828289E+03 -0.13670891341E+04  0.13839170432E+04  0.50400001928E-02 0.  1.
</event>
<event>
 5   0  0.4255250E-07  0.3705259E+04  0.7818609E-02  0.8066797E-01
        1   -1    0    0  501    0  0.00000000000E+00  0.00000000000E+00  0.24048777222E+04  0.24048777222E+04  0.50400001928E-02 0.  1.
       -1   -1    0    0    0  501  0.00000000000E+00  0.00000000000E+00 -0.14271974242E+04  0.14271974243E+04  0.50400001928E-02 0. -1.
    10030    2    1    2    0    0  0.00000000000E+00  0.00000000000E+00  0.97768029794E+03  0.38320751464E+04  0.37052585825E+04 0.  0.
        2    1    3    3  502    0 -0.26711687942E+03 -0.51715593995E+03 -0.13301732330E+04  0.14519512813E+04  0.25500000920E-02 0. -1.
       -2    1    3    3    0  502  0.26711687942E+03  0.51715593995E+03  0.23078535309E+04  0.23801238652E+04  0.25500000920E-02 0.  1.
</event>
<event>
 5   0  0.1341932E-06  0.3837642E+04  0.7818609E-02  0.8038125E-01
       -2   -1    0    0    0  501  0.00000000000E+00  0.00000000000E+00  0.25083848504E+04  0.25083848504E+04  0.25500000920E-02 0.  1.
        2   -1    0    0  501    0  0.00000000000E+00  0.00000000000E+00 -0.14678269167E+04  0.14678269167E+04  0.25500000920E-02 0. -1.
    10030    2    1    2    0    0  0.00000000000E+00  0.00000000000E+00  0.10405579338E+04  0.39762117671E+04  0.38376424017E+04 0.  0.
        2    1    3    3  502    0  0.14098067545E+04  0.12869363022E+04  0.31799983449E+03  0.19351702834E+04  0.25500000920E-02 0. -1.
       -2    1    3    3    0  502 -0.14098067545E+04 -0.12869363022E+04  0.72255809927E+03  0.20410414836E+04  0.25500000920E-02 0.  1.
</event>
<event>
 5   0  0.1341932E-06  0.3749663E+04  0.7818609E-02  0.8057044E-01
       -2   -1    0    0    0  501  0.00000000000E+00  0.00000000000E+00  0.18033806693E+04  0.18033806693E+04  0.25500000920E-02 0. -1.
        2   -1    0    0  501    0  0.00000000000E+00  0.00000000000E+00 -0.19491127516E+04  0.19491127516E+04  0.25500000920E-02 0.  1.
    10030    2    1    2    0    0  0.00000000000E+00  0.00000000000E+00 -0.14573208224E+03  0.37524934209E+04  0.37496625227E+04 0.  0.
        2    1    3    3  502    0 -0.10278882482E+03  0.16730074176E+04  0.76769241990E+03  0.18436027265E+04  0.25500000920E-02 0. -1.
       -2    1    3    3    0  502  0.10278882482E+03 -0.16730074176E+04 -0.91342450214E+03  0.19088906943E+04  0.25500000920E-02 0.  1.
</event>
<event>
 5   0  0.5284458E-07  0.2150080E+04  0.7818609E-02  0.8539498E-01
        1   -1    0    0  501    0  0.00000000000E+00  0.00000000000E+00  0.69505460653E+03  0.69505460655E+03  0.50400001928E-02 0. -1.
       -1   -1    0    0    0  501  0.00000000000E+00  0.00000000000E+00 -0.16627629550E+04  0.16627629550E+04  0.50400001928E-02 0.  1.
    10030    2    1    2    0    0  0.00000000000E+00  0.00000000000E+00 -0.96770834844E+03  0.23578175615E+04  0.21500800464E+04 0.  0.
        5    1    3    3  502    0 -0.41629735831E+02 -0.74753162581E+03  0.36214446038E+03  0.83168940517E+03  0.46999998093E+01 0. -1.
       -5    1    3    3    0  502  0.41629735831E+02  0.74753162581E+03 -0.13298528088E+04  0.15261281564E+04  0.46999998093E+01 0.  1.
</event>
<event>
 5   0  0.4255250E-07  0.3717397E+04  0.7818609E-02  0.8064117E-01
        1   -1    0    0  501    0  0.00000000000E+00  0.00000000000E+00  0.21015704019E+04  0.21015704019E+04  0.50400001928E-02 0.  1.
       -1   -1    0    0    0  501  0.00000000000E+00  0.00000000000E+00 -0.16438946379E+04  0.16438946379E+04  0.50400001928E-02 0. -1.
    10030    2    1    2    0    0  0.00000000000E+00  0.00000000000E+00  0.45767576394E+03  0.37454650398E+04  0.37173971081E+04 0.  0.
        2    1    3    3  502    0 -0.10579813999E+04  0.27009765368E+03  0.17443501160E+04  0.20579199965E+04  0.25500000920E-02 0.  1.
       -2    1    3    3    0  502  0.10579813999E+04 -0.27009765368E+03 -0.12866743520E+04  0.16875450433E+04  0.25500000920E-02 0. -1.
</event>
<event>
 5   0  0.1372748E-06  0.3828426E+04  0.7818609E-02  0.8040082E-01
       -2   -1    0    0    0  501  0.00000000000E+00  0.00000000000E+00  0.12339488660E+04  0.12339488660E+04  0.25500000920E-02 0.  1.
        2   -1    0    0  501    0  0.00000000000E+00  0.00000000000E+00 -0.29695000142E+04  0.29695000142E+04  0.25500000920E-02 0. -1.
    10030    2    1    2    0    0  0.00000000000E+00  0.00000000000E+00 -0.17355511482E+04  0.42034488803E+04  0.38284258777E+04 0.  0.
        1    1    3    3  502    0 -0.16829836161E+04  0.47496412642E+03 -0.12928121303E+02  0.17487686839E+04  0.50400001928E-02 0.  1.
       -1    1    3    3    0  502  0.16829836161E+04 -0.47496412642E+03 -0.17226230269E+04  0.24546801963E+04  0.50400001928E-02 0. -1.
</event>
<event>
 5   0  0.8030324E-07  0.3709351E+04  0.7818609E-02  0.8065893E-01
       -1   -1    0    0    0  501  0.00000000000E+00  0.00000000000E+00  0.16832799753E+04  0.16832799753E+04  0.50400001928E-02 0.  1.
        1   -1    0    0  501    0  0.00000000000E+00  0.00000000000E+00 -0.20435234348E+04  0.20435234348E+04  0.50400001928E-02 0. -1.
    10030    2    1    2    0    0  0.00000000000E+00  0.00000000000E+00 -0.36024345947E+03  0.37268034101E+04  0.37093514672E+04 0.  0.
        1    1    3    3  502    0 -0.17187984172E+04 -0.60520402394E+03 -0.52711916052E+03  0.18969434676E+04  0.50400001928E-02 0.  1.
       -1    1    3    3    0  502  0.17187984172E+04  0.60520402394E+03  0.16687570105E+03  0.18298599425E+04  0.50400001928E-02 0. -1.
</event>
<event>
 5   0  0.1372748E-06  0.3396370E+04  0.7818609E-02  0.8138798E-01
       -2   -1    0    0    0  501  0.00000000000E+00  0.00000000000E+00  0.14855347274E+04  0.14855347274E+04  0.25500000920E-02 0. -1.
        2   -1    0    0  501    0  0.00000000000E+00  0.00000000000E+00 -0.19412751585E+04  0.19412751585E+04  0.25500000920E-02 0.  1.
    10030    2    1    2    0    0  0.00000000000E+00  0.00000000000E+00 -0.45574043108E+03  0.34268098860E+04  0.33963696286E+04 0.  0.
        1    1    3    3  502    0  0.13001036985E+04  0.95255403124E+03  0.31190388545E+03  0.16416189701E+04  0.50400001928E-02 0. -1.
       -1    1    3    3    0  502 -0.13001036985E+04 -0.95255403124E+03 -0.76764431653E+03  0.17851909158E+04  0.50400001928E-02 0.  1.
</event>
<event>
 5   0  0.4795023E-07  0.3758203E+04  0.7818609E-02  0.8055184E-01
        1   -1    0    0  501    0  0.00000000000E+00  0.00000000000E+00  0.22394352367E+04  0.22394352367E+04  0.50400001928E-02 0.  1.
       -1   -1    0    0    0  501  0.00000000000E+00  0.00000000000E+00 -0.15767471785E+04  0.15767471785E+04  0.50400001928E-02 0. -1.
    10030    2    1    2    0    0  0.00000000000E+00  0.00000000000E+00  0.66268805823E+03  0.38161824152E+04  0.37582033957E+04 0.  0.
        3    1    3    3  502    0 -0.38112005136E+03 -0.17629617162E+03  0.21911818063E+04  0.22310559276E+04  0.10100000352E+00 0.  1.
       -3    1    3    3    0  502  0.38112005136E+03  0.17629617162E+03 -0.15284937480E+04  0.15851264876E+04  0.10100000352E+00 0. -1.
</event>
<event>
 5   0  0.1214844E-06  0.3339694E+04  0.7818609E-02  0.8152868E-01
        2   -1    0    0  501    0  0.00000000000E+00  0.00000000000E+00  0.22634061782E+04  0.22634061782E+04  0.25500000920E-02 0. -1.
       -2   -1    0    0    0  501  0.00000000000E+00  0.00000000000E+00 -0.12319433872E+04  0.12319433872E+04  0.25500000920E-02 0.  1.
    10030    2    1    2    0    0  0.00000000000E+00  0.00000000000E+00  0.10314627909E+04  0.34953495654E+04  0.33396935631E+04 0.  0.
        4    1    3    3  502    0  0.14439917970E+04 -0.81508813047E+03  0.72216983181E+03  0.18085938873E+04  0.12699999809E+01 0. -1.
       -4    1    3    3    0  502 -0.14439917970E+04  0.81508813047E+03  0.30929295910E+03  0.16867556781E+04  0.12699999809E+01 0.  1.
</event>
<event>
 5   0  0.1337854E-06  0.1893715E+04  0.7818609E-02  0.8657991E-01
        2   -1    0    0  501    0  0.00000000000E+00  0.00000000000E+00  0.75572185039E+03  0.75572185039E+03  0.25500000920E-02 0.  1.
       -2   -1    0    0    0  501  0.00000000000E+00  0.00000000000E+00 -0.11863347090E+04  0.11863347090E+04  0.25500000920E-02 0. -1.
    10030    2    1    2    0    0  0.00000000000E+00  0.00000000000E+00 -0.43061285861E+03  0.19420565594E+04  0.18937149326E+04 0.  0.
        3    1    3    3  502    0 -0.76424338018E+03 -0.16192866068E+03 -0.76398775802E+03  0.10926875765E+04  0.10100000352E+00 0. -1.
       -3    1    3    3    0  502  0.76424338018E+03  0.16192866068E+03  0.33337489941E+03  0.84936898286E+03  0.10100000352E+00 0.  1.
</event>
<event>
 5   0  0.1341932E-06  0.3851304E+04  0.7818609E-02  0.8035234E-01
        2   -1    0    0  501    0  0.00000000000E+00  0.00000000000E+00  0.13566958957E+04  0.13566958957E+04  0.25500000920E-02 0. -1.
       -2   -1    0    0    0  501  0.00000000000E+00  0.00000000000E+00 -0.27332112988E+04  0.27332112988E+04  0.25500000920E-02 0.  1.
    10030    2    1    2    0    0  0.00000000000E+00  0.00000000000E+00 -0.13765154031E+04  0.40899071945E+04  0.38513044809E+04 0.  0.
        2    1    3    3  502    0  0.88286950679E+03  0.87810683206E+03 -0.22481395590E+04  0.25699536282E+04  0.25500000920E-02 0.  1.
       -2    1    3    3    0  502 -0.88286950679E+03 -0.87810683206E+03  0.87162415584E+03  0.15199535663E+04  0.25500000920E-02 0. -1.
</event>
<event>
 5   0  0.1423364E-06  0.1926729E+04  0.7818609E-02  0.8641665E-01
       -2   -1    0    0    0  501  0.00000000000E+00  0.00000000000E+00  0.89183555358E+03  0.89183555358E+03  0.25500000920E-02 0. -1.
        2   -1    0    0  501    0  0.00000000000E+00  0.00000000000E+00 -0.10406301746E+04  0.10406301746E+04  0.25500000920E-02 0.  1.
    10030    2    1    2    0    0  0.00000000000E+00  0.00000000000E+00 -0.14879462101E+03  0.19324657282E+04  0.19267288214E+04 0.  0.
        1    1    3    3  502    0  0.62942693308E+03 -0.71019040644E+03  0.91995152483E+02  0.95342109563E+03  0.50400001928E-02 0. -1.
       -1    1    3    3    0  502 -0.62942693308E+03  0.71019040644E+03 -0.24078977350E+03  0.97904463255E+03  0.50400001928E-02 0.  1.
</event>
<event>
 5   0  0.4255250E-07  0.3786720E+04  0.7818609E-02  0.8049011E-01
        1   -1    0    0  501    0  0.00000000000E+00  0.00000000000E+00  0.20610038577E+04  0.20610038577E+04  0.50400001928E-02 0. -1.
       -1   -1    0    0    0  501  0.00000000000E+00  0.00000000000E+00 -0.17393525448E+04  0.17393525448E+04  0.50400001928E-02 0.  1.
    10030    2    1    2    0    0  0.00000000000E+00  0.00000000000E+00  0.32165131288E+03  0.38003564025E+04  0.37867201136E+04 0.  0.
        2    1    3    3  502    0 -0.12597810427E+04 -0.11577217873E+04 -0.65292359200E+03  0.18313047887E+04  0.25500000920E-02 0.  1.
       -2    1    3    3    0  502  0.12597810427E+04  0.11577217873E+04  0.97457490488E+03  0.19690516137E+04  0.25500000920E-02 0. -1.
</event>
<event>
 5   0  0.1341932E-06  0.3807938E+04  0.7818609E-02  0.8044454E-01
       -2   -1    0    0    0  501  0.00000000000E+00  0.00000000000E+00  0.21155017450E+04  0.21155017450E+04  0.25500000920E-02 0. -1.
        2   -1    0    0  501    0  0.00000000000E+00  0.00000000000E+00 -0.17135877543E+04  0.17135877543E+04  0.25500000920E-02 0.  1.
    10030    2    1    2    0    0  0.00000000000E+00  0.00000000000E+00  0.40191399066E+03  0.38290894993E+04  0.38079379640E+04 0.  0.
        2    1    3    3  502    0 -0.62440543554E+03  0.93456416872E+03 -0.13443960858E+04  0.17523393418E+04  0.25500000920E-02 0.  1.
       -2    1    3    3    0  502  0.62440543554E+03 -0.93456416872E+03  0.17463100765E+04  0.20767501575E+04  0.25500000920E-02 0. -1.
</event>
<event>
 5   0  0.4255250E-07  0.3847221E+04  0.7818609E-02  0.8036097E-01
        3   -1    0    0  501    0  0.00000000000E+00  0.00000000000E+00  0.13225967795E+04  0.13225967833E+04  0.10100000352E+00 0.  1.
       -3   -1    0    0    0  501  0.00000000000E+00  0.00000000000E+00 -0.27977363662E+04  0.27977363680E+04  0.10100000352E+00 0. -1.
    10030    2    1    2    0    0  0.00000000000E+00  0.00000000000E+00 -0.14751395867E+04  0.41203331513E+04  0.38472208772E+04 0.  0.
        1    1    3    3  502    0 -0.37439943927E+03  0.16863382201E+04  0.16889839822E+03  0.17356376931E+04  0.50400001928E-02 0.  1.
       -1    1    3    3    0  502  0.37439943927E+03 -0.16863382201E+04 -0.16440379849E+04  0.23846954582E+04  0.50400001928E-02 0. -1.
</event>
<event>
 5   0  0.1079205E-06  0.2663433E+04  0.7818609E-02  0.8346968E-01
       -1   -1    0    0    0  501  0.00000000000E+00  0.00000000000E+00  0.96075168434E+03  0.96075168436E+03  0.50400001928E-02 0.  1.
        1   -1    0    0  501    0  0.00000000000E+00  0.00000000000E+00 -0.18459173643E+04  0.18459173643E+04  0.50400001928E-02 0. -1.
    10030    2    1    2    0    0  0.00000000000E+00  0.00000000000E+00 -0.88516568000E+03  0.28066690487E+04  0.26634325349E+04 0.  0.
        4    1    3    3  502    0 -0.37499348735E+03 -0.12438117352E+04 -0.13395178078E+03  0.13059986373E+04  0.12699999809E+01 0.  1.
       -4    1    3    3    0  502  0.37499348735E+03  0.12438117352E+04 -0.75121389921E+03  0.15006704114E+04  0.12699999809E+01 0. -1.
</event>
<event>
 5   0  0.4255250E-07  0.2480373E+04  0.7818609E-02  0.8410011E-01
        1   -1    0    0  501    0  0.00000000000E+00  0.00000000000E+00  0.10612188894E+04  0.10612188894E+04  0.50400001928E-02 0. -1.
       -1   -1    0    0    0  501  0.00000000000E+00  0.00000000000E+00 -0.14493359454E+04  0.14493359454E+04  0.50400001928E-02 0.  1.
    10030    2    1    2    0    0  0.00000000000E+00  0.00000000000E+00 -0.38811705597E+03  0.25105548348E+04  0.24803731029E+04 0.  0.
        2    1    3    3  502    0 -0.56971428087E+03 -0.99109883051E+03  0.29263699021E+03  0.11800371442E+04  0.25500000920E-02 0. -1.
       -2    1    3    3    0  502  0.56971428087E+03  0.99109883051E+03 -0.68075404618E+03  0.13305176906E+04  0.25500000920E-02 0.  1.
</event>
<event>
 5   0  0.1337854E-06  0.3750695E+04  0.7818609E-02  0.8056819E-01
       -2   -1    0    0    0  501  0.00000000000E+00  0.00000000000E+00  0.15731859599E+04  0.15731859599E+04  0.25500000920E-02 0. -1.
        2   -1    0    0  501    0  0.00000000000E+00  0.00000000000E+00 -0.22355450368E+04  0.22355450368E+04  0.25500000920E-02 0.  1.
    10030    2    1    2    0    0  0.00000000000E+00  0.00000000000E+00 -0.66235907690E+03  0.38087309968E+04  0.37506949035E+04 0.  0.
        3    1    3    3  502    0 -0.28584782490E+03  0.15659266134E+04 -0.13380320218E+04  0.20794626323E+04  0.10100000352E+00 0.  1.
       -3    1    3    3    0  502  0.28584782490E+03 -0.15659266134E+04  0.67567294488E+03  0.17292683645E+04  0.10100000352E+00 0. -1.
</event>
<event>
 5   0  0.1214844E-06  0.3762892E+04  0.7818609E-02  0.8054165E-01
       -2   -1    0    0    0  501  0.00000000000E+00  0.00000000000E+00  0.21375787253E+04  0.21375787253E+04  0.25500000920E-02 0. -1.
        2   -1    0    0  501    0  0.00000000000E+00  0.00000000000E+00 -0.16560044016E+04  0.16560044016E+04  0.25500000920E-02 0.  1.
    10030    2    1    2    0    0  0.00000000000E+00  0.00000000000E+00  0.48157432374E+03  0.37935831268E+04  0.37628923863E+04 0.  0.
        4    1    3    3  502    0 -0.97413357610E+03  0.81720812305E+03  0.16388467171E+04  0.20742674648E+04  0.12699999809E+01 0. -1.
       -4    1    3    3    0  502  0.97413357610E+03 -0.81720812305E+03 -0.11572723934E+04  0.17193156621E+04  0.12699999809E+01 0.  1.
</event>
<event>
 5   0  0.1184616E-06  0.2368914E+04  0.7818609E-02  0.8451234E-01
       -2   -1    0    0    0  501  0.00000000000E+00  0.00000000000E+00  0.10564478161E+04  0.10564478161E+04  0.25500000920E-02 0.  1.
        2   -1    0    0  501    0  0.00000000000E+00  0.00000000000E+00 -0.13279766495E+04  0.13279766495E+04  0.25500000920E-02 0. -1.
    10030    2    1    2    0    0  0.00000000000E+00  0.00000000000E+00 -0.27152883334E+03  0.23844244656E+04  0.23689137014E+04 0.  0.
        5    1    3    3  502    0 -0.13905174589E+03 -0.23573860062E+03 -0.12957020875E+04  0.13243013499E+04  0.46999998093E+01 0. -1.
       -5    1    3    3    0  502  0.13905174589E+03  0.23573860062E+03  0.10241732542E+04  0.10601231157E+04  0.46999998093E+01 0.  1.
</event>
<event>
 5   0  0.4255250E-07  0.3785146E+04  0.7818609E-02  0.8049350E-01
        1   -1    0    0  501    0  0.00000000000E+00  0.00000000000E+00  0.24016304075E+04  0.24016304076E+04  0.50400001928E-02 0. -1.
       -1   -1    0    0    0  501  0.00000000000E+00  0.00000000000E+00 -0.14914171096E+04  0.14914171096E+04  0.50400001928E-02 0.  1.
    10030    2    1    2    0    0  0.00000000000E+00  0.00000000000E+00  0.91021329800E+03  0.38930475171E+04  0.37851460636E+04 0.  0.
        2    1    3    3  502    0  0.19158565344E+03  0.18637644986E+04  0.18007101279E+03  0.18822190994E+04  0.25500000920E-02 0.  1.
       -2    1    3    3    0  502 -0.19158565344E+03 -0.18637644986E+04  0.73014228520E+03  0.20108284177E+04  0.25500000920E-02 0. -1.
</event>
<event>
 5   0  0.4255250E-07  0.3884202E+04  0.7818609E-02  0.8028323E-01
       -1   -1    0    0    0  501  0.00000000000E+00  0.00000000000E+00  0.32918947425E+04  0.32918947425E+04  0.50400001928E-02 0.  1.
        1   -1    0    0  501    0  0.00000000000E+00  0.00000000000E+00 -0.11457706532E+04  0.11457706532E+04  0.50400001928E-02 0. -1.
    10030    2    1    2    0    0  0.00000000000E+00  0.00000000000E+00  0.21461240893E+04  0.44376653957E+04  0.38842020490E+04 0.  0.
        2    1    3    3  502    0  0.63788016446E+02 -0.11678273574E+04  0.28444265349E+04  0.30754921493E+04  0.25500000920E-02 0.  1.
       -2    1    3    3    0  502 -0.63788016446E+02  0.11678273574E+04 -0.69830244559E+03  0.13621732464E+04  0.25500000920E-02 0. -1.
</event>
<event>
 5   0  0.8030324E-07  0.2085097E+04  0.7818609E-02  0.8567837E-01
        1   -1    0    0  501    0  0.00000000000E+00  0.00000000000E+00  0.14162686715E+04  0.14162686716E+04  0.50400001928E-02 0. -1.
       -1   -1    0    0    0  501  0.00000000000E+00  0.00000000000E+00 -0.76744417069E+03  0.76744417070E+03  0.50400001928E-02 0.  1.
    10030    2    1    2    0    0  0.00000000000E+00  0.00000000000E+00  0.64882450085E+03  0.21837128423E+04  0.20850967710E+04 0.  0.
        1    1    3    3  502    0 -0.17110624543E+03  0.97850775647E+03  0.65584842284E+03  0.11903326974E+04  0.50400001928E-02 0. -1.
       -1    1    3    3    0  502  0.17110624543E+03 -0.97850775647E+03 -0.70239219907E+01  0.99338014486E+03  0.50400001928E-02 0.  1.
</event>
<event>
 5   0  0.4795023E-07  0.2207765E+04  0.7818609E-02  0.8515203E-01
       -1   -1    0    0    0  501  0.00000000000E+00  0.00000000000E+00  0.12962879528E+04  0.12962879528E+04  0.50400001928E-02 0. -1.
        1   -1    0    0  501    0  0.00000000000E+00  0.00000000000E+00 -0.94003568232E+03  0.94003568233E+03  0.50400001928E-02 0.  1.
    10030    2    1    2    0    0  0.00000000000E+00  0.00000000000E+00  0.35625227046E+03  0.22363236351E+04  0.22077653228E+04 0.  0.
        3    1    3    3  502    0  0.48165003942E+03 -0.59337372348E+03  0.98497084548E+03  0.12466943141E+04  0.10100000352E+00 0. -1.
       -3    1    3    3    0  502 -0.48165003942E+03  0.59337372348E+03 -0.62871857503E+03  0.98962932100E+03  0.10100000352E+00 0.  1.
</event>
<event>
 5   0  0.1214844E-06  0.3772981E+04  0.7818609E-02  0.8051978E-01
       -2   -1    0    0    0  501  0.00000000000E+00  0.00000000000E+00  0.23859500599E+04  0.23859500599E+04  0.25500000920E-02 0.  1.
        2   -1    0    0  501    0  0.00000000000E+00  0.00000000000E+00 -0.14915847839E+04  0.14915847839E+04  0.25500000920E-02 0. -1.
    10030    2    1    2    0    0  0.00000000000E+00  0.00000000000E+00  0.89436527604E+03  0.38775348438E+04  0.37729812109E+04 0.  0.
        4    1    3    3  502    0 -0.43862833696E+02  0.19798215977E+03  0.23747162793E+04  0.23833589540E+04  0.12699999809E+01 0.  1.
       -4    1    3    3    0  502  0.43862833696E+02 -0.19798215977E+03 -0.14803510033E+04  0.14941758897E+04  0.12699999809E+01 0. -1.
</event>
<event>
 5   0  0.1184616E-06  0.2023032E+04  0.7818609E-02  0.8595928E-01
       -2   -1    0    0    0  501  0.00000000000E+00  0.00000000000E+00  0.64464345563E+03  0.64464345563E+03  0.25500000920E-02 0.  1.
        2   -1    0    0  501    0  0.00000000000E+00  0.00000000000E+00 -0.15871787286E+04  0.15871787286E+04  0.25500000920E-02 0. -1.
    10030    2    1    2    0    0  0.00000000000E+00  0.00000000000E+00 -0.94253527295E+03  0.22318221842E+04  0.20230317648E+04 0.  0.
        5    1    3    3  502    0  0.92826654472E+03  0.37137072568E+03 -0.64055611938E+03  0.11874044071E+04  0.46999998093E+01 0. -1.
       -5    1    3    3    0  502 -0.92826654472E+03 -0.37137072568E+03 -0.30197915357E+03  0.10444177771E+04  0.46999998093E+01 0.  1.
</event>
<event>
 5   0  0.1372748E-06  0.3331683E+04  0.7818609E-02  0.8154880E-01
       -2   -1    0    0    0  501  0.00000000000E+00  0.00000000000E+00  0.24626675489E+04  0.24626675489E+04  0.25500000920E-02 0.  1.
        2   -1    0    0  501    0  0.00000000000E+00  0.00000000000E+00 -0.11268379465E+04  0.11268379465E+04  0.25500000920E-02 0. -1.
    10030    2    1    2    0    0  0.00000000000E+00  0.00000000000E+00  0.13358296024E+04  0.35895054955E+04  0.33316826042E+04 0.  0.
        1    1    3    3  502    0 -0.77259366987E+03 -0.10097452648E+04  0.18275640773E+04  0.22263146532E+04  0.50400001928E-02 0.  1.
       -1    1    3    3    0  502  0.77259366987E+03  0.10097452648E+04 -0.49173447494E+03  0.13631908422E+04  0.50400001928E-02 0. -1.
</event>
<event>
 5   0  0.1341932E-06  0.4142519E+04  0.7818609E-02  0.7976397E-01
       -2   -1    0    0    0  501  0.00000000000E+00  0.00000000000E+00  0.20898780305E+04  0.20898780305E+04  0.25500000920E-02 0. -1.
        2   -1    0    0  501    0  0.00000000000E+00  0.00000000000E+00 -0.20528070218E+04  0.20528070218E+04  0.25500000920E-02 0.  1.
    10030    2    1    2    0    0  0.00000000000E+00  0.00000000000E+00  0.37071008699E+02  0.41426850523E+04  0.41425191831E+04 0.  0.
        2    1    3    3  502    0 -0.14858777632E+04  0.14381409665E+04  0.13700597630E+03  0.20724026646E+04  0.25500000920E-02 0. -1.
       -2    1    3    3    0  502  0.14858777632E+04 -0.14381409665E+04 -0.99934967603E+02  0.20702823876E+04  0.25500000920E-02 0.  1.
</event>
<event>
 5   0  0.1341932E-06  0.4027426E+04  0.7818609E-02  0.7999037E-01
        2   -1    0    0  501    0  0.00000000000E+00  0.00000000000E+00  0.19525840607E+04  0.19525840607E+04  0.25500000920E-02 0.  1.
       -2   -1    0    0    0  501  0.00000000000E+00  0.00000000000E+00 -0.20767555810E+04  0.20767555810E+04  0.25500000920E-02 0. -1.
    10030    2    1    2    0    0  0.00000000000E+00  0.00000000000E+00 -0.12417152029E+03  0.40293396417E+04  0.40274259002E+04 0.  0.
        2    1    3    3  502    0  0.67257941929E+03 -0.15951741258E+04 -0.10912126153E+04  0.20463842598E+04  0.25500000920E-02 0. -1.
       -2    1    3    3    0  502 -0.67257941929E+03  0.15951741258E+04  0.96704109504E+03  0.19829553819E+04  0.25500000920E-02 0.  1.
</event>
<event>
 5   0  0.8030324E-07  0.2557315E+04  0.7818609E-02  0.8382847E-01
       -1   -1    0    0    0  501  0.00000000000E+00  0.00000000000E+00  0.95015392431E+03  0.95015392433E+03  0.50400001928E-02 0. -1.
        1   -1    0    0  501    0  0.00000000000E+00  0.00000000000E+00 -0.17207371831E+04  0.17207371831E+04  0.50400001928E-02 0.  1.
    10030    2    1    2    0    0  0.00000000000E+00  0.00000000000E+00 -0.77058325877E+03  0.26708911074E+04  0.25573151446E+04 0.  0.
        1    1    3    3  502    0  0.35932933881E+03  0.11653157711E+04 -0.78693128788E+03  0.14513232831E+04  0.50400001928E-02 0.  1.
       -1    1    3    3    0  502 -0.35932933881E+03 -0.11653157711E+04  0.16348029110E+02  0.12195678243E+04  0.50400001928E-02 0. -1.
</event>
<event>
 5   0  0.4795023E-07  0.2697753E+04  0.7818609E-02  0.8335735E-01
        1   -1    0    0  501    0  0.00000000000E+00  0.00000000000E+00  0.83889721818E+03  0.83889721820E+03  0.50400001928E-02 0. -1.
       -1   -1    0    0    0  501  0.00000000000E+00  0.00000000000E+00 -0.21688797956E+04  0.21688797956E+04  0.50400001928E-02 0.  1.
    10030    2    1    2    0    0  0.00000000000E+00  0.00000000000E+00 -0.13299825774E+04  0.30077770138E+04  0.26977525662E+04 0.  0.
        3    1    3    3  502    0  0.11404085601E+04  0.68079311328E+03 -0.40243716179E+03  0.13877919968E+04  0.10100000352E+00 0. -1.
       -3    1    3    3    0  502 -0.11404085601E+04 -0.68079311328E+03 -0.92754541561E+03  0.16199850170E+04  0.10100000352E+00 0.  1.
</event>
<event>
 5   0  0.1184616E-06  0.3762086E+04  0.7818609E-02  0.8054340E-01
        2   -1    0    0  501    0  0.00000000000E+00  0.00000000000E+00  0.16433685841E+04  0.16433685841E+04  0.25500000920E-02 0. -1.
       -2   -1    0    0    0  501  0.00000000000E+00  0.00000000000E+00 -0.21530912544E+04  0.21530912544E+04  0.25500000920E-02 0.  1.
    10030    2    1    2    0    0  0.00000000000E+00  0.00000000000E+00 -0.50972267033E+03  0.37964598385E+04  0.37620858715E+04 0.  0.
        5    1    3    3  502    0 -0.10087401086E+04  0.11828034183E+04  0.81392850943E+03  0.17547313873E+04  0.46999998093E+01 0. -1.
       -5    1    3    3    0  502  0.10087401086E+04 -0.11828034183E+04 -0.13236511798E+04  0.20417284513E+04  0.46999998093E+01 0.  1.
</event>
<event>
 5   0  0.1341932E-06  0.2253317E+04  0.7818609E-02  0.8496558E-01
       -2   -1    0    0    0  501  0.00000000000E+00  0.00000000000E+00  0.61962503385E+03  0.61962503385E+03  0.25500000920E-02 0. -1.
        2   -1    0    0  501    0  0.00000000000E+00  0.00000000000E+00 -0.20485927573E+04  0.20485927573E+04  0.25500000920E-02 0.  1.
    10030    2    1    2    0    0  0.00000000000E+00  0.00000000000E+00 -0.14289677235E+04  0.26682177912E+04  0.22533169831E+04 0.  0.
        2    1    3    3  502    0  0.22536408825E+03 -0.10373124265E+04 -0.11615663353E+04  0.15735445318E+04  0.25500000920E-02 0.  1.
       -2    1    3    3    0  502 -0.22536408825E+03  0.10373124265E+04 -0.26740138822E+03  0.10946732594E+04  0.25500000920E-02 0. -1.
</event>
<event>
 5   0  0.1214844E-06  0.3763774E+04  0.7818609E-02  0.8053974E-01
       -2   -1    0    0    0  501  0.00000000000E+00  0.00000000000E+00  0.20974250951E+04  0.20974250951E+04  0.25500000920E-02 0. -1.
        2   -1    0    0  501    0  0.00000000000E+00  0.00000000000E+00 -0.16884980541E+04  0.16884980541E+04  0.25500000920E-02 0.  1.
    10030    2    1    2    0    0  0.00000000000E+00  0.00000000000E+00  0.40892704099E+03  0.37859231492E+04  0.37637737401E+04 0.  0.
        4    1    3    3  502    0 -0.10975039372E+04  0.64416572179E+03 -0.11900689045E+04  0.17423346348E+04  0.12699999809E+01 0.  1.
       -4    1    3    3    0  502  0.10975039372E+04 -0.64416572179E+03  0.15989959455E+04  0.20435885143E+04  0.12699999809E+01 0. -1.
</event>
<event>
 5   0  0.8030324E-07  0.3448390E+04  0.7818609E-02  0.8126131E-01
       -1   -1    0    0    0  501  0.00000000000E+00  0.00000000000E+00  0.13334707673E+04  0.13334707673E+04  0.50400001928E-02 0.  1.
        1   -1    0    0  501    0  0.00000000000E+00  0.00000000000E+00 -0.22294068617E+04  0.22294068617E+04  0.50400001928E-02 0. -1.
    10030    2    1    2    0    0  0.00000000000E+00  0.00000000000E+00 -0.89593609439E+03  0.35628776291E+04  0.34483902787E+04 0.  0.
        1    1    3    3  502    0 -0.38786923699E+03 -0.11846956604E+04 -0.16786923457E+04  0.20909218886E+04  0.50400001928E-02 0. -1.
       -1    1    3    3    0  502  0.38786923699E+03  0.11846956604E+04  0.78275625134E+03  0.14719557404E+04  0.50400001928E-02 0.  1.
</event>
<event>
 5   0  0.1184616E-06  0.3288756E+04  0.7818609E-02  0.8165762E-01
        2   -1    0    0  501    0  0.00000000000E+00  0.00000000000E+00  0.18631635684E+04  0.18631635684E+04  0.25500000920E-02 0.  1.
       -2   -1    0    0    0  501  0.00000000000E+00  0.00000000000E+00 -0.14512836361E+04  0.14512836361E+04  0.25500000920E-02 0. -1.
    10030    2    1    2    0    0  0.00000000000E+00  0.00000000000E+00  0.41187993237E+03  0.33144472045E+04  0.32887558731E+04 0.  0.
        5    1    3    3  502    0  0.61588417609E+03 -0.32910627449E+03  0.17063049557E+04  0.18436710525E+04  0.46999998093E+01 0.  1.
       -5    1    3    3    0  502 -0.61588417609E+03  0.32910627449E+03 -0.12944250233E+04  0.14707761520E+04  0.46999998093E+01 0. -1.
</event>
<event>
 5   0  0.1337854E-06  0.3723638E+04  0.7818609E-02  0.8062743E-01
        2   -1    0    0  501    0  0.00000000000E+00  0.00000000000E+00  0.22966664211E+04  0.22966664211E+04  0.25500000920E-02 0. -1.
       -2   -1    0    0    0  501  0.00000000000E+00  0.00000000000E+00 -0.15093053352E+04  0.15093053352E+04  0.25500000920E-02 0.  1.
    10030    2    1    2    0    0  0.00000000000E+00  0.00000000000E+00  0.78736108591E+03  0.38059717563E+04  0.37236384801E+04 0.  0.
        3    1    3    3  502    0 -0.23880563335E+03  0.14723075507E+04 -0.74525254637E+03  0.16673688922E+04  0.10100000352E+00 0.  1.
       -3    1    3    3    0  502  0.23880563335E+03 -0.14723075507E+04  0.15326136323E+04  0.21386028641E+04  0.10100000352E+00 0. -1.
</event>
<event>
 5   0  0.1214844E-06  0.3764104E+04  0.7818609E-02  0.8053902E-01
        2   -1    0    0  501    0  0.00000000000E+00  0.00000000000E+00  0.25488367223E+04  0.25488367223E+04  0.25500000920E-02 0.  1.
       -2   -1    0    0    0  501  0.00000000000E+00  0.00000000000E+00 -0.13897002802E+04  0.13897002802E+04  0.25500000920E-02 0. -1.
    10030    2    1    2    0    0  0.00000000000E+00  0.00000000000E+00  0.11591364421E+04  0.39385370025E+04  0.37641036687E+04 0.  0.
        4    1    3    3  502    0  0.73967921615E+03  0.84157427153E+03  0.21618441211E+04  0.24349423431E+04  0.12699999809E+01 0.  1.
       -4    1    3    3    0  502 -0.73967921615E+03 -0.84157427153E+03 -0.10027076790E+04  0.15035946594E+04  0.12699999809E+01 0. -1.
</event>
<event>
 5   0  0.4255250E-07  0.3867524E+04  0.7818609E-02  0.8031818E-01
       -1   -1    0    0    0  501  0.00000000000E+00  0.00000000000E+00  0.14863266494E+04  0.14863266494E+04  0.50400001928E-02 0. -1.
        1   -1    0    0  501    0  0.00000000000E+00  0.00000000000E+00 -0.25158913007E+04  0.25158913007E+04  0.50400001928E-02 0.  1.
    10030    2    1    2    0    0  0.00000000000E+00  0.00000000000E+00 -0.10295646513E+04  0.40022179501E+04  0.38675244212E+04 0.  0.
        2    1    3    3  502    0  0.28281752692E+03 -0.14830526886E+04  0.73560591432E+03  0.16794484487E+04  0.25500000920E-02 0. -1.
       -2    1    3    3    0  502 -0.28281752692E+03  0.14830526886E+04 -0.17651705656E+04  0.23227695014E+04  0.25500000920E-02 0.  1.
</event>
<event>
 5   0  0.1184616E-06  0.1929869E+04  0.7818609E-02  0.8640130E-01
        2   -1    0    0  501    0  0.00000000000E+00  0.00000000000E+00  0.69407825875E+03  0.69407825876E+03  0.25500000920E-02 0.  1.
       -2   -1    0    0    0  501  0.00000000000E+00  0.00000000000E+00 -0.13414898597E+04  0.13414898597E+04  0.25500000920E-02 0. -1.
    10030    2    1    2    0    0  0.00000000000E+00  0.00000000000E+00 -0.64741160094E+03  0.20355681184E+04  0.19298693696E+04 0.  0.
        5    1    3    3  502    0 -0.59484928195E+03  0.75259578144E+03 -0.21393481998E+03  0.98287144413E+03  0.46999998093E+01 0.  1.
       -5    1    3    3    0  502  0.59484928195E+03 -0.75259578144E+03 -0.43347678096E+03  0.10526966743E+04  0.46999998093E+01 0. -1.
</event>
<event>
 5   0  0.4255250E-07  0.1995322E+04  0.7818609E-02  0.8608811E-01
       -3   -1    0    0    0  501  0.00000000000E+00  0.00000000000E+00  0.10905204511E+04  0.10905204558E+04  0.10100000352E+00 0.  1.
        3   -1    0    0  501    0  0.00000000000E+00  0.00000000000E+00 -0.91270843438E+03  0.91270843997E+03  0.10100000352E+00 0. -1.
    10030    2    1    2    0    0  0.00000000000E+00  0.00000000000E+00  0.17781201674E+03  0.20032288958E+04  0.19953217524E+04 0.  0.
        5    1    3    3  502    0  0.99188588000E+03  0.50362507785E+02  0.18378529215E+03  0.10100361898E+04  0.46999998093E+01 0.  1.
       -5    1    3    3    0  502 -0.99188588000E+03 -0.50362507785E+02 -0.59732754083E+01  0.99319270595E+03  0.46999998093E+01 0. -1.
</event>
<event>
 5   0  0.1214844E-06  0.3397084E+04  0.7818609E-02  0.8138622E-01
       -2   -1    0    0    0  501  0.00000000000E+00  0.00000000000E+00  0.12901868036E+04  0.12901868036E+04  0.25500000920E-02 0.  1.
        2   -1    0    0  501    0  0.00000000000E+00  0.00000000000E+00 -0.22361455834E+04  0.22361455834E+04  0.25500000920E-02 0. -1.
    10030    2    1    2    0    0  0.00000000000E+00  0.00000000000E+00 -0.94595877981E+03  0.35263323870E+04  0.33970843514E+04 0.  0.
        4    1    3    3  502    0 -0.12058710584E+04 -0.10452681147E+04  0.13081544794E+03  0.16011947837E+04  0.12699999809E+01 0.  1.
       -4    1    3    3    0  502  0.12058710584E+04  0.10452681147E+04 -0.10767742277E+04  0.19251376033E+04  0.12699999809E+01 0. -1.
</event>
<event>
 5   0  0.4795023E-07  0.3770629E+04  0.7818609E-02  0.8052487E-01
       -1   -1    0    0    0  501  0.00000000000E+00  0.00000000000E+00  0.28246811057E+04  0.28246811057E+04  0.50400001928E-02 0.  1.
        1   -1    0    0  501    0  0.00000000000E+00  0.00000000000E+00 -0.12583406939E+04  0.12583406939E+04  0.50400001928E-02 0. -1.
    10030    2    1    2    0    0  0.00000000000E+00  0.00000000000E+00  0.15663404118E+04  0.40830217997E+04  0.37706292222E+04 0.  0.
        3    1    3    3  502    0 -0.40961485072E+02 -0.26244896245E+03  0.28043168969E+04  0.28168689302E+04  0.10100000352E+00 0.  1.
       -3    1    3    3    0  502  0.40961485072E+02  0.26244896245E+03 -0.12379764851E+04  0.12661528695E+04  0.10100000352E+00 0. -1.
</event>
<event>
 5   0  0.1456020E-06  0.2198182E+04  0.7818609E-02  0.8519185E-01
       -2   -1    0    0    0  501  0.00000000000E+00  0.00000000000E+00  0.80643045485E+03  0.80643045486E+03  0.25500000920E-02 0.  1.
        2   -1    0    0  501    0  0.00000000000E+00  0.00000000000E+00 -0.14979599505E+04  0.14979599505E+04  0.25500000920E-02 0. -1.
    10030    2    1    2    0    0  0.00000000000E+00  0.00000000000E+00 -0.69152949567E+03  0.23043904054E+04  0.21981815432E+04 0.  0.
        5    1    3    3  502    0  0.34277348955E+03 -0.84789421050E+03  0.29324440936E+03  0.96043356405E+03  0.46999998093E+01 0.  1.
       -5    1    3    3    0  502 -0.34277348955E+03  0.84789421050E+03 -0.98477390503E+03  0.13439568413E+04  0.46999998093E+01 0. -1.
</event>
<event>
 5   0  0.1184616E-06  0.3772985E+04  0.7818609E-02  0.8051977E-01
       -2   -1    0    0    0  501  0.00000000000E+00  0.00000000000E+00  0.14785699836E+04  0.14785699836E+04  0.25500000920E-02 0. -1.
        2   -1    0    0  501    0  0.00000000000E+00  0.00000000000E+00 -0.24069568970E+04  0.24069568970E+04  0.25500000920E-02 0.  1.
    10030    2    1    2    0    0  0.00000000000E+00  0.00000000000E+00 -0.92838691337E+03  0.38855268806E+04  0.37729851416E+04 0.  0.
        5    1    3    3  502    0 -0.12618040933E+04  0.28180970337E+03 -0.18789488680E+04  0.22807974959E+04  0.46999998093E+01 0.  1.
       -5    1    3    3    0  502  0.12618040933E+04 -0.28180970337E+03  0.95056195461E+03  0.16047293847E+04  0.46999998093E+01 0. -1.
</event>
<event>
 5   0  0.8030324E-07  0.2349530E+04  0.7818609E-02  0.8458644E-01
       -1   -1    0    0    0  501  0.00000000000E+00  0.00000000000E+00  0.87163135099E+03  0.87163135100E+03  0.50400001928E-02 0.  1.
        1   -1    0    0  501    0  0.00000000000E+00  0.00000000000E+00 -0.15833220517E+04  0.15833220517E+04  0.50400001928E-02 0. -1.
    10030    2    1    2    0    0  0.00000000000E+00  0.00000000000E+00 -0.71169070070E+03  0.24549534027E+04  0.23495302841E+04 0.  0.
        1    1    3    3  502    0 -0.10782551399E+04  0.50010588694E+02  0.12857094081E+03  0.10870444759E+04  0.50400001928E-02 0.  1.
       -1    1    3    3    0  502  0.10782551399E+04 -0.50010588694E+02 -0.84026164151E+03  0.13679089268E+04  0.50400001928E-02 0. -1.
</event>
<event>
 5   0  0.8030324E-07  0.2336446E+04  0.7818609E-02  0.8463688E-01
        1   -1    0    0  501    0  0.00000000000E+00  0.00000000000E+00  0.69398310881E+03  0.69398310883E+03  0.50400001928E-02 0.  1.
       -1   -1    0    0    0  501  0.00000000000E+00  0.00000000000E+00 -0.19665395025E+04  0.19665395026E+04  0.50400001928E-02 0. -1.
    10030    2    1    2    0    0  0.00000000000E+00  0.00000000000E+00 -0.12725563937E+04  0.26605226114E+04  0.23364461882E+04 0.  0.
        1    1    3    3  502    0  0.34115692036E+03  0.96663301051E+02  0.63122529896E+03  0.72400083988E+03  0.50400001928E-02 0.  1.
       -1    1    3    3    0  502 -0.34115692036E+03 -0.96663301051E+02 -0.19037816927E+04  0.19365217715E+04  0.50400001928E-02 0. -1.
</event>
<event>
 5   0  0.1079205E-06  0.3830910E+04  0.7818609E-02  0.8039554E-01
        1   -1    0    0  501    0  0.00000000000E+00  0.00000000000E+00  0.16638906850E+04  0.16638906850E+04  0.50400001928E-02 0. -1.
       -1   -1    0    0    0  501  0.00000000000E+00  0.00000000000E+00 -0.22050532374E+04  0.22050532374E+04  0.50400001928E-02 0.  1.
    10030    2    1    2    0    0  0.00000000000E+00  0.00000000000E+00 -0.54116255240E+03  0.38689439224E+04  0.38309098353E+04 0.  0.
        4    1    3    3  502    0 -0.34946872469E+03 -0.68090742795E+03 -0.20439193446E+04  0.21825148831E+04  0.12699999809E+01 0.  1.
       -4    1    3    3    0  502  0.34946872469E+03  0.68090742795E+03  0.15027567922E+04  0.16864290392E+04  0.12699999809E+01 0. -1.
</event>
<event>
 5   0  0.1079205E-06  0.3749016E+04  0.7818609E-02  0.8057185E-01
       -1   -1    0    0    0  501  0.00000000000E+00  0.00000000000E+00  0.18979486353E+04  0.18979486353E+04  0.50400001928E-02 0.  1.
        1   -1    0    0  501    0  0.00000000000E+00  0.00000000000E+00 -0.18513568749E+04  0.18513568749E+04  0.50400001928E-02 0. -1.
    10030    2    1    2    0    0  0.00000000000E+00  0.00000000000E+00  0.46591760386E+02  0.37493055102E+04  0.37490160064E+04 0.  0.
        4    1    3    3  502    0  0.16720610508E+04 -0.62016110746E+03  0.60074040243E+03  0.18818285258E+04  0.12699999809E+01 0.  1.
       -4    1    3    3    0  502 -0.16720610508E+04  0.62016110746E+03 -0.55414864204E+03  0.18674769843E+04  0.12699999809E+01 0. -1.
</event>
<event>
 5   0  0.8030324E-07  0.2252530E+04  0.7818609E-02  0.8496876E-01
       -1   -1    0    0    0  501  0.00000000000E+00  0.00000000000E+00  0.96006822620E+03  0.96006822621E+03  0.50400001928E-02 0. -1.
        1   -1    0    0  501    0  0.00000000000E+00  0.00000000000E+00 -0.13212323777E+04  0.13212323777E+04  0.50400001928E-02 0.  1.
    10030    2    1    2    0    0  0.00000000000E+00  0.00000000000E+00 -0.36116415154E+03  0.22813006040E+04  0.22525303330E+04 0.  0.
        1    1    3    3  502    0  0.72865193495E+03 -0.12131393528E+03  0.68046659869E+03  0.10043333636E+04  0.50400001928E-02 0. -1.
       -1    1    3    3    0  502 -0.72865193495E+03  0.12131393528E+03 -0.10416307502E+04  0.12769672404E+04  0.50400001928E-02 0.  1.
</event>
<event>
 5   0  0.4795023E-07  0.1994146E+04  0.7818609E-02  0.8609362E-01
        1   -1    0    0  501    0  0.00000000000E+00  0.00000000000E+00  0.11013363766E+04  0.11013363766E+04  0.50400001928E-02 0.  1.
       -1   -1    0    0    0  501  0.00000000000E+00  0.00000000000E+00 -0.90268066560E+03  0.90268066561E+03  0.50400001928E-02 0. -1.
    10030    2    1    2    0    0  0.00000000000E+00  0.00000000000E+00  0.19865571099E+03  0.20040170422E+04  0.19941464876E+04 0.  0.
        3    1    3    3  502    0  0.76884411992E+03  0.24509816408E+02 -0.53818825273E+03  0.93881234409E+03  0.10100000352E+00 0.  1.
       -3    1    3    3    0  502 -0.76884411992E+03 -0.24509816408E+02  0.73684396372E+03  0.10652046981E+04  0.10100000352E+00 0. -1.
</event>
<event>
 5   0  0.1341932E-06  0.1961060E+04  0.7818609E-02  0.8625046E-01
        2   -1    0    0  501    0  0.00000000000E+00  0.00000000000E+00  0.11806992475E+04  0.11806992475E+04  0.25500000920E-02 0.  1.
       -2   -1    0    0    0  501  0.00000000000E+00  0.00000000000E+00 -0.81429648871E+03  0.81429648871E+03  0.25500000920E-02 0. -1.
    10030    2    1    2    0    0  0.00000000000E+00  0.00000000000E+00  0.36640275881E+03  0.19949957362E+04  0.19610601740E+04 0.  0.
        2    1    3    3  502    0 -0.56730549575E+03 -0.18754123847E+03  0.97410721482E+03  0.11427563641E+04  0.25500000920E-02 0.  1.
       -2    1    3    3    0  502  0.56730549575E+03  0.18754123847E+03 -0.60770445600E+03  0.85223937218E+03  0.25500000920E-02 0. -1.
</event>
<event>
 5   0  0.4795023E-07  0.2560391E+04  0.7818609E-02  0.8381781E-01
       -1   -1    0    0    0  501  0.00000000000E+00  0.00000000000E+00  0.80811598505E+03  0.80811598507E+03  0.50400001928E-02 0.  1.
        1   -1    0    0  501    0  0.00000000000E+00  0.00000000000E+00 -0.20280509931E+04  0.20280509931E+04  0.50400001928E-02 0. -1.
    10030    2    1    2    0    0  0.00000000000E+00  0.00000000000E+00 -0.12199350081E+04  0.28361669782E+04  0.25603909280E+04 0.  0.
        3    1    3    3  502    0  0.12479848985E+04 -0.41741031101E+02 -0.92267070156E+03  0.15525881148E+04  0.10100000352E+00 0. -1.
       -3    1    3    3    0  502 -0.12479848985E+04  0.41741031101E+02 -0.29726430653E+03  0.12835788634E+04  0.10100000352E+00 0.  1.
</event>
<event>
 5   0  0.8030324E-07  0.2248129E+04  0.7818609E-02  0.8498658E-01
       -1   -1    0    0    0  501  0.00000000000E+00  0.00000000000E+00  0.63301417770E+03  0.63301417772E+03  0.50400001928E-02 0.  1.
        1   -1    0    0  501    0  0.00000000000E+00  0.00000000000E+00 -0.19960396635E+04  0.19960396635E+04  0.50400001928E-02 0. -1.
    10030    2    1    2    0    0  0.00000000000E+00  0.00000000000E+00 -0.13630254858E+04  0.26290538413E+04  0.22481293613E+04 0.  0.
        1    1    3    3  502    0  0.75070844720E+03 -0.79589454924E+03 -0.37991923884E+03  0.11581666263E+04  0.50400001928E-02 0. -1.
       -1    1    3    3    0  502 -0.75070844720E+03  0.79589454924E+03 -0.98310624701E+03  0.14708872150E+04  0.50400001928E-02 0.  1.
</event>
<event>
 5   0  0.1184616E-06  0.3561288E+04  0.7818609E-02  0.8099417E-01
       -2   -1    0    0    0  501  0.00000000000E+00  0.00000000000E+00  0.13518860902E+04  0.13518860902E+04  0.25500000920E-02 0. -1.
        2   -1    0    0  501    0  0.00000000000E+00  0.00000000000E+00 -0.23453841960E+04  0.23453841960E+04  0.25500000920E-02 0.  1.
    10030    2    1    2    0    0  0.00000000000E+00  0.00000000000E+00 -0.99349810586E+03  0.36972702862E+04  0.35612875597E+04 0.  0.
        5    1    3    3  502    0  0.84614815415E+03 -0.15485496802E+04 -0.24954498449E+03  0.17822086298E+04  0.46999998093E+01 0. -1.
       -5    1    3    3    0  502 -0.84614815415E+03  0.15485496802E+04 -0.74395312137E+03  0.19150616564E+04  0.46999998093E+01 0.  1.
</event>
<event>
 5   0  0.1184616E-06  0.3824126E+04  0.7818609E-02  0.8040997E-01
        2   -1    0    0  501    0  0.00000000000E+00  0.00000000000E+00  0.23744629674E+04  0.23744629674E+04  0.25500000920E-02 0.  1.
       -2   -1    0    0    0  501  0.00000000000E+00  0.00000000000E+00 -0.15397099641E+04  0.15397099641E+04  0.25500000920E-02 0. -1.
    10030    2    1    2    0    0  0.00000000000E+00  0.00000000000E+00  0.83475300328E+03  0.39141729315E+04  0.38241256728E+04 0.  0.
        5    1    3    3  502    0 -0.51229395425E+03 -0.95057349068E+03 -0.11977300280E+04  0.16126420455E+04  0.46999998093E+01 0. -1.
       -5    1    3    3    0  502  0.51229395425E+03  0.95057349068E+03  0.20324830313E+04  0.23015308860E+04  0.46999998093E+01 0.  1.
</event>
<event>
 5   0  0.4255250E-07  0.2326572E+04  0.7818609E-02  0.8467517E-01
       -3   -1    0    0    0  501  0.00000000000E+00  0.00000000000E+00  0.13338068566E+04  0.13338068605E+04  0.10100000352E+00 0.  1.
        3   -1    0    0  501    0  0.00000000000E+00  0.00000000000E+00 -0.10145651074E+04  0.10145651124E+04  0.10100000352E+00 0. -1.
    10030    2    1    2    0    0  0.00000000000E+00  0.00000000000E+00  0.31924174926E+03  0.23483719728E+04  0.23265716469E+04 0.  0.
        2    1    3    3  502    0  0.10144641847E+04 -0.56864347613E+03  0.18709581331E+03  0.11779209771E+04  0.25500000920E-02 0.  1.
       -2    1    3    3    0  502 -0.10144641847E+04  0.56864347613E+03  0.13214593595E+03  0.11704509957E+04  0.25500000920E-02 0. -1.
</event>
<event>
 5   0  0.8030324E-07  0.3617387E+04  0.7818609E-02  0.8086521E-01
       -1   -1    0    0    0  501  0.00000000000E+00  0.00000000000E+00  0.22213451746E+04  0.22213451746E+04  0.50400001928E-02 0.  1.
        1   -1    0    0  501    0  0.00000000000E+00  0.00000000000E+00 -0.14726987090E+04  0.14726987090E+04  0.50400001928E-02 0. -1.
    10030    2    1    2    0    0  0.00000000000E+00  0.00000000000E+00  0.74864646557E+03  0.36940438836E+04  0.36173869967E+04 0.  0.
        1    1    3    3  502    0 -0.95975762788E+03 -0.15308380377E+04  0.45836155737E+03  0.18640534110E+04  0.50400001928E-02 0. -1.
       -1    1    3    3    0  502  0.95975762788E+03  0.15308380377E+04  0.29028490819E+03  0.18299904726E+04  0.50400001928E-02 0.  1.
</event>
<event>
 5   0  0.1079205E-06  0.4050567E+04  0.7818609E-02  0.7994423E-01
       -1   -1    0    0    0  501  0.00000000000E+00  0.00000000000E+00  0.15437316929E+04  0.15437316930E+04  0.50400001928E-02 0. -1.
        1   -1    0    0  501    0  0.00000000000E+00  0.00000000000E+00 -0.26570500550E+04  0.26570500550E+04  0.50400001928E-02 0.  1.
    10030    2    1    2    0    0  0.00000000000E+00  0.00000000000E+00 -0.11133183621E+04  0.42007817480E+04  0.40505665676E+04 0.  0.
        4    1    3    3  502    0 -0.31160281140E+03 -0.80489230912E+03 -0.24567683528E+04  0.26039701023E+04  0.12699999809E+01 0.  1.
       -4    1    3    3    0  502  0.31160281140E+03  0.80489230912E+03  0.13434499907E+04  0.15968116457E+04  0.12699999809E+01 0. -1.
</event>
<event>
 5   0  0.1214844E-06  0.3766089E+04  0.7818609E-02  0.8053471E-01
        2   -1    0    0  501    0  0.00000000000E+00  0.00000000000E+00  0.23087637569E+04  0.23087637569E+04  0.25500000920E-02 0. -1.
       -2   -1    0    0    0  501  0.00000000000E+00  0.00000000000E+00 -0.15358248125E+04  0.15358248125E+04  0.25500000920E-02 0.  1.
    10030    2    1    2    0    0  0.00000000000E+00  0.00000000000E+00  0.77293894442E+03  0.38445885694E+04  0.37660890399E+04 0.  0.
        4    1    3    3  502    0 -0.85588802692E+03 -0.16081505859E+04 -0.10008059759E+03  0.18244753658E+04  0.12699999809E+01 0.  1.
       -4    1    3    3    0  502  0.85588802692E+03  0.16081505859E+04  0.87301954201E+03  0.20201132036E+04  0.12699999809E+01 0. -1.
</event>
<event>
 5   0  0.5284458E-07  0.2333846E+04  0.7818609E-02  0.8464694E-01
        1   -1    0    0  501    0  0.00000000000E+00  0.00000000000E+00  0.13108543150E+04  0.13108543150E+04  0.50400001928E-02 0.  1.
       -1   -1    0    0    0  501  0.00000000000E+00  0.00000000000E+00 -0.10387956057E+04  0.10387956057E+04  0.50400001928E-02 0. -1.
    10030    2    1    2    0    0  0.00000000000E+00  0.00000000000E+00  0.27205870935E+03  0.23496499207E+04  0.23338463549E+04 0.  0.
        5    1    3    3  502    0  0.10485702727E+04  0.86266308619E+02 -0.37211217131E+03  0.11159888220E+04  0.46999998093E+01 0. -1.
       -5    1    3    3    0  502 -0.10485702727E+04 -0.86266308619E+02  0.64417088066E+03  0.12336610987E+04  0.46999998093E+01 0.  1.
</event>
<event>
 5   0  0.1341932E-06  0.3866692E+04  0.7818609E-02  0.8031993E-01
       -2   -1    0    0    0  501  0.00000000000E+00  0.00000000000E+00  0.14603979897E+04  0.14603979897E+04  0.25500000920E-02 0.  1.
        2   -1    0    0  501    0  0.00000000000E+00  0.00000000000E+00 -0.25594571558E+04  0.25594571558E+04  0.25500000920E-02 0. -1.
    10030    2    1    2    0    0  0.00000000000E+00  0.00000000000E+00 -0.10990591660E+04  0.40198551455E+04  0.38666916531E+04 0.  0.
        2    1    3    3  502    0 -0.13863539891E+04 -0.10343364983E+04 -0.14474530438E+04  0.22554267199E+04  0.25500000920E-02 0.  1.
       -2    1    3    3    0  502  0.13863539891E+04  0.10343364983E+04  0.34839387775E+03  0.17644284256E+04  0.25500000920E-02 0. -1.
</event>
<event>
 5   0  0.1184616E-06  0.2418288E+04  0.7818609E-02  0.8432688E-01
        2   -1    0    0  501    0  0.00000000000E+00  0.00000000000E+00  0.13465334479E+04  0.13465334479E+04  0.25500000920E-02 0. -1.
       -2   -1    0    0    0  501  0.00000000000E+00  0.00000000000E+00 -0.10857728701E+04  0.10857728701E+04  0.25500000920E-02 0.  1.
    10030    2    1    2    0    0  0.00000000000E+00  0.00000000000E+00  0.26076057781E+03  0.24323063180E+04  0.24182882263E+04 0.  0.
        5    1    3    3  502    0 -0.12090271445E+04 -0.59806481191E+01  0.11529360509E+03  0.12145357589E+04  0.46999998093E+01 0.  1.
       -5    1    3    3    0  502  0.12090271445E+04  0.59806481191E+01  0.14546697272E+03  0.12177705591E+04  0.46999998093E+01 0. -1.
</event>
<event>
 5   0  0.1337854E-06  0.3926267E+04  0.7818609E-02  0.8019588E-01
        2   -1    0    0  501    0  0.00000000000E+00  0.00000000000E+00  0.20372929501E+04  0.20372929501E+04  0.25500000920E-02 0.  1.
       -2   -1    0    0    0  501  0.00000000000E+00  0.00000000000E+00 -0.18916732009E+04  0.18916732009E+04  0.25500000920E-02 0. -1.
    10030    2    1    2    0    0  0.00000000000E+00  0.00000000000E+00  0.14561974919E+03  0.39289661511E+04  0.39262666625E+04 0.  0.
        3    1    3    3  502    0 -0.18026590436E+04  0.14339438049E+03 -0.69175135716E+03  0.19361460498E+04  0.10100000352E+00 0. -1.
       -3    1    3    3    0  502  0.18026590436E+04 -0.14339438049E+03  0.83737110635E+03  0.19928201012E+04  0.10100000352E+00 0.  1.
</event>
<event>
 5   0  0.4255250E-07  0.2732793E+04  0.7818609E-02  0.8324442E-01
       -1   -1    0    0    0  501  0.00000000000E+00  0.00000000000E+00  0.16998856100E+04  0.16998856100E+04  0.50400001928E-02 0.  1.
        1   -1    0    0  501    0  0.00000000000E+00  0.00000000000E+00 -0.10983326675E+04  0.10983326675E+04  0.50400001928E-02 0. -1.
    10030    2    1    2    0    0  0.00000000000E+00  0.00000000000E+00  0.60155294248E+03  0.27982182775E+04  0.27327933668E+04 0.  0.
        2    1    3    3  502    0  0.10555800532E+04 -0.76390454106E+03 -0.12046094857E+03  0.13085527260E+04  0.25500000920E-02 0. -1.
       -2    1    3    3    0  502 -0.10555800532E+04  0.76390454106E+03  0.72201389105E+03  0.14896655515E+04  0.25500000920E-02 0.  1.
</event>
<event>
 5   0  0.1337854E-06  0.4045736E+04  0.7818609E-02  0.7995383E-01
       -2   -1    0    0    0  501  0.00000000000E+00  0.00000000000E+00  0.18004477570E+04  0.18004477570E+04  0.25500000920E-02 0. -1.
        2   -1    0    0  501    0  0.00000000000E+00  0.00000000000E+00 -0.22727655308E+04  0.22727655308E+04  0.25500000920E-02 0.  1.
    10030    2    1    2    0    0  0.00000000000E+00  0.00000000000E+00 -0.47231777380E+03  0.40732132878E+04  0.40457363246E+04 0.  0.
        3    1    3    3  502    0 -0.11387863939E+03 -0.19819315792E+04  0.15503433708E+03  0.19912450339E+04  0.10100000352E+00 0. -1.
       -3    1    3    3    0  502  0.11387863939E+03  0.19819315792E+04 -0.62735211088E+03  0.20819682539E+04  0.10100000352E+00 0.  1.
</event>
<event>
 5   0  0.5284458E-07  0.3814330E+04  0.7818609E-02  0.8043087E-01
        1   -1    0    0  501    0  0.00000000000E+00  0.00000000000E+00  0.28339433687E+04  0.28339433687E+04  0.50400001928E-02 0.  1.
       -1   -1    0    0    0  501  0.00000000000E+00  0.00000000000E+00 -0.12834692274E+04  0.12834692274E+04  0.50400001928E-02 0. -1.
    10030    2    1    2    0    0  0.00000000000E+00  0.00000000000E+00  0.15504741413E+04  0.41174125961E+04  0.38143304030E+04 0.  0.
        5    1    3    3  502    0  0.69859948243E+03 -0.38766132507E+03 -0.10941083898E+04  0.13547759219E+04  0.46999998093E+01 0. -1.
       -5    1    3    3    0  502 -0.69859948243E+03  0.38766132507E+03  0.26445825311E+04  0.27626366742E+04  0.46999998093E+01 0.  1.
</event>
<event>
 5   0  0.8030324E-07  0.3116269E+04  0.7818609E-02  0.8211287E-01
        1   -1    0    0  501    0  0.00000000000E+00  0.00000000000E+00  0.99461836098E+03  0.99461836099E+03  0.50400001928E-02 0.  1.
       -1   -1    0    0    0  501  0.00000000000E+00  0.00000000000E+00 -0.24409192726E+04  0.24409192726E+04  0.50400001928E-02 0. -1.
    10030    2    1    2    0    0  0.00000000000E+00  0.00000000000E+00 -0.14463009116E+04  0.34355376336E+04  0.31162690039E+04 0.  0.
        1    1    3    3  502    0  0.81871510806E+03 -0.92104371153E+03  0.32804057107E+03  0.12752358852E+04  0.50400001928E-02 0.  1.
       -1    1    3    3    0  502 -0.81871510806E+03  0.92104371153E+03 -0.17743414827E+04  0.21603017484E+04  0.50400001928E-02 0. -1.
</event>
<event>
 5   0  0.1214844E-06  0.2172781E+04  0.7818609E-02  0.8529843E-01
       -2   -1    0    0    0  501  0.00000000000E+00  0.00000000000E+00  0.85265981081E+03  0.85265981082E+03  0.25500000920E-02 0. -1.
        2   -1    0    0  501    0  0.00000000000E+00  0.00000000000E+00 -0.13841913447E+04  0.13841913447E+04  0.25500000920E-02 0.  1.
    10030    2    1    2    0    0  0.00000000000E+00  0.00000000000E+00 -0.53153153386E+03  0.22368511555E+04  0.21727810107E+04 0.  0.
        4    1    3    3  502    0  0.10824606121E+04  0.49557988470E+02 -0.34594524964E+03  0.11374782194E+04  0.12699999809E+01 0.  1.
       -4    1    3    3    0  502 -0.10824606121E+04 -0.49557988470E+02 -0.18558628422E+03  0.10993729361E+04  0.12699999809E+01 0. -1.
</event>
<event>
 5   0  0.8030324E-07  0.3691910E+04  0.7818609E-02  0.8069757E-01
        1   -1    0    0  501    0  0.00000000000E+00  0.00000000000E+00  0.14804014800E+04  0.14804014800E+04  0.50400001928E-02 0. -1.
       -1   -1    0    0    0  501  0.00000000000E+00  0.00000000000E+00 -0.23017745382E+04  0.23017745382E+04  0.50400001928E-02 0.  1.
    10030    2    1    2    0    0  0.00000000000E+00  0.00000000000E+00 -0.82137305815E+03  0.37821760182E+04  0.36919103094E+04 0.  0.
        1    1    3    3  502    0 -0.73068257391E+03  0.35924061322E+03 -0.21078750742E+04  0.22596654996E+04  0.50400001928E-02 0.  1.
       -1    1    3    3    0  502  0.73068257391E+03 -0.35924061322E+03  0.12865020160E+04  0.15225105186E+04  0.50400001928E-02 0. -1.
</event>
<event>
 5   0  0.1184616E-06  0.3792445E+04  0.7818609E-02  0.8047778E-01
       -2   -1    0    0    0  501  0.00000000000E+00  0.00000000000E+00  0.23978437770E+04  0.23978437770E+04  0.25500000920E-02 0. -1.
        2   -1    0    0  501    0  0.00000000000E+00  0.00000000000E+00 -0.14995390396E+04  0.14995390396E+04  0.25500000920E-02 0.  1.
    10030    2    1    2    0    0  0.00000000000E+00  0.00000000000E+00  0.89830473738E+03  0.38973828166E+04  0.37924453085E+04 0.  0.
        5    1    3    3  502    0  0.15833448090E+04 -0.62092976750E+03  0.13108669315E+04  0.21473073284E+04  0.46999998093E+01 0. -1.
       -5    1    3    3    0  502 -0.15833448090E+04  0.62092976750E+03 -0.41256219416E+03  0.17500754882E+04  0.46999998093E+01 0.  1.
</event>
<event>
 5   0  0.4255250E-07  0.2210227E+04  0.7818609E-02  0.8514184E-01
        3   -1    0    0  501    0  0.00000000000E+00  0.00000000000E+00  0.19922322426E+04  0.19922322452E+04  0.10100000352E+00 0.  1.
       -3   -1    0    0    0  501  0.00000000000E+00  0.00000000000E+00 -0.61301853499E+03  0.61301854331E+03  0.10100000352E+00 0. -1.
    10030    2    1    2    0    0  0.00000000000E+00  0.00000000000E+00  0.13792137076E+04  0.26052507885E+04  0.22102265087E+04 0.  0.
        4    1    3    3  502    0  0.96895785012E+03  0.40299152421E+03  0.10979161570E+04  0.15187833896E+04  0.12699999809E+01 0.  1.
       -4    1    3    3    0  502 -0.96895785012E+03 -0.40299152421E+03  0.28129755060E+03  0.10864673989E+04  0.12699999809E+01 0. -1.
</event>
<event>
 5   0  0.1341932E-06  0.3046100E+04  0.7818609E-02  0.8230688E-01
        2   -1    0    0  501    0  0.00000000000E+00  0.00000000000E+00  0.25913249652E+04  0.25913249652E+04  0.25500000920E-02 0.  1.
       -2   -1    0    0    0  501  0.00000000000E+00  0.00000000000E+00 -0.89517164670E+03  0.89517164670E+03  0.25500000920E-02 0. -1.
    10030    2    1    2    0    0  0.00000000000E+00  0.00000000000E+00  0.16961533185E+04  0.34864966119E+04  0.30460995625E+04 0.  0.
        2    1    3    3  502    0 -0.77623821205E+03 -0.36813529147E+02 -0.65117972918E+03  0.10138718052E+04  0.25500000920E-02 0. -1.
       -2    1    3    3    0  502  0.77623821205E+03  0.36813529147E+02  0.23473330477E+04  0.24726248067E+04  0.25500000920E-02 0.  1.
</event>
<event>
 5   0  0.1214844E-06  0.2295666E+04  0.7818609E-02  0.8479632E-01
       -2   -1    0    0    0  501  0.00000000000E+00  0.00000000000E+00  0.14242966706E+04  0.14242966706E+04  0.25500000920E-02 0. -1.
        2   -1    0    0  501    0  0.00000000000E+00  0.00000000000E+00 -0.92503247897E+03  0.92503247897E+03  0.25500000920E-02 0.  1.
    10030    2    1    2    0    0  0.00000000000E+00  0.00000000000E+00  0.49926419159E+03  0.23493291495E+04  0.22956660733E+04 0.  0.
        4    1    3    3  502    0 -0.41256132610E+03  0.83471999464E+03 -0.43729229538E+03  0.10286838590E+04  0.12699999809E+01 0.  1.
       -4    1    3    3    0  502  0.41256132610E+03 -0.83471999464E+03  0.93655648698E+03  0.13206452905E+04  0.12699999809E+01 0. -1.
</event>
<event>
 5   0  0.1341932E-06  0.3305678E+04  0.7818609E-02  0.8161452E-01
       -2   -1    0    0    0  501  0.00000000000E+00  0.00000000000E+00  0.31142227602E+04  0.31142227602E+04  0.25500000920E-02 0.  1.
        2   -1    0    0  501    0  0.00000000000E+00  0.00000000000E+00 -0.87722567539E+03  0.87722567539E+03  0.25500000920E-02 0. -1.
    10030    2    1    2    0    0  0.00000000000E+00  0.00000000000E+00  0.22369970848E+04  0.39914484356E+04  0.33056776395E+04 0.  0.
        2    1    3    3  502    0 -0.24833529095E+03 -0.62596539398E+03 -0.70406400960E+03  0.97427368887E+03  0.25500000920E-02 0. -1.
       -2    1    3    3    0  502  0.24833529095E+03  0.62596539398E+03  0.29410610944E+04  0.30171747467E+04  0.25500000920E-02 0.  1.
</event>
<event>
 5   0  0.8030324E-07  0.2097849E+04  0.7818609E-02  0.8562191E-01
       -1   -1    0    0    0  501  0.00000000000E+00  0.00000000000E+00  0.74426404014E+03  0.74426404016E+03  0.50400001928E-02 0.  1.
        1   -1    0    0  501    0  0.00000000000E+00  0.00000000000E+00 -0.14782964110E+04  0.14782964110E+04  0.50400001928E-02 0. -1.
    10030    2    1    2    0    0  0.00000000000E+00  0.00000000000E+00 -0.73403237085E+03  0.22225604512E+04  0.20978492409E+04 0.  0.
        1    1    3    3  502    0  0.20226933215E+03 -0.50910723103E+03 -0.13146973410E+04  0.14242654787E+04  0.50400001928E-02 0. -1.
       -1    1    3    3    0  502 -0.20226933215E+03  0.50910723103E+03  0.58066497016E+03  0.79829497243E+03  0.50400001928E-02 0.  1.
</event>
<event>
 5   0  0.1184616E-06  0.2529764E+04  0.7818609E-02  0.8392458E-01
       -2   -1    0    0    0  501  0.00000000000E+00  0.00000000000E+00  0.12029816895E+04  0.12029816895E+04  0.25500000920E-02 0.  1.
        2   -1    0    0  501    0  0.00000000000E+00  0.00000000000E+00 -0.13299677884E+04  0.13299677884E+04  0.25500000920E-02 0. -1.
    10030    2    1    2    0    0  0.00000000000E+00  0.00000000000E+00 -0.12698609884E+03  0.25329494779E+04  0.25297643345E+04 0.  0.
        5    1    3    3  502    0 -0.79052898195E+03  0.79902442138E+03  0.51734829538E+03  0.12373550202E+04  0.46999998093E+01 0.  1.
       -5    1    3    3    0  502  0.79052898195E+03 -0.79902442138E+03 -0.64433439422E+03  0.12955944577E+04  0.46999998093E+01 0. -1.
</event>
<event>
 5   0  0.4377664E-07  0.2392019E+04  0.7818609E-02  0.8442498E-01
       -1   -1    0    0    0  501  0.00000000000E+00  0.00000000000E+00  0.96092376182E+03  0.96092376183E+03  0.50400001928E-02 0. -1.
        1   -1    0    0  501    0  0.00000000000E+00  0.00000000000E+00 -0.14886079125E+04  0.14886079125E+04  0.50400001928E-02 0.  1.
    10030    2    1    2    0    0  0.00000000000E+00  0.00000000000E+00 -0.52768415069E+03  0.24495316743E+04  0.23920189926E+04 0.  0.
        2    1    3    3  502    0 -0.10115524801E+04  0.53323252065E+02 -0.91502181404E+03  0.13650445815E+04  0.25500000920E-02 0.  1.
       -2    1    3    3    0  502  0.10115524801E+04 -0.53323252065E+02  0.38733766335E+03  0.10844870929E+04  0.25500000920E-02 0. -1.
</event>
<event>
 5   0  0.4795023E-07  0.3563801E+04  0.7818609E-02  0.8098834E-01
       -1   -1    0    0    0  501  0.00000000000E+00  0.00000000000E+00  0.20006191776E+04  0.20006191776E+04  0.50400001928E-02 0.  1.
        1   -1    0    0  501    0  0.00000000000E+00  0.00000000000E+00 -0.15870935750E+04  0.15870935750E+04  0.50400001928E-02 0. -1.
    10030    2    1    2    0    0  0.00000000000E+00  0.00000000000E+00  0.41352560260E+03  0.35877127526E+04  0.35638012530E+04 0.  0.
        3    1    3    3  502    0 -0.99427649471E+03  0.57278145280E+03 -0.11656542731E+04  0.16356693538E+04  0.10100000352E+00 0. -1.
       -3    1    3    3    0  502  0.99427649471E+03 -0.57278145280E+03  0.15791798757E+04  0.19520433987E+04  0.10100000352E+00 0.  1.
</event>
<event>
 5   0  0.1591343E-06  0.1869799E+04  0.7818609E-02  0.8670037E-01
       -1   -1    0    0    0  501  0.00000000000E+00  0.00000000000E+00  0.81101470876E+03  0.81101470877E+03  0.50400001928E-02 0.  1.
        1   -1    0    0  501    0  0.00000000000E+00  0.00000000000E+00 -0.10777080457E+04  0.10777080457E+04  0.50400001928E-02 0. -1.
    10030    2    1    2    0    0  0.00000000000E+00  0.00000000000E+00 -0.26669333691E+03  0.18887227545E+04  0.18697990018E+04 0.  0.
        4    1    3    3  502    0 -0.20829359428E+03  0.87379846591E+02 -0.10497294105E+04  0.10737573782E+04  0.12699999809E+01 0. -1.
       -4    1    3    3    0  502  0.20829359428E+03 -0.87379846591E+02  0.78303607362E+03  0.81496537626E+03  0.12699999809E+01 0.  1.
</event>
<event>
 5   0  0.1372748E-06  0.3921378E+04  0.7818609E-02  0.8020598E-01
        2   -1    0    0  501    0  0.00000000000E+00  0.00000000000E+00  0.24126459827E+04  0.24126459827E+04  0.25500000920E-02 0. -1.
       -2   -1    0    0    0  501  0.00000000000E+00  0.00000000000E+00 -0.15933966108E+04  0.15933966108E+04  0.25500000920E-02 0.  1.
    10030    2    1    2    0    0  0.00000000000E+00  0.00000000000E+00  0.81924937195E+03  0.40060425935E+04  0.39213782944E+04 0.  0.
        1    1    3    3  502    0  0.15495112659E+03  0.84468272819E+03 -0.13910435004E+04  0.16347785119E+04  0.50400001928E-02 0.  1.
       -1    1    3    3    0  502 -0.15495112659E+03 -0.84468272819E+03  0.22102928724E+04  0.23712640816E+04  0.50400001928E-02 0. -1.
</event>
<event>
 5   0  0.4795023E-07  0.3947736E+04  0.7818609E-02  0.8015174E-01
        1   -1    0    0  501    0  0.00000000000E+00  0.00000000000E+00  0.24985401937E+04  0.24985401937E+04  0.50400001928E-02 0. -1.
       -1   -1    0    0    0  501  0.00000000000E+00  0.00000000000E+00 -0.15593722853E+04  0.15593722853E+04  0.50400001928E-02 0.  1.
    10030    2    1    2    0    0  0.00000000000E+00  0.00000000000E+00  0.93916790843E+03  0.40579124791E+04  0.39477357216E+04 0.  0.
        3    1    3    3  502    0  0.13191365504E+04  0.12425072226E+04 -0.33469076650E+03  0.18428139777E+04  0.10100000352E+00 0.  1.
       -3    1    3    3    0  502 -0.13191365504E+04 -0.12425072226E+04  0.12738586749E+04  0.22150985014E+04  0.10100000352E+00 0. -1.
</event>
<event>
 5   0  0.1337854E-06  0.3787621E+04  0.7818609E-02  0.8048817E-01
       -2   -1    0    0    0  501  0.00000000000E+00  0.00000000000E+00  0.13463633322E+04  0.13463633322E+04  0.25500000920E-02 0. -1.
        2   -1    0    0  501    0  0.00000000000E+00  0.00000000000E+00 -0.26638559565E+04  0.26638559565E+04  0.25500000920E-02 0.  1.
    10030    2    1    2    0    0  0.00000000000E+00  0.00000000000E+00 -0.13174926243E+04  0.40102192887E+04  0.37876208797E+04 0.  0.
        3    1    3    3  502    0 -0.50614537964E+03 -0.52648959539E+03  0.11912686055E+04  0.13973171938E+04  0.10100000352E+00 0. -1.
       -3    1    3    3    0  502  0.50614537964E+03  0.52648959539E+03 -0.25087612298E+04  0.26129020949E+04  0.10100000352E+00 0.  1.
</event>
<event>
 5   0  0.1372748E-06  0.2001154E+04  0.7818609E-02  0.8606081E-01
        2   -1    0    0  501    0  0.00000000000E+00  0.00000000000E+00  0.15240954604E+04  0.15240954604E+04  0.25500000920E-02 0. -1.
       -2   -1    0    0    0  501  0.00000000000E+00  0.00000000000E+00 -0.65688456582E+03  0.65688456583E+03  0.25500000920E-02 0.  1.
    10030    2    1    2    0    0  0.00000000000E+00  0.00000000000E+00  0.86721089460E+03  0.21809800262E+04  0.20011544516E+04 0.  0.
        1    1    3    3  502    0 -0.30682822393E+03  0.31182133606E+03 -0.54713536474E+03  0.70052352708E+03  0.50400001928E-02 0.  1.
       -1    1    3    3    0  502  0.30682822393E+03 -0.31182133606E+03  0.14143462593E+04  0.14804564992E+04  0.50400001928E-02 0. -1.
</event>
<event>
 5   0  0.1372748E-06  0.2727636E+04  0.7818609E-02  0.8326093E-01
        2   -1    0    0  501    0  0.00000000000E+00  0.00000000000E+00  0.98392550443E+03  0.98392550444E+03  0.25500000920E-02 0.  1.
       -2   -1    0    0    0  501  0.00000000000E+00  0.00000000000E+00 -0.18903862641E+04  0.18903862641E+04  0.25500000920E-02 0. -1.
    10030    2    1    2    0    0  0.00000000000E+00  0.00000000000E+00 -0.90646075967E+03  0.28743117685E+04  0.27276357957E+04 0.  0.
        1    1    3    3  502    0 -0.38740134653E+03 -0.13061222589E+04 -0.51957715015E+03  0.14580794126E+04  0.50400001928E-02 0.  1.
       -1    1    3    3    0  502  0.38740134653E+03  0.13061222589E+04 -0.38688360952E+03  0.14162323559E+04  0.50400001928E-02 0. -1.
</event>
<event>
 5   0  0.1184616E-06  0.3322053E+04  0.7818609E-02  0.8157307E-01
       -2   -1    0    0    0  501  0.00000000000E+00  0.00000000000E+00  0.10367362994E+04  0.10367362994E+04  0.25500000920E-02 0. -1.
        2   -1    0    0  501    0  0.00000000000E+00  0.00000000000E+00 -0.26612439718E+04  0.26612439718E+04  0.25500000920E-02 0.  1.
    10030    2    1    2    0    0  0.00000000000E+00  0.00000000000E+00 -0.16245076724E+04  0.36979802712E+04  0.33220525144E+04 0.  0.
        5    1    3    3  502    0 -0.14652053006E+03  0.15849825875E+04 -0.28382681587E+03  0.16168542977E+04  0.46999998093E+01 0. -1.
       -5    1    3    3    0  502  0.14652053006E+03 -0.15849825875E+04 -0.13406808566E+04  0.20811259735E+04  0.46999998093E+01 0.  1.
</event>
<event>
 5   0  0.1337854E-06  0.3936823E+04  0.7818609E-02  0.8017414E-01
       -2   -1    0    0    0  501  0.00000000000E+00  0.00000000000E+00  0.20093249964E+04  0.20093249964E+04  0.25500000920E-02 0. -1.
        2   -1    0    0  501    0  0.00000000000E+00  0.00000000000E+00 -0.19283315530E+04  0.19283315530E+04  0.25500000920E-02 0.  1.
    10030    2    1    2    0    0  0.00000000000E+00  0.00000000000E+00  0.80993443369E+02  0.39376565494E+04  0.39368234864E+04 0.  0.
        3    1    3    3  502    0 -0.62788948958E+03 -0.10160697474E+04  0.16054369700E+04  0.20010174455E+04  0.10100000352E+00 0. -1.
       -3    1    3    3    0  502  0.62788948958E+03  0.10160697474E+04 -0.15244435266E+04  0.19366391039E+04  0.10100000352E+00 0.  1.
</event>
<event>
 5   0  0.4255250E-07  0.3774816E+04  0.7818609E-02  0.8051581E-01
        1   -1    0    0  501    0  0.00000000000E+00  0.00000000000E+00  0.10792875452E+04  0.10792875452E+04  0.50400001928E-02 0. -1.
       -1   -1    0    0    0  501  0.00000000000E+00  0.00000000000E+00 -0.33006118333E+04  0.33006118333E+04  0.50400001928E-02 0.  1.
    10030    2    1    2    0    0  0.00000000000E+00  0.00000000000E+00 -0.22213242881E+04  0.43798993785E+04  0.37748161508E+04 0.  0.
        2    1    3    3  502    0  0.56664108166E+03 -0.35351230635E+03 -0.31589213006E+04  0.32287515930E+04  0.25500000920E-02 0.  1.
       -2    1    3    3    0  502 -0.56664108166E+03  0.35351230635E+03  0.93759701245E+03  0.11511477854E+04  0.25500000920E-02 0. -1.
</event>
<event>
 5   0  0.4795023E-07  0.3719941E+04  0.7818609E-02  0.8063557E-01
       -1   -1    0    0    0  501  0.00000000000E+00  0.00000000000E+00  0.15715795048E+04  0.15715795048E+04  0.50400001928E-02 0. -1.
        1   -1    0    0  501    0  0.00000000000E+00  0.00000000000E+00 -0.22012827649E+04  0.22012827649E+04  0.50400001928E-02 0.  1.
    10030    2    1    2    0    0  0.00000000000E+00  0.00000000000E+00 -0.62970326011E+03  0.37728622697E+04  0.37199413316E+04 0.  0.
        3    1    3    3  502    0 -0.15908223383E+04 -0.48986857331E+03 -0.11566007499E+04  0.20269218623E+04  0.10100000352E+00 0.  1.
       -3    1    3    3    0  502  0.15908223383E+04  0.48986857331E+03  0.52689748984E+03  0.17459404074E+04  0.10100000352E+00 0. -1.
</event>
<event>
 5   0  0.5284458E-07  0.2627842E+04  0.7818609E-02  0.8358805E-01
        1   -1    0    0  501    0  0.00000000000E+00  0.00000000000E+00  0.12533780577E+04  0.12533780577E+04  0.50400001928E-02 0. -1.
       -1   -1    0    0    0  501  0.00000000000E+00  0.00000000000E+00 -0.13773889132E+04  0.13773889132E+04  0.50400001928E-02 0.  1.
    10030    2    1    2    0    0  0.00000000000E+00  0.00000000000E+00 -0.12401085547E+03  0.26307669709E+04  0.26278424920E+04 0.  0.
        5    1    3    3  502    0 -0.89817927351E+03  0.70525901506E+03  0.58852590770E+03  0.12847183036E+04  0.46999998093E+01 0. -1.
       -5    1    3    3    0  502  0.89817927351E+03 -0.70525901506E+03 -0.71253676317E+03  0.13460486672E+04  0.46999998093E+01 0.  1.
</event>
<event>
 5   0  0.5284458E-07  0.3822493E+04  0.7818609E-02  0.8041345E-01
       -1   -1    0    0    0  501  0.00000000000E+00  0.00000000000E+00  0.15165927198E+04  0.15165927198E+04  0.50400001928E-02 0. -1.
        1   -1    0    0  501    0  0.00000000000E+00  0.00000000000E+00 -0.24085987605E+04  0.24085987605E+04  0.50400001928E-02 0.  1.
    10030    2    1    2    0    0  0.00000000000E+00  0.00000000000E+00 -0.89200604072E+03  0.39251914804E+04  0.38224930845E+04 0.  0.
        5    1    3    3  502    0 -0.95623065768E+02 -0.67334123660E+03  0.13881286839E+04  0.15457863774E+04  0.46999998093E+01 0. -1.
       -5    1    3    3    0  502  0.95623065768E+02  0.67334123660E+03 -0.22801347246E+04  0.23794051029E+04  0.46999998093E+01 0.  1.
</event>
<event>
 5   0  0.1341932E-06  0.3758105E+04  0.7818609E-02  0.8055206E-01
       -2   -1    0    0    0  501  0.00000000000E+00  0.00000000000E+00  0.13922896667E+04  0.13922896667E+04  0.25500000920E-02 0.  1.
        2   -1    0    0  501    0  0.00000000000E+00  0.00000000000E+00 -0.25359944949E+04  0.25359944949E+04  0.25500000920E-02 0. -1.
    10030    2    1    2    0    0  0.00000000000E+00  0.00000000000E+00 -0.11437048282E+04  0.39282841617E+04  0.37581053366E+04 0.  0.
        2    1    3    3  502    0  0.82700260034E+03 -0.15576324569E+03 -0.23280038278E+04  0.24754388120E+04  0.25500000920E-02 0. -1.
       -2    1    3    3    0  502 -0.82700260034E+03  0.15576324569E+03  0.11842989996E+04  0.14528453497E+04  0.25500000920E-02 0.  1.
</event>
<event>
 5   0  0.1184616E-06  0.3794578E+04  0.7818609E-02  0.8047320E-01
       -2   -1    0    0    0  501  0.00000000000E+00  0.00000000000E+00  0.16786486897E+04  0.16786486897E+04  0.25500000920E-02 0.  1.
        2   -1    0    0  501    0  0.00000000000E+00  0.00000000000E+00 -0.21444062803E+04  0.21444062803E+04  0.25500000920E-02 0. -1.
    10030    2    1    2    0    0  0.00000000000E+00  0.00000000000E+00 -0.46575759053E+03  0.38230549700E+04  0.37945776011E+04 0.  0.
        5    1    3    3  502    0  0.16764945765E+03 -0.13033187873E+04 -0.16117021486E+04  0.20795076600E+04  0.46999998093E+01 0.  1.
       -5    1    3    3    0  502 -0.16764945765E+03  0.13033187873E+04  0.11459445581E+04  0.17435473100E+04  0.46999998093E+01 0. -1.
</event>
<event>
 5   0  0.4255250E-07  0.3741790E+04  0.7818609E-02  0.8058763E-01
       -1   -1    0    0    0  501  0.00000000000E+00  0.00000000000E+00  0.27054909689E+04  0.27054909689E+04  0.50400001928E-02 0.  1.
        1   -1    0    0  501    0  0.00000000000E+00  0.00000000000E+00 -0.12937571521E+04  0.12937571521E+04  0.50400001928E-02 0. -1.
    10030    2    1    2    0    0  0.00000000000E+00  0.00000000000E+00  0.14117338168E+04  0.39992481210E+04  0.37417901015E+04 0.  0.
        2    1    3    3  502    0 -0.15401927109E+04 -0.86524918142E+03  0.13642016372E+04  0.22320160930E+04  0.25500000920E-02 0.  1.
       -2    1    3    3    0  502  0.15401927109E+04  0.86524918142E+03  0.47532179609E+02  0.17672320280E+04  0.25500000920E-02 0. -1.
</event>
<event>
 5   0  0.1184616E-06  0.1969671E+04  0.7818609E-02  0.8620933E-01
       -2   -1    0    0    0  501  0.00000000000E+00  0.00000000000E+00  0.54485582183E+03  0.54485582184E+03  0.25500000920E-02 0.  1.
        2   -1    0    0  501    0  0.00000000000E+00  0.00000000000E+00 -0.17801065651E+04  0.17801065651E+04  0.25500000920E-02 0. -1.
    10030    2    1    2    0    0  0.00000000000E+00  0.00000000000E+00 -0.12352507433E+04  0.23249623869E+04  0.19696714706E+04 0.  0.
        5    1    3    3  502    0  0.90775214264E+03  0.33993355823E+03 -0.82312881810E+03  0.12716650179E+04  0.46999998093E+01 0.  1.
       -5    1    3    3    0  502 -0.90775214264E+03 -0.33993355823E+03 -0.41212192516E+03  0.10532973691E+04  0.46999998093E+01 0. -1.
</event>
<event>
 5   0  0.6755137E-07  0.1909338E+04  0.7818609E-02  0.8650222E-01
       -1   -1    0    0    0  501  0.00000000000E+00  0.00000000000E+00  0.74990954279E+03  0.74990954280E+03  0.50400001928E-02 0. -1.
        1   -1    0    0  501    0  0.00000000000E+00  0.00000000000E+00 -0.12153367406E+04  0.12153367406E+04  0.50400001928E-02 0.  1.
    10030    2    1    2    0    0  0.00000000000E+00  0.00000000000E+00 -0.46542719778E+03  0.19652462834E+04  0.19093377066E+04 0.  0.
        3    1    3    3  502    0  0.12705659204E+03 -0.52788672222E+03  0.57550837832E+03  0.79121278604E+03  0.10100000352E+00 0. -1.
       -3    1    3    3    0  502 -0.12705659204E+03  0.52788672222E+03 -0.10409355761E+04  0.11740334973E+04  0.10100000352E+00 0.  1.
</event>
<event>
 5   0  0.4255250E-07  0.2788496E+04  0.7818609E-02  0.8306849E-01
       -1   -1    0    0    0  501  0.00000000000E+00  0.00000000000E+00  0.83006194461E+03  0.83006194463E+03  0.50400001928E-02 0.  1.
        1   -1    0    0  501    0  0.00000000000E+00  0.00000000000E+00 -0.23419057214E+04  0.23419057214E+04  0.50400001928E-02 0. -1.
    10030    2    1    2    0    0  0.00000000000E+00  0.00000000000E+00 -0.15118437768E+04  0.31719676660E+04  0.27884955207E+04 0.  0.
        2    1    3    3  502    0  0.43476902143E+03  0.86288102153E+03 -0.18993065755E+04  0.21309512494E+04  0.25500000920E-02 0. -1.
       -2    1    3    3    0  502 -0.43476902143E+03 -0.86288102153E+03  0.38746279876E+03  0.10410164167E+04  0.25500000920E-02 0.  1.
</event>
<event>
 5   0  0.1372748E-06  0.3766788E+04  0.7818609E-02  0.8053320E-01
        2   -1    0    0  501    0  0.00000000000E+00  0.00000000000E+00  0.17275733102E+04  0.17275733102E+04  0.25500000920E-02 0.  1.
       -2   -1    0    0    0  501  0.00000000000E+00  0.00000000000E+00 -0.20532692642E+04  0.20532692642E+04  0.25500000920E-02 0. -1.
    10030    2    1    2    0    0  0.00000000000E+00  0.00000000000E+00 -0.32569595401E+03  0.37808425744E+04  0.37667881169E+04 0.  0.
        1    1    3    3  502    0 -0.53292265988E+03  0.18784739440E+03  0.16404856944E+04  0.17350753639E+04  0.50400001928E-02 0.  1.
       -1    1    3    3    0  502  0.53292265988E+03 -0.18784739440E+03 -0.19661816484E+04  0.20457672105E+04  0.50400001928E-02 0. -1.
</event>
<event>
 5   0  0.1372748E-06  0.3082843E+04  0.7818609E-02  0.8220462E-01
       -2   -1    0    0    0  501  0.00000000000E+00  0.00000000000E+00  0.17805109555E+04  0.17805109555E+04  0.25500000920E-02 0.  1.
        2   -1    0    0  501    0  0.00000000000E+00  0.00000000000E+00 -0.13344375072E+04  0.13344375072E+04  0.25500000920E-02 0. -1.
    10030    2    1    2    0    0  0.00000000000E+00  0.00000000000E+00  0.44607344831E+03  0.31149484627E+04  0.30828432338E+04 0.  0.
        1    1    3    3  502    0  0.70660495330E-01  0.14687384912E+04 -0.24958210013E+03  0.14897932693E+04  0.50400001928E-02 0. -1.
       -1    1    3    3    0  502 -0.70660495330E-01 -0.14687384912E+04  0.69565554844E+03  0.16251551934E+04  0.50400001928E-02 0.  1.
</event>
<event>
 5   0  0.1079205E-06  0.3890993E+04  0.7818609E-02  0.8026905E-01
        1   -1    0    0  501    0  0.00000000000E+00  0.00000000000E+00  0.21055254946E+04  0.21055254946E+04  0.50400001928E-02 0.  1.
       -1   -1    0    0    0  501  0.00000000000E+00  0.00000000000E+00 -0.17976306041E+04  0.17976306042E+04  0.50400001928E-02 0. -1.
    10030    2    1    2    0    0  0.00000000000E+00  0.00000000000E+00  0.30789489042E+03  0.39031560987E+04  0.38909932238E+04 0.  0.
        4    1    3    3  502    0  0.13887325857E+04 -0.10965481899E+04  0.96515281137E+03  0.20155688253E+04  0.12699999809E+01 0.  1.
       -4    1    3    3    0  502 -0.13887325857E+04  0.10965481899E+04 -0.65725792094E+03  0.18875872734E+04  0.12699999809E+01 0. -1.
</event>
<event>
 5   0  0.1184616E-06  0.2425251E+04  0.7818609E-02  0.8430110E-01
       -2   -1    0    0    0  501  0.00000000000E+00  0.00000000000E+00  0.63165202528E+03  0.63165202528E+03  0.25500000920E-02 0. -1.
        2   -1    0    0  501    0  0.00000000000E+00  0.00000000000E+00 -0.23279590932E+04  0.23279590932E+04  0.25500000920E-02 0.  1.
    10030    2    1    2    0    0  0.00000000000E+00  0.00000000000E+00 -0.16963070679E+04  0.29596111185E+04  0.24252505652E+04 0.  0.
        5    1    3    3  502    0  0.94114668044E+03  0.70462306312E+03 -0.12105474831E+04  0.16875123804E+04  0.46999998093E+01 0.  1.
       -5    1    3    3    0  502 -0.94114668044E+03 -0.70462306312E+03 -0.48575958482E+03  0.12720987381E+04  0.46999998093E+01 0. -1.
</event>
<event>
 5   0  0.4255250E-07  0.3818296E+04  0.7818609E-02  0.8042240E-01
        1   -1    0    0  501    0  0.00000000000E+00  0.00000000000E+00  0.17825643483E+04  0.17825643483E+04  0.50400001928E-02 0.  1.
       -1   -1    0    0    0  501  0.00000000000E+00  0.00000000000E+00 -0.20447207262E+04  0.20447207262E+04  0.50400001928E-02 0. -1.
    10030    2    1    2    0    0  0.00000000000E+00  0.00000000000E+00 -0.26215637794E+03  0.38272850745E+04  0.38182960957E+04 0.  0.
        2    1    3    3  502    0 -0.89772685941E+03  0.66393771944E+03  0.14211537486E+04  0.18073197798E+04  0.25500000920E-02 0.  1.
       -2    1    3    3    0  502  0.89772685941E+03 -0.66393771944E+03 -0.16833101266E+04  0.20199652946E+04  0.25500000920E-02 0. -1.
</event>
<event>
 5   0  0.1184616E-06  0.2131267E+04  0.7818609E-02  0.8547594E-01
       -2   -1    0    0    0  501  0.00000000000E+00  0.00000000000E+00  0.58306424576E+03  0.58306424577E+03  0.25500000920E-02 0.  1.
        2   -1    0    0  501    0  0.00000000000E+00  0.00000000000E+00 -0.19475985414E+04  0.19475985414E+04  0.25500000920E-02 0. -1.
    10030    2    1    2    0    0  0.00000000000E+00  0.00000000000E+00 -0.13645342957E+04  0.25306627872E+04  0.21312672987E+04 0.  0.
        5    1    3    3  502    0 -0.23697002480E+03 -0.31275333283E+03  0.49414633208E+03  0.63100881718E+03  0.46999998093E+01 0.  1.
       -5    1    3    3    0  502  0.23697002480E+03  0.31275333283E+03 -0.18586806278E+04  0.18996539700E+04  0.46999998093E+01 0. -1.
</event>
<event>
 5   0  0.1372748E-06  0.3812251E+04  0.7818609E-02  0.8043531E-01
        2   -1    0    0  501    0  0.00000000000E+00  0.00000000000E+00  0.20584522018E+04  0.20584522018E+04  0.25500000920E-02 0. -1.
       -2   -1    0    0    0  501  0.00000000000E+00  0.00000000000E+00 -0.17650709741E+04  0.17650709741E+04  0.25500000920E-02 0.  1.
    10030    2    1    2    0    0  0.00000000000E+00  0.00000000000E+00  0.29338122770E+03  0.38235231758E+04  0.38122509009E+04 0.  0.
        1    1    3    3  502    0 -0.46103392193E+03  0.71338500933E+03  0.18581487772E+04  0.20430827998E+04  0.50400001928E-02 0. -1.
       -1    1    3    3    0  502  0.46103392193E+03 -0.71338500933E+03 -0.15647675495E+04  0.17804403760E+04  0.50400001928E-02 0.  1.
</event>
<event>
 5   0  0.4255250E-07  0.3545595E+04  0.7818609E-02  0.8103069E-01
        1   -1    0    0  501    0  0.00000000000E+00  0.00000000000E+00  0.10139084775E+04  0.10139084775E+04  0.50400001928E-02 0. -1.
       -1   -1    0    0    0  501  0.00000000000E+00  0.00000000000E+00 -0.30996984718E+04  0.30996984718E+04  0.50400001928E-02 0.  1.
    10030    2    1    2    0    0  0.00000000000E+00  0.00000000000E+00 -0.20857899943E+04  0.41136069494E+04  0.35455947644E+04 0.  0.
        2    1    3    3  502    0  0.92290939885E+03  0.15118566799E+04 -0.95812732092E+03  0.20138223214E+04  0.25500000920E-02 0.  1.
       -2    1    3    3    0  502 -0.92290939885E+03 -0.15118566799E+04 -0.11276626734E+04  0.20997846280E+04  0.25500000920E-02 0. -1.
</event>
<event>
 5   0  0.4255250E-07  0.3810830E+04  0.7818609E-02  0.8043835E-01
        3   -1    0    0  501    0  0.00000000000E+00  0.00000000000E+00  0.22114797359E+04  0.22114797382E+04  0.10100000352E+00 0. -1.
       -3   -1    0    0    0  501  0.00000000000E+00  0.00000000000E+00 -0.16417090831E+04  0.16417090862E+04  0.10100000352E+00 0.  1.
    10030    2    1    2    0    0  0.00000000000E+00  0.00000000000E+00  0.56977065283E+03  0.38531888244E+04  0.38108300303E+04 0.  0.
        2    1    3    3  502    0  0.32726178830E+03  0.43559580755E+02 -0.16125686906E+04  0.16460180732E+04  0.25500000920E-02 0.  1.
       -2    1    3    3    0  502 -0.32726178830E+03 -0.43559580755E+02  0.21823393435E+04  0.22071707513E+04  0.25500000920E-02 0. -1.
</event>
<event>
 5   0  0.5284458E-07  0.3181951E+04  0.7818609E-02  0.8193600E-01
        1   -1    0    0  501    0  0.00000000000E+00  0.00000000000E+00  0.21328319953E+04  0.21328319953E+04  0.50400001928E-02 0.  1.
       -1   -1    0    0    0  501  0.00000000000E+00  0.00000000000E+00 -0.11867801560E+04  0.11867801561E+04  0.50400001928E-02 0. -1.
    10030    2    1    2    0    0  0.00000000000E+00  0.00000000000E+00  0.94605183928E+03  0.33196121514E+04  0.31819507779E+04 0.  0.
        5    1    3    3  502    0  0.12963540364E+04 -0.51956281637E+03 -0.32197985638E+03  0.14332384400E+04  0.46999998093E+01 0. -1.
       -5    1    3    3    0  502 -0.12963540364E+04  0.51956281637E+03  0.12680316957E+04  0.18863737114E+04  0.46999998093E+01 0.  1.
</event>
<event>
 5   0  0.1079205E-06  0.3811597E+04  0.7818609E-02  0.8043671E-01
       -1   -1    0    0    0  501  0.00000000000E+00  0.00000000000E+00  0.20585273851E+04  0.20585273851E+04  0.50400001928E-02 0.  1.
        1   -1    0    0  501    0  0.00000000000E+00  0.00000000000E+00 -0.17644008714E+04  0.17644008714E+04  0.50400001928E-02 0. -1.
    10030    2    1    2    0    0  0.00000000000E+00  0.00000000000E+00  0.29412651370E+03  0.38229282565E+04  0.38115967846E+04 0.  0.
        4    1    3    3  502    0  0.41248929089E+03  0.11085082161E+04 -0.13517447561E+04  0.17961495981E+04  0.12699999809E+01 0. -1.
       -4    1    3    3    0  502 -0.41248929089E+03 -0.11085082161E+04  0.16458712698E+04  0.20267786584E+04  0.12699999809E+01 0.  1.
</event>
<event>
 5   0  0.1214844E-06  0.2005074E+04  0.7818609E-02  0.8604252E-01
       -2   -1    0    0    0  501  0.00000000000E+00  0.00000000000E+00  0.56498964892E+03  0.56498964892E+03  0.25500000920E-02 0.  1.
        2   -1    0    0  501    0  0.00000000000E+00  0.00000000000E+00 -0.17789365005E+04  0.17789365005E+04  0.25500000920E-02 0. -1.
    10030    2    1    2    0    0  0.00000000000E+00  0.00000000000E+00 -0.12139468515E+04  0.23439261494E+04  0.20050742718E+04 0.  0.
        4    1    3    3  502    0  0.24507591963E+03 -0.19344040569E+03 -0.17206527396E+04  0.17487506569E+04  0.12699999809E+01 0. -1.
       -4    1    3    3    0  502 -0.24507591963E+03  0.19344040569E+03  0.50670588805E+03  0.59517549245E+03  0.12699999809E+01 0.  1.
</event>
<event>
 5   0  0.4255250E-07  0.3645090E+04  0.7818609E-02  0.8080241E-01
        3   -1    0    0  501    0  0.00000000000E+00  0.00000000000E+00  0.12164315644E+04  0.12164315686E+04  0.10100000352E+00 0. -1.
       -3   -1    0    0    0  501  0.00000000000E+00  0.00000000000E+00 -0.27306683304E+04  0.27306683323E+04  0.10100000352E+00 0.  1.
    10030    2    1    2    0    0  0.00000000000E+00  0.00000000000E+00 -0.15142367660E+04  0.39470999009E+04  0.36450904850E+04 0.  0.
        5    1    3    3  502    0  0.10915861519E+04  0.71120015275E+03  0.62295018909E+03  0.14441104571E+04  0.46999998093E+01 0. -1.
       -5    1    3    3    0  502 -0.10915861519E+04 -0.71120015275E+03 -0.21371869551E+04  0.25029894437E+04  0.46999998093E+01 0.  1.
</event>
<event>
 5   0  0.1337854E-06  0.1906702E+04  0.7818609E-02  0.8651527E-01
        2   -1    0    0  501    0  0.00000000000E+00  0.00000000000E+00  0.21565538958E+04  0.21565538958E+04  0.25500000920E-02 0.  1.
       -2   -1    0    0    0  501  0.00000000000E+00  0.00000000000E+00 -0.42144935979E+03  0.42144935979E+03  0.25500000920E-02 0. -1.
    10030    2    1    2    0    0  0.00000000000E+00  0.00000000000E+00  0.17351045360E+04  0.25780032556E+04  0.19067021359E+04 0.  0.
        3    1    3    3  502    0  0.53960364220E+03  0.77974052425E+03  0.73431376667E+03  0.11993265168E+04  0.10100000352E+00 0. -1.
       -3    1    3    3    0  502 -0.53960364220E+03 -0.77974052425E+03  0.10007907694E+04  0.13786767388E+04  0.10100000352E+00 0.  1.
</event>
<event>
 5   0  0.1337854E-06  0.3757147E+04  0.7818609E-02  0.8055414E-01
       -2   -1    0    0    0  501  0.00000000000E+00  0.00000000000E+00  0.22996969352E+04  0.22996969352E+04  0.25500000920E-02 0.  1.
        2   -1    0    0  501    0  0.00000000000E+00  0.00000000000E+00 -0.15345670953E+04  0.15345670953E+04  0.25500000920E-02 0. -1.
    10030    2    1    2    0    0  0.00000000000E+00  0.00000000000E+00  0.76512983988E+03  0.38342640305E+04  0.37571474531E+04 0.  0.
        3    1    3    3  502    0  0.16023252453E+04 -0.42619295548E+03 -0.51871123953E+03  0.17372817811E+04  0.10100000352E+00 0. -1.
       -3    1    3    3    0  502 -0.16023252453E+04  0.42619295548E+03  0.12838410794E+04  0.20969822494E+04  0.10100000352E+00 0.  1.
</event>
<event>
 5   0  0.4255250E-07  0.2466213E+04  0.7818609E-02  0.8415122E-01
       -4   -1    0    0    0  501  0.00000000000E+00  0.00000000000E+00  0.10915411381E+04  0.10915418769E+04  0.12699999809E+01 0. -1.
        4   -1    0    0  501    0  0.00000000000E+00  0.00000000000E+00 -0.13930307959E+04  0.13930313748E+04  0.12699999809E+01 0.  1.
    10030    2    1    2    0    0  0.00000000000E+00  0.00000000000E+00 -0.30148965776E+03  0.24845732517E+04  0.24662133382E+04 0.  0.
        1    1    3    3  502    0 -0.70726559649E+02  0.33919180889E+03 -0.13429816281E+04  0.13869581763E+04  0.50400001928E-02 0.  1.
       -1    1    3    3    0  502  0.70726559649E+02 -0.33919180889E+03  0.10414919703E+04  0.10976150754E+04  0.50400001928E-02 0. -1.
</event>
<event>
 5   0  0.1184616E-06  0.3663138E+04  0.7818609E-02  0.8076180E-01
       -2   -1    0    0    0  501  0.00000000000E+00  0.00000000000E+00  0.20118994003E+04  0.20118994003E+04  0.25500000920E-02 0. -1.
        2   -1    0    0  501    0  0.00000000000E+00  0.00000000000E+00 -0.16674018187E+04  0.16674018187E+04  0.25500000920E-02 0.  1.
    10030    2    1    2    0    0  0.00000000000E+00  0.00000000000E+00  0.34449758162E+03  0.36793012189E+04  0.36631378456E+04 0.  0.
        5    1    3    3  502    0 -0.92183284620E+03 -0.19898491369E+03 -0.14047912792E+04  0.16919903724E+04  0.46999998093E+01 0.  1.
       -5    1    3    3    0  502  0.92183284620E+03  0.19898491369E+03  0.17492888608E+04  0.19873108465E+04  0.46999998093E+01 0. -1.
</event>
<event>
 5   0  0.4255250E-07  0.2181216E+04  0.7818609E-02  0.8526288E-01
       -1   -1    0    0    0  501  0.00000000000E+00  0.00000000000E+00  0.43861959839E+03  0.43861959842E+03  0.50400001928E-02 0.  1.
        1   -1    0    0  501    0  0.00000000000E+00  0.00000000000E+00 -0.27117467481E+04  0.27117467481E+04  0.50400001928E-02 0. -1.
    10030    2    1    2    0    0  0.00000000000E+00  0.00000000000E+00 -0.22731271497E+04  0.31503663465E+04  0.21812155048E+04 0.  0.
        2    1    3    3  502    0 -0.14243111750E+03  0.10021139744E+04 -0.17230811267E+04  0.19983812475E+04  0.25500000920E-02 0.  1.
       -2    1    3    3    0  502  0.14243111750E+03 -0.10021139744E+04 -0.55004602298E+03  0.11519850990E+04  0.25500000920E-02 0. -1.
</event>
<event>
 5   0  0.1184616E-06  0.3570897E+04  0.7818609E-02  0.8097191E-01
       -2   -1    0    0    0  501  0.00000000000E+00  0.00000000000E+00  0.14845667356E+04  0.14845667356E+04  0.25500000920E-02 0. -1.
        2   -1    0    0  501    0  0.00000000000E+00  0.00000000000E+00 -0.21473105144E+04  0.21473105145E+04  0.25500000920E-02 0.  1.
    10030    2    1    2    0    0  0.00000000000E+00  0.00000000000E+00 -0.66274377889E+03  0.36318772500E+04  0.35708966721E+04 0.  0.
        5    1    3    3  502    0  0.82798764404E+03  0.52254667804E+03  0.11871705860E+04  0.15388354882E+04  0.46999998093E+01 0. -1.
       -5    1    3    3    0  502 -0.82798764404E+03 -0.52254667804E+03 -0.18499143649E+04  0.20930417618E+04  0.46999998093E+01 0.  1.
</event>
<event>
 5   0  0.1372748E-06  0.3983313E+04  0.7818609E-02  0.8007921E-01
        2   -1    0    0  501    0  0.00000000000E+00  0.00000000000E+00  0.24404108815E+04  0.24404108815E+04  0.25500000920E-02 0.  1.
       -2   -1    0    0    0  501  0.00000000000E+00  0.00000000000E+00 -0.16254208318E+04  0.16254208318E+04  0.25500000920E-02 0. -1.
    10030    2    1    2    0    0  0.00000000000E+00  0.00000000000E+00  0.81499004978E+03  0.40658317133E+04  0.39833125335E+04 0.  0.
        1    1    3    3  502    0 -0.85149504437E+02 -0.13054828454E+04  0.19403235696E+04  0.23401691077E+04  0.50400001928E-02 0.  1.
       -1    1    3    3    0  502  0.85149504437E+02  0.13054828454E+04 -0.11253335198E+04  0.17256626057E+04  0.50400001928E-02 0. -1.
</event>
<event>
 5   0  0.4255250E-07  0.3667162E+04  0.7818609E-02  0.8075278E-01
       -1   -1    0    0    0  501  0.00000000000E+00  0.00000000000E+00  0.16485139652E+04  0.16485139652E+04  0.50400001928E-02 0. -1.
        1   -1    0    0  501    0  0.00000000000E+00  0.00000000000E+00 -0.20394243870E+04  0.20394243870E+04  0.50400001928E-02 0.  1.
    10030    2    1    2    0    0  0.00000000000E+00  0.00000000000E+00 -0.39091042185E+03  0.36879383522E+04  0.36671621633E+04 0.  0.
        2    1    3    3  502    0 -0.72223719160E+03  0.95602762490E+03  0.12003578127E+04  0.16960171753E+04  0.25500000920E-02 0. -1.
       -2    1    3    3    0  502  0.72223719160E+03 -0.95602762490E+03 -0.15912682346E+04  0.19919211769E+04  0.25500000920E-02 0.  1.
</event>
<event>
 5   0  0.1372748E-06  0.3356059E+04  0.7818609E-02  0.8148776E-01
       -2   -1    0    0    0  501  0.00000000000E+00  0.00000000000E+00  0.23295348073E+04  0.23295348073E+04  0.25500000920E-02 0.  1.
        2   -1    0    0  501    0  0.00000000000E+00  0.00000000000E+00 -0.12087318421E+04  0.12087318421E+04  0.25500000920E-02 0. -1.
    10030    2    1    2    0    0  0.00000000000E+00  0.00000000000E+00  0.11208029652E+04  0.35382666493E+04  0.33560589379E+04 0.  0.
        1    1    3    3  502    0 -0.25228888355E+02  0.15262376627E+04 -0.17439175145E+03  0.15363757297E+04  0.50400001928E-02 0. -1.
       -1    1    3    3    0  502  0.25228888355E+02 -0.15262376627E+04  0.12951947166E+04  0.20018909196E+04  0.50400001928E-02 0.  1.
</event>
<event>
 5   0  0.8030324E-07  0.1904834E+04  0.7818609E-02  0.8652454E-01
       -1   -1    0    0    0  501  0.00000000000E+00  0.00000000000E+00  0.81362287708E+03  0.81362287710E+03  0.50400001928E-02 0. -1.
        1   -1    0    0  501    0  0.00000000000E+00  0.00000000000E+00 -0.11148873980E+04  0.11148873981E+04  0.50400001928E-02 0.  1.
    10030    2    1    2    0    0  0.00000000000E+00  0.00000000000E+00 -0.30126452097E+03  0.19285102752E+04  0.19048337381E+04 0.  0.
        1    1    3    3  502    0 -0.32703413707E+03 -0.88918341624E+03 -0.24930867924E+03  0.97966999142E+03  0.50400001928E-02 0.  1.
       -1    1    3    3    0  502  0.32703413707E+03  0.88918341624E+03 -0.51955841726E+02  0.94884028374E+03  0.50400001928E-02 0. -1.
</event>
<event>
 5   0  0.1337854E-06  0.3687757E+04  0.7818609E-02  0.8070680E-01
       -2   -1    0    0    0  501  0.00000000000E+00  0.00000000000E+00  0.13894936210E+04  0.13894936210E+04  0.25500000920E-02 0.  1.
        2   -1    0    0  501    0  0.00000000000E+00  0.00000000000E+00 -0.24468539286E+04  0.24468539286E+04  0.25500000920E-02 0. -1.
    10030    2    1    2    0    0  0.00000000000E+00  0.00000000000E+00 -0.10573603076E+04  0.38363475497E+04  0.36877570015E+04 0.  0.
        3    1    3    3  502    0 -0.16341236930E+03  0.37273377347E+03  0.13421859226E+04  0.14025323986E+04  0.10100000352E+00 0.  1.
       -3    1    3    3    0  502  0.16341236930E+03 -0.37273377347E+03 -0.23995462302E+04  0.24338151510E+04  0.10100000352E+00 0. -1.
</event>
<event>
 5   0  0.8030324E-07  0.3144908E+04  0.7818609E-02  0.8203520E-01
       -1   -1    0    0    0  501  0.00000000000E+00  0.00000000000E+00  0.21703700106E+04  0.21703700107E+04  0.50400001928E-02 0. -1.
        1   -1    0    0  501    0  0.00000000000E+00  0.00000000000E+00 -0.11392582122E+04  0.11392582122E+04  0.50400001928E-02 0.  1.
    10030    2    1    2    0    0  0.00000000000E+00  0.00000000000E+00  0.10311117985E+04  0.33096282228E+04  0.31449081755E+04 0.  0.
        1    1    3    3  502    0  0.74435792573E+01  0.80005550206E+03  0.19401442853E+04  0.20986433859E+04  0.50400001928E-02 0. -1.
       -1    1    3    3    0  502 -0.74435792573E+01 -0.80005550206E+03 -0.90903248682E+03  0.12109848370E+04  0.50400001928E-02 0.  1.
</event>
<event>
 5   0  0.1337854E-06  0.2389858E+04  0.7818609E-02  0.8443310E-01
        2   -1    0    0  501    0  0.00000000000E+00  0.00000000000E+00  0.15257030434E+04  0.15257030434E+04  0.25500000920E-02 0. -1.
       -2   -1    0    0    0  501  0.00000000000E+00  0.00000000000E+00 -0.93586686932E+03  0.93586686933E+03  0.25500000920E-02 0.  1.
    10030    2    1    2    0    0  0.00000000000E+00  0.00000000000E+00  0.58983617404E+03  0.24615699127E+04  0.23898576784E+04 0.  0.
        3    1    3    3  502    0  0.36341464167E+03  0.56008989788E+03 -0.72582032871E+03  0.98619777695E+03  0.10100000352E+00 0.  1.
       -3    1    3    3    0  502 -0.36341464167E+03 -0.56008989788E+03  0.13156565028E+04  0.14753721357E+04  0.10100000352E+00 0. -1.
</event>
<event>
 5   0  0.1214844E-06  0.3207060E+04  0.7818609E-02  0.8186955E-01
        2   -1    0    0  501    0  0.00000000000E+00  0.00000000000E+00  0.14190287383E+04  0.14190287383E+04  0.25500000920E-02 0. -1.
       -2   -1    0    0    0  501  0.00000000000E+00  0.00000000000E+00 -0.18120203741E+04  0.18120203741E+04  0.25500000920E-02 0.  1.
    10030    2    1    2    0    0  0.00000000000E+00  0.00000000000E+00 -0.39299163574E+03  0.32310491124E+04  0.32070603270E+04 0.  0.
        4    1    3    3  502    0  0.12003299567E+04  0.10630997740E+04 -0.21491474217E+03  0.16177648450E+04  0.12699999809E+01 0. -1.
       -4    1    3    3    0  502 -0.12003299567E+04 -0.10630997740E+04 -0.17807689357E+03  0.16132842674E+04  0.12699999809E+01 0.  1.
</event>
<event>
 5   0  0.1341932E-06  0.3512587E+04  0.7818609E-02  0.8110813E-01
       -2   -1    0    0    0  501  0.00000000000E+00  0.00000000000E+00  0.11843467376E+04  0.11843467376E+04  0.25500000920E-02 0. -1.
        2   -1    0    0  501    0  0.00000000000E+00  0.00000000000E+00 -0.26044463964E+04  0.26044463964E+04  0.25500000920E-02 0.  1.
    10030    2    1    2    0    0  0.00000000000E+00  0.00000000000E+00 -0.14200996587E+04  0.37887931340E+04  0.35125874183E+04 0.  0.
        2    1    3    3  502    0 -0.32200974173E+03  0.17015749791E+04 -0.39461665336E+03  0.17761672180E+04  0.25500000920E-02 0. -1.
       -2    1    3    3    0  502  0.32200974173E+03 -0.17015749791E+04 -0.10254830054E+04  0.20126259160E+04  0.25500000920E-02 0.  1.
</event>
<event>
 5   0  0.1341932E-06  0.3424571E+04  0.7818609E-02  0.8131902E-01
        2   -1    0    0  501    0  0.00000000000E+00  0.00000000000E+00  0.13081048136E+04  0.13081048136E+04  0.25500000920E-02 0. -1.
       -2   -1    0    0    0  501  0.00000000000E+00  0.00000000000E+00 -0.22413512797E+04  0.22413512797E+04  0.25500000920E-02 0.  1.
    10030    2    1    2    0    0  0.00000000000E+00  0.00000000000E+00 -0.93324646613E+03  0.35494560933E+04  0.34245714464E+04 0.  0.
        2    1    3    3  502    0 -0.10111072689E+04  0.70545550050E+03 -0.16981962484E+04  0.20985413674E+04  0.25500000920E-02 0.  1.
       -2    1    3    3    0  502  0.10111072689E+04 -0.70545550050E+03  0.76494978229E+03  0.14509147259E+04  0.25500000920E-02 0. -1.
</event>
<event>
 5   0  0.1079205E-06  0.2302618E+04  0.7818609E-02  0.8476889E-01
        1   -1    0    0  501    0  0.00000000000E+00  0.00000000000E+00  0.17187766384E+04  0.17187766384E+04  0.50400001928E-02 0. -1.
       -1   -1    0    0    0  501  0.00000000000E+00  0.00000000000E+00 -0.77119553546E+03  0.77119553547E+03  0.50400001928E-02 0.  1.
    10030    2    1    2    0    0  0.00000000000E+00  0.00000000000E+00  0.94758110294E+03  0.24899721739E+04  0.23026183965E+04 0.  0.
        4    1    3    3  502    0  0.53006760606E+03 -0.39656302604E+03  0.14923871530E+04  0.16326221020E+04  0.12699999809E+01 0. -1.
       -4    1    3    3    0  502 -0.53006760606E+03  0.39656302604E+03 -0.54480605007E+03  0.85735007186E+03  0.12699999809E+01 0.  1.
</event>
<event>
 5   0  0.1341932E-06  0.3778934E+04  0.7818609E-02  0.8050691E-01
       -2   -1    0    0    0  501  0.00000000000E+00  0.00000000000E+00  0.12471209526E+04  0.12471209526E+04  0.25500000920E-02 0. -1.
        2   -1    0    0  501    0  0.00000000000E+00  0.00000000000E+00 -0.28626615344E+04  0.28626615344E+04  0.25500000920E-02 0.  1.
    10030    2    1    2    0    0  0.00000000000E+00  0.00000000000E+00 -0.16155405818E+04  0.41097824870E+04  0.37789338071E+04 0.  0.
        2    1    3    3  502    0  0.12900833099E+04  0.12844140987E+02 -0.23090652418E+04  0.26450448407E+04  0.25500000920E-02 0.  1.
       -2    1    3    3    0  502 -0.12900833099E+04 -0.12844140987E+02  0.69352465997E+03  0.14647376463E+04  0.25500000920E-02 0. -1.
</event>
<event>
 5   0  0.1184616E-06  0.2652734E+04  0.7818609E-02  0.8350506E-01
       -2   -1    0    0    0  501  0.00000000000E+00  0.00000000000E+00  0.19151218599E+04  0.19151218599E+04  0.25500000920E-02 0. -1.
        2   -1    0    0  501    0  0.00000000000E+00  0.00000000000E+00 -0.91860969853E+03  0.91860969854E+03  0.25500000920E-02 0.  1.
    10030    2    1    2    0    0  0.00000000000E+00  0.00000000000E+00  0.99651216137E+03  0.28337315584E+04  0.26527340721E+04 0.  0.
        5    1    3    3  502    0 -0.91050943017E+03 -0.91764780032E+03  0.81536498474E+03  0.15283805338E+04  0.46999998093E+01 0. -1.
       -5    1    3    3    0  502  0.91050943017E+03  0.91764780032E+03  0.18114717663E+03  0.13053510246E+04  0.46999998093E+01 0.  1.
</event>
<event>
 5   0  0.1184616E-06  0.3320367E+04  0.7818609E-02  0.8157732E-01
       -2   -1    0    0    0  501  0.00000000000E+00  0.00000000000E+00  0.13054551068E+04  0.13054551068E+04  0.25500000920E-02 0.  1.
        2   -1    0    0  501    0  0.00000000000E+00  0.00000000000E+00 -0.21113011944E+04  0.21113011944E+04  0.25500000920E-02 0. -1.
    10030    2    1    2    0    0  0.00000000000E+00  0.00000000000E+00 -0.80584608754E+03  0.34167563012E+04  0.33203668027E+04 0.  0.
        5    1    3    3  502    0  0.19990699417E+03 -0.15207067352E+04  0.25087542286E+03  0.15541789950E+04  0.46999998093E+01 0. -1.
       -5    1    3    3    0  502 -0.19990699417E+03  0.15207067352E+04 -0.10567215104E+04  0.18625773061E+04  0.46999998093E+01 0.  1.
</event>
<event>
 5   0  0.1337854E-06  0.3818936E+04  0.7818609E-02  0.8042103E-01
       -2   -1    0    0    0  501  0.00000000000E+00  0.00000000000E+00  0.13981143740E+04  0.13981143740E+04  0.25500000920E-02 0.  1.
        2   -1    0    0  501    0  0.00000000000E+00  0.00000000000E+00 -0.26078464160E+04  0.26078464160E+04  0.25500000920E-02 0. -1.
    10030    2    1    2    0    0  0.00000000000E+00  0.00000000000E+00 -0.12097320420E+04  0.40059607900E+04  0.38189357467E+04 0.  0.
        3    1    3    3  502    0  0.92086490672E+03  0.14533285418E+04  0.26389112897E+03  0.17406305079E+04  0.10100000352E+00 0.  1.
       -3    1    3    3    0  502 -0.92086490672E+03 -0.14533285418E+04 -0.14736231710E+04  0.22653302821E+04  0.10100000352E+00 0. -1.
</event>
<event>
 5   0  0.4795023E-07  0.3790696E+04  0.7818609E-02  0.8048154E-01
        1   -1    0    0  501    0  0.00000000000E+00  0.00000000000E+00  0.21211749251E+04  0.21211749251E+04  0.50400001928E-02 0. -1.
       -1   -1    0    0    0  501  0.00000000000E+00  0.00000000000E+00 -0.16935635083E+04  0.16935635083E+04  0.50400001928E-02 0.  1.
    10030    2    1    2    0    0  0.00000000000E+00  0.00000000000E+00  0.42761141679E+03  0.38147384334E+04  0.37906962146E+04 0.  0.
        3    1    3    3  502    0  0.72711087929E+03 -0.43381592461E+03 -0.14926667910E+04  0.17160829369E+04  0.10100000352E+00 0.  1.
       -3    1    3    3    0  502 -0.72711087929E+03  0.43381592461E+03  0.19202782078E+04  0.20986554965E+04  0.10100000352E+00 0. -1.
</event>
<event>
 5   0  0.1337854E-06  0.3629443E+04  0.7818609E-02  0.8083780E-01
       -2   -1    0    0    0  501  0.00000000000E+00  0.00000000000E+00  0.16233924125E+04  0.16233924125E+04  0.25500000920E-02 0.  1.
        2   -1    0    0  501    0  0.00000000000E+00  0.00000000000E+00 -0.20286004594E+04  0.20286004594E+04  0.25500000920E-02 0. -1.
    10030    2    1    2    0    0  0.00000000000E+00  0.00000000000E+00 -0.40520804689E+03  0.36519928718E+04  0.36294432596E+04 0.  0.
        3    1    3    3  502    0  0.80214757931E+03  0.10713093215E+04 -0.14358083007E+04  0.19628270142E+04  0.10100000352E+00 0. -1.
       -3    1    3    3    0  502 -0.80214757931E+03 -0.10713093215E+04  0.10306002538E+04  0.16891658576E+04  0.10100000352E+00 0.  1.
</event>
<event>
 5   0  0.4255250E-07  0.3780891E+04  0.7818609E-02  0.8050268E-01
       -1   -1    0    0    0  501  0.00000000000E+00  0.00000000000E+00  0.21257155468E+04  0.21257155468E+04  0.50400001928E-02 0.  1.
        1   -1    0    0  501    0  0.00000000000E+00  0.00000000000E+00 -0.16812151126E+04  0.16812151126E+04  0.50400001928E-02 0. -1.
    10030    2    1    2    0    0  0.00000000000E+00  0.00000000000E+00  0.44450043422E+03  0.38069306594E+04  0.37808914834E+04 0.  0.
        2    1    3    3  502    0  0.16581107471E+04  0.53227281728E+03  0.96293832527E+03  0.19899486978E+04  0.25500000920E-02 0.  1.
       -2    1    3    3    0  502 -0.16581107471E+04 -0.53227281728E+03 -0.51843789104E+03  0.18169819616E+04  0.25500000920E-02 0. -1.
</event>
<event>
 5   0  0.1214844E-06  0.2036703E+04  0.7818609E-02  0.8589650E-01
        2   -1    0    0  501    0  0.00000000000E+00  0.00000000000E+00  0.12876089343E+04  0.12876089343E+04  0.25500000920E-02 0.  1.
       -2   -1    0    0    0  501  0.00000000000E+00  0.00000000000E+00 -0.80539994208E+03  0.80539994208E+03  0.25500000920E-02 0. -1.
    10030    2    1    2    0    0  0.00000000000E+00  0.00000000000E+00  0.48220899221E+03  0.20930088764E+04  0.20367033766E+04 0.  0.
        4    1    3    3  502    0  0.23652465495E+03  0.27600185238E+03  0.12186743658E+04  0.12717270768E+04  0.12699999809E+01 0.  1.
       -4    1    3    3    0  502 -0.23652465495E+03 -0.27600185238E+03 -0.73646537363E+03  0.82128179961E+03  0.12699999809E+01 0. -1.
</event>
<event>
 5   0  0.8030324E-07  0.2916393E+04  0.7818609E-02  0.8268017E-01
        1   -1    0    0  501    0  0.00000000000E+00  0.00000000000E+00  0.19056064209E+04  0.19056064209E+04  0.50400001928E-02 0. -1.
       -1   -1    0    0    0  501  0.00000000000E+00  0.00000000000E+00 -0.11158322886E+04  0.11158322886E+04  0.50400001928E-02 0.  1.
    10030    2    1    2    0    0  0.00000000000E+00  0.00000000000E+00  0.78977413225E+03  0.30214387095E+04  0.29163930968E+04 0.  0.
        1    1    3    3  502    0  0.50936862135E+03 -0.13008292287E+04  0.82794313812E+03  0.16239159198E+04  0.50400001928E-02 0.  1.
       -1    1    3    3    0  502 -0.50936862135E+03  0.13008292287E+04 -0.38169005865E+02  0.13975227897E+04  0.50400001928E-02 0. -1.
</event>
<event>
 5   0  0.1214844E-06  0.3928012E+04  0.7818609E-02  0.8019228E-01
        2   -1    0    0  501    0  0.00000000000E+00  0.00000000000E+00  0.24981301527E+04  0.24981301527E+04  0.25500000920E-02 0.  1.
       -2   -1    0    0    0  501  0.00000000000E+00  0.00000000000E+00 -0.15440829268E+04  0.15440829268E+04  0.25500000920E-02 0. -1.
    10030    2    1    2    0    0  0.00000000000E+00  0.00000000000E+00  0.95404722583E+03  0.40422130795E+04  0.39280122799E+04 0.  0.
        4    1    3    3  502    0 -0.57441733879E+03 -0.57447035878E+03  0.23171228880E+04  0.24554086347E+04  0.12699999809E+01 0.  1.
       -4    1    3    3    0  502  0.57441733879E+03  0.57447035878E+03 -0.13630756622E+04  0.15868044448E+04  0.12699999809E+01 0. -1.
</event>
<event>
 5   0  0.1372748E-06  0.2775294E+04  0.7818609E-02  0.8310980E-01
       -2   -1    0    0    0  501  0.00000000000E+00  0.00000000000E+00  0.10404063147E+04  0.10404063147E+04  0.25500000920E-02 0.  1.
        2   -1    0    0  501    0  0.00000000000E+00  0.00000000000E+00 -0.18507814021E+04  0.18507814021E+04  0.25500000920E-02 0. -1.
    10030    2    1    2    0    0  0.00000000000E+00  0.00000000000E+00 -0.81037508732E+03  0.28911877168E+04  0.27752943324E+04 0.  0.
        1    1    3    3  502    0  0.13399206859E+04 -0.56521096915E+02 -0.33960750978E+02  0.13415421765E+04  0.50400001928E-02 0.  1.
       -1    1    3    3    0  502 -0.13399206859E+04  0.56521096915E+02 -0.77641433634E+03  0.15496455403E+04  0.50400001928E-02 0. -1.
</event>
<event>
 5   0  0.1341932E-06  0.3731813E+04  0.7818609E-02  0.8060948E-01
       -2   -1    0    0    0  501  0.00000000000E+00  0.00000000000E+00  0.16656791373E+04  0.16656791373E+04  0.25500000920E-02 0. -1.
        2   -1    0    0  501    0  0.00000000000E+00  0.00000000000E+00 -0.20902027529E+04  0.20902027529E+04  0.25500000920E-02 0.  1.
    10030    2    1    2    0    0  0.00000000000E+00  0.00000000000E+00 -0.42452361562E+03  0.37558818901E+04  0.37318130275E+04 0.  0.
        2    1    3    3  502    0  0.56383421539E+03 -0.16757961218E+04 -0.81226573672E+03  0.19457587958E+04  0.25500000920E-02 0.  1.
       -2    1    3    3    0  502 -0.56383421539E+03  0.16757961218E+04  0.38774212111E+03  0.18101230944E+04  0.25500000920E-02 0. -1.
</event>
<event>
 5   0  0.5284458E-07  0.3771149E+04  0.7818609E-02  0.8052375E-01
        1   -1    0    0  501    0  0.00000000000E+00  0.00000000000E+00  0.21356157742E+04  0.21356157743E+04  0.50400001928E-02 0. -1.
       -1   -1    0    0    0  501  0.00000000000E+00  0.00000000000E+00 -0.16648084989E+04  0.16648084989E+04  0.50400001928E-02 0.  1.
    10030    2    1    2    0    0  0.00000000000E+00  0.00000000000E+00  0.47080727538E+03  0.38004242731E+04  0.37711490510E+04 0.  0.
        5    1    3    3  502    0 -0.76913222395E+03  0.94595747868E+03  0.16849609989E+04  0.20797873899E+04  0.46999998093E+01 0. -1.
       -5    1    3    3    0  502  0.76913222395E+03 -0.94595747868E+03 -0.12141537235E+04  0.17206368832E+04  0.46999998093E+01 0.  1.
</event>
<event>
 5   0  0.4795023E-07  0.2452577E+04  0.7818609E-02  0.8420078E-01
       -1   -1    0    0    0  501  0.00000000000E+00  0.00000000000E+00  0.12045166201E+04  0.12045166201E+04  0.50400001928E-02 0. -1.
        1   -1    0    0  501    0  0.00000000000E+00  0.00000000000E+00 -0.12484534541E+04  0.12484534541E+04  0.50400001928E-02 0.  1.
    10030    2    1    2    0    0  0.00000000000E+00  0.00000000000E+00 -0.43936833942E+02  0.24529700742E+04  0.24525765512E+04 0.  0.
        3    1    3    3  502    0  0.34095695691E+03 -0.11779178423E+04 -0.15577157657E+02  0.12263705589E+04  0.10100000352E+00 0.  1.
       -3    1    3    3    0  502 -0.34095695691E+03  0.11779178423E+04 -0.28359676285E+02  0.12265995153E+04  0.10100000352E+00 0. -1.
</event>
<event>
 5   0  0.4255250E-07  0.3465212E+04  0.7818609E-02  0.8122084E-01
       -1   -1    0    0    0  501  0.00000000000E+00  0.00000000000E+00  0.13023131849E+04  0.13023131849E+04  0.50400001928E-02 0.  1.
        1   -1    0    0  501    0  0.00000000000E+00  0.00000000000E+00 -0.23050708779E+04  0.23050708779E+04  0.50400001928E-02 0. -1.
    10030    2    1    2    0    0  0.00000000000E+00  0.00000000000E+00 -0.10027576931E+04  0.36073840628E+04  0.34652123723E+04 0.  0.
        2    1    3    3  502    0 -0.50167300370E+03 -0.21666277743E+03  0.12102519846E+04  0.13279037722E+04  0.25500000920E-02 0.  1.
       -2    1    3    3    0  502  0.50167300370E+03  0.21666277743E+03 -0.22130096777E+04  0.22794802906E+04  0.25500000920E-02 0. -1.
</event>
<event>
 5   0  0.1341932E-06  0.3714400E+04  0.7818609E-02  0.8064778E-01
        2   -1    0    0  501    0  0.00000000000E+00  0.00000000000E+00  0.10589218751E+04  0.10589218751E+04  0.25500000920E-02 0.  1.
       -2   -1    0    0    0  501  0.00000000000E+00  0.00000000000E+00 -0.32572676442E+04  0.32572676442E+04  0.25500000920E-02 0. -1.
    10030    2    1    2    0    0  0.00000000000E+00  0.00000000000E+00 -0.21983457691E+04  0.43161895194E+04  0.37144000655E+04 0.  0.
        2    1    3    3  502    0 -0.35820654718E+03  0.29864602812E+03  0.98977071194E+03  0.10941423320E+04  0.25500000920E-02 0.  1.
       -2    1    3    3    0  502  0.35820654718E+03 -0.29864602812E+03 -0.31881164811E+04  0.32220471873E+04  0.25500000920E-02 0. -1.
</event>
<event>
 5   0  0.1184616E-06  0.3779798E+04  0.7818609E-02  0.8050504E-01
        2   -1    0    0  501    0  0.00000000000E+00  0.00000000000E+00  0.18341106321E+04  0.18341106321E+04  0.25500000920E-02 0. -1.
       -2   -1    0    0    0  501  0.00000000000E+00  0.00000000000E+00 -0.19473837795E+04  0.19473837795E+04  0.25500000920E-02 0.  1.
    10030    2    1    2    0    0  0.00000000000E+00  0.00000000000E+00 -0.11327314744E+03  0.37814944116E+04  0.37797975050E+04 0.  0.
        5    1    3    3  502    0 -0.18544485339E+04 -0.71009953026E+02 -0.41411117115E+03  0.19014552139E+04  0.46999998093E+01 0. -1.
       -5    1    3    3    0  502  0.18544485339E+04  0.71009953026E+02  0.30083802371E+03  0.18800391977E+04  0.46999998093E+01 0.  1.
</event>
<event>
 5   0  0.4795023E-07  0.1938891E+04  0.7818609E-02  0.8635736E-01
       -1   -1    0    0    0  501  0.00000000000E+00  0.00000000000E+00  0.12235846372E+04  0.12235846373E+04  0.50400001928E-02 0. -1.
        1   -1    0    0  501    0  0.00000000000E+00  0.00000000000E+00 -0.76809106226E+03  0.76809106228E+03  0.50400001928E-02 0.  1.
    10030    2    1    2    0    0  0.00000000000E+00  0.00000000000E+00  0.45549357499E+03  0.19916756995E+04  0.19388908415E+04 0.  0.
        3    1    3    3  502    0 -0.72640696469E+03 -0.29863224140E+03  0.81152848036E+03  0.11293479440E+04  0.10100000352E+00 0. -1.
       -3    1    3    3    0  502  0.72640696469E+03  0.29863224140E+03 -0.35603490538E+03  0.86232775555E+03  0.10100000352E+00 0.  1.
</event>
<event>
 5   0  0.1372748E-06  0.3642882E+04  0.7818609E-02  0.8080739E-01
        2   -1    0    0  501    0  0.00000000000E+00  0.00000000000E+00  0.19654851195E+04  0.19654851195E+04  0.25500000920E-02 0.  1.
       -2   -1    0    0    0  501  0.00000000000E+00  0.00000000000E+00 -0.16879536810E+04  0.16879536810E+04  0.25500000920E-02 0. -1.
    10030    2    1    2    0    0  0.00000000000E+00  0.00000000000E+00  0.27753143849E+03  0.36534388004E+04  0.36428822887E+04 0.  0.
        1    1    3    3  502    0 -0.91129925133E+03  0.72822833232E+03  0.15416993714E+04  0.19332924717E+04  0.50400001928E-02 0.  1.
       -1    1    3    3    0  502  0.91129925133E+03 -0.72822833232E+03 -0.12641679329E+04  0.17201463287E+04  0.50400001928E-02 0. -1.
</event>
<event>
 5   0  0.4795023E-07  0.2208634E+04  0.7818609E-02  0.8514843E-01
       -1   -1    0    0    0  501  0.00000000000E+00  0.00000000000E+00  0.59878779733E+03  0.59878779735E+03  0.50400001928E-02 0.  1.
        1   -1    0    0  501    0  0.00000000000E+00  0.00000000000E+00 -0.20366410682E+04  0.20366410682E+04  0.50400001928E-02 0. -1.
    10030    2    1    2    0    0  0.00000000000E+00  0.00000000000E+00 -0.14378532709E+04  0.26354288656E+04  0.22086338033E+04 0.  0.
        3    1    3    3  502    0  0.41820527828E+02 -0.60402043029E+03  0.38307770269E+03  0.71647621960E+03  0.10100000352E+00 0.  1.
       -3    1    3    3    0  502 -0.41820527828E+02  0.60402043029E+03 -0.18209309736E+04  0.19189526460E+04  0.10100000352E+00 0. -1.
</event>
<event>
 5   0  0.1184616E-06  0.3823573E+04  0.7818609E-02  0.8041115E-01
       -2   -1    0    0    0  501  0.00000000000E+00  0.00000000000E+00  0.23782311832E+04  0.23782311832E+04  0.25500000920E-02 0. -1.
        2   -1    0    0  501    0  0.00000000000E+00  0.00000000000E+00 -0.15368263772E+04  0.15368263772E+04  0.25500000920E-02 0.  1.
    10030    2    1    2    0    0  0.00000000000E+00  0.00000000000E+00  0.84140480600E+03  0.39150575603E+04  0.38235734141E+04 0.  0.
        5    1    3    3  502    0 -0.90177862000E+03 -0.63043684526E+03 -0.11801143534E+04  0.16134891609E+04  0.46999998093E+01 0.  1.
       -5    1    3    3    0  502  0.90177862000E+03  0.63043684526E+03  0.20215191594E+04  0.23015683994E+04  0.46999998093E+01 0. -1.
</event>
<event>
 5   0  0.1214844E-06  0.2215102E+04  0.7818609E-02  0.8512169E-01
       -2   -1    0    0    0  501  0.00000000000E+00  0.00000000000E+00  0.15390091809E+04  0.15390091809E+04  0.25500000920E-02 0. -1.
        2   -1    0    0  501    0  0.00000000000E+00  0.00000000000E+00 -0.79705105828E+03  0.79705105828E+03  0.25500000920E-02 0.  1.
    10030    2    1    2    0    0  0.00000000000E+00  0.00000000000E+00  0.74195812261E+03  0.23360602392E+04  0.22151017099E+04 0.  0.
        4    1    3    3  502    0  0.10581175865E+04  0.28552640129E+03  0.53948234894E+03  0.12215485952E+04  0.12699999809E+01 0.  1.
       -4    1    3    3    0  502 -0.10581175865E+04 -0.28552640129E+03  0.20247577367E+03  0.11145116440E+04  0.12699999809E+01 0. -1.
</event>
<event>
 5   0  0.1184616E-06  0.2768369E+04  0.7818609E-02  0.8313156E-01
        2   -1    0    0  501    0  0.00000000000E+00  0.00000000000E+00  0.23177185240E+04  0.23177185240E+04  0.25500000920E-02 0.  1.
       -2   -1    0    0    0  501  0.00000000000E+00  0.00000000000E+00 -0.82666073492E+03  0.82666073492E+03  0.25500000920E-02 0. -1.
    10030    2    1    2    0    0  0.00000000000E+00  0.00000000000E+00  0.14910577891E+04  0.31443792589E+04  0.27683691216E+04 0.  0.
        5    1    3    3  502    0  0.12983575929E+04  0.37180165707E+03  0.10899961481E+04  0.17355352501E+04  0.46999998093E+01 0.  1.
       -5    1    3    3    0  502 -0.12983575929E+04 -0.37180165707E+03  0.40106164096E+03  0.14088440088E+04  0.46999998093E+01 0. -1.
</event>
<event>
 5   0  0.1184616E-06  0.2414081E+04  0.7818609E-02  0.8434250E-01
       -2   -1    0    0    0  501  0.00000000000E+00  0.00000000000E+00  0.10953360599E+04  0.10953360599E+04  0.25500000920E-02 0.  1.
        2   -1    0    0  501    0  0.00000000000E+00  0.00000000000E+00 -0.13301370928E+04  0.13301370928E+04  0.25500000920E-02 0. -1.
    10030    2    1    2    0    0  0.00000000000E+00  0.00000000000E+00 -0.23480103292E+03  0.24254731526E+04  0.24140812930E+04 0.  0.
        5    1    3    3  502    0  0.86905031392E+03  0.71486208592E+03  0.32129338693E+03  0.11702682515E+04  0.46999998093E+01 0.  1.
       -5    1    3    3    0  502 -0.86905031392E+03 -0.71486208592E+03 -0.55609441985E+03  0.12552049011E+04  0.46999998093E+01 0. -1.
</event>
<event>
 5   0  0.4255250E-07  0.1979986E+04  0.7818609E-02  0.8616035E-01
        4   -1    0    0  501    0  0.00000000000E+00  0.00000000000E+00  0.16594264255E+04  0.16594269115E+04  0.12699999809E+01 0.  1.
       -4   -1    0    0    0  501  0.00000000000E+00  0.00000000000E+00 -0.59061638746E+03  0.59061775289E+03  0.12699999809E+01 0. -1.
    10030    2    1    2    0    0  0.00000000000E+00  0.00000000000E+00  0.10688100381E+04  0.22500446644E+04  0.19799863874E+04 0.  0.
        1    1    3    3  502    0  0.67863349647E+03  0.19238966342E+03  0.13237935055E+04  0.14999954835E+04  0.50400001928E-02 0.  1.
       -1    1    3    3    0  502 -0.67863349647E+03 -0.19238966342E+03 -0.25498346745E+03  0.75004918094E+03  0.50400001928E-02 0. -1.
</event>
<event>
 5   0  0.1372748E-06  0.3949605E+04  0.7818609E-02  0.8014791E-01
        2   -1    0    0  501    0  0.00000000000E+00  0.00000000000E+00  0.25279055737E+04  0.25279055737E+04  0.25500000920E-02 0.  1.
       -2   -1    0    0    0  501  0.00000000000E+00  0.00000000000E+00 -0.15427176113E+04  0.15427176113E+04  0.25500000920E-02 0. -1.
    10030    2    1    2    0    0  0.00000000000E+00  0.00000000000E+00  0.98518796245E+03  0.40706231850E+04  0.39496047642E+04 0.  0.
        1    1    3    3  502    0 -0.12056322685E+03  0.19650621973E+04  0.33346254165E+03  0.19967979862E+04  0.50400001928E-02 0.  1.
       -1    1    3    3    0  502  0.12056322685E+03 -0.19650621973E+04  0.65172542080E+03  0.20738251988E+04  0.50400001928E-02 0. -1.
</event>
<event>
 5   0  0.4255250E-07  0.2375803E+04  0.7818609E-02  0.8448619E-01
       -1   -1    0    0    0  501  0.00000000000E+00  0.00000000000E+00  0.89487705586E+03  0.89487705587E+03  0.50400001928E-02 0.  1.
        1   -1    0    0  501    0  0.00000000000E+00  0.00000000000E+00 -0.15768753686E+04  0.15768753686E+04  0.50400001928E-02 0. -1.
    10030    2    1    2    0    0  0.00000000000E+00  0.00000000000E+00 -0.68199831276E+03  0.24717524245E+04  0.23758026748E+04 0.  0.
        2    1    3    3  502    0  0.29367510936E+03 -0.21619822654E+03 -0.15171984127E+04  0.15604094868E+04  0.25500000920E-02 0. -1.
       -2    1    3    3    0  502 -0.29367510936E+03  0.21619822654E+03  0.83520009997E+03  0.91134293766E+03  0.25500000920E-02 0.  1.
</event>
<event>
 5   0  0.1214844E-06  0.3843719E+04  0.7818609E-02  0.8036837E-01
        2   -1    0    0  501    0  0.00000000000E+00  0.00000000000E+00  0.11229850599E+04  0.11229850599E+04  0.25500000920E-02 0.  1.
       -2   -1    0    0    0  501  0.00000000000E+00  0.00000000000E+00 -0.32890410771E+04  0.32890410771E+04  0.25500000920E-02 0. -1.
    10030    2    1    2    0    0  0.00000000000E+00  0.00000000000E+00 -0.21660560172E+04  0.44120261371E+04  0.38437190278E+04 0.  0.
        4    1    3    3  502    0 -0.52458310918E+03 -0.85098113018E+03  0.80105587630E+03  0.12810341339E+04  0.12699999809E+01 0.  1.
       -4    1    3    3    0  502  0.52458310918E+03  0.85098113018E+03 -0.29671118935E+04  0.31309920032E+04  0.12699999809E+01 0. -1.
</event>
<event>
 5   0  0.5284458E-07  0.3771919E+04  0.7818609E-02  0.8052208E-01
       -1   -1    0    0    0  501  0.00000000000E+00  0.00000000000E+00  0.20349750991E+04  0.20349750991E+04  0.50400001928E-02 0. -1.
        1   -1    0    0  501    0  0.00000000000E+00  0.00000000000E+00 -0.17478559965E+04  0.17478559965E+04  0.50400001928E-02 0.  1.
    10030    2    1    2    0    0  0.00000000000E+00  0.00000000000E+00  0.28711910255E+03  0.37828310956E+04  0.37719191029E+04 0.  0.
        5    1    3    3  502    0 -0.36452638723E+03 -0.15095762796E+04  0.12167587227E+04  0.19728719954E+04  0.46999998093E+01 0.  1.
       -5    1    3    3    0  502  0.36452638723E+03  0.15095762796E+04 -0.92963962015E+03  0.18099591002E+04  0.46999998093E+01 0. -1.
</event>
<event>
 5   0  0.1337854E-06  0.3329740E+04  0.7818609E-02  0.8155369E-01
        2   -1    0    0  501    0  0.00000000000E+00  0.00000000000E+00  0.11392471798E+04  0.11392471798E+04  0.25500000920E-02 0.  1.
       -2   -1    0    0    0  501  0.00000000000E+00  0.00000000000E+00 -0.24330037381E+04  0.24330037381E+04  0.25500000920E-02 0. -1.
    10030    2    1    2    0    0  0.00000000000E+00  0.00000000000E+00 -0.12937565583E+04  0.35722509179E+04  0.33297403185E+04 0.  0.
        3    1    3    3  502    0  0.14042344059E+04 -0.76035976218E+03 -0.11521027327E+04  0.19691018134E+04  0.10100000352E+00 0. -1.
       -3    1    3    3    0  502 -0.14042344059E+04  0.76035976218E+03 -0.14165382557E+03  0.16031491045E+04  0.10100000352E+00 0.  1.
</event>
<event>
 5   0  0.8030324E-07  0.2199074E+04  0.7818609E-02  0.8518814E-01
        1   -1    0    0  501    0  0.00000000000E+00  0.00000000000E+00  0.78533533008E+03  0.78533533009E+03  0.50400001928E-02 0. -1.
       -1   -1    0    0    0  501  0.00000000000E+00  0.00000000000E+00 -0.15394459055E+04  0.15394459055E+04  0.50400001928E-02 0.  1.
    10030    2    1    2    0    0  0.00000000000E+00  0.00000000000E+00 -0.75411057545E+03  0.23247812356E+04  0.21990736762E+04 0.  0.
        1    1    3    3  502    0  0.47667040318E+03  0.54665947163E+02 -0.14229415532E+04  0.15016543220E+04  0.50400001928E-02 0.  1.
       -1    1    3    3    0  502 -0.47667040318E+03 -0.54665947163E+02  0.66883097775E+03  0.82312691359E+03  0.50400001928E-02 0. -1.
</event>
<event>
 5   0  0.1372748E-06  0.3801521E+04  0.7818609E-02  0.8045829E-01
       -2   -1    0    0    0  501  0.00000000000E+00  0.00000000000E+00  0.19182956768E+04  0.19182956768E+04  0.25500000920E-02 0.  1.
        2   -1    0    0  501    0  0.00000000000E+00  0.00000000000E+00 -0.18833856463E+04  0.18833856463E+04  0.25500000920E-02 0. -1.
    10030    2    1    2    0    0  0.00000000000E+00  0.00000000000E+00  0.34910030459E+02  0.38016813231E+04  0.38015210341E+04 0.  0.
        1    1    3    3  502    0 -0.11923787891E+04  0.66994702118E+03  0.13374706531E+04  0.19129620842E+04  0.50400001928E-02 0.  1.
       -1    1    3    3    0  502  0.11923787891E+04 -0.66994702118E+03 -0.13025606226E+04  0.18887192389E+04  0.50400001928E-02 0. -1.
</event>
<event>
 5   0  0.1081617E-06  0.1987261E+04  0.7818609E-02  0.8612600E-01
        1   -1    0    0  501    0  0.00000000000E+00  0.00000000000E+00  0.10827693377E+04  0.10827693377E+04  0.50400001928E-02 0.  1.
       -1   -1    0    0    0  501  0.00000000000E+00  0.00000000000E+00 -0.91183009329E+03  0.91183009331E+03  0.50400001928E-02 0. -1.
    10030    2    1    2    0    0  0.00000000000E+00  0.00000000000E+00  0.17093924436E+03  0.19945994310E+04  0.19872610963E+04 0.  0.
        1    1    3    3  502    0 -0.47522740997E+02  0.24867636911E+03 -0.87891313928E+03  0.91465111048E+03  0.50400001928E-02 0. -1.
       -1    1    3    3    0  502  0.47522740997E+02 -0.24867636911E+03  0.10498523836E+04  0.10799483205E+04  0.50400001928E-02 0.  1.
</event>
<event>
 5   0  0.1337854E-06  0.2882237E+04  0.7818609E-02  0.8278182E-01
       -2   -1    0    0    0  501  0.00000000000E+00  0.00000000000E+00  0.62264326262E+03  0.62264326262E+03  0.25500000920E-02 0. -1.
        2   -1    0    0  501    0  0.00000000000E+00  0.00000000000E+00 -0.33354927626E+04  0.33354927626E+04  0.25500000920E-02 0.  1.
    10030    2    1    2    0    0  0.00000000000E+00  0.00000000000E+00 -0.27128494999E+04  0.39581360252E+04  0.28822366982E+04 0.  0.
        3    1    3    3  502    0  0.97325116476E+03 -0.64930049938E+02 -0.28132661616E+04  0.29775661617E+04  0.10100000352E+00 0.  1.
       -3    1    3    3    0  502 -0.97325116476E+03  0.64930049938E+02  0.10041666163E+03  0.98056986351E+03  0.10100000352E+00 0. -1.
</event>
<event>
 5   0  0.5284458E-07  0.3792466E+04  0.7818609E-02  0.8047774E-01
        1   -1    0    0  501    0  0.00000000000E+00  0.00000000000E+00  0.13396526956E+04  0.13396526956E+04  0.50400001928E-02 0.  1.
       -1   -1    0    0    0  501  0.00000000000E+00  0.00000000000E+00 -0.26840531837E+04  0.26840531837E+04  0.50400001928E-02 0. -1.
    10030    2    1    2    0    0  0.00000000000E+00  0.00000000000E+00 -0.13444004880E+04  0.40237058793E+04  0.37924657323E+04 0.  0.
        5    1    3    3  502    0  0.11624298742E+04 -0.41380739143E+03  0.85545329856E+03  0.15014333837E+04  0.46999998093E+01 0.  1.
       -5    1    3    3    0  502 -0.11624298742E+04  0.41380739143E+03 -0.21998537866E+04  0.25222724956E+04  0.46999998093E+01 0. -1.
</event>
<event>
 5   0  0.4255250E-07  0.3840076E+04  0.7818609E-02  0.8037609E-01
        1   -1    0    0  501    0  0.00000000000E+00  0.00000000000E+00  0.16343754038E+04  0.16343754038E+04  0.50400001928E-02 0. -1.
       -1   -1    0    0    0  501  0.00000000000E+00  0.00000000000E+00 -0.22556300561E+04  0.22556300561E+04  0.50400001928E-02 0.  1.
    10030    2    1    2    0    0  0.00000000000E+00  0.00000000000E+00 -0.62125465227E+03  0.38900054600E+04  0.38400761888E+04 0.  0.
        2    1    3    3  502    0 -0.87477564853E+03 -0.13572462670E+04 -0.13629783252E+04  0.21130688062E+04  0.25500000920E-02 0.  1.
       -2    1    3    3    0  502  0.87477564853E+03  0.13572462670E+04  0.74172367292E+03  0.17769366538E+04  0.25500000920E-02 0. -1.
</event>
<event>
 5   0  0.1341932E-06  0.3724430E+04  0.7818609E-02  0.8062569E-01
        2   -1    0    0  501    0  0.00000000000E+00  0.00000000000E+00  0.27593156334E+04  0.27593156334E+04  0.25500000920E-02 0.  1.
       -2   -1    0    0    0  501  0.00000000000E+00  0.00000000000E+00 -0.12567768352E+04  0.12567768352E+04  0.25500000920E-02 0. -1.
    10030    2    1    2    0    0  0.00000000000E+00  0.00000000000E+00  0.15025387982E+04  0.40160924685E+04  0.37244296041E+04 0.  0.
        2    1    3    3  502    0 -0.24012056476E+03 -0.79520379676E+03 -0.10459343387E+04  0.13356592398E+04  0.25500000920E-02 0. -1.
       -2    1    3    3    0  502  0.24012056476E+03  0.79520379676E+03  0.25484731369E+04  0.26804332287E+04  0.25500000920E-02 0.  1.
</event>
<event>
 5   0  0.4255250E-07  0.2460043E+04  0.7818609E-02  0.8417360E-01
        1   -1    0    0  501    0  0.00000000000E+00  0.00000000000E+00  0.17516871523E+04  0.17516871523E+04  0.50400001928E-02 0. -1.
       -1   -1    0    0    0  501  0.00000000000E+00  0.00000000000E+00 -0.86371151466E+03  0.86371151468E+03  0.50400001928E-02 0.  1.
    10030    2    1    2    0    0  0.00000000000E+00  0.00000000000E+00  0.88797563761E+03  0.26153986670E+04  0.24600425716E+04 0.  0.
        2    1    3    3  502    0 -0.51193961447E+03 -0.84379853434E+03  0.12244268519E+04  0.15726726459E+04  0.25500000920E-02 0. -1.
       -2    1    3    3    0  502  0.51193961447E+03  0.84379853434E+03 -0.33645121430E+03  0.10427260211E+04  0.25500000920E-02 0.  1.
</event>
<event>
 5   0  0.4255250E-07  0.2418352E+04  0.7818609E-02  0.8432665E-01
        1   -1    0    0  501    0  0.00000000000E+00  0.00000000000E+00  0.18391313292E+04  0.18391313292E+04  0.50400001928E-02 0.  1.
       -1   -1    0    0    0  501  0.00000000000E+00  0.00000000000E+00 -0.79499824134E+03  0.79499824136E+03  0.50400001928E-02 0. -1.
    10030    2    1    2    0    0  0.00000000000E+00  0.00000000000E+00  0.10441330879E+04  0.26341295706E+04  0.24183516472E+04 0.  0.
        2    1    3    3  502    0 -0.39611564215E+03 -0.48128345915E+03  0.16506451544E+04  0.17644179765E+04  0.25500000920E-02 0.  1.
       -2    1    3    3    0  502  0.39611564215E+03  0.48128345915E+03 -0.60651206654E+03  0.86971159408E+03  0.25500000920E-02 0. -1.
</event>
<event>
 5   0  0.5284458E-07  0.1998096E+04  0.7818609E-02  0.8607512E-01
       -1   -1    0    0    0  501  0.00000000000E+00  0.00000000000E+00  0.54210865454E+03  0.54210865457E+03  0.50400001928E-02 0. -1.
        1   -1    0    0  501    0  0.00000000000E+00  0.00000000000E+00 -0.18411375103E+04  0.18411375103E+04  0.50400001928E-02 0.  1.
    10030    2    1    2    0    0  0.00000000000E+00  0.00000000000E+00 -0.12990288558E+04  0.23832461649E+04  0.19980956720E+04 0.  0.
        5    1    3    3  502    0 -0.37523672155E+03  0.26997438094E+03  0.40685899036E+03  0.61582878432E+03  0.46999998093E+01 0. -1.
       -5    1    3    3    0  502  0.37523672155E+03 -0.26997438094E+03 -0.17058878461E+04  0.17674173806E+04  0.46999998093E+01 0.  1.
</event>
<event>
 5   0  0.1372748E-06  0.2095563E+04  0.7818609E-02  0.8563200E-01
       -2   -1    0    0    0  501  0.00000000000E+00  0.00000000000E+00  0.10703103023E+04  0.10703103023E+04  0.25500000920E-02 0. -1.
        2   -1    0    0  501    0  0.00000000000E+00  0.00000000000E+00 -0.10257269573E+04  0.10257269573E+04  0.25500000920E-02 0.  1.
    10030    2    1    2    0    0  0.00000000000E+00  0.00000000000E+00  0.44583345030E+02  0.20960372596E+04  0.20955630554E+04 0.  0.
        1    1    3    3  502    0  0.41826079998E+03  0.95816126075E+03 -0.47229676832E+02  0.10465398897E+04  0.50400001928E-02 0. -1.
       -1    1    3    3    0  502 -0.41826079998E+03 -0.95816126075E+03  0.91813021863E+02  0.10494973699E+04  0.50400001928E-02 0.  1.
</event>
<event>
 5   0  0.1214844E-06  0.3674176E+04  0.7818609E-02  0.8073709E-01
       -2   -1    0    0    0  501  0.00000000000E+00  0.00000000000E+00  0.16865334592E+04  0.16865334592E+04  0.25500000920E-02 0. -1.
        2   -1    0    0  501    0  0.00000000000E+00  0.00000000000E+00 -0.20010826904E+04  0.20010826904E+04  0.25500000920E-02 0.  1.
    10030    2    1    2    0    0  0.00000000000E+00  0.00000000000E+00 -0.31454923121E+03  0.36876161495E+04  0.36741763223E+04 0.  0.
        4    1    3    3  502    0  0.37771609605E+02  0.28880180174E+03  0.16632120381E+04  0.16885227484E+04  0.12699999809E+01 0. -1.
       -4    1    3    3    0  502 -0.37771609605E+02 -0.28880180174E+03 -0.19777612693E+04  0.19990934011E+04  0.12699999809E+01 0.  1.
</event>
<event>
 5   0  0.4795023E-07  0.2538875E+04  0.7818609E-02  0.8389266E-01
        1   -1    0    0  501    0  0.00000000000E+00  0.00000000000E+00  0.17925660852E+04  0.17925660852E+04  0.50400001928E-02 0. -1.
       -1   -1    0    0    0  501  0.00000000000E+00  0.00000000000E+00 -0.89897463720E+03  0.89897463722E+03  0.50400001928E-02 0.  1.
    10030    2    1    2    0    0  0.00000000000E+00  0.00000000000E+00  0.89359144798E+03  0.26915407224E+04  0.25388749052E+04 0.  0.
        3    1    3    3  502    0  0.64441967578E+03  0.17738747248E+03  0.15909167976E+04  0.17256185271E+04  0.10100000352E+00 0. -1.
       -3    1    3    3    0  502 -0.64441967578E+03 -0.17738747248E+03 -0.69732534964E+03  0.96592219530E+03  0.10100000352E+00 0.  1.
</event>
<event>
 5   0  0.1372748E-06  0.3696591E+04  0.7818609E-02  0.8068718E-01
        2   -1    0    0  501    0  0.00000000000E+00  0.00000000000E+00  0.33074907979E+04  0.33074907979E+04  0.25500000920E-02 0. -1.
       -2   -1    0    0    0  501  0.00000000000E+00  0.00000000000E+00 -0.10328665396E+04  0.10328665396E+04  0.25500000920E-02 0.  1.
    10030    2    1    2    0    0  0.00000000000E+00  0.00000000000E+00  0.22746242583E+04  0.43403573376E+04  0.36965911731E+04 0.  0.
        1    1    3    3  502    0  0.32653244586E+02 -0.13789154730E+04 -0.30728647609E+03  0.14131168014E+04  0.50400001928E-02 0.  1.
       -1    1    3    3    0  502 -0.32653244586E+02  0.13789154730E+04  0.25819107344E+04  0.29272405361E+04  0.50400001928E-02 0. -1.
</event>
<event>
 5   0  0.1214844E-06  0.3700357E+04  0.7818609E-02  0.8067883E-01
        2   -1    0    0  501    0  0.00000000000E+00  0.00000000000E+00  0.16578384458E+04  0.16578384458E+04  0.25500000920E-02 0. -1.
       -2   -1    0    0    0  501  0.00000000000E+00  0.00000000000E+00 -0.20648337744E+04  0.20648337744E+04  0.25500000920E-02 0.  1.
    10030    2    1    2    0    0  0.00000000000E+00  0.00000000000E+00 -0.40699532855E+03  0.37226722202E+04  0.37003571803E+04 0.  0.
        4    1    3    3  502    0  0.57797151630E+03  0.14510264300E+04 -0.12012600537E+04  0.19704202861E+04  0.12699999809E+01 0.  1.
       -4    1    3    3    0  502 -0.57797151630E+03 -0.14510264300E+04  0.79426472512E+03  0.17522519342E+04  0.12699999809E+01 0. -1.
</event>
<event>
 5   0  0.1184616E-06  0.2222969E+04  0.7818609E-02  0.8508928E-01
       -2   -1    0    0    0  501  0.00000000000E+00  0.00000000000E+00  0.76677579507E+03  0.76677579507E+03  0.25500000920E-02 0.  1.
        2   -1    0    0  501    0  0.00000000000E+00  0.00000000000E+00 -0.16111597538E+04  0.16111597538E+04  0.25500000920E-02 0. -1.
    10030    2    1    2    0    0  0.00000000000E+00  0.00000000000E+00 -0.84438395877E+03  0.23779355489E+04  0.22229694566E+04 0.  0.
        5    1    3    3  502    0 -0.91830800450E+03  0.58669135329E+03 -0.65626054446E+03  0.12720834593E+04  0.46999998093E+01 0. -1.
       -5    1    3    3    0  502  0.91830800450E+03 -0.58669135329E+03 -0.18812341432E+03  0.11058520896E+04  0.46999998093E+01 0.  1.
</event>
<event>
 5   0  0.1372748E-06  0.3356932E+04  0.7818609E-02  0.8148558E-01
        2   -1    0    0  501    0  0.00000000000E+00  0.00000000000E+00  0.23835778992E+04  0.23835778992E+04  0.25500000920E-02 0.  1.
       -2   -1    0    0    0  501  0.00000000000E+00  0.00000000000E+00 -0.11819405901E+04  0.11819405902E+04  0.25500000920E-02 0. -1.
    10030    2    1    2    0    0  0.00000000000E+00  0.00000000000E+00  0.12016373090E+04  0.35655184893E+04  0.33569316161E+04 0.  0.
        1    1    3    3  502    0 -0.76643084158E+03  0.95149357336E+03  0.18231944432E+04  0.21947196251E+04  0.50400001928E-02 0.  1.
       -1    1    3    3    0  502  0.76643084158E+03 -0.95149357336E+03 -0.62155713418E+03  0.13707988642E+04  0.50400001928E-02 0. -1.
</event>
<event>
 5   0  0.1184616E-06  0.3689371E+04  0.7818609E-02  0.8070321E-01
        2   -1    0    0  501    0  0.00000000000E+00  0.00000000000E+00  0.17188400169E+04  0.17188400169E+04  0.25500000920E-02 0. -1.
       -2   -1    0    0    0  501  0.00000000000E+00  0.00000000000E+00 -0.19797451058E+04  0.19797451058E+04  0.25500000920E-02 0.  1.
    10030    2    1    2    0    0  0.00000000000E+00  0.00000000000E+00 -0.26090508886E+03  0.36985851227E+04  0.36893712804E+04 0.  0.
        5    1    3    3  502    0 -0.15501951660E+04  0.19563723405E+03 -0.11134440815E+04  0.19186346167E+04  0.46999998093E+01 0.  1.
       -5    1    3    3    0  502  0.15501951660E+04 -0.19563723405E+03  0.85253899259E+03  0.17799505060E+04  0.46999998093E+01 0. -1.
</event>
<event>
 5   0  0.1372748E-06  0.2110864E+04  0.7818609E-02  0.8556473E-01
        2   -1    0    0  501    0  0.00000000000E+00  0.00000000000E+00  0.10596037016E+04  0.10596037016E+04  0.25500000920E-02 0. -1.
       -2   -1    0    0    0  501  0.00000000000E+00  0.00000000000E+00 -0.10512764124E+04  0.10512764124E+04  0.25500000920E-02 0.  1.
    10030    2    1    2    0    0  0.00000000000E+00  0.00000000000E+00  0.83272892449E+01  0.21108801140E+04  0.21108636886E+04 0.  0.
        1    1    3    3  502    0 -0.32093052919E+03  0.10037071948E+04  0.63424890006E+02  0.10556738389E+04  0.50400001928E-02 0.  1.
       -1    1    3    3    0  502  0.32093052919E+03 -0.10037071948E+04 -0.55097600761E+02  0.10552062751E+04  0.50400001928E-02 0. -1.
</event>
<event>
 5   0  0.8030324E-07  0.2535086E+04  0.7818609E-02  0.8390592E-01
       -1   -1    0    0    0  501  0.00000000000E+00  0.00000000000E+00  0.11446759809E+04  0.11446759809E+04  0.50400001928E-02 0.  1.
        1   -1    0    0  501    0  0.00000000000E+00  0.00000000000E+00 -0.14035978987E+04  0.14035978987E+04  0.50400001928E-02 0. -1.
    10030    2    1    2    0    0  0.00000000000E+00  0.00000000000E+00 -0.25892191777E+03  0.25482738796E+04  0.25350856408E+04 0.  0.
        1    1    3    3  502    0  0.84674667107E+03 -0.92029765660E+03  0.78344040026E+02  0.12530225418E+04  0.50400001928E-02 0. -1.
       -1    1    3    3    0  502 -0.84674667107E+03  0.92029765660E+03 -0.33726595780E+03  0.12952513378E+04  0.50400001928E-02 0.  1.
</event>
<event>
 5   0  0.5284458E-07  0.1877627E+04  0.7818609E-02  0.8666074E-01
       -1   -1    0    0    0  501  0.00000000000E+00  0.00000000000E+00  0.38051758785E+03  0.38051758789E+03  0.50400001928E-02 0.  1.
        1   -1    0    0  501    0  0.00000000000E+00  0.00000000000E+00 -0.23162422314E+04  0.23162422314E+04  0.50400001928E-02 0. -1.
    10030    2    1    2    0    0  0.00000000000E+00  0.00000000000E+00 -0.19357246435E+04  0.26967598193E+04  0.18776271268E+04 0.  0.
        5    1    3    3  502    0 -0.30036118413E+03  0.17384109137E+03 -0.22207147541E+04  0.22476729467E+04  0.46999998093E+01 0. -1.
       -5    1    3    3    0  502  0.30036118413E+03 -0.17384109137E+03  0.28499011062E+03  0.44908687259E+03  0.46999998093E+01 0.  1.
</event>
<event>
 5   0  0.1372748E-06  0.3835834E+04  0.7818609E-02  0.8038508E-01
        2   -1    0    0  501    0  0.00000000000E+00  0.00000000000E+00  0.26354604172E+04  0.26354604172E+04  0.25500000920E-02 0.  1.
       -2   -1    0    0    0  501  0.00000000000E+00  0.00000000000E+00 -0.13957353013E+04  0.13957353013E+04  0.25500000920E-02 0. -1.
    10030    2    1    2    0    0  0.00000000000E+00  0.00000000000E+00  0.12397251158E+04  0.40311957185E+04  0.38358337500E+04 0.  0.
        1    1    3    3  502    0  0.13803149452E+04  0.38098044358E+03  0.19607734965E+04  0.24279720243E+04  0.50400001928E-02 0.  1.
       -1    1    3    3    0  502 -0.13803149452E+04 -0.38098044358E+03 -0.72104838070E+03  0.16032236942E+04  0.50400001928E-02 0. -1.
</event>
<event>
 5   0  0.4255250E-07  0.3560187E+04  0.7818609E-02  0.8099673E-01
       -1   -1    0    0    0  501  0.00000000000E+00  0.00000000000E+00  0.22934710805E+04  0.22934710805E+04  0.50400001928E-02 0.  1.
        1   -1    0    0  501    0  0.00000000000E+00  0.00000000000E+00 -0.13816317563E+04  0.13816317563E+04  0.50400001928E-02 0. -1.
    10030    2    1    2    0    0  0.00000000000E+00  0.00000000000E+00  0.91183932425E+03  0.36751028368E+04  0.35601867799E+04 0.  0.
        2    1    3    3  502    0 -0.11769223376E+04 -0.95814531285E+03  0.14162955545E+04  0.20758327791E+04  0.25500000920E-02 0.  1.
       -2    1    3    3    0  502  0.11769223376E+04  0.95814531285E+03 -0.50445623028E+03  0.15992700577E+04  0.25500000920E-02 0. -1.
</event>
<event>
 5   0  0.1341932E-06  0.2072577E+04  0.7818609E-02  0.8573421E-01
       -2   -1    0    0    0  501  0.00000000000E+00  0.00000000000E+00  0.12079008170E+04  0.12079008170E+04  0.25500000920E-02 0.  1.
        2   -1    0    0  501    0  0.00000000000E+00  0.00000000000E+00 -0.88905770308E+03  0.88905770308E+03  0.25500000920E-02 0. -1.
    10030    2    1    2    0    0  0.00000000000E+00  0.00000000000E+00  0.31884311395E+03  0.20969585201E+04  0.20725766822E+04 0.  0.
        2    1    3    3  502    0  0.14503818111E+03 -0.19772221151E+03  0.11781244310E+04  0.12033733094E+04  0.25500000920E-02 0.  1.
       -2    1    3    3    0  502 -0.14503818111E+03  0.19772221151E+03 -0.85928131706E+03  0.89358521069E+03  0.25500000920E-02 0. -1.
</event>
<event>
 5   0  0.1079205E-06  0.2353853E+04  0.7818609E-02  0.8456985E-01
       -1   -1    0    0    0  501  0.00000000000E+00  0.00000000000E+00  0.10831202501E+04  0.10831202501E+04  0.50400001928E-02 0. -1.
        1   -1    0    0  501    0  0.00000000000E+00  0.00000000000E+00 -0.12788567409E+04  0.12788567409E+04  0.50400001928E-02 0.  1.
    10030    2    1    2    0    0  0.00000000000E+00  0.00000000000E+00 -0.19573649079E+03  0.23619769911E+04  0.23538526998E+04 0.  0.
        4    1    3    3  502    0  0.10414738039E+04  0.31517328630E+03 -0.54791610918E+03  0.12182838586E+04  0.12699999809E+01 0.  1.
       -4    1    3    3    0  502 -0.10414738039E+04 -0.31517328630E+03  0.35217961838E+03  0.11436931324E+04  0.12699999809E+01 0. -1.
</event>
<event>
 5   0  0.1184616E-06  0.1950907E+04  0.7818609E-02  0.8629923E-01
        2   -1    0    0  501    0  0.00000000000E+00  0.00000000000E+00  0.11973801323E+04  0.11973801323E+04  0.25500000920E-02 0.  1.
       -2   -1    0    0    0  501  0.00000000000E+00  0.00000000000E+00 -0.79465983512E+03  0.79465983512E+03  0.25500000920E-02 0. -1.
    10030    2    1    2    0    0  0.00000000000E+00  0.00000000000E+00  0.40272029716E+03  0.19920399674E+04  0.19509073771E+04 0.  0.
        5    1    3    3  502    0 -0.14653286333E+01 -0.53114190207E+03  0.10367627000E+04  0.11649089464E+04  0.46999998093E+01 0.  1.
       -5    1    3    3    0  502  0.14653286333E+01  0.53114190207E+03 -0.63404240283E+03  0.82713102100E+03  0.46999998093E+01 0. -1.
</event>
<event>
 5   0  0.8030324E-07  0.3766908E+04  0.7818609E-02  0.8053294E-01
        1   -1    0    0  501    0  0.00000000000E+00  0.00000000000E+00  0.24936570025E+04  0.24936570026E+04  0.50400001928E-02 0. -1.
       -1   -1    0    0    0  501  0.00000000000E+00  0.00000000000E+00 -0.14225692447E+04  0.14225692447E+04  0.50400001928E-02 0.  1.
    10030    2    1    2    0    0  0.00000000000E+00  0.00000000000E+00  0.10710877578E+04  0.39162262473E+04  0.37669084187E+04 0.  0.
        1    1    3    3  502    0  0.57339857442E+03  0.18217268024E+03 -0.13199799541E+04  0.14506274125E+04  0.50400001928E-02 0.  1.
       -1    1    3    3    0  502 -0.57339857442E+03 -0.18217268024E+03  0.23910677120E+04  0.24655988347E+04  0.50400001928E-02 0. -1.
</event>
<event>
 5   0  0.1372748E-06  0.2323357E+04  0.7818609E-02  0.8468768E-01
        2   -1    0    0  501    0  0.00000000000E+00  0.00000000000E+00  0.13779481877E+04  0.13779481877E+04  0.25500000920E-02 0. -1.
       -2   -1    0    0    0  501  0.00000000000E+00  0.00000000000E+00 -0.97935263076E+03  0.97935263076E+03  0.25500000920E-02 0.  1.
    10030    2    1    2    0    0  0.00000000000E+00  0.00000000000E+00  0.39859555690E+03  0.23573008184E+04  0.23233572111E+04 0.  0.
        1    1    3    3  502    0 -0.35648720781E+03 -0.10866814743E+04 -0.74871177358E+01  0.11436851896E+04  0.50400001928E-02 0. -1.
       -1    1    3    3    0  502  0.35648720781E+03  0.10866814743E+04  0.40608267464E+03  0.12136156288E+04  0.50400001928E-02 0.  1.
</event>
<event>
 5   0  0.4255250E-07  0.1885160E+04  0.7818609E-02  0.8662279E-01
        1   -1    0    0  501    0  0.00000000000E+00  0.00000000000E+00  0.90969797000E+03  0.90969797001E+03  0.50400001928E-02 0. -1.
       -1   -1    0    0    0  501  0.00000000000E+00  0.00000000000E+00 -0.97665083851E+03  0.97665083852E+03  0.50400001928E-02 0.  1.
    10030    2    1    2    0    0  0.00000000000E+00  0.00000000000E+00 -0.66952868510E+02  0.18863488085E+04  0.18851602428E+04 0.  0.
        2    1    3    3  502    0 -0.62513044858E+03  0.52561772984E+03 -0.50429961804E+03  0.95988550381E+03  0.25500000920E-02 0.  1.
       -2    1    3    3    0  502  0.62513044858E+03 -0.52561772984E+03  0.43734674953E+03  0.92646330472E+03  0.25500000920E-02 0. -1.
</event>
<event>
 5   0  0.4255250E-07  0.2313089E+04  0.7818609E-02  0.8472778E-01
       -1   -1    0    0    0  501  0.00000000000E+00  0.00000000000E+00  0.16797378185E+04  0.16797378185E+04  0.50400001928E-02 0.  1.
        1   -1    0    0  501    0  0.00000000000E+00  0.00000000000E+00 -0.79631165450E+03  0.79631165452E+03  0.50400001928E-02 0. -1.
    10030    2    1    2    0    0  0.00000000000E+00  0.00000000000E+00  0.88342616395E+03  0.24760494730E+04  0.23130886722E+04 0.  0.
        2    1    3    3  502    0 -0.23582038492E+03 -0.11223491712E+04  0.60162251998E+03  0.12950785971E+04  0.25500000920E-02 0.  1.
       -2    1    3    3    0  502  0.23582038492E+03  0.11223491712E+04  0.28180364397E+03  0.11809708759E+04  0.25500000920E-02 0. -1.
</event>
<event>
 5   0  0.4255250E-07  0.3053962E+04  0.7818609E-02  0.8228487E-01
       -3   -1    0    0    0  501  0.00000000000E+00  0.00000000000E+00  0.25761704930E+04  0.25761704950E+04  0.10100000352E+00 0. -1.
        3   -1    0    0  501    0  0.00000000000E+00  0.00000000000E+00 -0.90509214018E+03  0.90509214582E+03  0.10100000352E+00 0.  1.
    10030    2    1    2    0    0  0.00000000000E+00  0.00000000000E+00  0.16710783528E+04  0.34812626408E+04  0.30539624610E+04 0.  0.
        1    1    3    3  502    0  0.48784036037E+03  0.13894586701E+04  0.37519337658E+03  0.15196557778E+04  0.50400001928E-02 0.  1.
       -1    1    3    3    0  502 -0.48784036037E+03 -0.13894586701E+04  0.12958849763E+04  0.19616068630E+04  0.50400001928E-02 0. -1.
</event>
<event>
 5   0  0.1079205E-06  0.2057180E+04  0.7818609E-02  0.8580344E-01
       -1   -1    0    0    0  501  0.00000000000E+00  0.00000000000E+00  0.51931809886E+03  0.51931809889E+03  0.50400001928E-02 0. -1.
        1   -1    0    0  501    0  0.00000000000E+00  0.00000000000E+00 -0.20372825696E+04  0.20372825696E+04  0.50400001928E-02 0.  1.
    10030    2    1    2    0    0  0.00000000000E+00  0.00000000000E+00 -0.15179644708E+04  0.25566006685E+04  0.20571803139E+04 0.  0.
        4    1    3    3  502    0  0.56074167796E+03 -0.13718264699E+02 -0.18304892150E+04  0.19145004046E+04  0.12699999809E+01 0.  1.
       -4    1    3    3    0  502 -0.56074167796E+03  0.13718264699E+02  0.31252474426E+03  0.64210026387E+03  0.12699999809E+01 0. -1.
</event>
<event>
 5   0  0.1214844E-06  0.3836657E+04  0.7818609E-02  0.8038334E-01
        2   -1    0    0  501    0  0.00000000000E+00  0.00000000000E+00  0.19336267483E+04  0.19336267483E+04  0.25500000920E-02 0. -1.
       -2   -1    0    0    0  501  0.00000000000E+00  0.00000000000E+00 -0.19031510206E+04  0.19031510206E+04  0.25500000920E-02 0.  1.
    10030    2    1    2    0    0  0.00000000000E+00  0.00000000000E+00  0.30475727638E+02  0.38367777689E+04  0.38366567319E+04 0.  0.
        4    1    3    3  502    0 -0.79736526149E+03  0.60743185609E+03  0.16508986117E+04  0.19313810238E+04  0.12699999809E+01 0. -1.
       -4    1    3    3    0  502  0.79736526149E+03 -0.60743185609E+03 -0.16204228841E+04  0.19053967451E+04  0.12699999809E+01 0.  1.
</event>
<event>
 5   0  0.1372748E-06  0.3384688E+04  0.7818609E-02  0.8141675E-01
        2   -1    0    0  501    0  0.00000000000E+00  0.00000000000E+00  0.32638491850E+04  0.32638491850E+04  0.25500000920E-02 0. -1.
       -2   -1    0    0    0  501  0.00000000000E+00  0.00000000000E+00 -0.87750029426E+03  0.87750029426E+03  0.25500000920E-02 0.  1.
    10030    2    1    2    0    0  0.00000000000E+00  0.00000000000E+00  0.23863488908E+04  0.41413494793E+04  0.33846882399E+04 0.  0.
        1    1    3    3  502    0  0.33240359011E+03  0.11309688474E+04  0.26788967239E+04  0.29267849832E+04  0.50400001928E-02 0. -1.
       -1    1    3    3    0  502 -0.33240359011E+03 -0.11309688474E+04 -0.29254783316E+03  0.12145644961E+04  0.50400001928E-02 0.  1.
</event>
<event>
 5   0  0.1184616E-06  0.2021045E+04  0.7818609E-02  0.8596844E-01
        2   -1    0    0  501    0  0.00000000000E+00  0.00000000000E+00  0.27778248198E+04  0.27778248198E+04  0.25500000920E-02 0.  1.
       -2   -1    0    0    0  501  0.00000000000E+00  0.00000000000E+00 -0.36760989617E+03  0.36760989617E+03  0.25500000920E-02 0. -1.
    10030    2    1    2    0    0  0.00000000000E+00  0.00000000000E+00  0.24102149237E+04  0.31454347160E+04  0.20210451688E+04 0.  0.
        5    1    3    3  502    0 -0.61019696275E+03 -0.31276112396E+03  0.49872859224E+02  0.68750945164E+03  0.46999998093E+01 0. -1.
       -5    1    3    3    0  502  0.61019696275E+03  0.31276112396E+03  0.23603420645E+04  0.24579252644E+04  0.46999998093E+01 0.  1.
</event>
<event>
 5   0  0.1341932E-06  0.2508645E+04  0.7818609E-02  0.8399912E-01
        2   -1    0    0  501    0  0.00000000000E+00  0.00000000000E+00  0.15740864496E+04  0.15740864496E+04  0.25500000920E-02 0.  1.
       -2   -1    0    0    0  501  0.00000000000E+00  0.00000000000E+00 -0.99951647196E+03  0.99951647197E+03  0.25500000920E-02 0. -1.
    10030    2    1    2    0    0  0.00000000000E+00  0.00000000000E+00  0.57456997768E+03  0.25736029216E+04  0.25086453195E+04 0.  0.
        2    1    3    3  502    0 -0.29724092022E+03 -0.81238512782E+03  0.12191010509E+04  0.14948341489E+04  0.25500000920E-02 0.  1.
       -2    1    3    3    0  502  0.29724092022E+03  0.81238512782E+03 -0.64453107321E+03  0.10787687727E+04  0.25500000920E-02 0. -1.
</event>
<event>
 5   0  0.4255250E-07  0.1906206E+04  0.7818609E-02  0.8651773E-01
       -1   -1    0    0    0  501  0.00000000000E+00  0.00000000000E+00  0.89338026337E+03  0.89338026339E+03  0.50400001928E-02 0. -1.
        1   -1    0    0  501    0  0.00000000000E+00  0.00000000000E+00 -0.10168183680E+04  0.10168183681E+04  0.50400001928E-02 0.  1.
    10030    2    1    2    0    0  0.00000000000E+00  0.00000000000E+00 -0.12343810467E+03  0.19101986314E+04  0.19062061394E+04 0.  0.
        2    1    3    3  502    0 -0.73276431345E+03 -0.48260304316E+03 -0.43473009336E+03  0.97920349796E+03  0.25500000920E-02 0.  1.
       -2    1    3    3    0  502  0.73276431345E+03  0.48260304316E+03  0.31129198869E+03  0.93099513348E+03  0.25500000920E-02 0. -1.
</event>
<event>
 5   0  0.4795023E-07  0.2600168E+04  0.7818609E-02  0.8368144E-01
       -1   -1    0    0    0  501  0.00000000000E+00  0.00000000000E+00  0.12771157381E+04  0.12771157381E+04  0.50400001928E-02 0.  1.
        1   -1    0    0  501    0  0.00000000000E+00  0.00000000000E+00 -0.13234658320E+04  0.13234658320E+04  0.50400001928E-02 0. -1.
    10030    2    1    2    0    0  0.00000000000E+00  0.00000000000E+00 -0.46350093895E+02  0.26005815701E+04  0.26001684891E+04 0.  0.
        3    1    3    3  502    0  0.12461263585E+04  0.36982636641E+03  0.16601308901E+01  0.12998481484E+04  0.10100000352E+00 0. -1.
       -3    1    3    3    0  502 -0.12461263585E+04 -0.36982636641E+03 -0.48010224785E+02  0.13007334217E+04  0.10100000352E+00 0.  1.
</event>
<event>
 5   0  0.1184616E-06  0.1905854E+04  0.7818609E-02  0.8651948E-01
       -2   -1    0    0    0  501  0.00000000000E+00  0.00000000000E+00  0.15359567797E+04  0.15359567797E+04  0.25500000920E-02 0.  1.
        2   -1    0    0  501    0  0.00000000000E+00  0.00000000000E+00 -0.59120798504E+03  0.59120798504E+03  0.25500000920E-02 0. -1.
    10030    2    1    2    0    0  0.00000000000E+00  0.00000000000E+00  0.94474879463E+03  0.21271647647E+04  0.19058540477E+04 0.  0.
        5    1    3    3  502    0  0.53897634922E+03 -0.62798297817E+03 -0.54914422374E+02  0.82939484546E+03  0.46999998093E+01 0. -1.
       -5    1    3    3    0  502 -0.53897634922E+03  0.62798297817E+03  0.99966321700E+03  0.12977699193E+04  0.46999998093E+01 0.  1.
</event>
<event>
 5   0  0.1372748E-06  0.2260139E+04  0.7818609E-02  0.8493806E-01
        2   -1    0    0  501    0  0.00000000000E+00  0.00000000000E+00  0.83475164367E+03  0.83475164367E+03  0.25500000920E-02 0.  1.
       -2   -1    0    0    0  501  0.00000000000E+00  0.00000000000E+00 -0.15298648328E+04  0.15298648328E+04  0.25500000920E-02 0. -1.
    10030    2    1    2    0    0  0.00000000000E+00  0.00000000000E+00 -0.69511318917E+03  0.23646164765E+04  0.22601390964E+04 0.  0.
        1    1    3    3  502    0 -0.16090090887E+03  0.94426970336E+03  0.27976287623E+03  0.99789861314E+03  0.50400001928E-02 0.  1.
       -1    1    3    3    0  502  0.16090090887E+03 -0.94426970336E+03 -0.97487606540E+03  0.13667178634E+04  0.50400001928E-02 0. -1.
</event>
<event>
 5   0  0.5284458E-07  0.3733811E+04  0.7818609E-02  0.8060510E-01
        1   -1    0    0  501    0  0.00000000000E+00  0.00000000000E+00  0.27766499357E+04  0.27766499357E+04  0.50400001928E-02 0. -1.
       -1   -1    0    0    0  501  0.00000000000E+00  0.00000000000E+00 -0.12552307475E+04  0.12552307475E+04  0.50400001928E-02 0.  1.
    10030    2    1    2    0    0  0.00000000000E+00  0.00000000000E+00  0.15214191882E+04  0.40318806833E+04  0.37338111224E+04 0.  0.
        5    1    3    3  502    0 -0.11387466732E+04  0.22014776093E+03 -0.81898413372E+03  0.14198472184E+04  0.46999998093E+01 0.  1.
       -5    1    3    3    0  502  0.11387466732E+04 -0.22014776093E+03  0.23404033219E+04  0.26120334648E+04  0.46999998093E+01 0. -1.
</event>
<event>
 5   0  0.1184616E-06  0.3728183E+04  0.7818609E-02  0.8061745E-01
       -2   -1    0    0    0  501  0.00000000000E+00  0.00000000000E+00  0.17641771266E+04  0.17641771266E+04  0.25500000920E-02 0.  1.
        2   -1    0    0  501    0  0.00000000000E+00  0.00000000000E+00 -0.19696649977E+04  0.19696649977E+04  0.25500000920E-02 0. -1.
    10030    2    1    2    0    0  0.00000000000E+00  0.00000000000E+00 -0.20548787106E+03  0.37338421243E+04  0.37281834375E+04 0.  0.
        5    1    3    3  502    0  0.52154170220E+03 -0.17066339044E+04 -0.64227378205E+03  0.18966134904E+04  0.46999998093E+01 0. -1.
       -5    1    3    3    0  502 -0.52154170220E+03  0.17066339044E+04  0.43678591099E+03  0.18372286338E+04  0.46999998093E+01 0.  1.
</event>
<event>
 5   0  0.5284458E-07  0.3398472E+04  0.7818609E-02  0.8138281E-01
       -1   -1    0    0    0  501  0.00000000000E+00  0.00000000000E+00  0.12434625199E+04  0.12434625199E+04  0.50400001928E-02 0.  1.
        1   -1    0    0  501    0  0.00000000000E+00  0.00000000000E+00 -0.23220671374E+04  0.23220671374E+04  0.50400001928E-02 0. -1.
    10030    2    1    2    0    0  0.00000000000E+00  0.00000000000E+00 -0.10786046175E+04  0.35655296573E+04  0.33984722768E+04 0.  0.
        5    1    3    3  502    0 -0.68691369043E+03 -0.15536497531E+04 -0.49600135691E+03  0.17696659034E+04  0.46999998093E+01 0.  1.
       -5    1    3    3    0  502  0.68691369043E+03  0.15536497531E+04 -0.58260326062E+03  0.17958637540E+04  0.46999998093E+01 0. -1.
</event>
<event>
 5   0  0.1184616E-06  0.1911124E+04  0.7818609E-02  0.8649339E-01
       -2   -1    0    0    0  501  0.00000000000E+00  0.00000000000E+00  0.76468351376E+03  0.76468351376E+03  0.25500000920E-02 0. -1.
        2   -1    0    0  501    0  0.00000000000E+00  0.00000000000E+00 -0.11940875487E+04  0.11940875487E+04  0.25500000920E-02 0.  1.
    10030    2    1    2    0    0  0.00000000000E+00  0.00000000000E+00 -0.42940403496E+03  0.19587710625E+04  0.19111243418E+04 0.  0.
        5    1    3    3  502    0 -0.17929468121E+03  0.91430310152E+03  0.26709645304E+01  0.93173277725E+03  0.46999998093E+01 0. -1.
       -5    1    3    3    0  502  0.17929468121E+03 -0.91430310152E+03 -0.43207499949E+03  0.10270382852E+04  0.46999998093E+01 0.  1.
</event>
<event>
 5   0  0.4255250E-07  0.3833622E+04  0.7818609E-02  0.8038978E-01
       -1   -1    0    0    0  501  0.00000000000E+00  0.00000000000E+00  0.17811425899E+04  0.17811425899E+04  0.50400001928E-02 0. -1.
        1   -1    0    0  501    0  0.00000000000E+00  0.00000000000E+00 -0.20628131202E+04  0.20628131202E+04  0.50400001928E-02 0.  1.
    10030    2    1    2    0    0  0.00000000000E+00  0.00000000000E+00 -0.28167053038E+03  0.38439557101E+04  0.38336219445E+04 0.  0.
        2    1    3    3  502    0 -0.71045762910E+03 -0.63513494551E+03  0.15267827681E+04  0.17997811152E+04  0.25500000920E-02 0. -1.
       -2    1    3    3    0  502  0.71045762910E+03  0.63513494551E+03 -0.18084532984E+04  0.20441745949E+04  0.25500000920E-02 0.  1.
</event>
<event>
 5   0  0.1372748E-06  0.2147162E+04  0.7818609E-02  0.8540748E-01
        2   -1    0    0  501    0  0.00000000000E+00  0.00000000000E+00  0.16644469212E+04  0.16644469212E+04  0.25500000920E-02 0.  1.
       -2   -1    0    0    0  501  0.00000000000E+00  0.00000000000E+00 -0.69246777010E+03  0.69246777010E+03  0.25500000920E-02 0. -1.
    10030    2    1    2    0    0  0.00000000000E+00  0.00000000000E+00  0.97197915106E+03  0.23569146913E+04  0.21471617060E+04 0.  0.
        1    1    3    3  502    0  0.12201085800E+03 -0.10662676819E+04  0.51629907935E+03  0.11909568247E+04  0.50400001928E-02 0.  1.
       -1    1    3    3    0  502 -0.12201085800E+03  0.10662676819E+04  0.45568007171E+03  0.11659578666E+04  0.50400001928E-02 0. -1.
</event>
<event>
 5   0  0.4255250E-07  0.1956444E+04  0.7818609E-02  0.8627260E-01
       -1   -1    0    0    0  501  0.00000000000E+00  0.00000000000E+00  0.46835850645E+03  0.46835850648E+03  0.50400001928E-02 0. -1.
        1   -1    0    0  501    0  0.00000000000E+00  0.00000000000E+00 -0.20431318954E+04  0.20431318954E+04  0.50400001928E-02 0.  1.
    10030    2    1    2    0    0  0.00000000000E+00  0.00000000000E+00 -0.15747733889E+04  0.25114904019E+04  0.19564439200E+04 0.  0.
        2    1    3    3  502    0 -0.17340799714E+03 -0.10429760924E+03 -0.20159702983E+04  0.20261008288E+04  0.25500000920E-02 0.  1.
       -2    1    3    3    0  502  0.17340799714E+03  0.10429760924E+03  0.44119690940E+03  0.48538957306E+03  0.25500000920E-02 0. -1.
</event>
<event>
 5   0  0.1214844E-06  0.3701483E+04  0.7818609E-02  0.8067633E-01
       -2   -1    0    0    0  501  0.00000000000E+00  0.00000000000E+00  0.16971874965E+04  0.16971874965E+04  0.25500000920E-02 0.  1.
        2   -1    0    0  501    0  0.00000000000E+00  0.00000000000E+00 -0.20181884969E+04  0.20181884969E+04  0.25500000920E-02 0. -1.
    10030    2    1    2    0    0  0.00000000000E+00  0.00000000000E+00 -0.32100100043E+03  0.37153759934E+04  0.37014830987E+04 0.  0.
        4    1    3    3  502    0 -0.33552857915E+03  0.10507274851E+04 -0.16522262085E+04  0.19865700925E+04  0.12699999809E+01 0. -1.
       -4    1    3    3    0  502  0.33552857915E+03 -0.10507274851E+04  0.13312252081E+04  0.17288059009E+04  0.12699999809E+01 0.  1.
</event>
<event>
 5   0  0.1079205E-06  0.2893693E+04  0.7818609E-02  0.8274757E-01
       -1   -1    0    0    0  501  0.00000000000E+00  0.00000000000E+00  0.18528100472E+04  0.18528100472E+04  0.50400001928E-02 0.  1.
        1   -1    0    0  501    0  0.00000000000E+00  0.00000000000E+00 -0.11298320956E+04  0.11298320956E+04  0.50400001928E-02 0. -1.
    10030    2    1    2    0    0  0.00000000000E+00  0.00000000000E+00  0.72297795164E+03  0.29826421428E+04  0.28936926294E+04 0.  0.
        4    1    3    3  502    0  0.13974419390E+04 -0.21052649511E+03  0.41798189786E+02  0.14138295794E+04  0.12699999809E+01 0. -1.
       -4    1    3    3    0  502 -0.13974419390E+04  0.21052649511E+03  0.68117976185E+03  0.15688125634E+04  0.12699999809E+01 0.  1.
</event>
<event>
 5   0  0.4255250E-07  0.3894131E+04  0.7818609E-02  0.8026251E-01
       -1   -1    0    0    0  501  0.00000000000E+00  0.00000000000E+00  0.27674581570E+04  0.27674581570E+04  0.50400001928E-02 0. -1.
        1   -1    0    0  501    0  0.00000000000E+00  0.00000000000E+00 -0.13698723416E+04  0.13698723416E+04  0.50400001928E-02 0.  1.
    10030    2    1    2    0    0  0.00000000000E+00  0.00000000000E+00  0.13975858154E+04  0.41373304986E+04  0.38941311667E+04 0.  0.
        2    1    3    3  502    0  0.62877380005E+03 -0.16931308084E+04 -0.73966010891E+02  0.18076281135E+04  0.25500000920E-02 0.  1.
       -2    1    3    3    0  502 -0.62877380005E+03  0.16931308084E+04  0.14715518263E+04  0.23297023851E+04  0.25500000920E-02 0. -1.
</event>
<event>
 5   0  0.4255250E-07  0.3489796E+04  0.7818609E-02  0.8116212E-01
       -1   -1    0    0    0  501  0.00000000000E+00  0.00000000000E+00  0.11704024613E+04  0.11704024613E+04  0.50400001928E-02 0.  1.
        1   -1    0    0  501    0  0.00000000000E+00  0.00000000000E+00 -0.26013859363E+04  0.26013859363E+04  0.50400001928E-02 0. -1.
    10030    2    1    2    0    0  0.00000000000E+00  0.00000000000E+00 -0.14309834750E+04  0.37717883976E+04  0.34897956975E+04 0.  0.
        2    1    3    3  502    0 -0.55616005715E+03 -0.13729256075E+04 -0.17121965257E+04  0.22640352637E+04  0.25500000920E-02 0. -1.
       -2    1    3    3    0  502  0.55616005715E+03  0.13729256075E+04  0.28121305066E+03  0.15077531339E+04  0.25500000920E-02 0.  1.
</event>
<event>
 5   0  0.5284458E-07  0.3373492E+04  0.7818609E-02  0.8144443E-01
        1   -1    0    0  501    0  0.00000000000E+00  0.00000000000E+00  0.19718187560E+04  0.19718187560E+04  0.50400001928E-02 0. -1.
       -1   -1    0    0    0  501  0.00000000000E+00  0.00000000000E+00 -0.14428868747E+04  0.14428868747E+04  0.50400001928E-02 0.  1.
    10030    2    1    2    0    0  0.00000000000E+00  0.00000000000E+00  0.52893188131E+03  0.34147056307E+04  0.33734916050E+04 0.  0.
        5    1    3    3  502    0 -0.94079521941E+02  0.78484814724E+02 -0.14383702713E+04  0.14435864886E+04  0.46999998093E+01 0.  1.
       -5    1    3    3    0  502  0.94079521941E+02 -0.78484814724E+02  0.19673021526E+04  0.19711191421E+04  0.46999998093E+01 0. -1.
</event>
<event>
 5   0  0.1214844E-06  0.3836083E+04  0.7818609E-02  0.8038456E-01
        2   -1    0    0  501    0  0.00000000000E+00  0.00000000000E+00  0.28969112510E+04  0.28969112510E+04  0.25500000920E-02 0. -1.
       -2   -1    0    0    0  501  0.00000000000E+00  0.00000000000E+00 -0.12699330099E+04  0.12699330099E+04  0.25500000920E-02 0.  1.
    10030    2    1    2    0    0  0.00000000000E+00  0.00000000000E+00  0.16269782411E+04  0.41668442609E+04  0.38360830150E+04 0.  0.
        4    1    3    3  502    0 -0.14585955696E+04  0.43128639891E+03 -0.45575414041E+03  0.15878357733E+04  0.12699999809E+01 0.  1.
       -4    1    3    3    0  502  0.14585955696E+04 -0.43128639891E+03  0.20827323815E+04  0.25790084876E+04  0.12699999809E+01 0. -1.
</event>
<event>
 5   0  0.8030324E-07  0.3771736E+04  0.7818609E-02  0.8052248E-01
       -1   -1    0    0    0  501  0.00000000000E+00  0.00000000000E+00  0.20246100388E+04  0.20246100388E+04  0.50400001928E-02 0. -1.
        1   -1    0    0  501    0  0.00000000000E+00  0.00000000000E+00 -0.17566334396E+04  0.17566334396E+04  0.50400001928E-02 0.  1.
    10030    2    1    2    0    0  0.00000000000E+00  0.00000000000E+00  0.26797659920E+03  0.37812434784E+04  0.37717357788E+04 0.  0.
        1    1    3    3  502    0 -0.17469318490E+04 -0.65092855088E+03  0.41934388184E+03  0.19108448798E+04  0.50400001928E-02 0. -1.
       -1    1    3    3    0  502  0.17469318490E+04  0.65092855088E+03 -0.15136728264E+03  0.18703985986E+04  0.50400001928E-02 0.  1.
</event>
<event>
 5   0  0.1337854E-06  0.3671964E+04  0.7818609E-02  0.8074203E-01
        2   -1    0    0  501    0  0.00000000000E+00  0.00000000000E+00  0.26362039491E+04  0.26362039491E+04  0.25500000920E-02 0.  1.
       -2   -1    0    0    0  501  0.00000000000E+00  0.00000000000E+00 -0.12786682503E+04  0.12786682503E+04  0.25500000920E-02 0. -1.
    10030    2    1    2    0    0  0.00000000000E+00  0.00000000000E+00  0.13575356989E+04  0.39148721994E+04  0.36719642106E+04 0.  0.
        3    1    3    3  502    0  0.42157930637E+03 -0.17475970654E+04  0.28126943427E+03  0.18195980653E+04  0.10100000352E+00 0. -1.
       -3    1    3    3    0  502 -0.42157930637E+03  0.17475970654E+04  0.10762662646E+04  0.20952741341E+04  0.10100000352E+00 0.  1.
</event>
<event>
 5   0  0.1372748E-06  0.3769961E+04  0.7818609E-02  0.8052632E-01
        2   -1    0    0  501    0  0.00000000000E+00  0.00000000000E+00  0.21477352748E+04  0.21477352748E+04  0.25500000920E-02 0. -1.
       -2   -1    0    0    0  501  0.00000000000E+00  0.00000000000E+00 -0.16543714980E+04  0.16543714980E+04  0.25500000920E-02 0.  1.
    10030    2    1    2    0    0  0.00000000000E+00  0.00000000000E+00  0.49336377678E+03  0.38021067729E+04  0.37699612857E+04 0.  0.
        1    1    3    3  502    0  0.10417712347E+04  0.82689207798E+03  0.15937785024E+04  0.20758534941E+04  0.50400001928E-02 0. -1.
       -1    1    3    3    0  502 -0.10417712347E+04 -0.82689207798E+03 -0.11004147256E+04  0.17262532788E+04  0.50400001928E-02 0.  1.
</event>
<event>
 5   0  0.1079205E-06  0.3745964E+04  0.7818609E-02  0.8057851E-01
        1   -1    0    0  501    0  0.00000000000E+00  0.00000000000E+00  0.23496276384E+04  0.23496276384E+04  0.50400001928E-02 0.  1.
       -1   -1    0    0    0  501  0.00000000000E+00  0.00000000000E+00 -0.14930286309E+04  0.14930286309E+04  0.50400001928E-02 0. -1.
    10030    2    1    2    0    0  0.00000000000E+00  0.00000000000E+00  0.85659900754E+03  0.38426562694E+04  0.37459638739E+04 0.  0.
        4    1    3    3  502    0 -0.39730951315E+03 -0.13859743732E+04 -0.79808484129E+03  0.16479444284E+04  0.12699999809E+01 0. -1.
       -4    1    3    3    0  502  0.39730951315E+03  0.13859743732E+04  0.16546838488E+04  0.21947118410E+04  0.12699999809E+01 0.  1.
</event>
<event>
 5   0  0.1372748E-06  0.3535357E+04  0.7818609E-02  0.8105462E-01
        2   -1    0    0  501    0  0.00000000000E+00  0.00000000000E+00  0.11448567140E+04  0.11448567140E+04  0.25500000920E-02 0.  1.
       -2   -1    0    0    0  501  0.00000000000E+00  0.00000000000E+00 -0.27293262413E+04  0.27293262413E+04  0.25500000920E-02 0. -1.
    10030    2    1    2    0    0  0.00000000000E+00  0.00000000000E+00 -0.15844695273E+04  0.38741829553E+04  0.35353571090E+04 0.  0.
        1    1    3    3  502    0  0.11364472667E+04  0.29119313622E+03 -0.22412233211E+04  0.25297011301E+04  0.50400001928E-02 0. -1.
       -1    1    3    3    0  502 -0.11364472667E+04 -0.29119313622E+03  0.65675379379E+03  0.13444818252E+04  0.50400001928E-02 0.  1.
</event>
<event>
 5   0  0.1337854E-06  0.2080092E+04  0.7818609E-02  0.8570064E-01
        2   -1    0    0  501    0  0.00000000000E+00  0.00000000000E+00  0.87789593221E+03  0.87789593221E+03  0.25500000920E-02 0.  1.
       -2   -1    0    0    0  501  0.00000000000E+00  0.00000000000E+00 -0.12321454633E+04  0.12321454633E+04  0.25500000920E-02 0. -1.
    10030    2    1    2    0    0  0.00000000000E+00  0.00000000000E+00 -0.35424953106E+03  0.21100413955E+04  0.20800918154E+04 0.  0.
        3    1    3    3  502    0 -0.70891331050E+03  0.17109115466E+03  0.57508088870E+03  0.92873478656E+03  0.10100000352E+00 0. -1.
       -3    1    3    3    0  502  0.70891331050E+03 -0.17109115466E+03 -0.92933041976E+03  0.11813066089E+04  0.10100000352E+00 0.  1.
</event>
<event>
 5   0  0.4255250E-07  0.3766534E+04  0.7818609E-02  0.8053375E-01
        1   -1    0    0  501    0  0.00000000000E+00  0.00000000000E+00  0.27958839625E+04  0.27958839625E+04  0.50400001928E-02 0. -1.
       -1   -1    0    0    0  501  0.00000000000E+00  0.00000000000E+00 -0.12685412590E+04  0.12685412590E+04  0.50400001928E-02 0.  1.
    10030    2    1    2    0    0  0.00000000000E+00  0.00000000000E+00  0.15273427035E+04  0.40644252215E+04  0.37665337709E+04 0.  0.
        2    1    3    3  502    0 -0.17831957262E+04  0.29796597423E+03  0.13327549512E+04  0.22460646651E+04  0.25500000920E-02 0. -1.
       -2    1    3    3    0  502  0.17831957262E+04 -0.29796597423E+03  0.19458775227E+03  0.18183605564E+04  0.25500000920E-02 0.  1.
</event>
<event>
 5   0  0.1337854E-06  0.3760156E+04  0.7818609E-02  0.8054760E-01
        2   -1    0    0  501    0  0.00000000000E+00  0.00000000000E+00  0.22457923302E+04  0.22457923302E+04  0.25500000920E-02 0. -1.
       -2   -1    0    0    0  501  0.00000000000E+00  0.00000000000E+00 -0.15739183504E+04  0.15739183504E+04  0.25500000920E-02 0.  1.
    10030    2    1    2    0    0  0.00000000000E+00  0.00000000000E+00  0.67187397974E+03  0.38197106806E+04  0.37601562519E+04 0.  0.
        3    1    3    3  502    0 -0.67161337325E+03  0.99043098153E+03 -0.11370900678E+04  0.16507549439E+04  0.10100000352E+00 0.  1.
       -3    1    3    3    0  502  0.67161337325E+03 -0.99043098153E+03  0.18089640475E+04  0.21689557367E+04  0.10100000352E+00 0. -1.
</event>
<event>
 5   0  0.8030324E-07  0.2046512E+04  0.7818609E-02  0.8585178E-01
       -1   -1    0    0    0  501  0.00000000000E+00  0.00000000000E+00  0.50027771984E+03  0.50027771986E+03  0.50400001928E-02 0. -1.
        1   -1    0    0  501    0  0.00000000000E+00  0.00000000000E+00 -0.20929435071E+04  0.20929435071E+04  0.50400001928E-02 0.  1.
    10030    2    1    2    0    0  0.00000000000E+00  0.00000000000E+00 -0.15926657873E+04  0.25932212270E+04  0.20465121603E+04 0.  0.
        1    1    3    3  502    0  0.18324826106E+03 -0.13250921625E+03 -0.20608835801E+04  0.20732534212E+04  0.50400001928E-02 0.  1.
       -1    1    3    3    0  502 -0.18324826106E+03  0.13250921625E+03  0.46821779282E+03  0.51996780584E+03  0.50400001928E-02 0. -1.
</event>
<event>
 5   0  0.4255250E-07  0.1946507E+04  0.7818609E-02  0.8632047E-01
       -1   -1    0    0    0  501  0.00000000000E+00  0.00000000000E+00  0.86711892678E+03  0.86711892679E+03  0.50400001928E-02 0. -1.
        1   -1    0    0  501    0  0.00000000000E+00  0.00000000000E+00 -0.10923787339E+04  0.10923787339E+04  0.50400001928E-02 0.  1.
    10030    2    1    2    0    0  0.00000000000E+00  0.00000000000E+00 -0.22525980708E+03  0.19594976607E+04  0.19465068974E+04 0.  0.
        2    1    3    3  502    0 -0.49750407909E+03 -0.80703651131E+03  0.10884758507E+03  0.95428823532E+03  0.25500000920E-02 0.  1.
       -2    1    3    3    0  502  0.49750407909E+03  0.80703651131E+03 -0.33410739214E+03  0.10052094253E+04  0.25500000920E-02 0. -1.
</event>
<event>
 5   0  0.8030324E-07  0.3808308E+04  0.7818609E-02  0.8044374E-01
        1   -1    0    0  501    0  0.00000000000E+00  0.00000000000E+00  0.23972618253E+04  0.23972618253E+04  0.50400001928E-02 0.  1.
       -1   -1    0    0    0  501  0.00000000000E+00  0.00000000000E+00 -0.15124768530E+04  0.15124768531E+04  0.50400001928E-02 0. -1.
    10030    2    1    2    0    0  0.00000000000E+00  0.00000000000E+00  0.88478497225E+03  0.39097386784E+04  0.38083082971E+04 0.  0.
        1    1    3    3  502    0 -0.45761628381E+03 -0.32973352931E+03  0.23095306963E+04  0.23774080215E+04  0.50400001928E-02 0.  1.
       -1    1    3    3    0  502  0.45761628381E+03  0.32973352931E+03 -0.14247457241E+04  0.15323306568E+04  0.50400001928E-02 0. -1.
</event>
<event>
 5   0  0.1372748E-06  0.3810380E+04  0.7818609E-02  0.8043931E-01
        2   -1    0    0  501    0  0.00000000000E+00  0.00000000000E+00  0.25228541489E+04  0.25228541489E+04  0.25500000920E-02 0. -1.
       -2   -1    0    0    0  501  0.00000000000E+00  0.00000000000E+00 -0.14387470028E+04  0.14387470028E+04  0.25500000920E-02 0.  1.
    10030    2    1    2    0    0  0.00000000000E+00  0.00000000000E+00  0.10841071462E+04  0.39616011517E+04  0.38103799523E+04 0.  0.
        1    1    3    3  502    0  0.64269300868E+03 -0.17930694927E+04  0.58359339295E+03  0.19921681047E+04  0.50400001928E-02 0. -1.
       -1    1    3    3    0  502 -0.64269300868E+03  0.17930694927E+04  0.50051375323E+03  0.19694330469E+04  0.50400001928E-02 0.  1.
</event>
<event>
 5   0  0.4795023E-07  0.3631124E+04  0.7818609E-02  0.8083399E-01
       -1   -1    0    0    0  501  0.00000000000E+00  0.00000000000E+00  0.20893672898E+04  0.20893672898E+04  0.50400001928E-02 0. -1.
        1   -1    0    0  501    0  0.00000000000E+00  0.00000000000E+00 -0.15776384757E+04  0.15776384757E+04  0.50400001928E-02 0.  1.
    10030    2    1    2    0    0  0.00000000000E+00  0.00000000000E+00  0.51172881408E+03  0.36670057656E+04  0.36311244685E+04 0.  0.
        3    1    3    3  502    0  0.43656267094E+02 -0.56138759291E+03 -0.14872287626E+04  0.15902551058E+04  0.10100000352E+00 0.  1.
       -3    1    3    3    0  502 -0.43656267094E+02  0.56138759291E+03  0.19989575767E+04  0.20767506597E+04  0.10100000352E+00 0. -1.
</event>
<event>
 5   0  0.1079205E-06  0.3804517E+04  0.7818609E-02  0.8045186E-01
        1   -1    0    0  501    0  0.00000000000E+00  0.00000000000E+00  0.16076576753E+04  0.16076576753E+04  0.50400001928E-02 0. -1.
       -1   -1    0    0    0  501  0.00000000000E+00  0.00000000000E+00 -0.22508440094E+04  0.22508440094E+04  0.50400001928E-02 0.  1.
    10030    2    1    2    0    0  0.00000000000E+00  0.00000000000E+00 -0.64318633410E+03  0.38585016847E+04  0.38045166041E+04 0.  0.
        4    1    3    3  502    0  0.29159430741E+02  0.10396733498E+04  0.12937452833E+04  0.16599847642E+04  0.12699999809E+01 0. -1.
       -4    1    3    3    0  502 -0.29159430741E+02 -0.10396733498E+04 -0.19369316174E+04  0.21985169205E+04  0.12699999809E+01 0.  1.
</event>
<event>
 5   0  0.1341932E-06  0.3821668E+04  0.7818609E-02  0.8041521E-01
        2   -1    0    0  501    0  0.00000000000E+00  0.00000000000E+00  0.20702346375E+04  0.20702346375E+04  0.25500000920E-02 0. -1.
       -2   -1    0    0    0  501  0.00000000000E+00  0.00000000000E+00 -0.17637070570E+04  0.17637070570E+04  0.25500000920E-02 0.  1.
    10030    2    1    2    0    0  0.00000000000E+00  0.00000000000E+00  0.30652758048E+03  0.38339416945E+04  0.38216684522E+04 0.  0.
        2    1    3    3  502    0  0.88667994676E+03 -0.93955552938E+03 -0.12592072244E+04  0.18040423373E+04  0.25500000920E-02 0.  1.
       -2    1    3    3    0  502 -0.88667994676E+03  0.93955552938E+03  0.15657348049E+04  0.20298993571E+04  0.25500000920E-02 0. -1.
</event>
<event>
 5   0  0.1341932E-06  0.3810848E+04  0.7818609E-02  0.8043831E-01
       -2   -1    0    0    0  501  0.00000000000E+00  0.00000000000E+00  0.15523191248E+04  0.15523191248E+04  0.25500000920E-02 0.  1.
        2   -1    0    0  501    0  0.00000000000E+00  0.00000000000E+00 -0.23388497797E+04  0.23388497797E+04  0.25500000920E-02 0. -1.
    10030    2    1    2    0    0  0.00000000000E+00  0.00000000000E+00 -0.78653065488E+03  0.38911689046E+04  0.38108483272E+04 0.  0.
        2    1    3    3  502    0 -0.18560995191E+04 -0.42288068412E+03 -0.47689236399E+03  0.19624881718E+04  0.25500000920E-02 0. -1.
       -2    1    3    3    0  502  0.18560995191E+04  0.42288068412E+03 -0.30963829089E+03  0.19286807327E+04  0.25500000920E-02 0.  1.
</event>
<event>
 5   0  0.1184616E-06  0.3811573E+04  0.7818609E-02  0.8043676E-01
        2   -1    0    0  501    0  0.00000000000E+00  0.00000000000E+00  0.28287346869E+04  0.28287346869E+04  0.25500000920E-02 0. -1.
       -2   -1    0    0    0  501  0.00000000000E+00  0.00000000000E+00 -0.12839740504E+04  0.12839740504E+04  0.25500000920E-02 0.  1.
    10030    2    1    2    0    0  0.00000000000E+00  0.00000000000E+00  0.15447606365E+04  0.41127087373E+04  0.38115728687E+04 0.  0.
        5    1    3    3  502    0 -0.64899359303E+03 -0.14953622020E+03 -0.11543159902E+04  0.13326744764E+04  0.46999998093E+01 0.  1.
       -5    1    3    3    0  502  0.64899359303E+03  0.14953622020E+03  0.26990766266E+04  0.27800342608E+04  0.46999998093E+01 0. -1.
</event>
<event>
 5   0  0.1528889E-06  0.1875351E+04  0.7818609E-02  0.8667224E-01
       -2   -1    0    0    0  501  0.00000000000E+00  0.00000000000E+00  0.68274648801E+03  0.68274648801E+03  0.25500000920E-02 0.  1.
        2   -1    0    0  501    0  0.00000000000E+00  0.00000000000E+00 -0.12877921850E+04  0.12877921850E+04  0.25500000920E-02 0. -1.
    10030    2    1    2    0    0  0.00000000000E+00  0.00000000000E+00 -0.60504569703E+03  0.19705386731E+04  0.18753512648E+04 0.  0.
        1    1    3    3  502    0 -0.62885902144E+03  0.27732238441E+03  0.36771212404E+03  0.77947647811E+03  0.50400001928E-02 0.  1.
       -1    1    3    3    0  502  0.62885902144E+03 -0.27732238441E+03 -0.97275782107E+03  0.11910621949E+04  0.50400001928E-02 0. -1.
</event>
<event>
 5   0  0.5284458E-07  0.3804713E+04  0.7818609E-02  0.8045144E-01
        1   -1    0    0  501    0  0.00000000000E+00  0.00000000000E+00  0.17441883203E+04  0.17441883203E+04  0.50400001928E-02 0.  1.
       -1   -1    0    0    0  501  0.00000000000E+00  0.00000000000E+00 -0.20748679441E+04  0.20748679441E+04  0.50400001928E-02 0. -1.
    10030    2    1    2    0    0  0.00000000000E+00  0.00000000000E+00 -0.33067962376E+03  0.38190562644E+04  0.38047130952E+04 0.  0.
        5    1    3    3  502    0  0.13567814173E+04 -0.91972824502E+03 -0.11344755586E+04  0.19934424351E+04  0.46999998093E+01 0.  1.
       -5    1    3    3    0  502 -0.13567814173E+04  0.91972824502E+03  0.80379593482E+03  0.18256138293E+04  0.46999998093E+01 0. -1.
</event>
<event>
 5   0  0.1214844E-06  0.3694016E+04  0.7818609E-02  0.8069289E-01
        2   -1    0    0  501    0  0.00000000000E+00  0.00000000000E+00  0.20376414158E+04  0.20376414158E+04  0.25500000920E-02 0.  1.
       -2   -1    0    0    0  501  0.00000000000E+00  0.00000000000E+00 -0.16742099040E+04  0.16742099040E+04  0.25500000920E-02 0. -1.
    10030    2    1    2    0    0  0.00000000000E+00  0.00000000000E+00  0.36343151175E+03  0.37118513198E+04  0.36940164803E+04 0.  0.
        4    1    3    3  502    0  0.83050485757E+02  0.10579671520E+04 -0.13372857947E+04  0.17071985202E+04  0.12699999809E+01 0. -1.
       -4    1    3    3    0  502 -0.83050485757E+02 -0.10579671520E+04  0.17007173064E+04  0.20046527996E+04  0.12699999809E+01 0.  1.
</event>
<event>
 5   0  0.1184616E-06  0.3847186E+04  0.7818609E-02  0.8036104E-01
        2   -1    0    0  501    0  0.00000000000E+00  0.00000000000E+00  0.20751651711E+04  0.20751651711E+04  0.25500000920E-02 0.  1.
       -2   -1    0    0    0  501  0.00000000000E+00  0.00000000000E+00 -0.17830921221E+04  0.17830921221E+04  0.25500000920E-02 0. -1.
    10030    2    1    2    0    0  0.00000000000E+00  0.00000000000E+00  0.29207304898E+03  0.38582572932E+04  0.38471863322E+04 0.  0.
        5    1    3    3  502    0  0.59724494289E+03  0.10409929851E+04  0.16536324402E+04  0.20432548187E+04  0.46999998093E+01 0. -1.
       -5    1    3    3    0  502 -0.59724494289E+03 -0.10409929851E+04 -0.13615593912E+04  0.18150024745E+04  0.46999998093E+01 0.  1.
</event>
<event>
 5   0  0.1337854E-06  0.3340208E+04  0.7818609E-02  0.8152739E-01
        2   -1    0    0  501    0  0.00000000000E+00  0.00000000000E+00  0.12047323233E+04  0.12047323233E+04  0.25500000920E-02 0.  1.
       -2   -1    0    0    0  501  0.00000000000E+00  0.00000000000E+00 -0.23152420937E+04  0.23152420937E+04  0.25500000920E-02 0. -1.
    10030    2    1    2    0    0  0.00000000000E+00  0.00000000000E+00 -0.11105097703E+04  0.35199744170E+04  0.33402077700E+04 0.  0.
        3    1    3    3  502    0 -0.82022603381E+03  0.86771417971E+03  0.67530086284E+03  0.13717616082E+04  0.10100000352E+00 0.  1.
       -3    1    3    3    0  502  0.82022603381E+03 -0.86771417971E+03 -0.17858106332E+04  0.21482128088E+04  0.10100000352E+00 0. -1.
</event>
<event>
 5   0  0.4795023E-07  0.2051589E+04  0.7818609E-02  0.8582874E-01
       -1   -1    0    0    0  501  0.00000000000E+00  0.00000000000E+00  0.76527045533E+03  0.76527045534E+03  0.50400001928E-02 0. -1.
        1   -1    0    0  501    0  0.00000000000E+00  0.00000000000E+00 -0.13750102391E+04  0.13750102392E+04  0.50400001928E-02 0.  1.
    10030    2    1    2    0    0  0.00000000000E+00  0.00000000000E+00 -0.60973978382E+03  0.21402806945E+04  0.20515893466E+04 0.  0.
        3    1    3    3  502    0 -0.83330711145E+03  0.88925757504E+02  0.31226616427E+03  0.89432583542E+03  0.10100000352E+00 0. -1.
       -3    1    3    3    0  502  0.83330711145E+03 -0.88925757504E+02 -0.92200594809E+03  0.12459548591E+04  0.10100000352E+00 0.  1.
</event>
<event>
 5   0  0.4255250E-07  0.3591587E+04  0.7818609E-02  0.8092421E-01
        1   -1    0    0  501    0  0.00000000000E+00  0.00000000000E+00  0.20268896697E+04  0.20268896697E+04  0.50400001928E-02 0. -1.
       -1   -1    0    0    0  501  0.00000000000E+00  0.00000000000E+00 -0.15910459864E+04  0.15910459864E+04  0.50400001928E-02 0.  1.
    10030    2    1    2    0    0  0.00000000000E+00  0.00000000000E+00  0.43584368334E+03  0.36179356562E+04  0.35915872112E+04 0.  0.
        2    1    3    3  502    0 -0.53864165535E+01  0.38066858544E+03  0.19857715659E+04  0.20219362744E+04  0.25500000920E-02 0. -1.
       -2    1    3    3    0  502  0.53864165535E+01 -0.38066858544E+03 -0.15499278826E+04  0.15959993818E+04  0.25500000920E-02 0.  1.
</event>
<event>
 5   0  0.4255250E-07  0.3808045E+04  0.7818609E-02  0.8044431E-01
       -1   -1    0    0    0  501  0.00000000000E+00  0.00000000000E+00  0.17498387087E+04  0.17498387087E+04  0.50400001928E-02 0. -1.
        1   -1    0    0  501    0  0.00000000000E+00  0.00000000000E+00 -0.20717923310E+04  0.20717923310E+04  0.50400001928E-02 0.  1.
    10030    2    1    2    0    0  0.00000000000E+00  0.00000000000E+00 -0.32195362222E+03  0.38216310397E+04  0.38080453869E+04 0.  0.
        2    1    3    3  502    0 -0.15572312026E+04  0.66482799798E+02  0.93650293055E+03  0.18183582485E+04  0.25500000920E-02 0.  1.
       -2    1    3    3    0  502  0.15572312026E+04 -0.66482799798E+02 -0.12584565528E+04  0.20032727912E+04  0.25500000920E-02 0. -1.
</event>
<event>
 5   0  0.1341932E-06  0.3800161E+04  0.7818609E-02  0.8046120E-01
       -2   -1    0    0    0  501  0.00000000000E+00  0.00000000000E+00  0.24171893739E+04  0.24171893739E+04  0.25500000920E-02 0. -1.
        2   -1    0    0  501    0  0.00000000000E+00  0.00000000000E+00 -0.14935968611E+04  0.14935968611E+04  0.25500000920E-02 0.  1.
    10030    2    1    2    0    0  0.00000000000E+00  0.00000000000E+00  0.92359251280E+03  0.39107862351E+04  0.38001612922E+04 0.  0.
        2    1    3    3  502    0 -0.28800177926E+03 -0.12282397811E+04  0.19239985355E+04  0.23007147475E+04  0.25500000920E-02 0. -1.
       -2    1    3    3    0  502  0.28800177926E+03  0.12282397811E+04 -0.10004060227E+04  0.16100714876E+04  0.25500000920E-02 0.  1.
</event>
<event>
 5   0  0.1214844E-06  0.2191247E+04  0.7818609E-02  0.8522080E-01
       -2   -1    0    0    0  501  0.00000000000E+00  0.00000000000E+00  0.11346462800E+04  0.11346462800E+04  0.25500000920E-02 0.  1.
        2   -1    0    0  501    0  0.00000000000E+00  0.00000000000E+00 -0.10579430813E+04  0.10579430814E+04  0.25500000920E-02 0. -1.
    10030    2    1    2    0    0  0.00000000000E+00  0.00000000000E+00  0.76703198678E+02  0.21925893614E+04  0.21912472994E+04 0.  0.
        4    1    3    3  502    0 -0.44942155206E+03  0.14716653289E+03  0.10272644710E+04  0.11308897498E+04  0.12699999809E+01 0.  1.
       -4    1    3    3    0  502  0.44942155206E+03 -0.14716653289E+03 -0.95056127235E+03  0.10616996116E+04  0.12699999809E+01 0. -1.
</event>
<event>
 5   0  0.1184616E-06  0.1960475E+04  0.7818609E-02  0.8625326E-01
        2   -1    0    0  501    0  0.00000000000E+00  0.00000000000E+00  0.16640911543E+04  0.16640911543E+04  0.25500000920E-02 0.  1.
       -2   -1    0    0    0  501  0.00000000000E+00  0.00000000000E+00 -0.57741184071E+03  0.57741184072E+03  0.25500000920E-02 0. -1.
    10030    2    1    2    0    0  0.00000000000E+00  0.00000000000E+00  0.10866793135E+04  0.22415029950E+04  0.19604753878E+04 0.  0.
        5    1    3    3  502    0 -0.71997102899E+03 -0.17694972587E+03 -0.18980713891E+03  0.76532236871E+03  0.46999998093E+01 0. -1.
       -5    1    3    3    0  502  0.71997102899E+03  0.17694972587E+03  0.12764864525E+04  0.14761806263E+04  0.46999998093E+01 0.  1.
</event>
<event>
 5   0  0.4795023E-07  0.3808452E+04  0.7818609E-02  0.8044343E-01
        1   -1    0    0  501    0  0.00000000000E+00  0.00000000000E+00  0.22277181274E+04  0.22277181274E+04  0.50400001928E-02 0.  1.
       -1   -1    0    0    0  501  0.00000000000E+00  0.00000000000E+00 -0.16277091152E+04  0.16277091152E+04  0.50400001928E-02 0. -1.
    10030    2    1    2    0    0  0.00000000000E+00  0.00000000000E+00  0.60000901219E+03  0.38554272426E+04  0.38084522326E+04 0.  0.
        3    1    3    3  502    0 -0.28709645440E+03 -0.81220712535E+03  0.20191773466E+04  0.21952635277E+04  0.10100000352E+00 0.  1.
       -3    1    3    3    0  502  0.28709645440E+03  0.81220712535E+03 -0.14191683344E+04  0.16601637149E+04  0.10100000352E+00 0. -1.
</event>
<event>
 5   0  0.8030324E-07  0.3687544E+04  0.7818609E-02  0.8070728E-01
        1   -1    0    0  501    0  0.00000000000E+00  0.00000000000E+00  0.17941615427E+04  0.17941615427E+04  0.50400001928E-02 0. -1.
       -1   -1    0    0    0  501  0.00000000000E+00  0.00000000000E+00 -0.18947538094E+04  0.18947538094E+04  0.50400001928E-02 0.  1.
    10030    2    1    2    0    0  0.00000000000E+00  0.00000000000E+00 -0.10059226668E+03  0.36889153521E+04  0.36875435823E+04 0.  0.
        1    1    3    3  502    0 -0.18030610766E+04 -0.30902639980E+02  0.33391730617E+03  0.18339806396E+04  0.50400001928E-02 0.  1.
       -1    1    3    3    0  502  0.18030610766E+04  0.30902639980E+02 -0.43450957285E+03  0.18549347126E+04  0.50400001928E-02 0. -1.
</event>
<event>
 5   0  0.1341932E-06  0.3841464E+04  0.7818609E-02  0.8037315E-01
        2   -1    0    0  501    0  0.00000000000E+00  0.00000000000E+00  0.22916339584E+04  0.22916339584E+04  0.25500000920E-02 0. -1.
       -2   -1    0    0    0  501  0.00000000000E+00  0.00000000000E+00 -0.16098607688E+04  0.16098607688E+04  0.25500000920E-02 0.  1.
    10030    2    1    2    0    0  0.00000000000E+00  0.00000000000E+00  0.68177318961E+03  0.39014947271E+04  0.38414640990E+04 0.  0.
        2    1    3    3  502    0 -0.57750198279E+03 -0.10239597737E+04 -0.12018001794E+04  0.16811679956E+04  0.25500000920E-02 0.  1.
       -2    1    3    3    0  502  0.57750198279E+03  0.10239597737E+04  0.18835733690E+04  0.22203267315E+04  0.25500000920E-02 0. -1.
</event>
<event>
 5   0  0.1372748E-06  0.3767255E+04  0.7818609E-02  0.8053219E-01
        2   -1    0    0  501    0  0.00000000000E+00  0.00000000000E+00  0.14753050537E+04  0.14753050537E+04  0.25500000920E-02 0. -1.
       -2   -1    0    0    0  501  0.00000000000E+00  0.00000000000E+00 -0.24049618699E+04  0.24049618699E+04  0.25500000920E-02 0.  1.
    10030    2    1    2    0    0  0.00000000000E+00  0.00000000000E+00 -0.92965681614E+03  0.38802669236E+04  0.37672549160E+04 0.  0.
        1    1    3    3  502    0  0.28702998396E+02  0.80293825728E+03 -0.22196141872E+04  0.23605551989E+04  0.50400001928E-02 0.  1.
       -1    1    3    3    0  502 -0.28702998396E+02 -0.80293825728E+03  0.12899573710E+04  0.15197117247E+04  0.50400001928E-02 0. -1.
</event>
<event>
 5   0  0.1372748E-06  0.3736146E+04  0.7818609E-02  0.8059998E-01
        2   -1    0    0  501    0  0.00000000000E+00  0.00000000000E+00  0.19901565490E+04  0.19901565490E+04  0.25500000920E-02 0.  1.
       -2   -1    0    0    0  501  0.00000000000E+00  0.00000000000E+00 -0.17534781943E+04  0.17534781943E+04  0.25500000920E-02 0. -1.
    10030    2    1    2    0    0  0.00000000000E+00  0.00000000000E+00  0.23667835470E+03  0.37436347432E+04  0.37361456673E+04 0.  0.
        1    1    3    3  502    0 -0.18063933649E+04 -0.26387844452E+03  0.51537489389E+03  0.18969185811E+04  0.50400001928E-02 0.  1.
       -1    1    3    3    0  502  0.18063933649E+04  0.26387844452E+03 -0.27869653919E+03  0.18467161621E+04  0.50400001928E-02 0. -1.
</event>
<event>
 5   0  0.4255250E-07  0.2041919E+04  0.7818609E-02  0.8587269E-01
        1   -1    0    0  501    0  0.00000000000E+00  0.00000000000E+00  0.11867024554E+04  0.11867024555E+04  0.50400001928E-02 0. -1.
       -1   -1    0    0    0  501  0.00000000000E+00  0.00000000000E+00 -0.87836491915E+03  0.87836491916E+03  0.50400001928E-02 0.  1.
    10030    2    1    2    0    0  0.00000000000E+00  0.00000000000E+00  0.30833753629E+03  0.20650673746E+04  0.20419185159E+04 0.  0.
        2    1    3    3  502    0 -0.70897344623E+03  0.24087518121E+03 -0.54774095571E+03  0.92773075564E+03  0.25500000920E-02 0.  1.
       -2    1    3    3    0  502  0.70897344623E+03 -0.24087518121E+03  0.85607849200E+03  0.11373366190E+04  0.25500000920E-02 0. -1.
</event>
<event>
 5   0  0.1184616E-06  0.3858735E+04  0.7818609E-02  0.8033667E-01
       -2   -1    0    0    0  501  0.00000000000E+00  0.00000000000E+00  0.22188943593E+04  0.22188943593E+04  0.25500000920E-02 0. -1.
        2   -1    0    0  501    0  0.00000000000E+00  0.00000000000E+00 -0.16776184269E+04  0.16776184269E+04  0.25500000920E-02 0.  1.
    10030    2    1    2    0    0  0.00000000000E+00  0.00000000000E+00  0.54127593240E+03  0.38965127861E+04  0.38587345409E+04 0.  0.
        5    1    3    3  502    0 -0.14717766455E+04 -0.55088292125E+03  0.14008985253E+04  0.21052641771E+04  0.46999998093E+01 0. -1.
       -5    1    3    3    0  502  0.14717766455E+04  0.55088292125E+03 -0.85962259288E+03  0.17912486090E+04  0.46999998093E+01 0.  1.
</event>
<event>
 5   0  0.9741922E-07  0.1875441E+04  0.7818609E-02  0.8667178E-01
       -1   -1    0    0    0  501  0.00000000000E+00  0.00000000000E+00  0.83520529457E+03  0.83520529458E+03  0.50400001928E-02 0.  1.
        1   -1    0    0  501    0  0.00000000000E+00  0.00000000000E+00 -0.10528190147E+04  0.10528190147E+04  0.50400001928E-02 0. -1.
    10030    2    1    2    0    0  0.00000000000E+00  0.00000000000E+00 -0.21761372015E+03  0.18880243093E+04  0.18754412978E+04 0.  0.
        1    1    3    3  502    0 -0.13734768469E+03  0.76324106227E+03 -0.63952385991E+03  0.10051826068E+04  0.50400001928E-02 0. -1.
       -1    1    3    3    0  502  0.13734768469E+03 -0.76324106227E+03  0.42191013976E+03  0.88284170250E+03  0.50400001928E-02 0.  1.
</event>
<event>
 5   0  0.4795023E-07  0.3630697E+04  0.7818609E-02  0.8083496E-01
        1   -1    0    0  501    0  0.00000000000E+00  0.00000000000E+00  0.20281508113E+04  0.20281508114E+04  0.50400001928E-02 0. -1.
       -1   -1    0    0    0  501  0.00000000000E+00  0.00000000000E+00 -0.16248743096E+04  0.16248743096E+04  0.50400001928E-02 0.  1.
    10030    2    1    2    0    0  0.00000000000E+00  0.00000000000E+00  0.40327650178E+03  0.36530251209E+04  0.36306969851E+04 0.  0.
        3    1    3    3  502    0 -0.17481832115E+03  0.10039398453E+04  0.17132200533E+04  0.19933839619E+04  0.10100000352E+00 0. -1.
       -3    1    3    3    0  502  0.17481832115E+03 -0.10039398453E+04 -0.13099435515E+04  0.16596411590E+04  0.10100000352E+00 0.  1.
</event>
<event>
 5   0  0.4795023E-07  0.2055257E+04  0.7818609E-02  0.8581213E-01
        1   -1    0    0  501    0  0.00000000000E+00  0.00000000000E+00  0.95304232009E+03  0.95304232010E+03  0.50400001928E-02 0. -1.
       -1   -1    0    0    0  501  0.00000000000E+00  0.00000000000E+00 -0.11080518904E+04  0.11080518905E+04  0.50400001928E-02 0.  1.
    10030    2    1    2    0    0  0.00000000000E+00  0.00000000000E+00 -0.15500957035E+03  0.20610942106E+04  0.20552570102E+04 0.  0.
        3    1    3    3  502    0  0.31524978083E+03  0.44009446276E+02 -0.10573679047E+04  0.11042400788E+04  0.10100000352E+00 0.  1.
       -3    1    3    3    0  502 -0.31524978083E+03 -0.44009446276E+02  0.90235833432E+03  0.95685413172E+03  0.10100000352E+00 0. -1.
</event>
<event>
 5   0  0.4255250E-07  0.2240103E+04  0.7818609E-02  0.8501919E-01
        1   -1    0    0  501    0  0.00000000000E+00  0.00000000000E+00  0.22077220421E+04  0.22077220421E+04  0.50400001928E-02 0.  1.
       -1   -1    0    0    0  501  0.00000000000E+00  0.00000000000E+00 -0.56823961452E+03  0.56823961454E+03  0.50400001928E-02 0. -1.
    10030    2    1    2    0    0  0.00000000000E+00  0.00000000000E+00  0.16394824276E+04  0.27759616566E+04  0.22401027853E+04 0.  0.
        2    1    3    3  502    0  0.46693395128E+02  0.81536963146E+03  0.17695848526E+04  0.19489583011E+04  0.25500000920E-02 0.  1.
       -2    1    3    3    0  502 -0.46693395128E+02 -0.81536963146E+03 -0.13010242498E+03  0.82700335553E+03  0.25500000920E-02 0. -1.
</event>
<event>
 5   0  0.5284458E-07  0.3932929E+04  0.7818609E-02  0.8018215E-01
       -1   -1    0    0    0  501  0.00000000000E+00  0.00000000000E+00  0.17083879788E+04  0.17083879788E+04  0.50400001928E-02 0. -1.
        1   -1    0    0  501    0  0.00000000000E+00  0.00000000000E+00 -0.22635269189E+04  0.22635269189E+04  0.50400001928E-02 0.  1.
    10030    2    1    2    0    0  0.00000000000E+00  0.00000000000E+00 -0.55513894012E+03  0.39719148977E+04  0.39329287702E+04 0.  0.
        5    1    3    3  502    0  0.89842525744E+03  0.14258839007E+04 -0.13008494494E+04  0.21289772712E+04  0.46999998093E+01 0.  1.
       -5    1    3    3    0  502 -0.89842525744E+03 -0.14258839007E+04  0.74571050925E+03  0.18429376265E+04  0.46999998093E+01 0. -1.
</event>
<event>
 5   0  0.1337854E-06  0.3227485E+04  0.7818609E-02  0.8181596E-01
       -2   -1    0    0    0  501  0.00000000000E+00  0.00000000000E+00  0.11383330813E+04  0.11383330813E+04  0.25500000920E-02 0.  1.
        2   -1    0    0  501    0  0.00000000000E+00  0.00000000000E+00 -0.22877005800E+04  0.22877005800E+04  0.25500000920E-02 0. -1.
    10030    2    1    2    0    0  0.00000000000E+00  0.00000000000E+00 -0.11493674987E+04  0.34260336613E+04  0.32274852442E+04 0.  0.
        3    1    3    3  502    0 -0.69331791444E+03 -0.12836852457E+04  0.15740027514E+03  0.14674169133E+04  0.10100000352E+00 0.  1.
       -3    1    3    3    0  502  0.69331791444E+03  0.12836852457E+04 -0.13067677739E+04  0.19586167480E+04  0.10100000352E+00 0. -1.
</event>
<event>
 5   0  0.6979771E-07  0.1896557E+04  0.7818609E-02  0.8656572E-01
       -1   -1    0    0    0  501  0.00000000000E+00  0.00000000000E+00  0.86006870694E+03  0.86006870696E+03  0.50400001928E-02 0.  1.
        1   -1    0    0  501    0  0.00000000000E+00  0.00000000000E+00 -0.10455350253E+04  0.10455350253E+04  0.50400001928E-02 0. -1.
    10030    2    1    2    0    0  0.00000000000E+00  0.00000000000E+00 -0.18546631833E+03  0.19056037322E+04  0.18965568352E+04 0.  0.
        5    1    3    3  502    0  0.92214306302E+03 -0.43975167546E+02 -0.31039574715E+03  0.97398626986E+03  0.46999998093E+01 0. -1.
       -5    1    3    3    0  502 -0.92214306302E+03  0.43975167546E+02  0.12492942882E+03  0.93161746238E+03  0.46999998093E+01 0.  1.
</event>
<event>
 5   0  0.1214844E-06  0.3698092E+04  0.7818609E-02  0.8068385E-01
       -2   -1    0    0    0  501  0.00000000000E+00  0.00000000000E+00  0.11859473981E+04  0.11859473981E+04  0.25500000920E-02 0.  1.
        2   -1    0    0  501    0  0.00000000000E+00  0.00000000000E+00 -0.28829021934E+04  0.28829021934E+04  0.25500000920E-02 0. -1.
    10030    2    1    2    0    0  0.00000000000E+00  0.00000000000E+00 -0.16969547953E+04  0.40688495915E+04  0.36980915917E+04 0.  0.
        4    1    3    3  502    0 -0.60409218709E+03  0.15945334810E+04 -0.16353757545E+04  0.23626086989E+04  0.12699999809E+01 0. -1.
       -4    1    3    3    0  502  0.60409218709E+03 -0.15945334810E+04 -0.61579040752E+02  0.17062408926E+04  0.12699999809E+01 0.  1.
</event>
<event>
 5   0  0.1337854E-06  0.3357336E+04  0.7818609E-02  0.8148457E-01
       -2   -1    0    0    0  501  0.00000000000E+00  0.00000000000E+00  0.17285801118E+04  0.17285801118E+04  0.25500000920E-02 0.  1.
        2   -1    0    0  501    0  0.00000000000E+00  0.00000000000E+00 -0.16301974534E+04  0.16301974534E+04  0.25500000920E-02 0. -1.
    10030    2    1    2    0    0  0.00000000000E+00  0.00000000000E+00  0.98382658388E+02  0.33587775651E+04  0.33573363824E+04 0.  0.
        3    1    3    3  502    0 -0.10858554650E+03  0.14041606975E+04 -0.86469343851E+03  0.16526199921E+04  0.10100000352E+00 0. -1.
       -3    1    3    3    0  502  0.10858554650E+03 -0.14041606975E+04  0.96307609690E+03  0.17061575730E+04  0.10100000352E+00 0.  1.
</event>
<event>
 5   0  0.1341932E-06  0.3672483E+04  0.7818609E-02  0.8074087E-01
       -2   -1    0    0    0  501  0.00000000000E+00  0.00000000000E+00  0.19067486335E+04  0.19067486335E+04  0.25500000920E-02 0. -1.
        2   -1    0    0  501    0  0.00000000000E+00  0.00000000000E+00 -0.17683415580E+04  0.17683415580E+04  0.25500000920E-02 0.  1.
    10030    2    1    2    0    0  0.00000000000E+00  0.00000000000E+00  0.13840707551E+03  0.36750901915E+04  0.36724830016E+04 0.  0.
        2    1    3    3  502    0 -0.98151927918E+03  0.67284306518E+03  0.14686544054E+04  0.18902496259E+04  0.25500000920E-02 0. -1.
       -2    1    3    3    0  502  0.98151927918E+03 -0.67284306518E+03 -0.13302473299E+04  0.17848405656E+04  0.25500000920E-02 0.  1.
</event>
<event>
 5   0  0.4795023E-07  0.3262646E+04  0.7818609E-02  0.8172466E-01
       -1   -1    0    0    0  501  0.00000000000E+00  0.00000000000E+00  0.14120063482E+04  0.14120063482E+04  0.50400001928E-02 0. -1.
        1   -1    0    0  501    0  0.00000000000E+00  0.00000000000E+00 -0.18847043075E+04  0.18847043075E+04  0.50400001928E-02 0.  1.
    10030    2    1    2    0    0  0.00000000000E+00  0.00000000000E+00 -0.47269795935E+03  0.32967106557E+04  0.32626458262E+04 0.  0.
        3    1    3    3  502    0 -0.10888321436E+03 -0.28057647973E+03 -0.18564092402E+04  0.18806472270E+04  0.10100000352E+00 0.  1.
       -3    1    3    3    0  502  0.10888321436E+03  0.28057647973E+03  0.13837112808E+04  0.14160634287E+04  0.10100000352E+00 0. -1.
</event>
<event>
 5   0  0.1214844E-06  0.3635725E+04  0.7818609E-02  0.8082357E-01
       -2   -1    0    0    0  501  0.00000000000E+00  0.00000000000E+00  0.12085217651E+04  0.12085217651E+04  0.25500000920E-02 0.  1.
        2   -1    0    0  501    0  0.00000000000E+00  0.00000000000E+00 -0.27344354662E+04  0.27344354662E+04  0.25500000920E-02 0. -1.
    10030    2    1    2    0    0  0.00000000000E+00  0.00000000000E+00 -0.15259137011E+04  0.39429572313E+04  0.36357253891E+04 0.  0.
        4    1    3    3  502    0  0.58545646546E+03  0.89971159881E+03  0.82811855611E+03  0.13557367701E+04  0.12699999809E+01 0.  1.
       -4    1    3    3    0  502 -0.58545646546E+03 -0.89971159881E+03 -0.23540322572E+04  0.25872204612E+04  0.12699999809E+01 0. -1.
</event>
<event>
 5   0  0.1214844E-06  0.3974214E+04  0.7818609E-02  0.8009769E-01
        2   -1    0    0  501    0  0.00000000000E+00  0.00000000000E+00  0.12120815673E+04  0.12120815673E+04  0.25500000920E-02 0. -1.
       -2   -1    0    0    0  501  0.00000000000E+00  0.00000000000E+00 -0.32576969861E+04  0.32576969861E+04  0.25500000920E-02 0.  1.
    10030    2    1    2    0    0  0.00000000000E+00  0.00000000000E+00 -0.20456154188E+04  0.44697785534E+04  0.39742141204E+04 0.  0.
        4    1    3    3  502    0 -0.46490154811E+03 -0.71854908568E+03  0.99417727408E+03  0.13118065037E+04  0.12699999809E+01 0. -1.
       -4    1    3    3    0  502  0.46490154811E+03  0.71854908568E+03 -0.30397926929E+04  0.31579720497E+04  0.12699999809E+01 0.  1.
</event>
<event>
 5   0  0.1184616E-06  0.2812935E+04  0.7818609E-02  0.8299264E-01
       -2   -1    0    0    0  501  0.00000000000E+00  0.00000000000E+00  0.68199522738E+03  0.68199522738E+03  0.25500000920E-02 0. -1.
        2   -1    0    0  501    0  0.00000000000E+00  0.00000000000E+00 -0.29005338713E+04  0.29005338713E+04  0.25500000920E-02 0.  1.
    10030    2    1    2    0    0  0.00000000000E+00  0.00000000000E+00 -0.22185386439E+04  0.35825290987E+04  0.28129345937E+04 0.  0.
        5    1    3    3  502    0  0.39277502744E+03  0.10307489796E+04 -0.22205917770E+04  0.24794688163E+04  0.46999998093E+01 0.  1.
       -5    1    3    3    0  502 -0.39277502744E+03 -0.10307489796E+04  0.20531330676E+01  0.11030602823E+04  0.46999998093E+01 0. -1.
</event>
<event>
 5   0  0.1337854E-06  0.3841048E+04  0.7818609E-02  0.8037403E-01
       -2   -1    0    0    0  501  0.00000000000E+00  0.00000000000E+00  0.29921569109E+04  0.29921569109E+04  0.25500000920E-02 0.  1.
        2   -1    0    0  501    0  0.00000000000E+00  0.00000000000E+00 -0.12326932494E+04  0.12326932494E+04  0.25500000920E-02 0. -1.
    10030    2    1    2    0    0  0.00000000000E+00  0.00000000000E+00  0.17594636615E+04  0.42248501602E+04  0.38410475785E+04 0.  0.
        3    1    3    3  502    0 -0.11924620670E+04  0.14360939678E+04  0.38284007306E+03  0.19054915894E+04  0.10100000352E+00 0. -1.
       -3    1    3    3    0  502  0.11924620670E+04 -0.14360939678E+04  0.13766235884E+04  0.23193585708E+04  0.10100000352E+00 0.  1.
</event>
<event>
 5   0  0.1214844E-06  0.2239179E+04  0.7818609E-02  0.8502296E-01
       -2   -1    0    0    0  501  0.00000000000E+00  0.00000000000E+00  0.91366100699E+03  0.91366100699E+03  0.25500000920E-02 0.  1.
        2   -1    0    0  501    0  0.00000000000E+00  0.00000000000E+00 -0.13719323059E+04  0.13719323059E+04  0.25500000920E-02 0. -1.
    10030    2    1    2    0    0  0.00000000000E+00  0.00000000000E+00 -0.45827129893E+03  0.22855933129E+04  0.22391793605E+04 0.  0.
        4    1    3    3  502    0  0.44259230687E+03  0.44596314963E+02  0.81958618914E+03  0.93252341297E+03  0.12699999809E+01 0.  1.
       -4    1    3    3    0  502 -0.44259230687E+03 -0.44596314963E+02 -0.12778574881E+04  0.13530698999E+04  0.12699999809E+01 0. -1.
</event>
<event>
 5   0  0.4255250E-07  0.3940840E+04  0.7818609E-02  0.8016589E-01
       -1   -1    0    0    0  501  0.00000000000E+00  0.00000000000E+00  0.15371046851E+04  0.15371046851E+04  0.50400001928E-02 0.  1.
        1   -1    0    0  501    0  0.00000000000E+00  0.00000000000E+00 -0.25258881093E+04  0.25258881093E+04  0.50400001928E-02 0. -1.
    10030    2    1    2    0    0  0.00000000000E+00  0.00000000000E+00 -0.98878342422E+03  0.40629927943E+04  0.39408397312E+04 0.  0.
        2    1    3    3  502    0 -0.82317934622E+03  0.30554261398E+03 -0.23130342315E+04  0.24740872825E+04  0.25500000920E-02 0. -1.
       -2    1    3    3    0  502  0.82317934622E+03 -0.30554261398E+03  0.13242508073E+04  0.15889055119E+04  0.25500000920E-02 0.  1.
</event>
<event>
 5   0  0.1214844E-06  0.2896919E+04  0.7818609E-02  0.8273795E-01
        2   -1    0    0  501    0  0.00000000000E+00  0.00000000000E+00  0.10635782183E+04  0.10635782183E+04  0.25500000920E-02 0. -1.
       -2   -1    0    0    0  501  0.00000000000E+00  0.00000000000E+00 -0.19726195863E+04  0.19726195863E+04  0.25500000920E-02 0.  1.
    10030    2    1    2    0    0  0.00000000000E+00  0.00000000000E+00 -0.90904136802E+03  0.30361978046E+04  0.28969192084E+04 0.  0.
        4    1    3    3  502    0 -0.13257582383E+04 -0.26391816563E+03  0.90828451192E+02  0.13548206985E+04  0.12699999809E+01 0. -1.
       -4    1    3    3    0  502  0.13257582383E+04  0.26391816563E+03 -0.99986981921E+03  0.16813771061E+04  0.12699999809E+01 0.  1.
</event>
<event>
 5   0  0.1337854E-06  0.3089768E+04  0.7818609E-02  0.8218552E-01
       -2   -1    0    0    0  501  0.00000000000E+00  0.00000000000E+00  0.95073277064E+03  0.95073277065E+03  0.25500000920E-02 0.  1.
        2   -1    0    0  501    0  0.00000000000E+00  0.00000000000E+00 -0.25103442333E+04  0.25103442333E+04  0.25500000920E-02 0. -1.
    10030    2    1    2    0    0  0.00000000000E+00  0.00000000000E+00 -0.15596114627E+04  0.34610770039E+04  0.30897679707E+04 0.  0.
        3    1    3    3  502    0  0.53995180470E+03  0.12525601824E+04 -0.15923847150E+04  0.20966983695E+04  0.10100000352E+00 0. -1.
       -3    1    3    3    0  502 -0.53995180470E+03 -0.12525601824E+04  0.32773252313E+02  0.13643786345E+04  0.10100000352E+00 0.  1.
</event>
<event>
 5   0  0.1341932E-06  0.2590602E+04  0.7818609E-02  0.8371400E-01
       -2   -1    0    0    0  501  0.00000000000E+00  0.00000000000E+00  0.16550901611E+04  0.16550901611E+04  0.25500000920E-02 0.  1.
        2   -1    0    0  501    0  0.00000000000E+00  0.00000000000E+00 -0.10137241982E+04  0.10137241982E+04  0.25500000920E-02 0. -1.
    10030    2    1    2    0    0  0.00000000000E+00  0.00000000000E+00  0.64136596286E+03  0.26688143593E+04  0.25906022053E+04 0.  0.
        2    1    3    3  502    0  0.95411865343E+03  0.81343912992E+03 -0.14373503119E+02  0.12538868452E+04  0.25500000920E-02 0. -1.
       -2    1    3    3    0  502 -0.95411865343E+03 -0.81343912992E+03  0.65573946598E+03  0.14149275141E+04  0.25500000920E-02 0.  1.
</event>
<event>
 5   0  0.1214844E-06  0.2178170E+04  0.7818609E-02  0.8527570E-01
        2   -1    0    0  501    0  0.00000000000E+00  0.00000000000E+00  0.13979898832E+04  0.13979898832E+04  0.25500000920E-02 0.  1.
       -2   -1    0    0    0  501  0.00000000000E+00  0.00000000000E+00 -0.84843651498E+03  0.84843651498E+03  0.25500000920E-02 0. -1.
    10030    2    1    2    0    0  0.00000000000E+00  0.00000000000E+00  0.54955336826E+03  0.22464263982E+04  0.21781695660E+04 0.  0.
        4    1    3    3  502    0  0.13942382859E+03  0.77638517136E+03  0.10492351535E+04  0.13126724490E+04  0.12699999809E+01 0.  1.
       -4    1    3    3    0  502 -0.13942382859E+03 -0.77638517136E+03 -0.49968178519E+03  0.93375394920E+03  0.12699999809E+01 0. -1.
</event>
<event>
 5   0  0.4795023E-07  0.3363275E+04  0.7818609E-02  0.8146979E-01
        1   -1    0    0  501    0  0.00000000000E+00  0.00000000000E+00  0.24600209573E+04  0.24600209573E+04  0.50400001928E-02 0. -1.
       -1   -1    0    0    0  501  0.00000000000E+00  0.00000000000E+00 -0.11495451924E+04  0.11495451924E+04  0.50400001928E-02 0.  1.
    10030    2    1    2    0    0  0.00000000000E+00  0.00000000000E+00  0.13104757649E+04  0.36095661498E+04  0.33632753469E+04 0.  0.
        3    1    3    3  502    0 -0.12383687086E+04  0.77295624516E+03 -0.24069136191E+03  0.14795103099E+04  0.10100000352E+00 0.  1.
       -3    1    3    3    0  502  0.12383687086E+04 -0.77295624516E+03  0.15511671268E+04  0.21300558398E+04  0.10100000352E+00 0. -1.
</event>
<event>
 5   0  0.1341932E-06  0.2844899E+04  0.7818609E-02  0.8289463E-01
        2   -1    0    0  501    0  0.00000000000E+00  0.00000000000E+00  0.13362133793E+04  0.13362133793E+04  0.25500000920E-02 0. -1.
       -2   -1    0    0    0  501  0.00000000000E+00  0.00000000000E+00 -0.15142513388E+04  0.15142513388E+04  0.25500000920E-02 0.  1.
    10030    2    1    2    0    0  0.00000000000E+00  0.00000000000E+00 -0.17803795951E+03  0.28504647181E+04  0.28448992238E+04 0.  0.
        2    1    3    3  502    0 -0.19017290892E+03 -0.12559178357E+04  0.55244245689E+03  0.13851671428E+04  0.25500000920E-02 0.  1.
       -2    1    3    3    0  502  0.19017290892E+03  0.12559178357E+04 -0.73048041641E+03  0.14652975753E+04  0.25500000920E-02 0. -1.
</event>
<event>
 5   0  0.5284458E-07  0.2156511E+04  0.7818609E-02  0.8536750E-01
        1   -1    0    0  501    0  0.00000000000E+00  0.00000000000E+00  0.19804510525E+04  0.19804510525E+04  0.50400001928E-02 0. -1.
       -1   -1    0    0    0  501  0.00000000000E+00  0.00000000000E+00 -0.58705552358E+03  0.58705552360E+03  0.50400001928E-02 0.  1.
    10030    2    1    2    0    0  0.00000000000E+00  0.00000000000E+00  0.13933955289E+04  0.25675065761E+04  0.21565108203E+04 0.  0.
        5    1    3    3  502    0  0.74360901965E+03 -0.28171342567E+03  0.15636976126E+04  0.17542773845E+04  0.46999998093E+01 0. -1.
       -5    1    3    3    0  502 -0.74360901965E+03  0.28171342567E+03 -0.17030208367E+03  0.81322919156E+03  0.46999998093E+01 0.  1.
</event>
<event>
 5   0  0.1184616E-06  0.3728873E+04  0.7818609E-02  0.8061593E-01
        2   -1    0    0  501    0  0.00000000000E+00  0.00000000000E+00  0.14497660697E+04  0.14497660697E+04  0.25500000920E-02 0. -1.
       -2   -1    0    0    0  501  0.00000000000E+00  0.00000000000E+00 -0.23977132936E+04  0.23977132936E+04  0.25500000920E-02 0.  1.
    10030    2    1    2    0    0  0.00000000000E+00  0.00000000000E+00 -0.94794722386E+03  0.38474793633E+04  0.37288729546E+04 0.  0.
        5    1    3    3  502    0  0.12503700178E+04 -0.22024548858E+03  0.93480010388E+03  0.15766440882E+04  0.46999998093E+01 0. -1.
       -5    1    3    3    0  502 -0.12503700178E+04  0.22024548858E+03 -0.18827473277E+04  0.22708352751E+04  0.46999998093E+01 0.  1.
</event>
<event>
 5   0  0.1337854E-06  0.3817431E+04  0.7818609E-02  0.8042425E-01
       -2   -1    0    0    0  501  0.00000000000E+00  0.00000000000E+00  0.12737694959E+04  0.12737694959E+04  0.25500000920E-02 0.  1.
        2   -1    0    0  501    0  0.00000000000E+00  0.00000000000E+00 -0.28601676722E+04  0.28601676722E+04  0.25500000920E-02 0. -1.
    10030    2    1    2    0    0  0.00000000000E+00  0.00000000000E+00 -0.15863981762E+04  0.41339371681E+04  0.38174307245E+04 0.  0.
        3    1    3    3  502    0  0.68223268919E+03  0.11325227598E+04 -0.22839803938E+04  0.26390558337E+04  0.10100000352E+00 0. -1.
       -3    1    3    3    0  502 -0.68223268919E+03 -0.11325227598E+04  0.69758221755E+03  0.14948813345E+04  0.10100000352E+00 0.  1.
</event>
<event>
 5   0  0.4795023E-07  0.3651946E+04  0.7818609E-02  0.8078695E-01
       -1   -1    0    0    0  501  0.00000000000E+00  0.00000000000E+00  0.19625954682E+04  0.19625954682E+04  0.50400001928E-02 0.  1.
        1   -1    0    0  501    0  0.00000000000E+00  0.00000000000E+00 -0.16988614961E+04  0.16988614961E+04  0.50400001928E-02 0. -1.
    10030    2    1    2    0    0  0.00000000000E+00  0.00000000000E+00  0.26373397208E+03  0.36614569643E+04  0.36519462610E+04 0.  0.
        3    1    3    3  502    0 -0.12532697420E+04  0.98035404630E+03 -0.76623298088E+03  0.17660385312E+04  0.10100000352E+00 0. -1.
       -3    1    3    3    0  502  0.12532697420E+04 -0.98035404630E+03  0.10299669530E+04  0.18954184331E+04  0.10100000352E+00 0.  1.
</event>
<event>
 5   0  0.4255250E-07  0.3730871E+04  0.7818609E-02  0.8061155E-01
       -3   -1    0    0    0  501  0.00000000000E+00  0.00000000000E+00  0.22596238285E+04  0.22596238307E+04  0.10100000352E+00 0. -1.
        3   -1    0    0  501    0  0.00000000000E+00  0.00000000000E+00 -0.15400126901E+04  0.15400126934E+04  0.10100000352E+00 0.  1.
    10030    2    1    2    0    0  0.00000000000E+00  0.00000000000E+00  0.71961113841E+03  0.37996365241E+04  0.37308708802E+04 0.  0.
        5    1    3    3  502    0 -0.39507797708E+03  0.15117340807E+04 -0.67799602085E+03  0.17032695714E+04  0.46999998093E+01 0.  1.
       -5    1    3    3    0  502  0.39507797708E+03 -0.15117340807E+04  0.13976071593E+04  0.20963669527E+04  0.46999998093E+01 0. -1.
</event>
<event>
 5   0  0.1337854E-06  0.3812597E+04  0.7818609E-02  0.8043457E-01
        2   -1    0    0  501    0  0.00000000000E+00  0.00000000000E+00  0.18118146400E+04  0.18118146400E+04  0.25500000920E-02 0. -1.
       -2   -1    0    0    0  501  0.00000000000E+00  0.00000000000E+00 -0.20057096568E+04  0.20057096568E+04  0.25500000920E-02 0.  1.
    10030    2    1    2    0    0  0.00000000000E+00  0.00000000000E+00 -0.19389501685E+03  0.38175242969E+04  0.38125970780E+04 0.  0.
        3    1    3    3  502    0  0.25727076648E+03 -0.54549651218E+03  0.17137643491E+04  0.18167946902E+04  0.10100000352E+00 0. -1.
       -3    1    3    3    0  502 -0.25727076648E+03  0.54549651218E+03 -0.19076593659E+04  0.20007296066E+04  0.10100000352E+00 0.  1.
</event>
<event>
 5   0  0.1184616E-06  0.3755632E+04  0.7818609E-02  0.8055744E-01
        2   -1    0    0  501    0  0.00000000000E+00  0.00000000000E+00  0.12783265733E+04  0.12783265733E+04  0.25500000920E-02 0. -1.
       -2   -1    0    0    0  501  0.00000000000E+00  0.00000000000E+00 -0.27584451708E+04  0.27584451708E+04  0.25500000920E-02 0.  1.
    10030    2    1    2    0    0  0.00000000000E+00  0.00000000000E+00 -0.14801185975E+04  0.40367717441E+04  0.37556324435E+04 0.  0.
        5    1    3    3  502    0 -0.14159818206E+03  0.25894908924E+03  0.12532350220E+04  0.12875266158E+04  0.46999998093E+01 0. -1.
       -5    1    3    3    0  502  0.14159818206E+03 -0.25894908924E+03 -0.27333536195E+04  0.27492451283E+04  0.46999998093E+01 0.  1.
</event>
<event>
 5   0  0.1184616E-06  0.1943438E+04  0.7818609E-02  0.8633532E-01
       -2   -1    0    0    0  501  0.00000000000E+00  0.00000000000E+00  0.39893073262E+03  0.39893073263E+03  0.25500000920E-02 0. -1.
        2   -1    0    0  501    0  0.00000000000E+00  0.00000000000E+00 -0.23669207373E+04  0.23669207373E+04  0.25500000920E-02 0.  1.
    10030    2    1    2    0    0  0.00000000000E+00  0.00000000000E+00 -0.19679900047E+04  0.27658514699E+04  0.19434375974E+04 0.  0.
        5    1    3    3  502    0 -0.59496912886E+03  0.72150304470E+03 -0.13596172585E+04  0.16501927425E+04  0.46999998093E+01 0.  1.
       -5    1    3    3    0  502  0.59496912886E+03 -0.72150304470E+03 -0.60837274623E+03  0.11156587275E+04  0.46999998093E+01 0. -1.
</event>
<event>
 5   0  0.8030324E-07  0.3846457E+04  0.7818609E-02  0.8036258E-01
        1   -1    0    0  501    0  0.00000000000E+00  0.00000000000E+00  0.30248790173E+04  0.30248790173E+04  0.50400001928E-02 0. -1.
       -1   -1    0    0    0  501  0.00000000000E+00  0.00000000000E+00 -0.12227951425E+04  0.12227951425E+04  0.50400001928E-02 0.  1.
    10030    2    1    2    0    0  0.00000000000E+00  0.00000000000E+00  0.18020838748E+04  0.42476741598E+04  0.38464567430E+04 0.  0.
        1    1    3    3  502    0 -0.16575704897E+04 -0.84416308661E+03  0.14405235326E+04  0.23527131770E+04  0.50400001928E-02 0. -1.
       -1    1    3    3    0  502  0.16575704897E+04  0.84416308661E+03  0.36156034226E+03  0.18949609828E+04  0.50400001928E-02 0.  1.
</event>
<event>
 5   0  0.1079205E-06  0.3490318E+04  0.7818609E-02  0.8116088E-01
        1   -1    0    0  501    0  0.00000000000E+00  0.00000000000E+00  0.22172669577E+04  0.22172669577E+04  0.50400001928E-02 0. -1.
       -1   -1    0    0    0  501  0.00000000000E+00  0.00000000000E+00 -0.13735741652E+04  0.13735741653E+04  0.50400001928E-02 0.  1.
    10030    2    1    2    0    0  0.00000000000E+00  0.00000000000E+00  0.84369279246E+03  0.35908411230E+04  0.34903183870E+04 0.  0.
        4    1    3    3  502    0  0.20567357614E+03  0.17204362958E+04  0.20757828252E+03  0.17450767961E+04  0.12699999809E+01 0.  1.
       -4    1    3    3    0  502 -0.20567357614E+03 -0.17204362958E+04  0.63611450994E+03  0.18457643269E+04  0.12699999809E+01 0. -1.
</event>
<event>
 5   0  0.5284458E-07  0.3288105E+04  0.7818609E-02  0.8165929E-01
       -1   -1    0    0    0  501  0.00000000000E+00  0.00000000000E+00  0.16279480523E+04  0.16279480523E+04  0.50400001928E-02 0.  1.
        1   -1    0    0  501    0  0.00000000000E+00  0.00000000000E+00 -0.16603164546E+04  0.16603164546E+04  0.50400001928E-02 0. -1.
    10030    2    1    2    0    0  0.00000000000E+00  0.00000000000E+00 -0.32368402303E+02  0.32882645069E+04  0.32881051921E+04 0.  0.
        5    1    3    3  502    0 -0.10506235150E+03 -0.25690409028E+03 -0.16367098875E+04  0.16600840807E+04  0.46999998093E+01 0. -1.
       -5    1    3    3    0  502  0.10506235150E+03  0.25690409028E+03  0.16043414852E+04  0.16281804262E+04  0.46999998093E+01 0.  1.
</event>
<event>
 5   0  0.8030324E-07  0.3781305E+04  0.7818609E-02  0.8050179E-01
        1   -1    0    0  501    0  0.00000000000E+00  0.00000000000E+00  0.19423020672E+04  0.19423020672E+04  0.50400001928E-02 0.  1.
       -1   -1    0    0    0  501  0.00000000000E+00  0.00000000000E+00 -0.18403759227E+04  0.18403759227E+04  0.50400001928E-02 0. -1.
    10030    2    1    2    0    0  0.00000000000E+00  0.00000000000E+00  0.10192614451E+03  0.37826779899E+04  0.37813045152E+04 0.  0.
        1    1    3    3  502    0 -0.18645216803E+04 -0.24980267403E+03  0.24003830349E+03  0.18964337213E+04  0.50400001928E-02 0. -1.
       -1    1    3    3    0  502  0.18645216803E+04  0.24980267403E+03 -0.13811215898E+03  0.18862442686E+04  0.50400001928E-02 0.  1.
</event>
<event>
 5   0  0.1337854E-06  0.1946197E+04  0.7818609E-02  0.8632197E-01
       -2   -1    0    0    0  501  0.00000000000E+00  0.00000000000E+00  0.11846053515E+04  0.11846053515E+04  0.25500000920E-02 0.  1.
        2   -1    0    0  501    0  0.00000000000E+00  0.00000000000E+00 -0.79935518707E+03  0.79935518707E+03  0.25500000920E-02 0. -1.
    10030    2    1    2    0    0  0.00000000000E+00  0.00000000000E+00  0.38525016448E+03  0.19839605386E+04  0.19461967345E+04 0.  0.
        3    1    3    3  502    0  0.44270445071E+03  0.85807631036E+03  0.31596131502E+03  0.10159299916E+04  0.10100000352E+00 0.  1.
       -3    1    3    3    0  502 -0.44270445071E+03 -0.85807631036E+03  0.69288849456E+02  0.96803054700E+03  0.10100000352E+00 0. -1.
</event>
<event>
 5   0  0.1184616E-06  0.3757168E+04  0.7818609E-02  0.8055409E-01
       -2   -1    0    0    0  501  0.00000000000E+00  0.00000000000E+00  0.14135034539E+04  0.14135034539E+04  0.25500000920E-02 0.  1.
        2   -1    0    0  501    0  0.00000000000E+00  0.00000000000E+00 -0.24966888293E+04  0.24966888293E+04  0.25500000920E-02 0. -1.
    10030    2    1    2    0    0  0.00000000000E+00  0.00000000000E+00 -0.10831853755E+04  0.39101922832E+04  0.37571682334E+04 0.  0.
        5    1    3    3  502    0  0.81723325199E+03  0.16300644789E+04 -0.71446167342E+02  0.18248580872E+04  0.46999998093E+01 0.  1.
       -5    1    3    3    0  502 -0.81723325199E+03 -0.16300644789E+04 -0.10117392081E+04  0.20853341960E+04  0.46999998093E+01 0. -1.
</event>
<event>
 5   0  0.1184616E-06  0.3691021E+04  0.7818609E-02  0.8069955E-01
        2   -1    0    0  501    0  0.00000000000E+00  0.00000000000E+00  0.10150283314E+04  0.10150283314E+04  0.25500000920E-02 0. -1.
       -2   -1    0    0    0  501  0.00000000000E+00  0.00000000000E+00 -0.33554808127E+04  0.33554808127E+04  0.25500000920E-02 0.  1.
    10030    2    1    2    0    0  0.00000000000E+00  0.00000000000E+00 -0.23404524812E+04  0.43705091441E+04  0.36910205041E+04 0.  0.
        5    1    3    3  502    0  0.50346540736E+03 -0.14818088123E+04 -0.12082692586E+02  0.15650568213E+04  0.46999998093E+01 0. -1.
       -5    1    3    3    0  502 -0.50346540736E+03  0.14818088123E+04 -0.23283697886E+04  0.28054523227E+04  0.46999998093E+01 0.  1.
</event>
<event>
 5   0  0.4795023E-07  0.3793174E+04  0.7818609E-02  0.8047621E-01
        1   -1    0    0  501    0  0.00000000000E+00  0.00000000000E+00  0.11719553267E+04  0.11719553267E+04  0.50400001928E-02 0. -1.
       -1   -1    0    0    0  501  0.00000000000E+00  0.00000000000E+00 -0.30692662953E+04  0.30692662953E+04  0.50400001928E-02 0.  1.
    10030    2    1    2    0    0  0.00000000000E+00  0.00000000000E+00 -0.18973109686E+04  0.42412216220E+04  0.37931743877E+04 0.  0.
        3    1    3    3  502    0  0.17125608790E+04  0.20410958138E+03 -0.18308491509E+04  0.25152602468E+04  0.10100000352E+00 0.  1.
       -3    1    3    3    0  502 -0.17125608790E+04 -0.20410958138E+03 -0.66461817614E+02  0.17259613752E+04  0.10100000352E+00 0. -1.
</event>
<event>
 5   0  0.1372748E-06  0.3506856E+04  0.7818609E-02  0.8112167E-01
        2   -1    0    0  501    0  0.00000000000E+00  0.00000000000E+00  0.11208236330E+04  0.11208236330E+04  0.25500000920E-02 0.  1.
       -2   -1    0    0    0  501  0.00000000000E+00  0.00000000000E+00 -0.27430803700E+04  0.27430803700E+04  0.25500000920E-02 0. -1.
    10030    2    1    2    0    0  0.00000000000E+00  0.00000000000E+00 -0.16222567370E+04  0.38639040030E+04  0.35068557461E+04 0.  0.
        1    1    3    3  502    0  0.33908979969E+02  0.16402794523E+04 -0.12938853328E+03  0.16457241243E+04  0.50400001928E-02 0.  1.
       -1    1    3    3    0  502 -0.33908979969E+02 -0.16402794523E+04 -0.14928682037E+04  0.22181798787E+04  0.50400001928E-02 0. -1.
</event>
<event>
 5   0  0.1372748E-06  0.2280078E+04  0.7818609E-02  0.8485818E-01
       -2   -1    0    0    0  501  0.00000000000E+00  0.00000000000E+00  0.10353928974E+04  0.10353928974E+04  0.25500000920E-02 0.  1.
        2   -1    0    0  501    0  0.00000000000E+00  0.00000000000E+00 -0.12552613189E+04  0.12552613189E+04  0.25500000920E-02 0. -1.
    10030    2    1    2    0    0  0.00000000000E+00  0.00000000000E+00 -0.21986842155E+03  0.22906542163E+04  0.22800777653E+04 0.  0.
        1    1    3    3  502    0 -0.94125915635E+03 -0.29733185851E+03 -0.68294262538E+03  0.12003273150E+04  0.50400001928E-02 0. -1.
       -1    1    3    3    0  502  0.94125915635E+03  0.29733185851E+03  0.46307420384E+03  0.10903269013E+04  0.50400001928E-02 0.  1.
</event>
<event>
 5   0  0.5284458E-07  0.3930483E+04  0.7818609E-02  0.8018719E-01
       -1   -1    0    0    0  501  0.00000000000E+00  0.00000000000E+00  0.16904382697E+04  0.16904382697E+04  0.50400001928E-02 0.  1.
        1   -1    0    0  501    0  0.00000000000E+00  0.00000000000E+00 -0.22847172175E+04  0.22847172175E+04  0.50400001928E-02 0. -1.
    10030    2    1    2    0    0  0.00000000000E+00  0.00000000000E+00 -0.59427894780E+03  0.39751554872E+04  0.39304826268E+04 0.  0.
        5    1    3    3  502    0 -0.19420359527E+04  0.30106064419E+03 -0.29391307505E+03  0.19870954025E+04  0.46999998093E+01 0. -1.
       -5    1    3    3    0  502  0.19420359527E+04 -0.30106064419E+03 -0.30036587275E+03  0.19880600847E+04  0.46999998093E+01 0.  1.
</event>
<event>
 5   0  0.1560415E-06  0.1881857E+04  0.7818609E-02  0.8663941E-01
       -2   -1    0    0    0  501  0.00000000000E+00  0.00000000000E+00  0.39811529881E+03  0.39811529882E+03  0.25500000920E-02 0.  1.
        2   -1    0    0  501    0  0.00000000000E+00  0.00000000000E+00 -0.22238431685E+04  0.22238431685E+04  0.25500000920E-02 0. -1.
    10030    2    1    2    0    0  0.00000000000E+00  0.00000000000E+00 -0.18257278697E+04  0.26219584673E+04  0.18818565169E+04 0.  0.
        4    1    3    3  502    0  0.22648778313E+03  0.28279332199E+03  0.29702845109E+03  0.46850431431E+03  0.12699999809E+01 0.  1.
       -4    1    3    3    0  502 -0.22648778313E+03 -0.28279332199E+03 -0.21227563208E+04  0.21534541530E+04  0.12699999809E+01 0. -1.
</event>
<event>
 5   0  0.4255250E-07  0.2955487E+04  0.7818609E-02  0.8256557E-01
        1   -1    0    0  501    0  0.00000000000E+00  0.00000000000E+00  0.18228993120E+04  0.18228993120E+04  0.50400001928E-02 0. -1.
       -1   -1    0    0    0  501  0.00000000000E+00  0.00000000000E+00 -0.11979411798E+04  0.11979411798E+04  0.50400001928E-02 0.  1.
    10030    2    1    2    0    0  0.00000000000E+00  0.00000000000E+00  0.62495813221E+03  0.30208404918E+04  0.29554872034E+04 0.  0.
        2    1    3    3  502    0  0.12475671662E+04  0.78848353954E+03  0.38893982031E+03  0.15262386151E+04  0.25500000920E-02 0.  1.
       -2    1    3    3    0  502 -0.12475671662E+04 -0.78848353954E+03  0.23601831190E+03  0.14946018767E+04  0.25500000920E-02 0. -1.
</event>
<event>
 5   0  0.1341932E-06  0.2281420E+04  0.7818609E-02  0.8485283E-01
        2   -1    0    0  501    0  0.00000000000E+00  0.00000000000E+00  0.16948688630E+04  0.16948688630E+04  0.25500000920E-02 0.  1.
       -2   -1    0    0    0  501  0.00000000000E+00  0.00000000000E+00 -0.76774026250E+03  0.76774026250E+03  0.25500000920E-02 0. -1.
    10030    2    1    2    0    0  0.00000000000E+00  0.00000000000E+00  0.92712860048E+03  0.24626091255E+04  0.22814197911E+04 0.  0.
        2    1    3    3  502    0  0.59756347963E+03  0.24270474791E+03  0.14791549058E+04  0.16136563891E+04  0.25500000920E-02 0.  1.
       -2    1    3    3    0  502 -0.59756347963E+03 -0.24270474791E+03 -0.55202630530E+03  0.84895273637E+03  0.25500000920E-02 0. -1.
</event>
<event>
 5   0  0.4795023E-07  0.3534204E+04  0.7818609E-02  0.8105732E-01
       -1   -1    0    0    0  501  0.00000000000E+00  0.00000000000E+00  0.25454323612E+04  0.25454323612E+04  0.50400001928E-02 0. -1.
        1   -1    0    0  501    0  0.00000000000E+00  0.00000000000E+00 -0.12267655414E+04  0.12267655414E+04  0.50400001928E-02 0.  1.
    10030    2    1    2    0    0  0.00000000000E+00  0.00000000000E+00  0.13186668197E+04  0.37721979026E+04  0.35342035644E+04 0.  0.
        3    1    3    3  502    0  0.52542156254E+03 -0.24999417343E+03  0.24402519692E+04  0.25086639051E+04  0.10100000352E+00 0. -1.
       -3    1    3    3    0  502 -0.52542156254E+03  0.24999417343E+03 -0.11215851495E+04  0.12635339975E+04  0.10100000352E+00 0.  1.
</event>
<event>
 5   0  0.1341932E-06  0.3789831E+04  0.7818609E-02  0.8048341E-01
       -2   -1    0    0    0  501  0.00000000000E+00  0.00000000000E+00  0.15264418647E+04  0.15264418647E+04  0.25500000920E-02 0.  1.
        2   -1    0    0  501    0  0.00000000000E+00  0.00000000000E+00 -0.23523360406E+04  0.23523360406E+04  0.25500000920E-02 0. -1.
    10030    2    1    2    0    0  0.00000000000E+00  0.00000000000E+00 -0.82589417593E+03  0.38787779053E+04  0.37898307150E+04 0.  0.
        2    1    3    3  502    0 -0.14674046143E+04 -0.21497885569E+03  0.79423215590E+03  0.16823486345E+04  0.25500000920E-02 0.  1.
       -2    1    3    3    0  502  0.14674046143E+04  0.21497885569E+03 -0.16201263318E+04  0.21964292708E+04  0.25500000920E-02 0. -1.
</event>
<event>
 5   0  0.1184616E-06  0.2187625E+04  0.7818609E-02  0.8523596E-01
       -2   -1    0    0    0  501  0.00000000000E+00  0.00000000000E+00  0.10361141297E+04  0.10361141297E+04  0.25500000920E-02 0. -1.
        2   -1    0    0  501    0  0.00000000000E+00  0.00000000000E+00 -0.11547244029E+04  0.11547244029E+04  0.25500000920E-02 0.  1.
    10030    2    1    2    0    0  0.00000000000E+00  0.00000000000E+00 -0.11861027322E+03  0.21908385326E+04  0.21876254431E+04 0.  0.
        5    1    3    3  502    0  0.43619037186E+03  0.85827240588E+03 -0.57921175231E+03  0.11235666011E+04  0.46999998093E+01 0.  1.
       -5    1    3    3    0  502 -0.43619037186E+03 -0.85827240588E+03  0.46060147908E+03  0.10672719315E+04  0.46999998093E+01 0. -1.
</event>
<event>
 5   0  0.1184616E-06  0.2284492E+04  0.7818609E-02  0.8484061E-01
        2   -1    0    0  501    0  0.00000000000E+00  0.00000000000E+00  0.12843427576E+04  0.12843427576E+04  0.25500000920E-02 0.  1.
       -2   -1    0    0    0  501  0.00000000000E+00  0.00000000000E+00 -0.10158702863E+04  0.10158702864E+04  0.25500000920E-02 0. -1.
    10030    2    1    2    0    0  0.00000000000E+00  0.00000000000E+00  0.26847247124E+03  0.23002130439E+04  0.22844917552E+04 0.  0.
        5    1    3    3  502    0  0.52915747849E+03  0.75759512056E+03  0.81023233714E+03  0.12290063197E+04  0.46999998093E+01 0.  1.
       -5    1    3    3    0  502 -0.52915747849E+03 -0.75759512056E+03 -0.54175986590E+03  0.10712067242E+04  0.46999998093E+01 0. -1.
</event>
<event>
 5   0  0.1184616E-06  0.3724833E+04  0.7818609E-02  0.8062481E-01
        2   -1    0    0  501    0  0.00000000000E+00  0.00000000000E+00  0.14705637966E+04  0.14705637966E+04  0.25500000920E-02 0.  1.
       -2   -1    0    0    0  501  0.00000000000E+00  0.00000000000E+00 -0.23586845608E+04  0.23586845608E+04  0.25500000920E-02 0. -1.
    10030    2    1    2    0    0  0.00000000000E+00  0.00000000000E+00 -0.88812076417E+03  0.38292483574E+04  0.37248334850E+04 0.  0.
        5    1    3    3  502    0 -0.40759183557E+03  0.34740343369E+02  0.14238023651E+04  0.14814092144E+04  0.46999998093E+01 0.  1.
       -5    1    3    3    0  502  0.40759183557E+03 -0.34740343369E+02 -0.23119231292E+04  0.23478391430E+04  0.46999998093E+01 0. -1.
</event>
<event>
 5   0  0.4795023E-07  0.2064442E+04  0.7818609E-02  0.8577071E-01
       -1   -1    0    0    0  501  0.00000000000E+00  0.00000000000E+00  0.49171625999E+03  0.49171626001E+03  0.50400001928E-02 0. -1.
        1   -1    0    0  501    0  0.00000000000E+00  0.00000000000E+00 -0.21668593024E+04  0.21668593024E+04  0.50400001928E-02 0.  1.
    10030    2    1    2    0    0  0.00000000000E+00  0.00000000000E+00 -0.16751430424E+04  0.26585755624E+04  0.20644417668E+04 0.  0.
        3    1    3    3  502    0 -0.26395129831E+02  0.22980300759E+03  0.45790936428E+03  0.51301766176E+03  0.10100000352E+00 0. -1.
       -3    1    3    3    0  502  0.26395129831E+02 -0.22980300759E+03 -0.21330524067E+04  0.21455579006E+04  0.10100000352E+00 0.  1.
</event>
<event>
 5   0  0.5284458E-07  0.3902381E+04  0.7818609E-02  0.8024534E-01
        1   -1    0    0  501    0  0.00000000000E+00  0.00000000000E+00  0.17305872795E+04  0.17305872795E+04  0.50400001928E-02 0. -1.
       -1   -1    0    0    0  501  0.00000000000E+00  0.00000000000E+00 -0.21999152203E+04  0.21999152203E+04  0.50400001928E-02 0.  1.
    10030    2    1    2    0    0  0.00000000000E+00  0.00000000000E+00 -0.46932794080E+03  0.39305024998E+04  0.39023814761E+04 0.  0.
        5    1    3    3  502    0  0.18574365991E+03 -0.14553435969E+04 -0.15302448772E+04  0.21199521614E+04  0.46999998093E+01 0.  1.
       -5    1    3    3    0  502 -0.18574365991E+03  0.14553435969E+04  0.10609169364E+04  0.18105503385E+04  0.46999998093E+01 0. -1.
</event>
<event>
 5   0  0.4255250E-07  0.3879253E+04  0.7818609E-02  0.8029358E-01
        3   -1    0    0  501    0  0.00000000000E+00  0.00000000000E+00  0.15192178311E+04  0.15192178344E+04  0.10100000352E+00 0.  1.
       -3   -1    0    0    0  501  0.00000000000E+00  0.00000000000E+00 -0.24763742018E+04  0.24763742038E+04  0.10100000352E+00 0. -1.
    10030    2    1    2    0    0  0.00000000000E+00  0.00000000000E+00 -0.95715637067E+03  0.39955920383E+04  0.38792534615E+04 0.  0.
        4    1    3    3  502    0 -0.25958515234E+02 -0.43744416411E+03  0.14675629346E+04  0.15315919239E+04  0.12699999809E+01 0.  1.
       -4    1    3    3    0  502  0.25958515234E+02  0.43744416411E+03 -0.24247193053E+04  0.24640001144E+04  0.12699999809E+01 0. -1.
</event>
<event>
 5   0  0.1372748E-06  0.2976861E+04  0.7818609E-02  0.8250369E-01
       -2   -1    0    0    0  501  0.00000000000E+00  0.00000000000E+00  0.19105719912E+04  0.19105719912E+04  0.25500000920E-02 0. -1.
        2   -1    0    0  501    0  0.00000000000E+00  0.00000000000E+00 -0.11595613489E+04  0.11595613489E+04  0.25500000920E-02 0.  1.
    10030    2    1    2    0    0  0.00000000000E+00  0.00000000000E+00  0.75101064239E+03  0.30701333401E+04  0.29768610550E+04 0.  0.
        1    1    3    3  502    0 -0.93338597272E+03 -0.37925044731E+03  0.15054546857E+04  0.18114729052E+04  0.50400001928E-02 0. -1.
       -1    1    3    3    0  502  0.93338597272E+03  0.37925044731E+03 -0.75444404326E+03  0.12586604349E+04  0.50400001928E-02 0.  1.
</event>
<event>
 5   0  0.1372748E-06  0.3660293E+04  0.7818609E-02  0.8076819E-01
       -2   -1    0    0    0  501  0.00000000000E+00  0.00000000000E+00  0.19715567750E+04  0.19715567750E+04  0.25500000920E-02 0. -1.
        2   -1    0    0  501    0  0.00000000000E+00  0.00000000000E+00 -0.16988786869E+04  0.16988786869E+04  0.25500000920E-02 0.  1.
    10030    2    1    2    0    0  0.00000000000E+00  0.00000000000E+00  0.27267808809E+03  0.36704354618E+04  0.36602927669E+04 0.  0.
        1    1    3    3  502    0  0.12596747220E+04  0.95645785845E+03 -0.78699676474E+03  0.17666227520E+04  0.50400001928E-02 0.  1.
       -1    1    3    3    0  502 -0.12596747220E+04 -0.95645785845E+03  0.10596748528E+04  0.19038127098E+04  0.50400001928E-02 0. -1.
</event>
<event>
 5   0  0.1337854E-06  0.2036316E+04  0.7818609E-02  0.8589827E-01
       -2   -1    0    0    0  501  0.00000000000E+00  0.00000000000E+00  0.49165211807E+03  0.49165211807E+03  0.25500000920E-02 0.  1.
        2   -1    0    0  501    0  0.00000000000E+00  0.00000000000E+00 -0.21084945574E+04  0.21084945574E+04  0.25500000920E-02 0. -1.
    10030    2    1    2    0    0  0.00000000000E+00  0.00000000000E+00 -0.16168424394E+04  0.26001466755E+04  0.20363161003E+04 0.  0.
        3    1    3    3  502    0  0.15511175411E+03 -0.54121334481E+02 -0.20914594262E+04  0.20979016461E+04  0.10100000352E+00 0. -1.
       -3    1    3    3    0  502 -0.15511175411E+03  0.54121334481E+02  0.47461698686E+03  0.50224502937E+03  0.10100000352E+00 0.  1.
</event>
<event>
 5   0  0.1341932E-06  0.3808002E+04  0.7818609E-02  0.8044440E-01
        2   -1    0    0  501    0  0.00000000000E+00  0.00000000000E+00  0.23143039087E+04  0.23143039087E+04  0.25500000920E-02 0. -1.
       -2   -1    0    0    0  501  0.00000000000E+00  0.00000000000E+00 -0.15664403180E+04  0.15664403180E+04  0.25500000920E-02 0.  1.
    10030    2    1    2    0    0  0.00000000000E+00  0.00000000000E+00  0.74786359070E+03  0.38807442267E+04  0.38080015497E+04 0.  0.
        2    1    3    3  502    0  0.43535626444E+03 -0.57785366205E+03  0.21687589459E+04  0.22862557375E+04  0.25500000920E-02 0. -1.
       -2    1    3    3    0  502 -0.43535626444E+03  0.57785366205E+03 -0.14208953552E+04  0.15944884892E+04  0.25500000920E-02 0.  1.
</event>
<event>
 5   0  0.4255250E-07  0.2056350E+04  0.7818609E-02  0.8580719E-01
        1   -1    0    0  501    0  0.00000000000E+00  0.00000000000E+00  0.87440912025E+03  0.87440912026E+03  0.50400001928E-02 0. -1.
       -1   -1    0    0    0  501  0.00000000000E+00  0.00000000000E+00 -0.12089805496E+04  0.12089805496E+04  0.50400001928E-02 0.  1.
    10030    2    1    2    0    0  0.00000000000E+00  0.00000000000E+00 -0.33457142934E+03  0.20833896699E+04  0.20563497940E+04 0.  0.
        2    1    3    3  502    0 -0.52161247394E+03  0.31428894031E+03  0.67203172069E+03  0.90690889542E+03  0.25500000920E-02 0. -1.
       -2    1    3    3    0  502  0.52161247394E+03 -0.31428894031E+03 -0.10066031500E+04  0.11764807744E+04  0.25500000920E-02 0.  1.
</event>
<event>
 5   0  0.1184616E-06  0.3692737E+04  0.7818609E-02  0.8069573E-01
        2   -1    0    0  501    0  0.00000000000E+00  0.00000000000E+00  0.18597017577E+04  0.18597017577E+04  0.25500000920E-02 0. -1.
       -2   -1    0    0    0  501  0.00000000000E+00  0.00000000000E+00 -0.18331306992E+04  0.18331306992E+04  0.25500000920E-02 0.  1.
    10030    2    1    2    0    0  0.00000000000E+00  0.00000000000E+00  0.26571058538E+02  0.36928324568E+04  0.36927368622E+04 0.  0.
        5    1    3    3  502    0 -0.52591915986E+03 -0.55093984678E+03 -0.16686999296E+04  0.18343138288E+04  0.46999998093E+01 0.  1.
       -5    1    3    3    0  502  0.52591915986E+03  0.55093984678E+03  0.16952709882E+04  0.18585186280E+04  0.46999998093E+01 0. -1.
</event>
<event>
 5   0  0.1184616E-06  0.3051024E+04  0.7818609E-02  0.8229309E-01
       -2   -1    0    0    0  501  0.00000000000E+00  0.00000000000E+00  0.14071421202E+04  0.14071421202E+04  0.25500000920E-02 0.  1.
        2   -1    0    0  501    0  0.00000000000E+00  0.00000000000E+00 -0.16538387426E+04  0.16538387426E+04  0.25500000920E-02 0. -1.
    10030    2    1    2    0    0  0.00000000000E+00  0.00000000000E+00 -0.24669662240E+03  0.30609808627E+04  0.30510235362E+04 0.  0.
        5    1    3    3  502    0 -0.35975401721E+03  0.11443622870E+04  0.82215834362E+03  0.14542882894E+04  0.46999998093E+01 0.  1.
       -5    1    3    3    0  502  0.35975401721E+03 -0.11443622870E+04 -0.10688549660E+04  0.16066925733E+04  0.46999998093E+01 0. -1.
</event>
<event>
 5   0  0.1372748E-06  0.3123209E+04  0.7818609E-02  0.8209397E-01
       -2   -1    0    0    0  501  0.00000000000E+00  0.00000000000E+00  0.15803704140E+04  0.15803704140E+04  0.25500000920E-02 0. -1.
        2   -1    0    0  501    0  0.00000000000E+00  0.00000000000E+00 -0.15430610347E+04  0.15430610347E+04  0.25500000920E-02 0.  1.
    10030    2    1    2    0    0  0.00000000000E+00  0.00000000000E+00  0.37309379324E+02  0.31234314487E+04  0.31232086105E+04 0.  0.
        1    1    3    3  502    0 -0.31267185155E+03  0.15036114102E+04 -0.26420298198E+03  0.15583369903E+04  0.50400001928E-02 0.  1.
       -1    1    3    3    0  502  0.31267185155E+03 -0.15036114102E+04  0.30151236130E+03  0.15650944584E+04  0.50400001928E-02 0. -1.
</event>
<event>
 5   0  0.1214844E-06  0.3788789E+04  0.7818609E-02  0.8048565E-01
       -2   -1    0    0    0  501  0.00000000000E+00  0.00000000000E+00  0.21878043116E+04  0.21878043116E+04  0.25500000920E-02 0.  1.
        2   -1    0    0  501    0  0.00000000000E+00  0.00000000000E+00 -0.16403347089E+04  0.16403347090E+04  0.25500000920E-02 0. -1.
    10030    2    1    2    0    0  0.00000000000E+00  0.00000000000E+00  0.54746960264E+03  0.38281390205E+04  0.37887894366E+04 0.  0.
        4    1    3    3  502    0 -0.86452553921E+03  0.30029801756E+03  0.19496193010E+04  0.21537410102E+04  0.12699999809E+01 0.  1.
       -4    1    3    3    0  502  0.86452553921E+03 -0.30029801756E+03 -0.14021496984E+04  0.16743980103E+04  0.12699999809E+01 0. -1.
</event>
<event>
 5   0  0.4255250E-07  0.2450338E+04  0.7818609E-02  0.8420895E-01
        1   -1    0    0  501    0  0.00000000000E+00  0.00000000000E+00  0.14406174417E+04  0.14406174417E+04  0.50400001928E-02 0. -1.
       -1   -1    0    0    0  501  0.00000000000E+00  0.00000000000E+00 -0.10419414202E+04  0.10419414202E+04  0.50400001928E-02 0.  1.
    10030    2    1    2    0    0  0.00000000000E+00  0.00000000000E+00  0.39867602144E+03  0.24825588619E+04  0.24503379222E+04 0.  0.
        2    1    3    3  502    0  0.76577568134E+03 -0.85665447809E+03 -0.23142299759E+03  0.11721031920E+04  0.25500000920E-02 0.  1.
       -2    1    3    3    0  502 -0.76577568134E+03  0.85665447809E+03  0.63009901904E+03  0.13104556699E+04  0.25500000920E-02 0. -1.
</event>
<event>
 5   0  0.4255250E-07  0.4317386E+04  0.7818609E-02  0.7943411E-01
       -1   -1    0    0    0  501  0.00000000000E+00  0.00000000000E+00  0.16714190128E+04  0.16714190128E+04  0.50400001928E-02 0.  1.
        1   -1    0    0  501    0  0.00000000000E+00  0.00000000000E+00 -0.27880240983E+04  0.27880240983E+04  0.50400001928E-02 0. -1.
    10030    2    1    2    0    0  0.00000000000E+00  0.00000000000E+00 -0.11166050855E+04  0.44594431111E+04  0.43173864715E+04 0.  0.
        2    1    3    3  502    0  0.82255017372E+03  0.11679611870E+04  0.11133533425E+04  0.18111537173E+04  0.25500000920E-02 0.  1.
       -2    1    3    3    0  502 -0.82255017372E+03 -0.11679611870E+04 -0.22299584279E+04  0.26482893937E+04  0.25500000920E-02 0. -1.
</event>
<event>
 5   0  0.1184616E-06  0.3723340E+04  0.7818609E-02  0.8062809E-01
        2   -1    0    0  501    0  0.00000000000E+00  0.00000000000E+00  0.28695857603E+04  0.28695857603E+04  0.25500000920E-02 0.  1.
       -2   -1    0    0    0  501  0.00000000000E+00  0.00000000000E+00 -0.12077751908E+04  0.12077751909E+04  0.25500000920E-02 0. -1.
    10030    2    1    2    0    0  0.00000000000E+00  0.00000000000E+00  0.16618105695E+04  0.40773609512E+04  0.37233396242E+04 0.  0.
        5    1    3    3  502    0 -0.18568503675E+04 -0.98230236870E+02  0.73143995976E+03  0.19981413793E+04  0.46999998093E+01 0. -1.
       -5    1    3    3    0  502  0.18568503675E+04  0.98230236870E+02  0.93037060971E+03  0.20792195719E+04  0.46999998093E+01 0.  1.
</event>
<event>
 5   0  0.1337854E-06  0.3862122E+04  0.7818609E-02  0.8032954E-01
       -2   -1    0    0    0  501  0.00000000000E+00  0.00000000000E+00  0.24584604779E+04  0.24584604779E+04  0.25500000920E-02 0. -1.
        2   -1    0    0  501    0  0.00000000000E+00  0.00000000000E+00 -0.15168013944E+04  0.15168013944E+04  0.25500000920E-02 0.  1.
    10030    2    1    2    0    0  0.00000000000E+00  0.00000000000E+00  0.94165908348E+03  0.39752618723E+04  0.38621218422E+04 0.  0.
        3    1    3    3  502    0  0.15280329629E+04 -0.58123695315E+03  0.15286897996E+04  0.22382166215E+04  0.10100000352E+00 0. -1.
       -3    1    3    3    0  502 -0.15280329629E+04  0.58123695315E+03 -0.58703071614E+03  0.17370452508E+04  0.10100000352E+00 0.  1.
</event>
<event>
 5   0  0.4255250E-07  0.2426750E+04  0.7818609E-02  0.8429556E-01
        1   -1    0    0  501    0  0.00000000000E+00  0.00000000000E+00  0.25889350511E+04  0.25889350511E+04  0.50400001928E-02 0. -1.
       -1   -1    0    0    0  501  0.00000000000E+00  0.00000000000E+00 -0.56868140147E+03  0.56868140150E+03  0.50400001928E-02 0.  1.
    10030    2    1    2    0    0  0.00000000000E+00  0.00000000000E+00  0.20202536496E+04  0.31576164526E+04  0.24267502659E+04 0.  0.
        2    1    3    3  502    0  0.48101793800E+03  0.27899765652E+03  0.24133785547E+04  0.24766134130E+04  0.25500000920E-02 0. -1.
       -2    1    3    3    0  502 -0.48101793800E+03 -0.27899765652E+03 -0.39312490506E+03  0.68100303964E+03  0.25500000920E-02 0.  1.
</event>
<event>
 5   0  0.1214844E-06  0.3744545E+04  0.7818609E-02  0.8058161E-01
        2   -1    0    0  501    0  0.00000000000E+00  0.00000000000E+00  0.96482864177E+03  0.96482864177E+03  0.25500000920E-02 0.  1.
       -2   -1    0    0    0  501  0.00000000000E+00  0.00000000000E+00 -0.36331880161E+04  0.36331880161E+04  0.25500000920E-02 0. -1.
    10030    2    1    2    0    0  0.00000000000E+00  0.00000000000E+00 -0.26683593743E+04  0.45980166579E+04  0.37445447568E+04 0.  0.
        4    1    3    3  502    0  0.46213275745E+03 -0.17174205866E+04 -0.20525961725E+04  0.27159257753E+04  0.12699999809E+01 0.  1.
       -4    1    3    3    0  502 -0.46213275745E+03  0.17174205866E+04 -0.61576320187E+03  0.18820908826E+04  0.12699999809E+01 0. -1.
</event>
<event>
 5   0  0.1079205E-06  0.3201960E+04  0.7818609E-02  0.8188300E-01
        1   -1    0    0  501    0  0.00000000000E+00  0.00000000000E+00  0.13770363826E+04  0.13770363826E+04  0.50400001928E-02 0.  1.
       -1   -1    0    0    0  501  0.00000000000E+00  0.00000000000E+00 -0.18613428012E+04  0.18613428012E+04  0.50400001928E-02 0. -1.
    10030    2    1    2    0    0  0.00000000000E+00  0.00000000000E+00 -0.48430641859E+03  0.32383791839E+04  0.32019598735E+04 0.  0.
        4    1    3    3  502    0 -0.58110279908E+03 -0.20720277996E+03 -0.17362925412E+04  0.18426412718E+04  0.12699999809E+01 0. -1.
       -4    1    3    3    0  502  0.58110279908E+03  0.20720277996E+03  0.12519861226E+04  0.13957379121E+04  0.12699999809E+01 0.  1.
</event>
<event>
 5   0  0.5284458E-07  0.3081817E+04  0.7818609E-02  0.8220746E-01
        1   -1    0    0  501    0  0.00000000000E+00  0.00000000000E+00  0.19446266755E+04  0.19446266755E+04  0.50400001928E-02 0. -1.
       -1   -1    0    0    0  501  0.00000000000E+00  0.00000000000E+00 -0.12210053108E+04  0.12210053108E+04  0.50400001928E-02 0.  1.
    10030    2    1    2    0    0  0.00000000000E+00  0.00000000000E+00  0.72362136473E+03  0.31656319864E+04  0.30818173200E+04 0.  0.
        5    1    3    3  502    0 -0.58910138689E+03  0.11531312129E+04  0.12197659932E+04  0.17789331652E+04  0.46999998093E+01 0. -1.
       -5    1    3    3    0  502  0.58910138689E+03 -0.11531312129E+04 -0.49614462845E+03  0.13866988211E+04  0.46999998093E+01 0.  1.
</event>
<event>
 5   0  0.1372748E-06  0.3590643E+04  0.7818609E-02  0.8092639E-01
        2   -1    0    0  501    0  0.00000000000E+00  0.00000000000E+00  0.12802064755E+04  0.12802064755E+04  0.25500000920E-02 0.  1.
       -2   -1    0    0    0  501  0.00000000000E+00  0.00000000000E+00 -0.25177019916E+04  0.25177019916E+04  0.25500000920E-02 0. -1.
    10030    2    1    2    0    0  0.00000000000E+00  0.00000000000E+00 -0.12374955161E+04  0.37979084671E+04  0.35906425013E+04 0.  0.
        1    1    3    3  502    0 -0.77327546015E+02  0.12734732427E+04 -0.19547769033E+04  0.23342807010E+04  0.50400001928E-02 0. -1.
       -1    1    3    3    0  502  0.77327546015E+02 -0.12734732427E+04  0.71728138724E+03  0.14636277661E+04  0.50400001928E-02 0.  1.
</event>
<event>
 5   0  0.4255250E-07  0.3596028E+04  0.7818609E-02  0.8091402E-01
       -1   -1    0    0    0  501  0.00000000000E+00  0.00000000000E+00  0.17230462291E+04  0.17230462291E+04  0.50400001928E-02 0. -1.
        1   -1    0    0  501    0  0.00000000000E+00  0.00000000000E+00 -0.18762433957E+04  0.18762433957E+04  0.50400001928E-02 0.  1.
    10030    2    1    2    0    0  0.00000000000E+00  0.00000000000E+00 -0.15319716661E+03  0.35992896247E+04  0.35960278685E+04 0.  0.
        2    1    3    3  502    0  0.37443287637E+03 -0.16678542406E+04 -0.63470309559E+03  0.18233995081E+04  0.25500000920E-02 0.  1.
       -2    1    3    3    0  502 -0.37443287637E+03  0.16678542406E+04  0.48150592898E+03  0.17758901166E+04  0.25500000920E-02 0. -1.
</event>
<event>
 5   0  0.1372748E-06  0.2350164E+04  0.7818609E-02  0.8458401E-01
       -2   -1    0    0    0  501  0.00000000000E+00  0.00000000000E+00  0.72512347917E+03  0.72512347918E+03  0.25500000920E-02 0. -1.
        2   -1    0    0  501    0  0.00000000000E+00  0.00000000000E+00 -0.19042522624E+04  0.19042522624E+04  0.25500000920E-02 0.  1.
    10030    2    1    2    0    0  0.00000000000E+00  0.00000000000E+00 -0.11791287833E+04  0.26293757416E+04  0.23501642715E+04 0.  0.
        1    1    3    3  502    0 -0.18716816140E+03 -0.32224797440E+03 -0.18363883827E+04  0.18738190867E+04  0.50400001928E-02 0.  1.
       -1    1    3    3    0  502  0.18716816140E+03  0.32224797440E+03  0.65725959944E+03  0.75555665488E+03  0.50400001928E-02 0. -1.
</event>
<event>
 5   0  0.1337854E-06  0.2762416E+04  0.7818609E-02  0.8315033E-01
       -2   -1    0    0    0  501  0.00000000000E+00  0.00000000000E+00  0.11991895073E+04  0.11991895073E+04  0.25500000920E-02 0.  1.
        2   -1    0    0  501    0  0.00000000000E+00  0.00000000000E+00 -0.15908535443E+04  0.15908535443E+04  0.25500000920E-02 0. -1.
    10030    2    1    2    0    0  0.00000000000E+00  0.00000000000E+00 -0.39166403694E+03  0.27900430516E+04  0.27624155213E+04 0.  0.
        3    1    3    3  502    0  0.91422288176E+03 -0.83027123101E+03 -0.82054947223E+03  0.14827188679E+04  0.10100000352E+00 0. -1.
       -3    1    3    3    0  502 -0.91422288176E+03  0.83027123101E+03  0.42888543529E+03  0.13073241837E+04  0.10100000352E+00 0.  1.
</event>
<event>
 5   0  0.4795023E-07  0.2071940E+04  0.7818609E-02  0.8573706E-01
        1   -1    0    0  501    0  0.00000000000E+00  0.00000000000E+00  0.10946325327E+04  0.10946325327E+04  0.50400001928E-02 0. -1.
       -1   -1    0    0    0  501  0.00000000000E+00  0.00000000000E+00 -0.98045107843E+03  0.98045107845E+03  0.50400001928E-02 0.  1.
    10030    2    1    2    0    0  0.00000000000E+00  0.00000000000E+00  0.11418145427E+03  0.20750836112E+04  0.20719398130E+04 0.  0.
        3    1    3    3  502    0  0.49600612031E+02  0.55974013007E+03 -0.81455414350E+03  0.98957955558E+03  0.10100000352E+00 0.  1.
       -3    1    3    3    0  502 -0.49600612031E+02 -0.55974013007E+03  0.92873559777E+03  0.10855040556E+04  0.10100000352E+00 0. -1.
</event>
<event>
 5   0  0.4795023E-07  0.2039998E+04  0.7818609E-02  0.8588145E-01
        1   -1    0    0  501    0  0.00000000000E+00  0.00000000000E+00  0.21994836452E+04  0.21994836452E+04  0.50400001928E-02 0. -1.
       -1   -1    0    0    0  501  0.00000000000E+00  0.00000000000E+00 -0.47301923135E+03  0.47301923138E+03  0.50400001928E-02 0.  1.
    10030    2    1    2    0    0  0.00000000000E+00  0.00000000000E+00  0.17264644139E+04  0.26725028766E+04  0.20399981012E+04 0.  0.
        3    1    3    3  502    0  0.24988109086E+03  0.18212360381E+03 -0.41014101933E+03  0.51363920467E+03  0.10100000352E+00 0.  1.
       -3    1    3    3    0  502 -0.24988109086E+03 -0.18212360381E+03  0.21366054332E+04  0.21588636719E+04  0.10100000352E+00 0. -1.
</event>
<event>
 5   0  0.1372748E-06  0.2746932E+04  0.7818609E-02  0.8319936E-01
        2   -1    0    0  501    0  0.00000000000E+00  0.00000000000E+00  0.25838560936E+04  0.25838560936E+04  0.25500000920E-02 0.  1.
       -2   -1    0    0    0  501  0.00000000000E+00  0.00000000000E+00 -0.73007529550E+03  0.73007529550E+03  0.25500000920E-02 0. -1.
    10030    2    1    2    0    0  0.00000000000E+00  0.00000000000E+00  0.18537807981E+04  0.33139313891E+04  0.27469324717E+04 0.  0.
        1    1    3    3  502    0  0.45332821234E+03  0.12963767890E+04  0.94814016537E+03  0.16688526059E+04  0.50400001928E-02 0.  1.
       -1    1    3    3    0  502 -0.45332821234E+03 -0.12963767890E+04  0.90564063271E+03  0.16450787831E+04  0.50400001928E-02 0. -1.
</event>
<event>
 5   0  0.4255250E-07  0.3767967E+04  0.7818609E-02  0.8053064E-01
       -1   -1    0    0    0  501  0.00000000000E+00  0.00000000000E+00  0.16680700621E+04  0.16680700621E+04  0.50400001928E-02 0.  1.
        1   -1    0    0  501    0  0.00000000000E+00  0.00000000000E+00 -0.21278449540E+04  0.21278449540E+04  0.50400001928E-02 0. -1.
    10030    2    1    2    0    0  0.00000000000E+00  0.00000000000E+00 -0.45977489194E+03  0.37959150161E+04  0.37679673377E+04 0.  0.
        2    1    3    3  502    0 -0.61190998904E+03 -0.14435584476E+04  0.82241736791E+03  0.17704985607E+04  0.25500000920E-02 0.  1.
       -2    1    3    3    0  502  0.61190998904E+03  0.14435584476E+04 -0.12821922598E+04  0.20254164554E+04  0.25500000920E-02 0. -1.
</event>
<event>
 5   0  0.4795023E-07  0.3003696E+04  0.7818609E-02  0.8242676E-01
        1   -1    0    0  501    0  0.00000000000E+00  0.00000000000E+00  0.10917905832E+04  0.10917905832E+04  0.50400001928E-02 0. -1.
       -1   -1    0    0    0  501  0.00000000000E+00  0.00000000000E+00 -0.20659156484E+04  0.20659156484E+04  0.50400001928E-02 0.  1.
    10030    2    1    2    0    0  0.00000000000E+00  0.00000000000E+00 -0.97412506521E+03  0.31577062315E+04  0.30036958904E+04 0.  0.
        3    1    3    3  502    0  0.14212945536E+03 -0.57328379934E+03 -0.19386929251E+04  0.20266685384E+04  0.10100000352E+00 0.  1.
       -3    1    3    3    0  502 -0.14212945536E+03  0.57328379934E+03  0.96456785990E+03  0.11310376931E+04  0.10100000352E+00 0. -1.
</event>
<event>
 5   0  0.1337854E-06  0.2505080E+04  0.7818609E-02  0.8401178E-01
       -2   -1    0    0    0  501  0.00000000000E+00  0.00000000000E+00  0.85843478562E+03  0.85843478562E+03  0.25500000920E-02 0. -1.
        2   -1    0    0  501    0  0.00000000000E+00  0.00000000000E+00 -0.18275773239E+04  0.18275773239E+04  0.25500000920E-02 0.  1.
    10030    2    1    2    0    0  0.00000000000E+00  0.00000000000E+00 -0.96914253831E+03  0.26860121096E+04  0.25050795982E+04 0.  0.
        3    1    3    3  502    0  0.52310664940E+03 -0.34061595848E+03  0.67976777434E+03  0.92289979686E+03  0.10100000352E+00 0. -1.
       -3    1    3    3    0  502 -0.52310664940E+03  0.34061595848E+03 -0.16489103126E+04  0.17631123127E+04  0.10100000352E+00 0.  1.
</event>
<event>
 5   0  0.8030324E-07  0.3772634E+04  0.7818609E-02  0.8052053E-01
        1   -1    0    0  501    0  0.00000000000E+00  0.00000000000E+00  0.19101964016E+04  0.19101964017E+04  0.50400001928E-02 0.  1.
       -1   -1    0    0    0  501  0.00000000000E+00  0.00000000000E+00 -0.18627364588E+04  0.18627364588E+04  0.50400001928E-02 0. -1.
    10030    2    1    2    0    0  0.00000000000E+00  0.00000000000E+00  0.47459942882E+02  0.37729328604E+04  0.37726343479E+04 0.  0.
        1    1    3    3  502    0 -0.16240528921E+04 -0.79284431571E+03  0.56418236852E+03  0.18932648125E+04  0.50400001928E-02 0.  1.
       -1    1    3    3    0  502  0.16240528921E+04  0.79284431571E+03 -0.51672242564E+03  0.18796680479E+04  0.50400001928E-02 0. -1.
</event>
<event>
 5   0  0.4795023E-07  0.3777086E+04  0.7818609E-02  0.8051090E-01
       -1   -1    0    0    0  501  0.00000000000E+00  0.00000000000E+00  0.30939360663E+04  0.30939360663E+04  0.50400001928E-02 0. -1.
        1   -1    0    0  501    0  0.00000000000E+00  0.00000000000E+00 -0.11527690870E+04  0.11527690870E+04  0.50400001928E-02 0.  1.
    10030    2    1    2    0    0  0.00000000000E+00  0.00000000000E+00  0.19411669793E+04  0.42467051533E+04  0.37770855719E+04 0.  0.
        3    1    3    3  502    0  0.95650101623E+03  0.81524331163E+03  0.25554866881E+04  0.28478111023E+04  0.10100000352E+00 0. -1.
       -3    1    3    3    0  502 -0.95650101623E+03 -0.81524331163E+03 -0.61431970878E+03  0.13988940510E+04  0.10100000352E+00 0.  1.
</event>
<event>
 5   0  0.8030324E-07  0.3756661E+04  0.7818609E-02  0.8055520E-01
       -1   -1    0    0    0  501  0.00000000000E+00  0.00000000000E+00  0.16600369254E+04  0.16600369254E+04  0.50400001928E-02 0.  1.
        1   -1    0    0  501    0  0.00000000000E+00  0.00000000000E+00 -0.21253293267E+04  0.21253293267E+04  0.50400001928E-02 0. -1.
    10030    2    1    2    0    0  0.00000000000E+00  0.00000000000E+00 -0.46529240134E+03  0.37853662521E+04  0.37566608369E+04 0.  0.
        1    1    3    3  502    0  0.26923983259E+02 -0.26383907964E+02  0.16596557321E+04  0.16600837812E+04  0.50400001928E-02 0.  1.
       -1    1    3    3    0  502 -0.26923983259E+02  0.26383907964E+02 -0.21249481334E+04  0.21252824709E+04  0.50400001928E-02 0. -1.
</event>
<event>
 5   0  0.1377327E-06  0.1993655E+04  0.7818609E-02  0.8609593E-01
       -2   -1    0    0    0  501  0.00000000000E+00  0.00000000000E+00  0.75478222842E+03  0.75478222843E+03  0.25500000920E-02 0.  1.
        2   -1    0    0  501    0  0.00000000000E+00  0.00000000000E+00 -0.13164917800E+04  0.13164917800E+04  0.25500000920E-02 0. -1.
    10030    2    1    2    0    0  0.00000000000E+00  0.00000000000E+00 -0.56170955155E+03  0.20712740084E+04  0.19936545332E+04 0.  0.
        2    1    3    3  502    0 -0.46010621926E+03 -0.33588697167E+03  0.56900711733E+03  0.80516264836E+03  0.25500000920E-02 0.  1.
       -2    1    3    3    0  502  0.46010621926E+03  0.33588697167E+03 -0.11307166689E+04  0.12661113600E+04  0.25500000920E-02 0. -1.
</event>
<event>
 5   0  0.1214844E-06  0.2614802E+04  0.7818609E-02  0.8363191E-01
        2   -1    0    0  501    0  0.00000000000E+00  0.00000000000E+00  0.18130761585E+04  0.18130761585E+04  0.25500000920E-02 0. -1.
       -2   -1    0    0    0  501  0.00000000000E+00  0.00000000000E+00 -0.94276106880E+03  0.94276106880E+03  0.25500000920E-02 0.  1.
    10030    2    1    2    0    0  0.00000000000E+00  0.00000000000E+00  0.87031508966E+03  0.27558372273E+04  0.26148021852E+04 0.  0.
        4    1    3    3  502    0 -0.59742488001E+02 -0.89946174899E+03 -0.56285774428E+03  0.10627375292E+04  0.12699999809E+01 0.  1.
       -4    1    3    3    0  502  0.59742488001E+02  0.89946174899E+03  0.14331728339E+04  0.16930996981E+04  0.12699999809E+01 0. -1.
</event>
<event>
 5   0  0.1337854E-06  0.3347168E+04  0.7818609E-02  0.8150996E-01
       -2   -1    0    0    0  501  0.00000000000E+00  0.00000000000E+00  0.19208036851E+04  0.19208036851E+04  0.25500000920E-02 0. -1.
        2   -1    0    0  501    0  0.00000000000E+00  0.00000000000E+00 -0.14581826330E+04  0.14581826330E+04  0.25500000920E-02 0.  1.
    10030    2    1    2    0    0  0.00000000000E+00  0.00000000000E+00  0.46262105211E+03  0.33789863181E+04  0.33471675040E+04 0.  0.
        3    1    3    3  502    0 -0.15586311149E+03 -0.12823379579E+04  0.13054737930E+04  0.18365581347E+04  0.10100000352E+00 0. -1.
       -3    1    3    3    0  502  0.15586311149E+03  0.12823379579E+04 -0.84285274090E+03  0.15424281834E+04  0.10100000352E+00 0.  1.
</event>
<event>
 5   0  0.5284458E-07  0.3800307E+04  0.7818609E-02  0.8046089E-01
       -1   -1    0    0    0  501  0.00000000000E+00  0.00000000000E+00  0.29692919231E+04  0.29692919231E+04  0.50400001928E-02 0. -1.
        1   -1    0    0  501    0  0.00000000000E+00  0.00000000000E+00 -0.12159747205E+04  0.12159747205E+04  0.50400001928E-02 0.  1.
    10030    2    1    2    0    0  0.00000000000E+00  0.00000000000E+00  0.17533172025E+04  0.41852666436E+04  0.38003073120E+04 0.  0.
        5    1    3    3  502    0  0.13783388458E+04  0.11026359272E+04  0.10187618652E+03  0.17680567890E+04  0.46999998093E+01 0. -1.
       -5    1    3    3    0  502 -0.13783388458E+04 -0.11026359272E+04  0.16514410160E+04  0.24172098546E+04  0.46999998093E+01 0.  1.
</event>
<event>
 5   0  0.1184616E-06  0.2762532E+04  0.7818609E-02  0.8314996E-01
       -2   -1    0    0    0  501  0.00000000000E+00  0.00000000000E+00  0.95443346191E+03  0.95443346192E+03  0.25500000920E-02 0.  1.
        2   -1    0    0  501    0  0.00000000000E+00  0.00000000000E+00 -0.19989826306E+04  0.19989826306E+04  0.25500000920E-02 0. -1.
    10030    2    1    2    0    0  0.00000000000E+00  0.00000000000E+00 -0.10445491687E+04  0.29534160925E+04  0.27625321084E+04 0.  0.
        5    1    3    3  502    0  0.54644104757E+03 -0.70677910923E+03  0.60395721252E+03  0.10783881176E+04  0.46999998093E+01 0.  1.
       -5    1    3    3    0  502 -0.54644104757E+03  0.70677910923E+03 -0.16485063812E+04  0.18750279749E+04  0.46999998093E+01 0. -1.
</event>
<event>
 5   0  0.1341932E-06  0.3759549E+04  0.7818609E-02  0.8054892E-01
       -2   -1    0    0    0  501  0.00000000000E+00  0.00000000000E+00  0.15605405042E+04  0.15605405042E+04  0.25500000920E-02 0.  1.
        2   -1    0    0  501    0  0.00000000000E+00  0.00000000000E+00 -0.22643134762E+04  0.22643134762E+04  0.25500000920E-02 0. -1.
    10030    2    1    2    0    0  0.00000000000E+00  0.00000000000E+00 -0.70377297194E+03  0.38248539804E+04  0.37595493846E+04 0.  0.
        2    1    3    3  502    0  0.44286684548E+03 -0.12024554131E+04 -0.17511027988E+04  0.21698827331E+04  0.25500000920E-02 0. -1.
       -2    1    3    3    0  502 -0.44286684548E+03  0.12024554131E+04  0.10473298268E+04  0.16549712473E+04  0.25500000920E-02 0.  1.
</event>
<event>
 5   0  0.5284458E-07  0.2350719E+04  0.7818609E-02  0.8458187E-01
        1   -1    0    0  501    0  0.00000000000E+00  0.00000000000E+00  0.14029832764E+04  0.14029832764E+04  0.50400001928E-02 0.  1.
       -1   -1    0    0    0  501  0.00000000000E+00  0.00000000000E+00 -0.98466637028E+03  0.98466637030E+03  0.50400001928E-02 0. -1.
    10030    2    1    2    0    0  0.00000000000E+00  0.00000000000E+00  0.41831690616E+03  0.23876496467E+04  0.23507194221E+04 0.  0.
        5    1    3    3  502    0 -0.94009241429E+03 -0.62818177434E+03 -0.11691816641E+03  0.11366961057E+04  0.46999998093E+01 0. -1.
       -5    1    3    3    0  502  0.94009241429E+03  0.62818177434E+03  0.53523507256E+03  0.12509535411E+04  0.46999998093E+01 0.  1.
</event>
<event>
 5   0  0.1184616E-06  0.3781482E+04  0.7818609E-02  0.8050140E-01
        2   -1    0    0  501    0  0.00000000000E+00  0.00000000000E+00  0.17647735214E+04  0.17647735214E+04  0.25500000920E-02 0. -1.
       -2   -1    0    0    0  501  0.00000000000E+00  0.00000000000E+00 -0.20257004087E+04  0.20257004087E+04  0.25500000920E-02 0.  1.
    10030    2    1    2    0    0  0.00000000000E+00  0.00000000000E+00 -0.26092688724E+03  0.37904739301E+04  0.37814824837E+04 0.  0.
        5    1    3    3  502    0  0.54491393309E+03  0.84607816873E+03 -0.17349258095E+04  0.20056842016E+04  0.46999998093E+01 0.  1.
       -5    1    3    3    0  502 -0.54491393309E+03 -0.84607816873E+03  0.14739989223E+04  0.17847897285E+04  0.46999998093E+01 0. -1.
</event>
<event>
 5   0  0.1184616E-06  0.3485205E+04  0.7818609E-02  0.8117305E-01
        2   -1    0    0  501    0  0.00000000000E+00  0.00000000000E+00  0.26778174969E+04  0.26778174969E+04  0.25500000920E-02 0. -1.
       -2   -1    0    0    0  501  0.00000000000E+00  0.00000000000E+00 -0.11340072016E+04  0.11340072016E+04  0.25500000920E-02 0.  1.
    10030    2    1    2    0    0  0.00000000000E+00  0.00000000000E+00  0.15438102953E+04  0.38118246985E+04  0.34852054895E+04 0.  0.
        5    1    3    3  502    0  0.31058696484E+03 -0.51188381885E+03 -0.10179678516E+04  0.11810037865E+04  0.46999998093E+01 0.  1.
       -5    1    3    3    0  502 -0.31058696484E+03  0.51188381885E+03  0.25617781470E+04  0.26308209120E+04  0.46999998093E+01 0. -1.
</event>
<event>
 5   0  0.1372748E-06  0.3908798E+04  0.7818609E-02  0.8023202E-01
        2   -1    0    0  501    0  0.00000000000E+00  0.00000000000E+00  0.22227147860E+04  0.22227147860E+04  0.25500000920E-02 0.  1.
       -2   -1    0    0    0  501  0.00000000000E+00  0.00000000000E+00 -0.17184728523E+04  0.17184728523E+04  0.25500000920E-02 0. -1.
    10030    2    1    2    0    0  0.00000000000E+00  0.00000000000E+00  0.50424193370E+03  0.39411876384E+04  0.39087977785E+04 0.  0.
        1    1    3    3  502    0 -0.32126251608E+03  0.99867369355E+02  0.21932993131E+04  0.22189513228E+04  0.50400001928E-02 0.  1.
       -1    1    3    3    0  502  0.32126251608E+03 -0.99867369355E+02 -0.16890573794E+04  0.17222363156E+04  0.50400001928E-02 0. -1.
</event>
<event>
 5   0  0.1214844E-06  0.3771579E+04  0.7818609E-02  0.8052282E-01
        2   -1    0    0  501    0  0.00000000000E+00  0.00000000000E+00  0.14839827623E+04  0.14839827623E+04  0.25500000920E-02 0.  1.
       -2   -1    0    0    0  501  0.00000000000E+00  0.00000000000E+00 -0.23963906930E+04  0.23963906930E+04  0.25500000920E-02 0. -1.
    10030    2    1    2    0    0  0.00000000000E+00  0.00000000000E+00 -0.91240793070E+03  0.38803734553E+04  0.37715792343E+04 0.  0.
        4    1    3    3  502    0 -0.15331088943E+03 -0.14894011263E+04 -0.16357391843E+04  0.22175356222E+04  0.12699999809E+01 0. -1.
       -4    1    3    3    0  502  0.15331088943E+03  0.14894011263E+04  0.72333125362E+03  0.16628378331E+04  0.12699999809E+01 0.  1.
</event>
<event>
 5   0  0.5284458E-07  0.3766396E+04  0.7818609E-02  0.8053405E-01
       -1   -1    0    0    0  501  0.00000000000E+00  0.00000000000E+00  0.13013012525E+04  0.13013012525E+04  0.50400001928E-02 0. -1.
        1   -1    0    0  501    0  0.00000000000E+00  0.00000000000E+00 -0.27252990407E+04  0.27252990407E+04  0.50400001928E-02 0.  1.
    10030    2    1    2    0    0  0.00000000000E+00  0.00000000000E+00 -0.14239977882E+04  0.40266002932E+04  0.37663961847E+04 0.  0.
        5    1    3    3  502    0 -0.10047965104E+04 -0.15826044621E+04 -0.52027735501E+03  0.19454982721E+04  0.46999998093E+01 0. -1.
       -5    1    3    3    0  502  0.10047965104E+04  0.15826044621E+04 -0.90372043318E+03  0.20811020211E+04  0.46999998093E+01 0.  1.
</event>
<event>
 5   0  0.8030324E-07  0.3791840E+04  0.7818609E-02  0.8047908E-01
       -1   -1    0    0    0  501  0.00000000000E+00  0.00000000000E+00  0.22814530585E+04  0.22814530586E+04  0.50400001928E-02 0.  1.
        1   -1    0    0  501    0  0.00000000000E+00  0.00000000000E+00 -0.15755365969E+04  0.15755365969E+04  0.50400001928E-02 0. -1.
    10030    2    1    2    0    0  0.00000000000E+00  0.00000000000E+00  0.70591646164E+03  0.38569896555E+04  0.37918400746E+04 0.  0.
        1    1    3    3  502    0  0.37853233710E+03 -0.10639022927E+04 -0.11961454319E+04  0.16449737727E+04  0.50400001928E-02 0. -1.
       -1    1    3    3    0  502 -0.37853233710E+03  0.10639022927E+04  0.19020618935E+04  0.22120158827E+04  0.50400001928E-02 0.  1.
</event>
<event>
 5   0  0.1372748E-06  0.3966351E+04  0.7818609E-02  0.8011369E-01
        2   -1    0    0  501    0  0.00000000000E+00  0.00000000000E+00  0.25228665507E+04  0.25228665507E+04  0.25500000920E-02 0. -1.
       -2   -1    0    0    0  501  0.00000000000E+00  0.00000000000E+00 -0.15589350566E+04  0.15589350566E+04  0.25500000920E-02 0.  1.
    10030    2    1    2    0    0  0.00000000000E+00  0.00000000000E+00  0.96393149413E+03  0.40818016073E+04  0.39663510228E+04 0.  0.
        1    1    3    3  502    0  0.15143280670E+04  0.76881940949E+03 -0.57190884142E+03  0.17920246934E+04  0.50400001928E-02 0.  1.
       -1    1    3    3    0  502 -0.15143280670E+04 -0.76881940949E+03  0.15358403356E+04  0.22897769139E+04  0.50400001928E-02 0. -1.
</event>
<event>
 5   0  0.4795023E-07  0.3661435E+04  0.7818609E-02  0.8076563E-01
       -1   -1    0    0    0  501  0.00000000000E+00  0.00000000000E+00  0.16332103969E+04  0.16332103969E+04  0.50400001928E-02 0.  1.
        1   -1    0    0  501    0  0.00000000000E+00  0.00000000000E+00 -0.20521090851E+04  0.20521090851E+04  0.50400001928E-02 0. -1.
    10030    2    1    2    0    0  0.00000000000E+00  0.00000000000E+00 -0.41889868822E+03  0.36853194820E+04  0.36614346332E+04 0.  0.
        3    1    3    3  502    0 -0.10478609651E+04 -0.28979210500E+03  0.12730928749E+04  0.16741438243E+04  0.10100000352E+00 0.  1.
       -3    1    3    3    0  502  0.10478609651E+04  0.28979210500E+03 -0.16919915631E+04  0.20111756577E+04  0.10100000352E+00 0. -1.
</event>
<event>
 5   0  0.1214844E-06  0.3888664E+04  0.7818609E-02  0.8027391E-01
        2   -1    0    0  501    0  0.00000000000E+00  0.00000000000E+00  0.22100609229E+04  0.22100609229E+04  0.25500000920E-02 0.  1.
       -2   -1    0    0    0  501  0.00000000000E+00  0.00000000000E+00 -0.17105534668E+04  0.17105534668E+04  0.25500000920E-02 0. -1.
    10030    2    1    2    0    0  0.00000000000E+00  0.00000000000E+00  0.49950745612E+03  0.39206143897E+04  0.38886642300E+04 0.  0.
        4    1    3    3  502    0 -0.57522037826E+03  0.87467091508E+03  0.19016593535E+04  0.21707688967E+04  0.12699999809E+01 0.  1.
       -4    1    3    3    0  502  0.57522037826E+03 -0.87467091508E+03 -0.14021518973E+04  0.17498454930E+04  0.12699999809E+01 0. -1.
</event>
<event>
 5   0  0.1184616E-06  0.1905086E+04  0.7818609E-02  0.8652329E-01
       -2   -1    0    0    0  501  0.00000000000E+00  0.00000000000E+00  0.55956351389E+03  0.55956351390E+03  0.25500000920E-02 0.  1.
        2   -1    0    0  501    0  0.00000000000E+00  0.00000000000E+00 -0.16215106760E+04  0.16215106761E+04  0.25500000920E-02 0. -1.
    10030    2    1    2    0    0  0.00000000000E+00  0.00000000000E+00 -0.10619471622E+04  0.21810741899E+04  0.19050860471E+04 0.  0.
        5    1    3    3  502    0  0.66515108262E+03 -0.67403135299E+03 -0.41325846198E+03  0.10332225675E+04  0.46999998093E+01 0.  1.
       -5    1    3    3    0  502 -0.66515108262E+03  0.67403135299E+03 -0.64868870018E+03  0.11478516225E+04  0.46999998093E+01 0. -1.
</event>
<event>
 5   0  0.1184616E-06  0.2005711E+04  0.7818609E-02  0.8603955E-01
       -2   -1    0    0    0  501  0.00000000000E+00  0.00000000000E+00  0.63865068830E+03  0.63865068831E+03  0.25500000920E-02 0.  1.
        2   -1    0    0  501    0  0.00000000000E+00  0.00000000000E+00 -0.15747569571E+04  0.15747569571E+04  0.25500000920E-02 0. -1.
    10030    2    1    2    0    0  0.00000000000E+00  0.00000000000E+00 -0.93610626881E+03  0.22134076454E+04  0.20057114594E+04 0.  0.
        5    1    3    3  502    0  0.66189075258E+03 -0.13662495360E+02  0.36321668657E+03  0.75513871807E+03  0.46999998093E+01 0.  1.
       -5    1    3    3    0  502 -0.66189075258E+03  0.13662495360E+02 -0.12993229554E+04  0.14582689274E+04  0.46999998093E+01 0. -1.
</event>
<event>
 5   0  0.1079205E-06  0.3648116E+04  0.7818609E-02  0.8079558E-01
        1   -1    0    0  501    0  0.00000000000E+00  0.00000000000E+00  0.28134464067E+04  0.28134464067E+04  0.50400001928E-02 0. -1.
       -1   -1    0    0    0  501  0.00000000000E+00  0.00000000000E+00 -0.11826023480E+04  0.11826023481E+04  0.50400001928E-02 0.  1.
    10030    2    1    2    0    0  0.00000000000E+00  0.00000000000E+00  0.16308440587E+04  0.39960487548E+04  0.36481164053E+04 0.  0.
        4    1    3    3  502    0 -0.49229571263E+03  0.64170151504E+03 -0.97545471899E+03  0.12671422275E+04  0.12699999809E+01 0.  1.
       -4    1    3    3    0  502  0.49229571263E+03 -0.64170151504E+03  0.26062987776E+04  0.27289065272E+04  0.12699999809E+01 0. -1.
</event>
<event>
 5   0  0.1079205E-06  0.3694932E+04  0.7818609E-02  0.8069086E-01
       -1   -1    0    0    0  501  0.00000000000E+00  0.00000000000E+00  0.13099686297E+04  0.13099686297E+04  0.50400001928E-02 0.  1.
        1   -1    0    0  501    0  0.00000000000E+00  0.00000000000E+00 -0.26055054453E+04  0.26055054453E+04  0.50400001928E-02 0. -1.
    10030    2    1    2    0    0  0.00000000000E+00  0.00000000000E+00 -0.12955368156E+04  0.39154740751E+04  0.36949318792E+04 0.  0.
        4    1    3    3  502    0  0.35903037272E+03 -0.37060575599E+03  0.12320583409E+04  0.13357472827E+04  0.12699999809E+01 0.  1.
       -4    1    3    3    0  502 -0.35903037272E+03  0.37060575599E+03 -0.25275951565E+04  0.25797267924E+04  0.12699999809E+01 0. -1.
</event>
<event>
 5   0  0.4795023E-07  0.3828955E+04  0.7818609E-02  0.8039970E-01
        1   -1    0    0  501    0  0.00000000000E+00  0.00000000000E+00  0.13451883044E+04  0.13451883044E+04  0.50400001928E-02 0.  1.
       -1   -1    0    0    0  501  0.00000000000E+00  0.00000000000E+00 -0.27246919239E+04  0.27246919239E+04  0.50400001928E-02 0. -1.
    10030    2    1    2    0    0  0.00000000000E+00  0.00000000000E+00 -0.13795036195E+04  0.40698802283E+04  0.38289547968E+04 0.  0.
        3    1    3    3  502    0 -0.59765672475E+01  0.18767911783E+04 -0.10914784631E+04  0.21711071120E+04  0.10100000352E+00 0.  1.
       -3    1    3    3    0  502  0.59765672475E+01 -0.18767911783E+04 -0.28802515638E+03  0.18987731163E+04  0.10100000352E+00 0. -1.
</event>
<event>
 5   0  0.1184616E-06  0.3025845E+04  0.7818609E-02  0.8236389E-01
        2   -1    0    0  501    0  0.00000000000E+00  0.00000000000E+00  0.23460265227E+04  0.23460265227E+04  0.25500000920E-02 0.  1.
       -2   -1    0    0    0  501  0.00000000000E+00  0.00000000000E+00 -0.97566456349E+03  0.97566456350E+03  0.25500000920E-02 0. -1.
    10030    2    1    2    0    0  0.00000000000E+00  0.00000000000E+00  0.13703619592E+04  0.33216910862E+04  0.30258452989E+04 0.  0.
        5    1    3    3  502    0  0.97214609700E+02 -0.12888758087E+04  0.15483553965E+04  0.20169477074E+04  0.46999998093E+01 0.  1.
       -5    1    3    3    0  502 -0.97214609700E+02  0.12888758087E+04 -0.17799343737E+03  0.13047433787E+04  0.46999998093E+01 0. -1.
</event>
<event>
 5   0  0.1214844E-06  0.1997102E+04  0.7818609E-02  0.8607977E-01
        2   -1    0    0  501    0  0.00000000000E+00  0.00000000000E+00  0.19190400894E+04  0.19190400894E+04  0.25500000920E-02 0. -1.
       -2   -1    0    0    0  501  0.00000000000E+00  0.00000000000E+00 -0.51958462138E+03  0.51958462139E+03  0.25500000920E-02 0.  1.
    10030    2    1    2    0    0  0.00000000000E+00  0.00000000000E+00  0.13994554680E+04  0.24386247108E+04  0.19971016181E+04 0.  0.
        4    1    3    3  502    0  0.44571730101E+03  0.78807909407E+03  0.12139895981E+04  0.15144322131E+04  0.12699999809E+01 0. -1.
       -4    1    3    3    0  502 -0.44571730101E+03 -0.78807909407E+03  0.18546586991E+03  0.92419249766E+03  0.12699999809E+01 0.  1.
</event>
<event>
 5   0  0.1372748E-06  0.3745634E+04  0.7818609E-02  0.8057923E-01
       -2   -1    0    0    0  501  0.00000000000E+00  0.00000000000E+00  0.14374766812E+04  0.14374766813E+04  0.25500000920E-02 0.  1.
        2   -1    0    0  501    0  0.00000000000E+00  0.00000000000E+00 -0.24399997401E+04  0.24399997401E+04  0.25500000920E-02 0. -1.
    10030    2    1    2    0    0  0.00000000000E+00  0.00000000000E+00 -0.10025230588E+04  0.38774764213E+04  0.37456335798E+04 0.  0.
        1    1    3    3  502    0 -0.16780842743E+04  0.65862666104E+03  0.24235151627E+02  0.18028708364E+04  0.50400001928E-02 0. -1.
       -1    1    3    3    0  502  0.16780842743E+04 -0.65862666104E+03 -0.10267582105E+04  0.20746055849E+04  0.50400001928E-02 0.  1.
</event>
<event>
 5   0  0.1372748E-06  0.3700819E+04  0.7818609E-02  0.8067780E-01
        2   -1    0    0  501    0  0.00000000000E+00  0.00000000000E+00  0.15670473329E+04  0.15670473329E+04  0.25500000920E-02 0. -1.
       -2   -1    0    0    0  501  0.00000000000E+00  0.00000000000E+00 -0.21850107331E+04  0.21850107331E+04  0.25500000920E-02 0.  1.
    10030    2    1    2    0    0  0.00000000000E+00  0.00000000000E+00 -0.61796340021E+03  0.37520580661E+04  0.37008189590E+04 0.  0.
        1    1    3    3  502    0 -0.15092124992E+04  0.88456188600E+03  0.30256384709E+03  0.17753075732E+04  0.50400001928E-02 0. -1.
       -1    1    3    3    0  502  0.15092124992E+04 -0.88456188600E+03 -0.92052724729E+03  0.19767504928E+04  0.50400001928E-02 0.  1.
</event>
<event>
 5   0  0.4255250E-07  0.3471970E+04  0.7818609E-02  0.8120465E-01
       -1   -1    0    0    0  501  0.00000000000E+00  0.00000000000E+00  0.15898346358E+04  0.15898346358E+04  0.50400001928E-02 0.  1.
        1   -1    0    0  501    0  0.00000000000E+00  0.00000000000E+00 -0.18955709941E+04  0.18955709941E+04  0.50400001928E-02 0. -1.
    10030    2    1    2    0    0  0.00000000000E+00  0.00000000000E+00 -0.30573635831E+03  0.34854056299E+04  0.34719702885E+04 0.  0.
        2    1    3    3  502    0 -0.82801651165E+03  0.21539586273E+03  0.13634860624E+04  0.16096897103E+04  0.25500000920E-02 0.  1.
       -2    1    3    3    0  502  0.82801651165E+03 -0.21539586273E+03 -0.16692224207E+04  0.18757159196E+04  0.25500000920E-02 0. -1.
</event>
<event>
 5   0  0.1184616E-06  0.1868754E+04  0.7818609E-02  0.8670568E-01
        2   -1    0    0  501    0  0.00000000000E+00  0.00000000000E+00  0.55791952891E+03  0.55791952892E+03  0.25500000920E-02 0.  1.
       -2   -1    0    0    0  501  0.00000000000E+00  0.00000000000E+00 -0.15648496948E+04  0.15648496948E+04  0.25500000920E-02 0. -1.
    10030    2    1    2    0    0  0.00000000000E+00  0.00000000000E+00 -0.10069301659E+04  0.21227692237E+04  0.18687538142E+04 0.  0.
        5    1    3    3  502    0 -0.41597252817E+03 -0.24125086856E+03 -0.14134863839E+04  0.14930508944E+04  0.46999998093E+01 0. -1.
       -5    1    3    3    0  502  0.41597252817E+03  0.24125086856E+03  0.40655621807E+03  0.62971832928E+03  0.46999998093E+01 0.  1.
</event>
<event>
 5   0  0.1079205E-06  0.3817095E+04  0.7818609E-02  0.8042496E-01
       -1   -1    0    0    0  501  0.00000000000E+00  0.00000000000E+00  0.12993432212E+04  0.12993432212E+04  0.50400001928E-02 0. -1.
        1   -1    0    0  501    0  0.00000000000E+00  0.00000000000E+00 -0.28033805160E+04  0.28033805160E+04  0.50400001928E-02 0.  1.
    10030    2    1    2    0    0  0.00000000000E+00  0.00000000000E+00 -0.15040372948E+04  0.41027237373E+04  0.38170949530E+04 0.  0.
        4    1    3    3  502    0 -0.16351657512E+04 -0.84388116093E+03 -0.12965331427E+04  0.22509780653E+04  0.12699999809E+01 0.  1.
       -4    1    3    3    0  502  0.16351657512E+04  0.84388116093E+03 -0.20750415209E+03  0.18517456719E+04  0.12699999809E+01 0. -1.
</event>
<event>
 5   0  0.1341932E-06  0.3824463E+04  0.7818609E-02  0.8040925E-01
        2   -1    0    0  501    0  0.00000000000E+00  0.00000000000E+00  0.30930955320E+04  0.30930955320E+04  0.25500000920E-02 0.  1.
       -2   -1    0    0    0  501  0.00000000000E+00  0.00000000000E+00 -0.11821911692E+04  0.11821911692E+04  0.25500000920E-02 0. -1.
    10030    2    1    2    0    0  0.00000000000E+00  0.00000000000E+00  0.19109043627E+04  0.42752867012E+04  0.38244634779E+04 0.  0.
        2    1    3    3  502    0 -0.28917403207E+01 -0.10333994447E+04  0.27540589052E+04  0.29415579593E+04  0.25500000920E-02 0.  1.
       -2    1    3    3    0  502  0.28917403207E+01  0.10333994447E+04 -0.84315454248E+03  0.13337287419E+04  0.25500000920E-02 0. -1.
</event>
<event>
 5   0  0.4795023E-07  0.4057998E+04  0.7818609E-02  0.7992948E-01
        1   -1    0    0  501    0  0.00000000000E+00  0.00000000000E+00  0.18163740243E+04  0.18163740244E+04  0.50400001928E-02 0.  1.
       -1   -1    0    0    0  501  0.00000000000E+00  0.00000000000E+00 -0.22665137174E+04  0.22665137174E+04  0.50400001928E-02 0. -1.
    10030    2    1    2    0    0  0.00000000000E+00  0.00000000000E+00 -0.45013969308E+03  0.40828877418E+04  0.40579978522E+04 0.  0.
        3    1    3    3  502    0 -0.17717607773E+04  0.44612240437E+03 -0.11129079759E+04  0.21393283116E+04  0.10100000352E+00 0. -1.
       -3    1    3    3    0  502  0.17717607773E+04 -0.44612240437E+03  0.66276828283E+03  0.19435594302E+04  0.10100000352E+00 0.  1.
</event>
<event>
 5   0  0.1337854E-06  0.3242816E+04  0.7818609E-02  0.8177600E-01
       -2   -1    0    0    0  501  0.00000000000E+00  0.00000000000E+00  0.12262279632E+04  0.12262279632E+04  0.25500000920E-02 0.  1.
        2   -1    0    0  501    0  0.00000000000E+00  0.00000000000E+00 -0.21439444323E+04  0.21439444323E+04  0.25500000920E-02 0. -1.
    10030    2    1    2    0    0  0.00000000000E+00  0.00000000000E+00 -0.91771646912E+03  0.33701723956E+04  0.32428164392E+04 0.  0.
        3    1    3    3  502    0  0.42689885111E+03  0.16312616828E+02 -0.20844011682E+04  0.21277304742E+04  0.10100000352E+00 0. -1.
       -3    1    3    3    0  502 -0.42689885111E+03 -0.16312616828E+02  0.11666846991E+04  0.12424419213E+04  0.10100000352E+00 0.  1.
</event>
<event>
 5   0  0.1184616E-06  0.1876891E+04  0.7818609E-02  0.8666445E-01
        2   -1    0    0  501    0  0.00000000000E+00  0.00000000000E+00  0.16942645892E+04  0.16942645892E+04  0.25500000920E-02 0.  1.
       -2   -1    0    0    0  501  0.00000000000E+00  0.00000000000E+00 -0.51980069906E+03  0.51980069906E+03  0.25500000920E-02 0. -1.
    10030    2    1    2    0    0  0.00000000000E+00  0.00000000000E+00  0.11744638902E+04  0.22140652883E+04  0.18768909589E+04 0.  0.
        5    1    3    3  502    0  0.55259251458E+03 -0.56535277274E+03  0.11837121127E+04  0.14234390400E+04  0.46999998093E+01 0.  1.
       -5    1    3    3    0  502 -0.55259251458E+03  0.56535277274E+03 -0.92482225763E+01  0.79062624826E+03  0.46999998093E+01 0. -1.
</event>
<event>
 5   0  0.4795023E-07  0.2003994E+04  0.7818609E-02  0.8604756E-01
       -1   -1    0    0    0  501  0.00000000000E+00  0.00000000000E+00  0.13859522339E+04  0.13859522339E+04  0.50400001928E-02 0. -1.
        1   -1    0    0  501    0  0.00000000000E+00  0.00000000000E+00 -0.72441002460E+03  0.72441002461E+03  0.50400001928E-02 0.  1.
    10030    2    1    2    0    0  0.00000000000E+00  0.00000000000E+00  0.66154220934E+03  0.21103622586E+04  0.20039937045E+04 0.  0.
        3    1    3    3  502    0 -0.36712796314E+03 -0.57247791875E+03 -0.44414267147E+03  0.81226635508E+03  0.10100000352E+00 0.  1.
       -3    1    3    3    0  502  0.36712796314E+03  0.57247791875E+03  0.11056848808E+04  0.12980959035E+04  0.10100000352E+00 0. -1.
</event>
<event>
 5   0  0.8030324E-07  0.3749826E+04  0.7818609E-02  0.8057009E-01
        1   -1    0    0  501    0  0.00000000000E+00  0.00000000000E+00  0.28631445134E+04  0.28631445134E+04  0.50400001928E-02 0.  1.
       -1   -1    0    0    0  501  0.00000000000E+00  0.00000000000E+00 -0.12277756728E+04  0.12277756728E+04  0.50400001928E-02 0. -1.
    10030    2    1    2    0    0  0.00000000000E+00  0.00000000000E+00  0.16353688406E+04  0.40909201862E+04  0.37498262260E+04 0.  0.
        1    1    3    3  502    0 -0.14177198659E+04  0.40015843512E+03  0.20830330551E+04  0.25512904774E+04  0.50400001928E-02 0.  1.
       -1    1    3    3    0  502  0.14177198659E+04 -0.40015843512E+03 -0.44766421454E+03  0.15396297088E+04  0.50400001928E-02 0. -1.
</event>
<event>
 5   0  0.1184616E-06  0.3840414E+04  0.7818609E-02  0.8037537E-01
        2   -1    0    0  501    0  0.00000000000E+00  0.00000000000E+00  0.15333186205E+04  0.15333186205E+04  0.25500000920E-02 0.  1.
       -2   -1    0    0    0  501  0.00000000000E+00  0.00000000000E+00 -0.24047157028E+04  0.24047157028E+04  0.25500000920E-02 0. -1.
    10030    2    1    2    0    0  0.00000000000E+00  0.00000000000E+00 -0.87139708226E+03  0.39380343233E+04  0.38404142298E+04 0.  0.
        5    1    3    3  502    0  0.78646954020E+02  0.67034351075E+03 -0.22790666724E+04  0.23769124412E+04  0.46999998093E+01 0. -1.
       -5    1    3    3    0  502 -0.78646954020E+02 -0.67034351075E+03  0.14076695902E+04  0.15611218821E+04  0.46999998093E+01 0.  1.
</event>
<event>
 5   0  0.1184616E-06  0.3776976E+04  0.7818609E-02  0.8051114E-01
        2   -1    0    0  501    0  0.00000000000E+00  0.00000000000E+00  0.24187877624E+04  0.24187877624E+04  0.25500000920E-02 0.  1.
       -2   -1    0    0    0  501  0.00000000000E+00  0.00000000000E+00 -0.14744525766E+04  0.14744525766E+04  0.25500000920E-02 0. -1.
    10030    2    1    2    0    0  0.00000000000E+00  0.00000000000E+00  0.94433518576E+03  0.38932403389E+04  0.37769764884E+04 0.  0.
        5    1    3    3  502    0 -0.16468770579E+04  0.62915275154E+03 -0.22567163532E+03  0.17773539337E+04  0.46999998093E+01 0. -1.
       -5    1    3    3    0  502  0.16468770579E+04 -0.62915275154E+03  0.11700068211E+04  0.21158864053E+04  0.46999998093E+01 0.  1.
</event>
<event>
 5   0  0.1337854E-06  0.3681909E+04  0.7818609E-02  0.8071983E-01
        2   -1    0    0  501    0  0.00000000000E+00  0.00000000000E+00  0.28577691831E+04  0.28577691831E+04  0.25500000920E-02 0. -1.
       -2   -1    0    0    0  501  0.00000000000E+00  0.00000000000E+00 -0.11859296315E+04  0.11859296315E+04  0.25500000920E-02 0.  1.
    10030    2    1    2    0    0  0.00000000000E+00  0.00000000000E+00  0.16718395516E+04  0.40436988146E+04  0.36819088279E+04 0.  0.
        3    1    3    3  502    0 -0.59138640132E+03  0.12209921407E+04  0.22026061736E+04  0.25868965285E+04  0.10100000352E+00 0. -1.
       -3    1    3    3    0  502  0.59138640132E+03 -0.12209921407E+04 -0.53076662203E+03  0.14568022860E+04  0.10100000352E+00 0.  1.
</event>
<event>
 5   0  0.1184616E-06  0.3810001E+04  0.7818609E-02  0.8044012E-01
        2   -1    0    0  501    0  0.00000000000E+00  0.00000000000E+00  0.18088113126E+04  0.18088113126E+04  0.25500000920E-02 0.  1.
       -2   -1    0    0    0  501  0.00000000000E+00  0.00000000000E+00 -0.20063046371E+04  0.20063046372E+04  0.25500000920E-02 0. -1.
    10030    2    1    2    0    0  0.00000000000E+00  0.00000000000E+00 -0.19749332454E+03  0.38151159498E+04  0.38100008001E+04 0.  0.
        5    1    3    3  502    0  0.16334099972E+04 -0.17717379414E+03  0.86669799383E+03  0.18575807586E+04  0.46999998093E+01 0.  1.
       -5    1    3    3    0  502 -0.16334099972E+04  0.17717379414E+03 -0.10641913184E+04  0.19575351911E+04  0.46999998093E+01 0. -1.
</event>
<event>
 5   0  0.4255250E-07  0.1933660E+04  0.7818609E-02  0.8638281E-01
        1   -1    0    0  501    0  0.00000000000E+00  0.00000000000E+00  0.84163165111E+03  0.84163165113E+03  0.50400001928E-02 0. -1.
       -1   -1    0    0    0  501  0.00000000000E+00  0.00000000000E+00 -0.11106519314E+04  0.11106519314E+04  0.50400001928E-02 0.  1.
    10030    2    1    2    0    0  0.00000000000E+00  0.00000000000E+00 -0.26902028029E+03  0.19522835825E+04  0.19336595552E+04 0.  0.
        2    1    3    3  502    0  0.58212902077E+03 -0.97756866282E+01  0.64479854175E+03  0.86875481024E+03  0.25500000920E-02 0. -1.
       -2    1    3    3    0  502 -0.58212902077E+03  0.97756866282E+01 -0.91381882204E+03  0.10835287723E+04  0.25500000920E-02 0.  1.
</event>
<event>
 5   0  0.1337854E-06  0.2717653E+04  0.7818609E-02  0.8329300E-01
       -2   -1    0    0    0  501  0.00000000000E+00  0.00000000000E+00  0.90528308694E+03  0.90528308695E+03  0.25500000920E-02 0. -1.
        2   -1    0    0  501    0  0.00000000000E+00  0.00000000000E+00 -0.20395939762E+04  0.20395939763E+04  0.25500000920E-02 0.  1.
    10030    2    1    2    0    0  0.00000000000E+00  0.00000000000E+00 -0.11343108893E+04  0.29448770632E+04  0.27176533487E+04 0.  0.
        3    1    3    3  502    0 -0.21098162139E+03  0.33430818374E+03  0.84159404306E+03  0.92981490082E+03  0.10100000352E+00 0. -1.
       -3    1    3    3    0  502  0.21098162139E+03 -0.33430818374E+03 -0.19759049324E+04  0.20150621624E+04  0.10100000352E+00 0.  1.
</event>
<event>
 5   0  0.1214844E-06  0.3928877E+04  0.7818609E-02  0.8019050E-01
        2   -1    0    0  501    0  0.00000000000E+00  0.00000000000E+00  0.22276612992E+04  0.22276612992E+04  0.25500000920E-02 0. -1.
       -2   -1    0    0    0  501  0.00000000000E+00  0.00000000000E+00 -0.17323180216E+04  0.17323180216E+04  0.25500000920E-02 0.  1.
    10030    2    1    2    0    0  0.00000000000E+00  0.00000000000E+00  0.49534327764E+03  0.39599793208E+04  0.39288765899E+04 0.  0.
        4    1    3    3  502    0 -0.16300912214E+04 -0.34200416795E+03 -0.80213609966E+03  0.18486720035E+04  0.12699999809E+01 0.  1.
       -4    1    3    3    0  502  0.16300912214E+04  0.34200416795E+03  0.12974793773E+04  0.21113073174E+04  0.12699999809E+01 0. -1.
</event>
<event>
 5   0  0.1337854E-06  0.3737266E+04  0.7818609E-02  0.8059753E-01
        2   -1    0    0  501    0  0.00000000000E+00  0.00000000000E+00  0.15295409375E+04  0.15295409375E+04  0.25500000920E-02 0. -1.
       -2   -1    0    0    0  501  0.00000000000E+00  0.00000000000E+00 -0.22829006491E+04  0.22829006491E+04  0.25500000920E-02 0.  1.
    10030    2    1    2    0    0  0.00000000000E+00  0.00000000000E+00 -0.75335971167E+03  0.38124415866E+04  0.37372663801E+04 0.  0.
        3    1    3    3  502    0 -0.15359495883E+04 -0.10396052261E+04 -0.14434919085E+03  0.18603109587E+04  0.10100000352E+00 0. -1.
       -3    1    3    3    0  502  0.15359495883E+04  0.10396052261E+04 -0.60901052082E+03  0.19521306279E+04  0.10100000352E+00 0.  1.
</event>
<event>
 5   0  0.4255250E-07  0.3284914E+04  0.7818609E-02  0.8166745E-01
        1   -1    0    0  501    0  0.00000000000E+00  0.00000000000E+00  0.19547723596E+04  0.19547723596E+04  0.50400001928E-02 0. -1.
       -1   -1    0    0    0  501  0.00000000000E+00  0.00000000000E+00 -0.13800405843E+04  0.13800405843E+04  0.50400001928E-02 0.  1.
    10030    2    1    2    0    0  0.00000000000E+00  0.00000000000E+00  0.57473177532E+03  0.33348129438E+04  0.32849141171E+04 0.  0.
        2    1    3    3  502    0 -0.13833379281E+04 -0.51320472417E+03  0.10198960565E+04  0.17936529426E+04  0.25500000920E-02 0. -1.
       -2    1    3    3    0  502  0.13833379281E+04  0.51320472417E+03 -0.44516428114E+03  0.15411600013E+04  0.25500000920E-02 0.  1.
</event>
<event>
 5   0  0.1341932E-06  0.2242271E+04  0.7818609E-02  0.8501037E-01
       -2   -1    0    0    0  501  0.00000000000E+00  0.00000000000E+00  0.59377872840E+03  0.59377872840E+03  0.25500000920E-02 0. -1.
        2   -1    0    0  501    0  0.00000000000E+00  0.00000000000E+00 -0.21168575243E+04  0.21168575243E+04  0.25500000920E-02 0.  1.
    10030    2    1    2    0    0  0.00000000000E+00  0.00000000000E+00 -0.15230787959E+04  0.27106362527E+04  0.22422711424E+04 0.  0.
        2    1    3    3  502    0  0.38800752666E+03 -0.42852701043E+03 -0.19227939550E+04  0.20078151889E+04  0.25500000920E-02 0. -1.
       -2    1    3    3    0  502 -0.38800752666E+03  0.42852701043E+03  0.39971515904E+03  0.70282106385E+03  0.25500000920E-02 0.  1.
</event>
<event>
 5   0  0.1079205E-06  0.3887762E+04  0.7818609E-02  0.8027579E-01
        1   -1    0    0  501    0  0.00000000000E+00  0.00000000000E+00  0.19897498023E+04  0.19897498023E+04  0.50400001928E-02 0.  1.
       -1   -1    0    0    0  501  0.00000000000E+00  0.00000000000E+00 -0.18990693167E+04  0.18990693167E+04  0.50400001928E-02 0. -1.
    10030    2    1    2    0    0  0.00000000000E+00  0.00000000000E+00  0.90680485604E+02  0.38888191191E+04  0.38877617198E+04 0.  0.
        4    1    3    3  502    0  0.55842613448E+03  0.18402815644E+04 -0.23792435036E+03  0.19378043228E+04  0.12699999809E+01 0. -1.
       -4    1    3    3    0  502 -0.55842613448E+03 -0.18402815644E+04  0.32860483596E+03  0.19510147963E+04  0.12699999809E+01 0.  1.
</event>
<event>
 5   0  0.1079205E-06  0.3469441E+04  0.7818609E-02  0.8121070E-01
        1   -1    0    0  501    0  0.00000000000E+00  0.00000000000E+00  0.15641604688E+04  0.15641604688E+04  0.50400001928E-02 0.  1.
       -1   -1    0    0    0  501  0.00000000000E+00  0.00000000000E+00 -0.19238793205E+04  0.19238793205E+04  0.50400001928E-02 0. -1.
    10030    2    1    2    0    0  0.00000000000E+00  0.00000000000E+00 -0.35971885174E+03  0.34880397893E+04  0.34694414420E+04 0.  0.
        4    1    3    3  502    0 -0.56484664389E+03 -0.10536062718E+04  0.10839058471E+04  0.16136887573E+04  0.12699999809E+01 0.  1.
       -4    1    3    3    0  502  0.56484664389E+03  0.10536062718E+04 -0.14436246989E+04  0.18743510320E+04  0.12699999809E+01 0. -1.
</event>
<event>
 5   0  0.1214844E-06  0.3814609E+04  0.7818609E-02  0.8043027E-01
        2   -1    0    0  501    0  0.00000000000E+00  0.00000000000E+00  0.29396969304E+04  0.29396969304E+04  0.25500000920E-02 0.  1.
       -2   -1    0    0    0  501  0.00000000000E+00  0.00000000000E+00 -0.12374783646E+04  0.12374783646E+04  0.25500000920E-02 0. -1.
    10030    2    1    2    0    0  0.00000000000E+00  0.00000000000E+00  0.17022185658E+04  0.41771752950E+04  0.38146094688E+04 0.  0.
        4    1    3    3  502    0 -0.70217787406E+03  0.75878935135E+03  0.26062592153E+04  0.28038194943E+04  0.12699999809E+01 0.  1.
       -4    1    3    3    0  502  0.70217787406E+03 -0.75878935135E+03 -0.90404064949E+03  0.13733558007E+04  0.12699999809E+01 0. -1.
</event>
<event>
 5   0  0.4255250E-07  0.2141303E+04  0.7818609E-02  0.8543264E-01
       -3   -1    0    0    0  501  0.00000000000E+00  0.00000000000E+00  0.12601338607E+04  0.12601338647E+04  0.10100000352E+00 0. -1.
        3   -1    0    0  501    0  0.00000000000E+00  0.00000000000E+00 -0.90966103230E+03  0.90966103790E+03  0.10100000352E+00 0.  1.
    10030    2    1    2    0    0  0.00000000000E+00  0.00000000000E+00  0.35047282840E+03  0.21697949026E+04  0.21413030416E+04 0.  0.
        2    1    3    3  502    0  0.10414976025E+04  0.12726689810E+03 -0.40625227098E+02  0.10500307273E+04  0.25500000920E-02 0. -1.
       -2    1    3    3    0  502 -0.10414976025E+04 -0.12726689810E+03  0.39109805550E+03  0.11197641753E+04  0.25500000920E-02 0.  1.
</event>
<event>
 5   0  0.4255250E-07  0.2721352E+04  0.7818609E-02  0.8328110E-01
       -1   -1    0    0    0  501  0.00000000000E+00  0.00000000000E+00  0.10389242740E+04  0.10389242740E+04  0.50400001928E-02 0.  1.
        1   -1    0    0  501    0  0.00000000000E+00  0.00000000000E+00 -0.17820727189E+04  0.17820727189E+04  0.50400001928E-02 0. -1.
    10030    2    1    2    0    0  0.00000000000E+00  0.00000000000E+00 -0.74314844486E+03  0.28209969929E+04  0.27213515801E+04 0.  0.
        2    1    3    3  502    0 -0.34468755978E+02 -0.70818540547E+03 -0.15754439765E+04  0.17276395419E+04  0.25500000920E-02 0. -1.
       -2    1    3    3    0  502  0.34468755978E+02  0.70818540547E+03  0.83229553161E+03  0.10933574510E+04  0.25500000920E-02 0.  1.
</event>
<event>
 5   0  0.1337854E-06  0.2406991E+04  0.7818609E-02  0.8436891E-01
        2   -1    0    0  501    0  0.00000000000E+00  0.00000000000E+00  0.77566550842E+03  0.77566550843E+03  0.25500000920E-02 0.  1.
       -2   -1    0    0    0  501  0.00000000000E+00  0.00000000000E+00 -0.18673021219E+04  0.18673021219E+04  0.25500000920E-02 0. -1.
    10030    2    1    2    0    0  0.00000000000E+00  0.00000000000E+00 -0.10916366135E+04  0.26429676303E+04  0.24069913583E+04 0.  0.
        3    1    3    3  502    0  0.85936975781E+03  0.16579520743E+03 -0.14528782687E+04  0.16961308043E+04  0.10100000352E+00 0. -1.
       -3    1    3    3    0  502 -0.85936975781E+03 -0.16579520743E+03  0.36124165522E+03  0.94683682602E+03  0.10100000352E+00 0.  1.
</event>
<event>
 5   0  0.1337854E-06  0.3632229E+04  0.7818609E-02  0.8083149E-01
       -2   -1    0    0    0  501  0.00000000000E+00  0.00000000000E+00  0.13175353975E+04  0.13175353975E+04  0.25500000920E-02 0. -1.
        2   -1    0    0  501    0  0.00000000000E+00  0.00000000000E+00 -0.25033648525E+04  0.25033648525E+04  0.25500000920E-02 0.  1.
    10030    2    1    2    0    0  0.00000000000E+00  0.00000000000E+00 -0.11858294551E+04  0.38209002500E+04  0.36322289608E+04 0.  0.
        3    1    3    3  502    0 -0.14000215909E+04  0.11308790975E+04 -0.84913116739E+03  0.19899677730E+04  0.10100000352E+00 0.  1.
       -3    1    3    3    0  502  0.14000215909E+04 -0.11308790975E+04 -0.33669828768E+03  0.18309324770E+04  0.10100000352E+00 0. -1.
</event>
<event>
 5   0  0.1214844E-06  0.1951554E+04  0.7818609E-02  0.8629612E-01
        2   -1    0    0  501    0  0.00000000000E+00  0.00000000000E+00  0.24600127867E+04  0.24600127867E+04  0.25500000920E-02 0.  1.
       -2   -1    0    0    0  501  0.00000000000E+00  0.00000000000E+00 -0.38704689989E+03  0.38704689990E+03  0.25500000920E-02 0. -1.
    10030    2    1    2    0    0  0.00000000000E+00  0.00000000000E+00  0.20729658868E+04  0.28470596866E+04  0.19515535584E+04 0.  0.
        4    1    3    3  502    0  0.67325468776E+03 -0.51783486940E+03  0.17372165752E+04  0.19337393487E+04  0.12699999809E+01 0.  1.
       -4    1    3    3    0  502 -0.67325468776E+03  0.51783486940E+03  0.33574931162E+03  0.91332033795E+03  0.12699999809E+01 0. -1.
</event>
<event>
 5   0  0.4795023E-07  0.3749431E+04  0.7818609E-02  0.8057095E-01
       -1   -1    0    0    0  501  0.00000000000E+00  0.00000000000E+00  0.24537493321E+04  0.24537493321E+04  0.50400001928E-02 0.  1.
        1   -1    0    0  501    0  0.00000000000E+00  0.00000000000E+00 -0.14323213419E+04  0.14323213420E+04  0.50400001928E-02 0. -1.
    10030    2    1    2    0    0  0.00000000000E+00  0.00000000000E+00  0.10214279902E+04  0.38860706741E+04  0.37494306428E+04 0.  0.
        3    1    3    3  502    0  0.50570036342E+03 -0.94868791937E+03  0.21025282646E+04  0.23614331961E+04  0.10100000352E+00 0.  1.
       -3    1    3    3    0  502 -0.50570036342E+03  0.94868791937E+03 -0.10811002744E+04  0.15246374780E+04  0.10100000352E+00 0. -1.
</event>
<event>
 5   0  0.1214844E-06  0.3904939E+04  0.7818609E-02  0.8024003E-01
       -2   -1    0    0    0  501  0.00000000000E+00  0.00000000000E+00  0.23841221254E+04  0.23841221254E+04  0.25500000920E-02 0.  1.
        2   -1    0    0  501    0  0.00000000000E+00  0.00000000000E+00 -0.15989684980E+04  0.15989684980E+04  0.25500000920E-02 0. -1.
    10030    2    1    2    0    0  0.00000000000E+00  0.00000000000E+00  0.78515362738E+03  0.39830906234E+04  0.39049385009E+04 0.  0.
        4    1    3    3  502    0  0.55206892489E+03  0.76922319798E+02  0.23012394567E+04  0.23677841522E+04  0.12699999809E+01 0.  1.
       -4    1    3    3    0  502 -0.55206892489E+03 -0.76922319798E+02 -0.15160858294E+04  0.16153064712E+04  0.12699999809E+01 0. -1.
</event>
<event>
 5   0  0.5284458E-07  0.3842845E+04  0.7818609E-02  0.8037022E-01
        1   -1    0    0  501    0  0.00000000000E+00  0.00000000000E+00  0.24946244386E+04  0.24946244386E+04  0.50400001928E-02 0.  1.
       -1   -1    0    0    0  501  0.00000000000E+00  0.00000000000E+00 -0.14799281861E+04  0.14799281861E+04  0.50400001928E-02 0. -1.
    10030    2    1    2    0    0  0.00000000000E+00  0.00000000000E+00  0.10146962525E+04  0.39745526247E+04  0.38428453106E+04 0.  0.
        5    1    3    3  502    0  0.11736421136E+04  0.15177362736E+04  0.39944746788E+03  0.19597294652E+04  0.46999998093E+01 0. -1.
       -5    1    3    3    0  502 -0.11736421136E+04 -0.15177362736E+04  0.61524878459E+03  0.20148231595E+04  0.46999998093E+01 0.  1.
</event>
<event>
 5   0  0.1337854E-06  0.2759891E+04  0.7818609E-02  0.8315830E-01
       -2   -1    0    0    0  501  0.00000000000E+00  0.00000000000E+00  0.13212389429E+04  0.13212389429E+04  0.25500000920E-02 0.  1.
        2   -1    0    0  501    0  0.00000000000E+00  0.00000000000E+00 -0.14412604887E+04  0.14412604888E+04  0.25500000920E-02 0. -1.
    10030    2    1    2    0    0  0.00000000000E+00  0.00000000000E+00 -0.12002154586E+03  0.27624994316E+04  0.27598909287E+04 0.  0.
        3    1    3    3  502    0 -0.49465970605E+03 -0.29414180388E+02 -0.13491317761E+04  0.14372577982E+04  0.10100000352E+00 0. -1.
       -3    1    3    3    0  502  0.49465970605E+03  0.29414180388E+02  0.12291102303E+04  0.13252416335E+04  0.10100000352E+00 0.  1.
</event>
<event>
 5   0  0.1337854E-06  0.3673267E+04  0.7818609E-02  0.8073912E-01
       -2   -1    0    0    0  501  0.00000000000E+00  0.00000000000E+00  0.15618219043E+04  0.15618219043E+04  0.25500000920E-02 0. -1.
        2   -1    0    0  501    0  0.00000000000E+00  0.00000000000E+00 -0.21598003594E+04  0.21598003594E+04  0.25500000920E-02 0.  1.
    10030    2    1    2    0    0  0.00000000000E+00  0.00000000000E+00 -0.59797845510E+03  0.37216222637E+04  0.36732674883E+04 0.  0.
        3    1    3    3  502    0 -0.13246763140E+04 -0.28501228221E+02  0.98961986292E+03  0.16537615125E+04  0.10100000352E+00 0. -1.
       -3    1    3    3    0  502  0.13246763140E+04  0.28501228221E+02 -0.15875983180E+04  0.20678607512E+04  0.10100000352E+00 0.  1.
</event>
<event>
 5   0  0.8030324E-07  0.3732059E+04  0.7818609E-02  0.8060894E-01
        1   -1    0    0  501    0  0.00000000000E+00  0.00000000000E+00  0.19015308466E+04  0.19015308466E+04  0.50400001928E-02 0.  1.
       -1   -1    0    0    0  501  0.00000000000E+00  0.00000000000E+00 -0.18311907100E+04  0.18311907100E+04  0.50400001928E-02 0. -1.
    10030    2    1    2    0    0  0.00000000000E+00  0.00000000000E+00  0.70340136597E+02  0.37327215567E+04  0.37320587461E+04 0.  0.
        1    1    3    3  502    0 -0.65918536721E+03  0.26716520108E+03  0.17606323977E+04  0.18988757286E+04  0.50400001928E-02 0.  1.
       -1    1    3    3    0  502  0.65918536721E+03 -0.26716520108E+03 -0.16902922611E+04  0.18338458280E+04  0.50400001928E-02 0. -1.
</event>
<event>
 5   0  0.4795023E-07  0.2182426E+04  0.7818609E-02  0.8525778E-01
       -1   -1    0    0    0  501  0.00000000000E+00  0.00000000000E+00  0.10873061857E+04  0.10873061857E+04  0.50400001928E-02 0. -1.
        1   -1    0    0  501    0  0.00000000000E+00  0.00000000000E+00 -0.10951340423E+04  0.10951340424E+04  0.50400001928E-02 0.  1.
    10030    2    1    2    0    0  0.00000000000E+00  0.00000000000E+00 -0.78278566407E+01  0.21824402281E+04  0.21824261898E+04 0.  0.
        3    1    3    3  502    0 -0.48035679609E+03 -0.96573216028E+02 -0.97894685136E+03  0.10947173085E+04  0.10100000352E+00 0.  1.
       -3    1    3    3    0  502  0.48035679609E+03  0.96573216028E+02  0.97111899472E+03  0.10877229195E+04  0.10100000352E+00 0. -1.
</event>
<event>
 5   0  0.1372748E-06  0.1991534E+04  0.7818609E-02  0.8610589E-01
        2   -1    0    0  501    0  0.00000000000E+00  0.00000000000E+00  0.86656156942E+03  0.86656156943E+03  0.25500000920E-02 0. -1.
       -2   -1    0    0    0  501  0.00000000000E+00  0.00000000000E+00 -0.11442374477E+04  0.11442374477E+04  0.25500000920E-02 0.  1.
    10030    2    1    2    0    0  0.00000000000E+00  0.00000000000E+00 -0.27767587827E+03  0.20107990171E+04  0.19915342814E+04 0.  0.
        1    1    3    3  502    0 -0.89454225673E+03 -0.43715862191E+03 -0.15443693934E+03  0.10075536105E+04  0.50400001928E-02 0.  1.
       -1    1    3    3    0  502  0.89454225673E+03  0.43715862191E+03 -0.12323893893E+03  0.10032454066E+04  0.50400001928E-02 0. -1.
</event>
<event>
 5   0  0.1079205E-06  0.3896799E+04  0.7818609E-02  0.8025695E-01
        1   -1    0    0  501    0  0.00000000000E+00  0.00000000000E+00  0.15487337536E+04  0.15487337536E+04  0.50400001928E-02 0. -1.
       -1   -1    0    0    0  501  0.00000000000E+00  0.00000000000E+00 -0.24512033936E+04  0.24512033936E+04  0.50400001928E-02 0.  1.
    10030    2    1    2    0    0  0.00000000000E+00  0.00000000000E+00 -0.90246964000E+03  0.39999371472E+04  0.38967994213E+04 0.  0.
        4    1    3    3  502    0  0.67696850857E+03  0.11849275276E+04  0.97622663898E+03  0.16779033556E+04  0.12699999809E+01 0. -1.
       -4    1    3    3    0  502 -0.67696850857E+03 -0.11849275276E+04 -0.18786962790E+04  0.23220337915E+04  0.12699999809E+01 0.  1.
</event>
<event>
 5   0  0.1184616E-06  0.3241281E+04  0.7818609E-02  0.8177999E-01
       -2   -1    0    0    0  501  0.00000000000E+00  0.00000000000E+00  0.16091852002E+04  0.16091852002E+04  0.25500000920E-02 0. -1.
        2   -1    0    0  501    0  0.00000000000E+00  0.00000000000E+00 -0.16321769488E+04  0.16321769488E+04  0.25500000920E-02 0.  1.
    10030    2    1    2    0    0  0.00000000000E+00  0.00000000000E+00 -0.22991748596E+02  0.32413621490E+04  0.32412806050E+04 0.  0.
        5    1    3    3  502    0  0.94821947408E+03  0.60285697233E+03  0.11563931729E+04  0.16123969612E+04  0.46999998093E+01 0. -1.
       -5    1    3    3    0  502 -0.94821947408E+03 -0.60285697233E+03 -0.11793849215E+04  0.16289651878E+04  0.46999998093E+01 0.  1.
</event>
<event>
 5   0  0.4255250E-07  0.3691450E+04  0.7818609E-02  0.8069859E-01
        1   -1    0    0  501    0  0.00000000000E+00  0.00000000000E+00  0.13799629551E+04  0.13799629552E+04  0.50400001928E-02 0.  1.
       -1   -1    0    0    0  501  0.00000000000E+00  0.00000000000E+00 -0.24686904412E+04  0.24686904412E+04  0.50400001928E-02 0. -1.
    10030    2    1    2    0    0  0.00000000000E+00  0.00000000000E+00 -0.10887274861E+04  0.38486533964E+04  0.36914503148E+04 0.  0.
        2    1    3    3  502    0 -0.17686918274E+03  0.17032769126E+04 -0.12623612826E+04  0.21274376505E+04  0.25500000920E-02 0. -1.
       -2    1    3    3    0  502  0.17686918274E+03 -0.17032769126E+04  0.17363379657E+03  0.17212157459E+04  0.25500000920E-02 0.  1.
</event>
<event>
 5   0  0.4795023E-07  0.2078212E+04  0.7818609E-02  0.8570902E-01
        1   -1    0    0  501    0  0.00000000000E+00  0.00000000000E+00  0.90265985334E+03  0.90265985335E+03  0.50400001928E-02 0.  1.
       -1   -1    0    0    0  501  0.00000000000E+00  0.00000000000E+00 -0.11961776262E+04  0.11961776262E+04  0.50400001928E-02 0. -1.
    10030    2    1    2    0    0  0.00000000000E+00  0.00000000000E+00 -0.29351777290E+03  0.20988374796E+04  0.20782122324E+04 0.  0.
        3    1    3    3  502    0 -0.11194927833E+02 -0.83483888122E+03  0.47797573788E+03  0.96205098628E+03  0.10100000352E+00 0.  1.
       -3    1    3    3    0  502  0.11194927833E+02  0.83483888122E+03 -0.77149351078E+03  0.11367864933E+04  0.10100000352E+00 0. -1.
</event>
<event>
 5   0  0.1184616E-06  0.3874155E+04  0.7818609E-02  0.8030426E-01
       -2   -1    0    0    0  501  0.00000000000E+00  0.00000000000E+00  0.15222869958E+04  0.15222869958E+04  0.25500000920E-02 0.  1.
        2   -1    0    0  501    0  0.00000000000E+00  0.00000000000E+00 -0.24648899264E+04  0.24648899264E+04  0.25500000920E-02 0. -1.
    10030    2    1    2    0    0  0.00000000000E+00  0.00000000000E+00 -0.94260293065E+03  0.39871769222E+04  0.38741553304E+04 0.  0.
        5    1    3    3  502    0  0.76978121206E+03  0.67865401074E+03  0.12195250279E+04  0.15938625300E+04  0.46999998093E+01 0.  1.
       -5    1    3    3    0  502 -0.76978121206E+03 -0.67865401074E+03 -0.21621279586E+04  0.23933143922E+04  0.46999998093E+01 0. -1.
</event>
<event>
 5   0  0.4255250E-07  0.3787968E+04  0.7818609E-02  0.8048742E-01
       -1   -1    0    0    0  501  0.00000000000E+00  0.00000000000E+00  0.16143756644E+04  0.16143756645E+04  0.50400001928E-02 0. -1.
        1   -1    0    0  501    0  0.00000000000E+00  0.00000000000E+00 -0.22220207932E+04  0.22220207932E+04  0.50400001928E-02 0.  1.
    10030    2    1    2    0    0  0.00000000000E+00  0.00000000000E+00 -0.60764512872E+03  0.38363964576E+04  0.37879684763E+04 0.  0.
        2    1    3    3  502    0 -0.15041331891E+04 -0.83089329148E+03 -0.11104825070E+04  0.20459647384E+04  0.25500000920E-02 0.  1.
       -2    1    3    3    0  502  0.15041331891E+04  0.83089329148E+03  0.50283737825E+03  0.17904317193E+04  0.25500000920E-02 0. -1.
</event>
<event>
 5   0  0.5284458E-07  0.3801377E+04  0.7818609E-02  0.8045859E-01
       -1   -1    0    0    0  501  0.00000000000E+00  0.00000000000E+00  0.21440951879E+04  0.21440951879E+04  0.50400001928E-02 0. -1.
        1   -1    0    0  501    0  0.00000000000E+00  0.00000000000E+00 -0.16849144246E+04  0.16849144246E+04  0.50400001928E-02 0.  1.
    10030    2    1    2    0    0  0.00000000000E+00  0.00000000000E+00  0.45918076327E+03  0.38290096126E+04  0.38013770715E+04 0.  0.
        5    1    3    3  502    0 -0.74971115643E+03 -0.15065504149E+04 -0.66048096754E+03  0.18077660715E+04  0.46999998093E+01 0.  1.
       -5    1    3    3    0  502  0.74971115643E+03  0.15065504149E+04  0.11196617308E+04  0.20212435411E+04  0.46999998093E+01 0. -1.
</event>
<event>
 5   0  0.1337854E-06  0.3705557E+04  0.7818609E-02  0.8066731E-01
        2   -1    0    0  501    0  0.00000000000E+00  0.00000000000E+00  0.15230406839E+04  0.15230406839E+04  0.25500000920E-02 0. -1.
       -2   -1    0    0    0  501  0.00000000000E+00  0.00000000000E+00 -0.22539043190E+04  0.22539043190E+04  0.25500000920E-02 0.  1.
    10030    2    1    2    0    0  0.00000000000E+00  0.00000000000E+00 -0.73086363510E+03  0.37769450029E+04  0.37055568950E+04 0.  0.
        3    1    3    3  502    0 -0.47838515245E+03  0.11515893669E+04  0.10312878398E+04  0.16181980852E+04  0.10100000352E+00 0. -1.
       -3    1    3    3    0  502  0.47838515245E+03 -0.11515893669E+04 -0.17621514749E+04  0.21587469177E+04  0.10100000352E+00 0.  1.
</event>
<event>
 5   0  0.1184616E-06  0.3894977E+04  0.7818609E-02  0.8026075E-01
        2   -1    0    0  501    0  0.00000000000E+00  0.00000000000E+00  0.12062861046E+04  0.12062861046E+04  0.25500000920E-02 0.  1.
       -2   -1    0    0    0  501  0.00000000000E+00  0.00000000000E+00 -0.31441224399E+04  0.31441224399E+04  0.25500000920E-02 0. -1.
    10030    2    1    2    0    0  0.00000000000E+00  0.00000000000E+00 -0.19378363353E+04  0.43504085445E+04  0.38949768731E+04 0.  0.
        5    1    3    3  502    0 -0.62566123348E+02  0.12741922658E+04 -0.26124383390E+04  0.29072902530E+04  0.46999998093E+01 0. -1.
       -5    1    3    3    0  502  0.62566123348E+02 -0.12741922658E+04  0.67460200370E+03  0.14431182915E+04  0.46999998093E+01 0.  1.
</event>
<event>
 5   0  0.1372748E-06  0.2345752E+04  0.7818609E-02  0.8460097E-01
        2   -1    0    0  501    0  0.00000000000E+00  0.00000000000E+00  0.15471105525E+04  0.15471105525E+04  0.25500000920E-02 0.  1.
       -2   -1    0    0    0  501  0.00000000000E+00  0.00000000000E+00 -0.88916629374E+03  0.88916629375E+03  0.25500000920E-02 0. -1.
    10030    2    1    2    0    0  0.00000000000E+00  0.00000000000E+00  0.65794425879E+03  0.24362768463E+04  0.23457523791E+04 0.  0.
        1    1    3    3  502    0  0.11336618212E+04  0.54864261631E+02  0.63608492925E+03  0.13010777261E+04  0.50400001928E-02 0.  1.
       -1    1    3    3    0  502 -0.11336618212E+04 -0.54864261631E+02  0.21859329537E+02  0.11351991202E+04  0.50400001928E-02 0. -1.
</event>
<event>
 5   0  0.1079205E-06  0.3183670E+04  0.7818609E-02  0.8193143E-01
       -1   -1    0    0    0  501  0.00000000000E+00  0.00000000000E+00  0.14368137574E+04  0.14368137575E+04  0.50400001928E-02 0. -1.
        1   -1    0    0  501    0  0.00000000000E+00  0.00000000000E+00 -0.17635818988E+04  0.17635818988E+04  0.50400001928E-02 0.  1.
    10030    2    1    2    0    0  0.00000000000E+00  0.00000000000E+00 -0.32676814133E+03  0.32003956562E+04  0.31836700423E+04 0.  0.
        4    1    3    3  502    0  0.78265524860E+03 -0.12732556226E+04  0.38740682676E+03  0.15439607446E+04  0.12699999809E+01 0.  1.
       -4    1    3    3    0  502 -0.78265524860E+03  0.12732556226E+04 -0.71417496809E+03  0.16564349116E+04  0.12699999809E+01 0. -1.
</event>
<event>
 5   0  0.4255250E-07  0.3831191E+04  0.7818609E-02  0.8039494E-01
        3   -1    0    0  501    0  0.00000000000E+00  0.00000000000E+00  0.16653854271E+04  0.16653854302E+04  0.10100000352E+00 0.  1.
       -3   -1    0    0    0  501  0.00000000000E+00  0.00000000000E+00 -0.22033973345E+04  0.22033973368E+04  0.10100000352E+00 0. -1.
    10030    2    1    2    0    0  0.00000000000E+00  0.00000000000E+00 -0.53801190733E+03  0.38687827670E+04  0.38311908443E+04 0.  0.
        3    1    3    3  502    0 -0.15082385757E+03  0.54337641491E+03  0.15796673658E+04  0.16773058043E+04  0.10100000352E+00 0.  1.
       -3    1    3    3    0  502  0.15082385757E+03 -0.54337641491E+03 -0.21176792731E+04  0.21914769627E+04  0.10100000352E+00 0. -1.
</event>
<event>
 5   0  0.4795023E-07  0.3900316E+04  0.7818609E-02  0.8024964E-01
       -1   -1    0    0    0  501  0.00000000000E+00  0.00000000000E+00  0.15135685951E+04  0.15135685951E+04  0.50400001928E-02 0. -1.
        1   -1    0    0  501    0  0.00000000000E+00  0.00000000000E+00 -0.25126816811E+04  0.25126816811E+04  0.50400001928E-02 0.  1.
    10030    2    1    2    0    0  0.00000000000E+00  0.00000000000E+00 -0.99911308600E+03  0.40262502762E+04  0.39003159267E+04 0.  0.
        3    1    3    3  502    0  0.14302070759E+04  0.58577036995E+03  0.72817093479E+03  0.17084648451E+04  0.10100000352E+00 0. -1.
       -3    1    3    3    0  502 -0.14302070759E+04 -0.58577036995E+03 -0.17272840208E+04  0.23177854312E+04  0.10100000352E+00 0.  1.
</event>
<event>
 5   0  0.1341932E-06  0.3581630E+04  0.7818609E-02  0.8094713E-01
       -2   -1    0    0    0  501  0.00000000000E+00  0.00000000000E+00  0.21679047880E+04  0.21679047880E+04  0.25500000920E-02 0. -1.
        2   -1    0    0  501    0  0.00000000000E+00  0.00000000000E+00 -0.14793171048E+04  0.14793171048E+04  0.25500000920E-02 0.  1.
    10030    2    1    2    0    0  0.00000000000E+00  0.00000000000E+00  0.68858768322E+03  0.36472218928E+04  0.35816301509E+04 0.  0.
        2    1    3    3  502    0 -0.13324759421E+04  0.78791298436E+03 -0.57259522146E+03  0.16505042547E+04  0.25500000920E-02 0.  1.
       -2    1    3    3    0  502  0.13324759421E+04 -0.78791298436E+03  0.12611829047E+04  0.19967176381E+04  0.25500000920E-02 0. -1.
</event>
<event>
 5   0  0.4795023E-07  0.2870963E+04  0.7818609E-02  0.8281570E-01
        1   -1    0    0  501    0  0.00000000000E+00  0.00000000000E+00  0.21686487370E+04  0.21686487370E+04  0.50400001928E-02 0. -1.
       -1   -1    0    0    0  501  0.00000000000E+00  0.00000000000E+00 -0.95018032141E+03  0.95018032142E+03  0.50400001928E-02 0.  1.
    10030    2    1    2    0    0  0.00000000000E+00  0.00000000000E+00  0.12184684156E+04  0.31188290584E+04  0.28709631513E+04 0.  0.
        3    1    3    3  502    0 -0.37381980734E+03 -0.90605881146E+03 -0.53008442244E+03  0.11143039636E+04  0.10100000352E+00 0.  1.
       -3    1    3    3    0  502  0.37381980734E+03  0.90605881146E+03  0.17485528380E+04  0.20045250948E+04  0.10100000352E+00 0. -1.
</event>
<event>
 5   0  0.4255250E-07  0.3592825E+04  0.7818609E-02  0.8092137E-01
       -4   -1    0    0    0  501  0.00000000000E+00  0.00000000000E+00  0.21888111565E+04  0.21888115250E+04  0.12699999809E+01 0.  1.
        4   -1    0    0  501    0  0.00000000000E+00  0.00000000000E+00 -0.14743601305E+04  0.14743606775E+04  0.12699999809E+01 0. -1.
    10030    2    1    2    0    0  0.00000000000E+00  0.00000000000E+00  0.71445102604E+03  0.36631722024E+04  0.35928248379E+04 0.  0.
        5    1    3    3  502    0  0.21822229478E+03  0.12061085365E+04 -0.98178878065E+03  0.15704299002E+04  0.46999998093E+01 0. -1.
       -5    1    3    3    0  502 -0.21822229478E+03 -0.12061085365E+04  0.16962398067E+04  0.20927423022E+04  0.46999998093E+01 0.  1.
</event>
<event>
 5   0  0.8030324E-07  0.3746629E+04  0.7818609E-02  0.8057706E-01
       -1   -1    0    0    0  501  0.00000000000E+00  0.00000000000E+00  0.13072212173E+04  0.13072212173E+04  0.50400001928E-02 0. -1.
        1   -1    0    0  501    0  0.00000000000E+00  0.00000000000E+00 -0.26845550544E+04  0.26845550544E+04  0.50400001928E-02 0.  1.
    10030    2    1    2    0    0  0.00000000000E+00  0.00000000000E+00 -0.13773338371E+04  0.39917762717E+04  0.37466290589E+04 0.  0.
        1    1    3    3  502    0  0.47870795840E+03 -0.17370494618E+04 -0.12348553018E+04  0.21843465289E+04  0.50400001928E-02 0.  1.
       -1    1    3    3    0  502 -0.47870795840E+03  0.17370494618E+04 -0.14247853532E+03  0.18074297428E+04  0.50400001928E-02 0. -1.
</event>
<event>
 5   0  0.1372748E-06  0.3877512E+04  0.7818609E-02  0.8029723E-01
        2   -1    0    0  501    0  0.00000000000E+00  0.00000000000E+00  0.23418195035E+04  0.23418195035E+04  0.25500000920E-02 0. -1.
       -2   -1    0    0    0  501  0.00000000000E+00  0.00000000000E+00 -0.16050662078E+04  0.16050662078E+04  0.25500000920E-02 0.  1.
    10030    2    1    2    0    0  0.00000000000E+00  0.00000000000E+00  0.73675329566E+03  0.39468857113E+04  0.38775122694E+04 0.  0.
        1    1    3    3  502    0  0.38348288740E+03  0.17058196004E+04  0.12211579429E+04  0.21326289775E+04  0.50400001928E-02 0. -1.
       -1    1    3    3    0  502 -0.38348288740E+03 -0.17058196004E+04 -0.48440464722E+03  0.18142567338E+04  0.50400001928E-02 0.  1.
</event>
<event>
 5   0  0.1337854E-06  0.3694549E+04  0.7818609E-02  0.8069171E-01
        2   -1    0    0  501    0  0.00000000000E+00  0.00000000000E+00  0.12231302431E+04  0.12231302431E+04  0.25500000920E-02 0.  1.
       -2   -1    0    0    0  501  0.00000000000E+00  0.00000000000E+00 -0.27899103021E+04  0.27899103021E+04  0.25500000920E-02 0. -1.
    10030    2    1    2    0    0  0.00000000000E+00  0.00000000000E+00 -0.15667800590E+04  0.40130405452E+04  0.36945493181E+04 0.  0.
        3    1    3    3  502    0 -0.21908209789E+03 -0.15493916371E+04  0.28298090474E+03  0.15901854022E+04  0.10100000352E+00 0.  1.
       -3    1    3    3    0  502  0.21908209789E+03  0.15493916371E+04 -0.18497609638E+04  0.24228551430E+04  0.10100000352E+00 0. -1.
</event>
<event>
 5   0  0.4255250E-07  0.3832225E+04  0.7818609E-02  0.8039275E-01
       -1   -1    0    0    0  501  0.00000000000E+00  0.00000000000E+00  0.20810144465E+04  0.20810144465E+04  0.50400001928E-02 0.  1.
        1   -1    0    0  501    0  0.00000000000E+00  0.00000000000E+00 -0.17642777869E+04  0.17642777869E+04  0.50400001928E-02 0. -1.
    10030    2    1    2    0    0  0.00000000000E+00  0.00000000000E+00  0.31673665961E+03  0.38452922334E+04  0.38322252346E+04 0.  0.
        2    1    3    3  502    0 -0.19229545499E+03 -0.16234137529E+03  0.20643597235E+04  0.20796425972E+04  0.25500000920E-02 0.  1.
       -2    1    3    3    0  502  0.19229545499E+03  0.16234137529E+03 -0.17476230639E+04  0.17656496362E+04  0.25500000920E-02 0. -1.
</event>
<event>
 5   0  0.1184616E-06  0.3109567E+04  0.7818609E-02  0.8213117E-01
        2   -1    0    0  501    0  0.00000000000E+00  0.00000000000E+00  0.21303135857E+04  0.21303135857E+04  0.25500000920E-02 0.  1.
       -2   -1    0    0    0  501  0.00000000000E+00  0.00000000000E+00 -0.11347395947E+04  0.11347395947E+04  0.25500000920E-02 0. -1.
    10030    2    1    2    0    0  0.00000000000E+00  0.00000000000E+00  0.99557399106E+03  0.32650531804E+04  0.31095666417E+04 0.  0.
        5    1    3    3  502    0  0.35981287037E+03  0.67363061025E+03 -0.92421494584E+03  0.11989323821E+04  0.46999998093E+01 0. -1.
       -5    1    3    3    0  502 -0.35981287037E+03 -0.67363061025E+03  0.19197889369E+04  0.20661207983E+04  0.46999998093E+01 0.  1.
</event>
<event>
 5   0  0.1372748E-06  0.3754552E+04  0.7818609E-02  0.8055979E-01
       -2   -1    0    0    0  501  0.00000000000E+00  0.00000000000E+00  0.28774605043E+04  0.28774605043E+04  0.25500000920E-02 0. -1.
        2   -1    0    0  501    0  0.00000000000E+00  0.00000000000E+00 -0.12247485725E+04  0.12247485725E+04  0.25500000920E-02 0.  1.
    10030    2    1    2    0    0  0.00000000000E+00  0.00000000000E+00  0.16527119317E+04  0.41022090768E+04  0.37545522476E+04 0.  0.
        1    1    3    3  502    0  0.21436650258E+03 -0.54513576972E+02  0.28631733709E+04  0.28717044554E+04  0.50400001928E-02 0. -1.
       -1    1    3    3    0  502 -0.21436650258E+03  0.54513576972E+02 -0.12104614391E+04  0.12305046214E+04  0.50400001928E-02 0.  1.
</event>
<event>
 5   0  0.1079205E-06  0.3838265E+04  0.7818609E-02  0.8037993E-01
       -1   -1    0    0    0  501  0.00000000000E+00  0.00000000000E+00  0.21812521718E+04  0.21812521718E+04  0.50400001928E-02 0.  1.
        1   -1    0    0  501    0  0.00000000000E+00  0.00000000000E+00 -0.16885115342E+04  0.16885115342E+04  0.50400001928E-02 0. -1.
    10030    2    1    2    0    0  0.00000000000E+00  0.00000000000E+00  0.49274063753E+03  0.38697637060E+04  0.38382649471E+04 0.  0.
        4    1    3    3  502    0  0.88234639332E+03 -0.10273673350E+04 -0.11245862980E+04  0.17603166628E+04  0.12699999809E+01 0. -1.
       -4    1    3    3    0  502 -0.88234639332E+03  0.10273673350E+04  0.16173269355E+04  0.21094470432E+04  0.12699999809E+01 0.  1.
</event>
<event>
 5   0  0.1214844E-06  0.3784268E+04  0.7818609E-02  0.8049539E-01
       -2   -1    0    0    0  501  0.00000000000E+00  0.00000000000E+00  0.20590260708E+04  0.20590260708E+04  0.25500000920E-02 0.  1.
        2   -1    0    0  501    0  0.00000000000E+00  0.00000000000E+00 -0.17387687697E+04  0.17387687697E+04  0.25500000920E-02 0. -1.
    10030    2    1    2    0    0  0.00000000000E+00  0.00000000000E+00  0.32025730116E+03  0.37977948405E+04  0.37842675529E+04 0.  0.
        4    1    3    3  502    0 -0.95814321229E+02  0.16569356200E+04  0.10719757819E+04  0.19757909107E+04  0.12699999809E+01 0.  1.
       -4    1    3    3    0  502  0.95814321229E+02 -0.16569356200E+04 -0.75171848069E+03  0.18220039298E+04  0.12699999809E+01 0. -1.
</event>
<event>
 5   0  0.1337854E-06  0.3863631E+04  0.7818609E-02  0.8032636E-01
       -2   -1    0    0    0  501  0.00000000000E+00  0.00000000000E+00  0.19169433831E+04  0.19169433831E+04  0.25500000920E-02 0. -1.
        2   -1    0    0  501    0  0.00000000000E+00  0.00000000000E+00 -0.19468031024E+04  0.19468031024E+04  0.25500000920E-02 0.  1.
    10030    2    1    2    0    0  0.00000000000E+00  0.00000000000E+00 -0.29859719301E+02  0.38637464855E+04  0.38636311032E+04 0.  0.
        3    1    3    3  502    0 -0.87050685055E+02  0.55693003201E+01  0.19149729676E+04  0.19169586108E+04  0.10100000352E+00 0. -1.
       -3    1    3    3    0  502  0.87050685055E+02 -0.55693003201E+01 -0.19448326869E+04  0.19467878747E+04  0.10100000352E+00 0.  1.
</event>
<event>
 5   0  0.1184616E-06  0.3797641E+04  0.7818609E-02  0.8046661E-01
       -2   -1    0    0    0  501  0.00000000000E+00  0.00000000000E+00  0.28115577119E+04  0.28115577119E+04  0.25500000920E-02 0. -1.
        2   -1    0    0  501    0  0.00000000000E+00  0.00000000000E+00 -0.12823918189E+04  0.12823918189E+04  0.25500000920E-02 0.  1.
    10030    2    1    2    0    0  0.00000000000E+00  0.00000000000E+00  0.15291658930E+04  0.40939495308E+04  0.37976406402E+04 0.  0.
        5    1    3    3  502    0 -0.15271497207E+04 -0.72654710556E+03 -0.16617088822E+03  0.16993209880E+04  0.46999998093E+01 0.  1.
       -5    1    3    3    0  502  0.15271497207E+04  0.72654710556E+03  0.16953367812E+04  0.23946285428E+04  0.46999998093E+01 0. -1.
</event>
<event>
 5   0  0.1184616E-06  0.2599650E+04  0.7818609E-02  0.8368320E-01
        2   -1    0    0  501    0  0.00000000000E+00  0.00000000000E+00  0.15061353498E+04  0.15061353498E+04  0.25500000920E-02 0. -1.
       -2   -1    0    0    0  501  0.00000000000E+00  0.00000000000E+00 -0.11217749724E+04  0.11217749724E+04  0.25500000920E-02 0.  1.
    10030    2    1    2    0    0  0.00000000000E+00  0.00000000000E+00  0.38436037738E+03  0.26279103223E+04  0.25996499307E+04 0.  0.
        5    1    3    3  502    0 -0.20856925527E+03 -0.12798451122E+04  0.10166233391E+03  0.13007159434E+04  0.46999998093E+01 0.  1.
       -5    1    3    3    0  502  0.20856925527E+03  0.12798451122E+04  0.28269804346E+03  0.13271943788E+04  0.46999998093E+01 0. -1.
</event>
<event>
 5   0  0.1184616E-06  0.3741416E+04  0.7818609E-02  0.8058845E-01
       -2   -1    0    0    0  501  0.00000000000E+00  0.00000000000E+00  0.15337413137E+04  0.15337413137E+04  0.25500000920E-02 0. -1.
        2   -1    0    0  501    0  0.00000000000E+00  0.00000000000E+00 -0.22817071452E+04  0.22817071452E+04  0.25500000920E-02 0.  1.
    10030    2    1    2    0    0  0.00000000000E+00  0.00000000000E+00 -0.74796583149E+03  0.38154484589E+04  0.37414160497E+04 0.  0.
        5    1    3    3  502    0 -0.10974832080E+04 -0.19079215016E+03 -0.19066032146E+04  0.22081732143E+04  0.46999998093E+01 0.  1.
       -5    1    3    3    0  502  0.10974832080E+04  0.19079215016E+03  0.11586373831E+04  0.16072752446E+04  0.46999998093E+01 0. -1.
</event>
<event>
 5   0  0.1372748E-06  0.3840106E+04  0.7818609E-02  0.8037603E-01
        2   -1    0    0  501    0  0.00000000000E+00  0.00000000000E+00  0.12287158464E+04  0.12287158464E+04  0.25500000920E-02 0.  1.
       -2   -1    0    0    0  501  0.00000000000E+00  0.00000000000E+00 -0.30003714860E+04  0.30003714860E+04  0.25500000920E-02 0. -1.
    10030    2    1    2    0    0  0.00000000000E+00  0.00000000000E+00 -0.17716556396E+04  0.42290873324E+04  0.38401062433E+04 0.  0.
        1    1    3    3  502    0  0.67749600260E+02  0.10196184753E+04  0.90437422357E+03  0.13645895279E+04  0.50400001928E-02 0.  1.
       -1    1    3    3    0  502 -0.67749600260E+02 -0.10196184753E+04 -0.26760298631E+04  0.28644978045E+04  0.50400001928E-02 0. -1.
</event>
<event>
 5   0  0.4255250E-07  0.3492554E+04  0.7818609E-02  0.8115557E-01
        1   -1    0    0  501    0  0.00000000000E+00  0.00000000000E+00  0.20007366713E+04  0.20007366713E+04  0.50400001928E-02 0.  1.
       -1   -1    0    0    0  501  0.00000000000E+00  0.00000000000E+00 -0.15241799400E+04  0.15241799400E+04  0.50400001928E-02 0. -1.
    10030    2    1    2    0    0  0.00000000000E+00  0.00000000000E+00  0.47655673133E+03  0.35249166114E+04  0.34925536215E+04 0.  0.
        2    1    3    3  502    0 -0.10591639317E+04  0.10252533617E+04  0.11831747884E+04  0.18902050868E+04  0.25500000920E-02 0. -1.
       -2    1    3    3    0  502  0.10591639317E+04 -0.10252533617E+04 -0.70661805710E+03  0.16347115246E+04  0.25500000920E-02 0.  1.
</event>
<event>
 5   0  0.4255250E-07  0.3827599E+04  0.7818609E-02  0.8040258E-01
       -1   -1    0    0    0  501  0.00000000000E+00  0.00000000000E+00  0.22938768911E+04  0.22938768911E+04  0.50400001928E-02 0. -1.
        1   -1    0    0  501    0  0.00000000000E+00  0.00000000000E+00 -0.15966977534E+04  0.15966977534E+04  0.50400001928E-02 0.  1.
    10030    2    1    2    0    0  0.00000000000E+00  0.00000000000E+00  0.69717913771E+03  0.38905746446E+04  0.38275987662E+04 0.  0.
        2    1    3    3  502    0  0.16764359995E+04  0.29044845376E+03 -0.54208677295E+03  0.17856808321E+04  0.25500000920E-02 0.  1.
       -2    1    3    3    0  502 -0.16764359995E+04 -0.29044845376E+03  0.12392659107E+04  0.21048938125E+04  0.25500000920E-02 0. -1.
</event>
<event>
 5   0  0.6095190E-07  0.1871405E+04  0.7818609E-02  0.8669222E-01
        1   -1    0    0  501    0  0.00000000000E+00  0.00000000000E+00  0.11777069084E+04  0.11777069084E+04  0.50400001928E-02 0.  1.
       -1   -1    0    0    0  501  0.00000000000E+00  0.00000000000E+00 -0.74342728976E+03  0.74342728978E+03  0.50400001928E-02 0. -1.
    10030    2    1    2    0    0  0.00000000000E+00  0.00000000000E+00  0.43427961863E+03  0.19211341982E+04  0.18714053063E+04 0.  0.
        5    1    3    3  502    0  0.80664820413E+03 -0.43985113988E+01 -0.26960813263E+03  0.85053589419E+03  0.46999998093E+01 0. -1.
       -5    1    3    3    0  502 -0.80664820413E+03  0.43985113988E+01  0.70388775126E+03  0.10705983040E+04  0.46999998093E+01 0.  1.
</event>
<event>
 5   0  0.1372748E-06  0.3826561E+04  0.7818609E-02  0.8040479E-01
        2   -1    0    0  501    0  0.00000000000E+00  0.00000000000E+00  0.26390374248E+04  0.26390374248E+04  0.25500000920E-02 0. -1.
       -2   -1    0    0    0  501  0.00000000000E+00  0.00000000000E+00 -0.13871130180E+04  0.13871130180E+04  0.25500000920E-02 0.  1.
    10030    2    1    2    0    0  0.00000000000E+00  0.00000000000E+00  0.12519244068E+04  0.40261504428E+04  0.38265614679E+04 0.  0.
        1    1    3    3  502    0 -0.92531079044E+03 -0.16708299044E+04  0.50706109302E+03  0.19761031300E+04  0.50400001928E-02 0. -1.
       -1    1    3    3    0  502  0.92531079044E+03  0.16708299044E+04  0.74486331377E+03  0.20500473128E+04  0.50400001928E-02 0.  1.
</event>
<event>
 5   0  0.1079205E-06  0.2077612E+04  0.7818609E-02  0.8571170E-01
        1   -1    0    0  501    0  0.00000000000E+00  0.00000000000E+00  0.97141597224E+03  0.97141597225E+03  0.50400001928E-02 0. -1.
       -1   -1    0    0    0  501  0.00000000000E+00  0.00000000000E+00 -0.11108710711E+04  0.11108710711E+04  0.50400001928E-02 0.  1.
    10030    2    1    2    0    0  0.00000000000E+00  0.00000000000E+00 -0.13945509888E+03  0.20822870434E+04  0.20776119961E+04 0.  0.
        4    1    3    3  502    0  0.13651186696E+03 -0.51698853077E+03  0.82289634203E+03  0.98136264112E+03  0.12699999809E+01 0. -1.
       -4    1    3    3    0  502 -0.13651186696E+03  0.51698853077E+03 -0.96235144091E+03  0.11009244023E+04  0.12699999809E+01 0.  1.
</event>
<event>
 5   0  0.1079205E-06  0.3662240E+04  0.7818609E-02  0.8076382E-01
        1   -1    0    0  501    0  0.00000000000E+00  0.00000000000E+00  0.11482714777E+04  0.11482714777E+04  0.50400001928E-02 0.  1.
       -1   -1    0    0    0  501  0.00000000000E+00  0.00000000000E+00 -0.29200412627E+04  0.29200412627E+04  0.50400001928E-02 0. -1.
    10030    2    1    2    0    0  0.00000000000E+00  0.00000000000E+00 -0.17717697850E+04  0.40683127404E+04  0.36622398041E+04 0.  0.
        4    1    3    3  502    0 -0.87361471052E+03 -0.13196731903E+04  0.13724708845E+03  0.15885774667E+04  0.12699999809E+01 0.  1.
       -4    1    3    3    0  502  0.87361471052E+03  0.13196731903E+04 -0.19090168735E+04  0.24797352737E+04  0.12699999809E+01 0. -1.
</event>
<event>
 5   0  0.1341932E-06  0.3704343E+04  0.7818609E-02  0.8067000E-01
       -2   -1    0    0    0  501  0.00000000000E+00  0.00000000000E+00  0.17669358120E+04  0.17669358120E+04  0.25500000920E-02 0. -1.
        2   -1    0    0  501    0  0.00000000000E+00  0.00000000000E+00 -0.19415187923E+04  0.19415187923E+04  0.25500000920E-02 0.  1.
    10030    2    1    2    0    0  0.00000000000E+00  0.00000000000E+00 -0.17458298035E+03  0.37084546043E+04  0.37043429020E+04 0.  0.
        2    1    3    3  502    0  0.87726692990E+03 -0.15376813586E+04  0.45781068746E+03  0.18285655177E+04  0.25500000920E-02 0. -1.
       -2    1    3    3    0  502 -0.87726692990E+03  0.15376813586E+04 -0.63239366781E+03  0.18798890866E+04  0.25500000920E-02 0.  1.
</event>
<event>
 5   0  0.1214844E-06  0.2168925E+04  0.7818609E-02  0.8531475E-01
        2   -1    0    0  501    0  0.00000000000E+00  0.00000000000E+00  0.21854477189E+04  0.21854477189E+04  0.25500000920E-02 0.  1.
       -2   -1    0    0    0  501  0.00000000000E+00  0.00000000000E+00 -0.53813187970E+03  0.53813187971E+03  0.25500000920E-02 0. -1.
    10030    2    1    2    0    0  0.00000000000E+00  0.00000000000E+00  0.16473158392E+04  0.27235795986E+04  0.21689251614E+04 0.  0.
        4    1    3    3  502    0 -0.89515566603E+03  0.44191549193E+03  0.29169079816E+03  0.10400375489E+04  0.12699999809E+01 0. -1.
       -4    1    3    3    0  502  0.89515566603E+03 -0.44191549193E+03  0.13556250411E+04  0.16835420498E+04  0.12699999809E+01 0.  1.
</event>
<event>
 5   0  0.1184616E-06  0.2766780E+04  0.7818609E-02  0.8313657E-01
       -2   -1    0    0    0  501  0.00000000000E+00  0.00000000000E+00  0.13627177867E+04  0.13627177867E+04  0.25500000920E-02 0. -1.
        2   -1    0    0  501    0  0.00000000000E+00  0.00000000000E+00 -0.14043754330E+04  0.14043754330E+04  0.25500000920E-02 0.  1.
    10030    2    1    2    0    0  0.00000000000E+00  0.00000000000E+00 -0.41657646276E+02  0.27670932197E+04  0.27667796311E+04 0.  0.
        5    1    3    3  502    0  0.10646461902E+04  0.55184761218E+03 -0.71064462570E+03  0.13939315519E+04  0.46999998093E+01 0.  1.
       -5    1    3    3    0  502 -0.10646461902E+04 -0.55184761218E+03  0.66898697942E+03  0.13731616678E+04  0.46999998093E+01 0. -1.
</event>
<event>
 5   0  0.1337854E-06  0.2023545E+04  0.7818609E-02  0.8595691E-01
       -2   -1    0    0    0  501  0.00000000000E+00  0.00000000000E+00  0.70233996697E+03  0.70233996697E+03  0.25500000920E-02 0.  1.
        2   -1    0    0  501    0  0.00000000000E+00  0.00000000000E+00 -0.14575327657E+04  0.14575327657E+04  0.25500000920E-02 0. -1.
    10030    2    1    2    0    0  0.00000000000E+00  0.00000000000E+00 -0.75519279874E+03  0.21598727327E+04  0.20235449237E+04 0.  0.
        3    1    3    3  502    0 -0.40561557022E+03  0.89416324594E+03 -0.11694890528E+03  0.98880177884E+03  0.10100000352E+00 0. -1.
       -3    1    3    3    0  502  0.40561557022E+03 -0.89416324594E+03 -0.63824389346E+03  0.11710709538E+04  0.10100000352E+00 0.  1.
</event>
<event>
 5   0  0.1184616E-06  0.3164533E+04  0.7818609E-02  0.8198247E-01
       -2   -1    0    0    0  501  0.00000000000E+00  0.00000000000E+00  0.17855877820E+04  0.17855877820E+04  0.25500000920E-02 0.  1.
        2   -1    0    0  501    0  0.00000000000E+00  0.00000000000E+00 -0.14020966942E+04  0.14020966942E+04  0.25500000920E-02 0. -1.
    10030    2    1    2    0    0  0.00000000000E+00  0.00000000000E+00  0.38349108781E+03  0.31876844762E+04  0.31645326519E+04 0.  0.
        5    1    3    3  502    0  0.28567895188E+02 -0.57177187904E+03 -0.12941072132E+04  0.14150882571E+04  0.46999998093E+01 0. -1.
       -5    1    3    3    0  502 -0.28567895188E+02  0.57177187904E+03  0.16775983010E+04  0.17725962190E+04  0.46999998093E+01 0.  1.
</event>
<event>
 5   0  0.1341932E-06  0.3783808E+04  0.7818609E-02  0.8049639E-01
        2   -1    0    0  501    0  0.00000000000E+00  0.00000000000E+00  0.18592603381E+04  0.18592603381E+04  0.25500000920E-02 0.  1.
       -2   -1    0    0    0  501  0.00000000000E+00  0.00000000000E+00 -0.19251205071E+04  0.19251205071E+04  0.25500000920E-02 0. -1.
    10030    2    1    2    0    0  0.00000000000E+00  0.00000000000E+00 -0.65860168970E+02  0.37843808452E+04  0.37838077144E+04 0.  0.
        2    1    3    3  502    0  0.54517195780E+03 -0.42692665896E+03  0.17279675548E+04  0.18615452469E+04  0.25500000920E-02 0.  1.
       -2    1    3    3    0  502 -0.54517195780E+03  0.42692665896E+03 -0.17938277237E+04  0.19228355983E+04  0.25500000920E-02 0. -1.
</event>
<event>
 5   0  0.4795023E-07  0.2506788E+04  0.7818609E-02  0.8400571E-01
        1   -1    0    0  501    0  0.00000000000E+00  0.00000000000E+00  0.19079765924E+04  0.19079765925E+04  0.50400001928E-02 0. -1.
       -1   -1    0    0    0  501  0.00000000000E+00  0.00000000000E+00 -0.82338377470E+03  0.82338377472E+03  0.50400001928E-02 0.  1.
    10030    2    1    2    0    0  0.00000000000E+00  0.00000000000E+00  0.10845928177E+04  0.27313603672E+04  0.25067883586E+04 0.  0.
        3    1    3    3  502    0 -0.10864987660E+04 -0.62408902482E+03  0.57726988460E+03  0.13795677617E+04  0.10100000352E+00 0.  1.
       -3    1    3    3    0  502  0.10864987660E+04  0.62408902482E+03  0.50732293315E+03  0.13517926054E+04  0.10100000352E+00 0. -1.
</event>
<event>
 5   0  0.1079205E-06  0.3672434E+04  0.7818609E-02  0.8074098E-01
        1   -1    0    0  501    0  0.00000000000E+00  0.00000000000E+00  0.17774167982E+04  0.17774167982E+04  0.50400001928E-02 0.  1.
       -1   -1    0    0    0  501  0.00000000000E+00  0.00000000000E+00 -0.18969628827E+04  0.18969628827E+04  0.50400001928E-02 0. -1.
    10030    2    1    2    0    0  0.00000000000E+00  0.00000000000E+00 -0.11954608453E+03  0.36743796809E+04  0.36724344477E+04 0.  0.
        4    1    3    3  502    0  0.27398037734E+03 -0.14209245240E+04 -0.11906815885E+04  0.18739839936E+04  0.12699999809E+01 0. -1.
       -4    1    3    3    0  502 -0.27398037734E+03  0.14209245240E+04  0.10711355039E+04  0.18003956873E+04  0.12699999809E+01 0.  1.
</event>
<event>
 5   0  0.1214844E-06  0.3678403E+04  0.7818609E-02  0.8072765E-01
        2   -1    0    0  501    0  0.00000000000E+00  0.00000000000E+00  0.27546638511E+04  0.27546638511E+04  0.25500000920E-02 0.  1.
       -2   -1    0    0    0  501  0.00000000000E+00  0.00000000000E+00 -0.12279762776E+04  0.12279762776E+04  0.25500000920E-02 0. -1.
    10030    2    1    2    0    0  0.00000000000E+00  0.00000000000E+00  0.15266875735E+04  0.39826401286E+04  0.36784028392E+04 0.  0.
        4    1    3    3  502    0 -0.10045592223E+04  0.15400813665E+04  0.71909286398E+03  0.19743571122E+04  0.12699999809E+01 0.  1.
       -4    1    3    3    0  502  0.10045592223E+04 -0.15400813665E+04  0.80759470954E+03  0.20082830165E+04  0.12699999809E+01 0. -1.
</event>
<event>
 5   0  0.1214844E-06  0.2935678E+04  0.7818609E-02  0.8262341E-01
       -2   -1    0    0    0  501  0.00000000000E+00  0.00000000000E+00  0.13133273306E+04  0.13133273306E+04  0.25500000920E-02 0. -1.
        2   -1    0    0  501    0  0.00000000000E+00  0.00000000000E+00 -0.16405285046E+04  0.16405285046E+04  0.25500000920E-02 0.  1.
    10030    2    1    2    0    0  0.00000000000E+00  0.00000000000E+00 -0.32720117405E+03  0.29538558353E+04  0.29356777220E+04 0.  0.
        4    1    3    3  502    0 -0.12508488681E+03 -0.83025475510E+03 -0.13750409258E+04  0.16111202152E+04  0.12699999809E+01 0.  1.
       -4    1    3    3    0  502  0.12508488681E+03  0.83025475510E+03  0.10478397517E+04  0.13427356201E+04  0.12699999809E+01 0. -1.
</event>
<event>
 5   0  0.4255250E-07  0.3783757E+04  0.7818609E-02  0.8049650E-01
        1   -1    0    0  501    0  0.00000000000E+00  0.00000000000E+00  0.10992467153E+04  0.10992467153E+04  0.50400001928E-02 0. -1.
       -1   -1    0    0    0  501  0.00000000000E+00  0.00000000000E+00 -0.32560516929E+04  0.32560516929E+04  0.50400001928E-02 0.  1.
    10030    2    1    2    0    0  0.00000000000E+00  0.00000000000E+00 -0.21568049776E+04  0.43552984083E+04  0.37837569311E+04 0.  0.
        2    1    3    3  502    0 -0.31018377951E+03 -0.73768288511E+03 -0.30516462819E+04  0.31548272608E+04  0.25500000920E-02 0.  1.
       -2    1    3    3    0  502  0.31018377951E+03  0.73768288511E+03  0.89484130424E+03  0.12004711474E+04  0.25500000920E-02 0. -1.
</event>
<event>
 5   0  0.4255250E-07  0.3804784E+04  0.7818609E-02  0.8045129E-01
       -1   -1    0    0    0  501  0.00000000000E+00  0.00000000000E+00  0.12980482722E+04  0.12980482722E+04  0.50400001928E-02 0. -1.
        1   -1    0    0  501    0  0.00000000000E+00  0.00000000000E+00 -0.27881054303E+04  0.27881054303E+04  0.50400001928E-02 0.  1.
    10030    2    1    2    0    0  0.00000000000E+00  0.00000000000E+00 -0.14900571580E+04  0.40861537025E+04  0.38047840604E+04 0.  0.
        2    1    3    3  502    0  0.13471327182E+04 -0.12826317494E+04 -0.11735132680E+04  0.21993281145E+04  0.25500000920E-02 0.  1.
       -2    1    3    3    0  502 -0.13471327182E+04  0.12826317494E+04 -0.31654388998E+03  0.18868255880E+04  0.25500000920E-02 0. -1.
</event>
<event>
 5   0  0.1341932E-06  0.2991302E+04  0.7818609E-02  0.8246219E-01
       -2   -1    0    0    0  501  0.00000000000E+00  0.00000000000E+00  0.11640182729E+04  0.11640182729E+04  0.25500000920E-02 0. -1.
        2   -1    0    0  501    0  0.00000000000E+00  0.00000000000E+00 -0.19217670478E+04  0.19217670478E+04  0.25500000920E-02 0.  1.
    10030    2    1    2    0    0  0.00000000000E+00  0.00000000000E+00 -0.75774877491E+03  0.30857853206E+04  0.29913020308E+04 0.  0.
        2    1    3    3  502    0  0.10309894507E+04 -0.34224060081E+03 -0.14394050532E+04  0.18033177156E+04  0.25500000920E-02 0.  1.
       -2    1    3    3    0  502 -0.10309894507E+04  0.34224060081E+03  0.68165627828E+03  0.12824676050E+04  0.25500000920E-02 0. -1.
</event>
<event>
 5   0  0.1337854E-06  0.1960681E+04  0.7818609E-02  0.8625227E-01
       -2   -1    0    0    0  501  0.00000000000E+00  0.00000000000E+00  0.14191504923E+04  0.14191504923E+04  0.25500000920E-02 0.  1.
        2   -1    0    0  501    0  0.00000000000E+00  0.00000000000E+00 -0.67721357326E+03  0.67721357327E+03  0.25500000920E-02 0. -1.
    10030    2    1    2    0    0  0.00000000000E+00  0.00000000000E+00  0.74193691901E+03  0.20963640655E+04  0.19606814896E+04 0.  0.
        3    1    3    3  502    0 -0.55096356764E+03  0.31199726183E+03  0.11712035174E+04  0.13313980748E+04  0.10100000352E+00 0.  1.
       -3    1    3    3    0  502  0.55096356764E+03 -0.31199726183E+03 -0.42926659839E+03  0.76496599072E+03  0.10100000352E+00 0. -1.
</event>
<event>
 5   0  0.1341932E-06  0.3790367E+04  0.7818609E-02  0.8048225E-01
        2   -1    0    0  501    0  0.00000000000E+00  0.00000000000E+00  0.16484014583E+04  0.16484014583E+04  0.25500000920E-02 0.  1.
       -2   -1    0    0    0  501  0.00000000000E+00  0.00000000000E+00 -0.21789108495E+04  0.21789108495E+04  0.25500000920E-02 0. -1.
    10030    2    1    2    0    0  0.00000000000E+00  0.00000000000E+00 -0.53050939121E+03  0.38273123078E+04  0.37903666428E+04 0.  0.
        2    1    3    3  502    0 -0.12275793955E+04  0.11254644078E+04  0.64804956385E+03  0.17870617065E+04  0.25500000920E-02 0.  1.
       -2    1    3    3    0  502  0.12275793955E+04 -0.11254644078E+04 -0.11785589551E+04  0.20402506013E+04  0.25500000920E-02 0. -1.
</event>
<event>
 5   0  0.1372748E-06  0.3821914E+04  0.7818609E-02  0.8041469E-01
        2   -1    0    0  501    0  0.00000000000E+00  0.00000000000E+00  0.20805192602E+04  0.20805192602E+04  0.25500000920E-02 0.  1.
       -2   -1    0    0    0  501  0.00000000000E+00  0.00000000000E+00 -0.17552136415E+04  0.17552136415E+04  0.25500000920E-02 0. -1.
    10030    2    1    2    0    0  0.00000000000E+00  0.00000000000E+00  0.32530561865E+03  0.38357329017E+04  0.38219135453E+04 0.  0.
        1    1    3    3  502    0  0.12153620183E+03  0.13361888361E+04 -0.12029966096E+04  0.18020467521E+04  0.50400001928E-02 0. -1.
       -1    1    3    3    0  502 -0.12153620183E+03 -0.13361888361E+04  0.15283022282E+04  0.20336861496E+04  0.50400001928E-02 0.  1.
</event>
<event>
 5   0  0.4255250E-07  0.3677200E+04  0.7818609E-02  0.8073033E-01
       -3   -1    0    0    0  501  0.00000000000E+00  0.00000000000E+00  0.20838724704E+04  0.20838724729E+04  0.10100000352E+00 0. -1.
        3   -1    0    0  501    0  0.00000000000E+00  0.00000000000E+00 -0.16221959751E+04  0.16221959783E+04  0.10100000352E+00 0.  1.
    10030    2    1    2    0    0  0.00000000000E+00  0.00000000000E+00  0.46167649529E+03  0.37060684511E+04  0.36771997740E+04 0.  0.
        5    1    3    3  502    0  0.37535067908E+03  0.17537922597E+04  0.63867800588E+03  0.19038400951E+04  0.46999998093E+01 0. -1.
       -5    1    3    3    0  502 -0.37535067908E+03 -0.17537922597E+04 -0.17700151059E+03  0.18022283560E+04  0.46999998093E+01 0.  1.
</event>
<event>
 5   0  0.1184616E-06  0.1921128E+04  0.7818609E-02  0.8644410E-01
        2   -1    0    0  501    0  0.00000000000E+00  0.00000000000E+00  0.12005058081E+04  0.12005058081E+04  0.25500000920E-02 0. -1.
       -2   -1    0    0    0  501  0.00000000000E+00  0.00000000000E+00 -0.76857886841E+03  0.76857886841E+03  0.25500000920E-02 0.  1.
    10030    2    1    2    0    0  0.00000000000E+00  0.00000000000E+00  0.43192693968E+03  0.19690846765E+04  0.19211282055E+04 0.  0.
        5    1    3    3  502    0  0.38010531184E+02 -0.91113499930E+03 -0.93312993175E+02  0.91670125565E+03  0.46999998093E+01 0.  1.
       -5    1    3    3    0  502 -0.38010531184E+02  0.91113499930E+03  0.52523993285E+03  0.10523834209E+04  0.46999998093E+01 0. -1.
</event>
<event>
 5   0  0.1214844E-06  0.2065910E+04  0.7818609E-02  0.8576411E-01
       -2   -1    0    0    0  501  0.00000000000E+00  0.00000000000E+00  0.70393959580E+03  0.70393959580E+03  0.25500000920E-02 0.  1.
        2   -1    0    0  501    0  0.00000000000E+00  0.00000000000E+00 -0.15157500413E+04  0.15157500413E+04  0.25500000920E-02 0. -1.
    10030    2    1    2    0    0  0.00000000000E+00  0.00000000000E+00 -0.81181044554E+03  0.22196896371E+04  0.20659104254E+04 0.  0.
        4    1    3    3  502    0 -0.60896351794E+02  0.31728293962E+03 -0.14600682084E+04  0.14953854404E+04  0.12699999809E+01 0. -1.
       -4    1    3    3    0  502  0.60896351794E+02 -0.31728293962E+03  0.64825776282E+03  0.72430419673E+03  0.12699999809E+01 0.  1.
</event>
<event>
 5   0  0.1341932E-06  0.3886801E+04  0.7818609E-02  0.8027780E-01
        2   -1    0    0  501    0  0.00000000000E+00  0.00000000000E+00  0.29555809973E+04  0.29555809973E+04  0.25500000920E-02 0.  1.
       -2   -1    0    0    0  501  0.00000000000E+00  0.00000000000E+00 -0.12778554986E+04  0.12778554986E+04  0.25500000920E-02 0. -1.
    10030    2    1    2    0    0  0.00000000000E+00  0.00000000000E+00  0.16777254987E+04  0.42334364959E+04  0.38868009616E+04 0.  0.
        2    1    3    3  502    0  0.10301970032E+04 -0.41239911697E+03  0.25765876776E+04  0.28053846363E+04  0.25500000920E-02 0.  1.
       -2    1    3    3    0  502 -0.10301970032E+04  0.41239911697E+03 -0.89886217884E+03  0.14280518596E+04  0.25500000920E-02 0. -1.
</event>
<event>
 5   0  0.4255250E-07  0.3817728E+04  0.7818609E-02  0.8042361E-01
       -3   -1    0    0    0  501  0.00000000000E+00  0.00000000000E+00  0.13760778536E+04  0.13760778574E+04  0.10100000352E+00 0.  1.
        3   -1    0    0  501    0  0.00000000000E+00  0.00000000000E+00 -0.26479324592E+04  0.26479324611E+04  0.10100000352E+00 0. -1.
    10030    2    1    2    0    0  0.00000000000E+00  0.00000000000E+00 -0.12718546055E+04  0.40240103185E+04  0.38177277150E+04 0.  0.
        3    1    3    3  502    0 -0.11950489750E+04 -0.52631617560E+03 -0.21034992761E+04  0.24758554045E+04  0.10100000352E+00 0. -1.
       -3    1    3    3    0  502  0.11950489750E+04  0.52631617560E+03  0.83164467052E+03  0.15481549140E+04  0.10100000352E+00 0.  1.
</event>
<event>
 5   0  0.1372748E-06  0.3731422E+04  0.7818609E-02  0.8061034E-01
       -2   -1    0    0    0  501  0.00000000000E+00  0.00000000000E+00  0.12848457503E+04  0.12848457504E+04  0.25500000920E-02 0. -1.
        2   -1    0    0  501    0  0.00000000000E+00  0.00000000000E+00 -0.27091791455E+04  0.27091791455E+04  0.25500000920E-02 0.  1.
    10030    2    1    2    0    0  0.00000000000E+00  0.00000000000E+00 -0.14243333951E+04  0.39940248958E+04  0.37314218802E+04 0.  0.
        1    1    3    3  502    0  0.58470349340E+03 -0.87208422525E+03  0.93859769399E+03  0.14083233657E+04  0.50400001928E-02 0. -1.
       -1    1    3    3    0  502 -0.58470349340E+03  0.87208422525E+03 -0.23629310891E+04  0.25857015302E+04  0.50400001928E-02 0.  1.
</event>
<event>
 5   0  0.1184616E-06  0.3772001E+04  0.7818609E-02  0.8052190E-01
        2   -1    0    0  501    0  0.00000000000E+00  0.00000000000E+00  0.20763838296E+04  0.20763838296E+04  0.25500000920E-02 0. -1.
       -2   -1    0    0    0  501  0.00000000000E+00  0.00000000000E+00 -0.17130736996E+04  0.17130736997E+04  0.25500000920E-02 0.  1.
    10030    2    1    2    0    0  0.00000000000E+00  0.00000000000E+00  0.36331012992E+03  0.37894575292E+04  0.37720013408E+04 0.  0.
        5    1    3    3  502    0 -0.32761639323E+03 -0.11147166902E+04  0.16741448054E+04  0.20378195995E+04  0.46999998093E+01 0. -1.
       -5    1    3    3    0  502  0.32761639323E+03  0.11147166902E+04 -0.13108346755E+04  0.17516379298E+04  0.46999998093E+01 0.  1.
</event>
<event>
 5   0  0.1184616E-06  0.1942245E+04  0.7818609E-02  0.8634110E-01
       -2   -1    0    0    0  501  0.00000000000E+00  0.00000000000E+00  0.28340585921E+03  0.28340585923E+03  0.25500000920E-02 0. -1.
        2   -1    0    0  501    0  0.00000000000E+00  0.00000000000E+00 -0.33276611698E+04  0.33276611698E+04  0.25500000920E-02 0.  1.
    10030    2    1    2    0    0  0.00000000000E+00  0.00000000000E+00 -0.30442553106E+04  0.36110670290E+04  0.19422447560E+04 0.  0.
        5    1    3    3  502    0 -0.47349671359E+03  0.17348973625E+03  0.20869619701E+02  0.50473305557E+03  0.46999998093E+01 0. -1.
       -5    1    3    3    0  502  0.47349671359E+03 -0.17348973625E+03 -0.30651249303E+04  0.31063339735E+04  0.46999998093E+01 0.  1.
</event>
<event>
 5   0  0.1079205E-06  0.3728113E+04  0.7818609E-02  0.8061760E-01
       -1   -1    0    0    0  501  0.00000000000E+00  0.00000000000E+00  0.27895007083E+04  0.27895007083E+04  0.50400001928E-02 0. -1.
        1   -1    0    0  501    0  0.00000000000E+00  0.00000000000E+00 -0.12456376529E+04  0.12456376529E+04  0.50400001928E-02 0.  1.
    10030    2    1    2    0    0  0.00000000000E+00  0.00000000000E+00  0.15438630554E+04  0.40351383612E+04  0.37281132574E+04 0.  0.
        4    1    3    3  502    0 -0.10030749133E+04  0.86662777589E+03 -0.64653151420E+03  0.14748585001E+04  0.12699999809E+01 0.  1.
       -4    1    3    3    0  502  0.10030749133E+04 -0.86662777589E+03  0.21903945696E+04  0.25602798611E+04  0.12699999809E+01 0. -1.
</event>
<event>
 5   0  0.1079205E-06  0.2366471E+04  0.7818609E-02  0.8452164E-01
        1   -1    0    0  501    0  0.00000000000E+00  0.00000000000E+00  0.55252120496E+03  0.55252120499E+03  0.50400001928E-02 0. -1.
       -1   -1    0    0    0  501  0.00000000000E+00  0.00000000000E+00 -0.25339241133E+04  0.25339241133E+04  0.50400001928E-02 0.  1.
    10030    2    1    2    0    0  0.00000000000E+00  0.00000000000E+00 -0.19814029084E+04  0.30864453183E+04  0.23664714699E+04 0.  0.
        4    1    3    3  502    0  0.70809402686E+03 -0.68980270411E+03 -0.18387783146E+04  0.20876619038E+04  0.12699999809E+01 0.  1.
       -4    1    3    3    0  502 -0.70809402686E+03  0.68980270411E+03 -0.14262459378E+03  0.99878341452E+03  0.12699999809E+01 0. -1.
</event>
<event>
 5   0  0.4255250E-07  0.2360620E+04  0.7818609E-02  0.8454396E-01
       -1   -1    0    0    0  501  0.00000000000E+00  0.00000000000E+00  0.94423511754E+03  0.94423511756E+03  0.50400001928E-02 0.  1.
        1   -1    0    0  501    0  0.00000000000E+00  0.00000000000E+00 -0.14754081980E+04  0.14754081980E+04  0.50400001928E-02 0. -1.
    10030    2    1    2    0    0  0.00000000000E+00  0.00000000000E+00 -0.53117308048E+03  0.24196433156E+04  0.23606204551E+04 0.  0.
        2    1    3    3  502    0 -0.84197386495E+02  0.63591755445E+03 -0.12811426882E+04  0.14327619912E+04  0.25500000920E-02 0. -1.
       -2    1    3    3    0  502  0.84197386495E+02 -0.63591755445E+03  0.74996960770E+03  0.98688132439E+03  0.25500000920E-02 0.  1.
</event>
<event>
 5   0  0.1372748E-06  0.2186333E+04  0.7818609E-02  0.8524138E-01
        2   -1    0    0  501    0  0.00000000000E+00  0.00000000000E+00  0.16545598912E+04  0.16545598912E+04  0.25500000920E-02 0.  1.
       -2   -1    0    0    0  501  0.00000000000E+00  0.00000000000E+00 -0.72225433678E+03  0.72225433678E+03  0.25500000920E-02 0. -1.
    10030    2    1    2    0    0  0.00000000000E+00  0.00000000000E+00  0.93230555443E+03  0.23768142280E+04  0.21863330550E+04 0.  0.
        1    1    3    3  502    0 -0.61598529606E+03  0.10422923731E+03 -0.50905915134E+03  0.80588016384E+03  0.50400001928E-02 0. -1.
       -1    1    3    3    0  502  0.61598529606E+03 -0.10422923731E+03  0.14413647058E+04  0.15709340642E+04  0.50400001928E-02 0.  1.
</event>
<event>
 5   0  0.1184616E-06  0.3664104E+04  0.7818609E-02  0.8075964E-01
        2   -1    0    0  501    0  0.00000000000E+00  0.00000000000E+00  0.23870769460E+04  0.23870769460E+04  0.25500000920E-02 0. -1.
       -2   -1    0    0    0  501  0.00000000000E+00  0.00000000000E+00 -0.14060774392E+04  0.14060774392E+04  0.25500000920E-02 0.  1.
    10030    2    1    2    0    0  0.00000000000E+00  0.00000000000E+00  0.98099950673E+03  0.37931543852E+04  0.36641042777E+04 0.  0.
        5    1    3    3  502    0  0.12427445399E+04 -0.10110063919E+04 -0.42953374494E+03  0.16586347530E+04  0.46999998093E+01 0.  1.
       -5    1    3    3    0  502 -0.12427445399E+04  0.10110063919E+04  0.14105332517E+04  0.21345196322E+04  0.46999998093E+01 0. -1.
</event>
<event>
 5   0  0.1337854E-06  0.3477777E+04  0.7818609E-02  0.8119077E-01
        2   -1    0    0  501    0  0.00000000000E+00  0.00000000000E+00  0.27216421943E+04  0.27216421943E+04  0.25500000920E-02 0.  1.
       -2   -1    0    0    0  501  0.00000000000E+00  0.00000000000E+00 -0.11109959053E+04  0.11109959053E+04  0.25500000920E-02 0. -1.
    10030    2    1    2    0    0  0.00000000000E+00  0.00000000000E+00  0.16106462891E+04  0.38326380996E+04  0.34777770679E+04 0.  0.
        3    1    3    3  502    0  0.35756705877E+03  0.55887776054E+02 -0.10690322930E+04  0.11286308957E+04  0.10100000352E+00 0. -1.
       -3    1    3    3    0  502 -0.35756705877E+03 -0.55887776054E+02  0.26796785821E+04  0.27040072039E+04  0.10100000352E+00 0.  1.
</event>
<event>
 5   0  0.8030324E-07  0.2399099E+04  0.7818609E-02  0.8439841E-01
       -1   -1    0    0    0  501  0.00000000000E+00  0.00000000000E+00  0.90237529535E+03  0.90237529537E+03  0.50400001928E-02 0. -1.
        1   -1    0    0  501    0  0.00000000000E+00  0.00000000000E+00 -0.15945899800E+04  0.15945899800E+04  0.50400001928E-02 0.  1.
    10030    2    1    2    0    0  0.00000000000E+00  0.00000000000E+00 -0.69221468468E+03  0.24969652754E+04  0.23990986676E+04 0.  0.
        1    1    3    3  502    0  0.83380464189E+03  0.85664165223E+03 -0.44942147169E+03  0.12771236277E+04  0.50400001928E-02 0. -1.
       -1    1    3    3    0  502 -0.83380464189E+03 -0.85664165223E+03 -0.24279321298E+03  0.12198416477E+04  0.50400001928E-02 0.  1.
</event>
<event>
 5   0  0.1372748E-06  0.3807200E+04  0.7818609E-02  0.8044611E-01
       -2   -1    0    0    0  501  0.00000000000E+00  0.00000000000E+00  0.12732831422E+04  0.12732831422E+04  0.25500000920E-02 0.  1.
        2   -1    0    0  501    0  0.00000000000E+00  0.00000000000E+00 -0.28459449834E+04  0.28459449834E+04  0.25500000920E-02 0. -1.
    10030    2    1    2    0    0  0.00000000000E+00  0.00000000000E+00 -0.15726618412E+04  0.41192281256E+04  0.38072004261E+04 0.  0.
        1    1    3    3  502    0 -0.17382141448E+04 -0.60783772578E+03 -0.26425021132E+03  0.18602911838E+04  0.50400001928E-02 0.  1.
       -1    1    3    3    0  502  0.17382141448E+04  0.60783772578E+03 -0.13084116298E+04  0.22589369419E+04  0.50400001928E-02 0. -1.
</event>
<event>
 5   0  0.8030324E-07  0.2135560E+04  0.7818609E-02  0.8545738E-01
        1   -1    0    0  501    0  0.00000000000E+00  0.00000000000E+00  0.15806130207E+04  0.15806130207E+04  0.50400001928E-02 0. -1.
       -1   -1    0    0    0  501  0.00000000000E+00  0.00000000000E+00 -0.72133696352E+03  0.72133696354E+03  0.50400001928E-02 0.  1.
    10030    2    1    2    0    0  0.00000000000E+00  0.00000000000E+00  0.85927605717E+03  0.23019499842E+04  0.21355604387E+04 0.  0.
        1    1    3    3  502    0 -0.76478472892E+03  0.54000405999E+03 -0.12384159314E+03  0.94437111699E+03  0.50400001928E-02 0.  1.
       -1    1    3    3    0  502  0.76478472892E+03 -0.54000405999E+03  0.98311765031E+03  0.13575788672E+04  0.50400001928E-02 0. -1.
</event>
<event>
 5   0  0.1337854E-06  0.3659567E+04  0.7818609E-02  0.8076982E-01
        2   -1    0    0  501    0  0.00000000000E+00  0.00000000000E+00  0.24363057459E+04  0.24363057459E+04  0.25500000920E-02 0. -1.
       -2   -1    0    0    0  501  0.00000000000E+00  0.00000000000E+00 -0.13742561919E+04  0.13742561919E+04  0.25500000920E-02 0.  1.
    10030    2    1    2    0    0  0.00000000000E+00  0.00000000000E+00  0.10620495540E+04  0.38105619378E+04  0.36595673278E+04 0.  0.
        3    1    3    3  502    0 -0.50873339313E+03 -0.77124328835E+03  0.21755839447E+04  0.23636394365E+04  0.10100000352E+00 0. -1.
       -3    1    3    3    0  502  0.50873339313E+03  0.77124328835E+03 -0.11135343907E+04  0.14469225013E+04  0.10100000352E+00 0.  1.
</event>
<event>
 5   0  0.1214844E-06  0.3710499E+04  0.7818609E-02  0.8065639E-01
       -2   -1    0    0    0  501  0.00000000000E+00  0.00000000000E+00  0.16330804198E+04  0.16330804198E+04  0.25500000920E-02 0. -1.
        2   -1    0    0  501    0  0.00000000000E+00  0.00000000000E+00 -0.21076428581E+04  0.21076428581E+04  0.25500000920E-02 0.  1.
    10030    2    1    2    0    0  0.00000000000E+00  0.00000000000E+00 -0.47456243826E+03  0.37407232780E+04  0.37104987716E+04 0.  0.
        4    1    3    3  502    0 -0.13567756237E+04 -0.12407410166E+04  0.13076707712E+02  0.18386002764E+04  0.12699999809E+01 0. -1.
       -4    1    3    3    0  502  0.13567756237E+04  0.12407410166E+04 -0.48763914597E+03  0.19021230015E+04  0.12699999809E+01 0.  1.
</event>
<event>
 5   0  0.4795023E-07  0.3730662E+04  0.7818609E-02  0.8061200E-01
        1   -1    0    0  501    0  0.00000000000E+00  0.00000000000E+00  0.18612379891E+04  0.18612379891E+04  0.50400001928E-02 0.  1.
       -1   -1    0    0    0  501  0.00000000000E+00  0.00000000000E+00 -0.18694332070E+04  0.18694332070E+04  0.50400001928E-02 0. -1.
    10030    2    1    2    0    0  0.00000000000E+00  0.00000000000E+00 -0.81952178542E+01  0.37306711961E+04  0.37306621948E+04 0.  0.
        3    1    3    3  502    0 -0.54217076544E+02  0.27911645736E+03  0.18394400242E+04  0.18612858730E+04  0.10100000352E+00 0.  1.
       -3    1    3    3    0  502  0.54217076544E+02 -0.27911645736E+03 -0.18476352421E+04  0.18693853231E+04  0.10100000352E+00 0. -1.
</event>
<event>
 5   0  0.1372748E-06  0.2374202E+04  0.7818609E-02  0.8449226E-01
       -2   -1    0    0    0  501  0.00000000000E+00  0.00000000000E+00  0.54207353232E+03  0.54207353232E+03  0.25500000920E-02 0.  1.
        2   -1    0    0  501    0  0.00000000000E+00  0.00000000000E+00 -0.25996637122E+04  0.25996637122E+04  0.25500000920E-02 0. -1.
    10030    2    1    2    0    0  0.00000000000E+00  0.00000000000E+00 -0.20575901799E+04  0.31417372445E+04  0.23742020902E+04 0.  0.
        1    1    3    3  502    0 -0.23037765668E+03 -0.11653557661E+03  0.50447314201E+03  0.56669882331E+03  0.50400001928E-02 0.  1.
       -1    1    3    3    0  502  0.23037765668E+03  0.11653557661E+03 -0.25620633219E+04  0.25750384212E+04  0.50400001928E-02 0. -1.
</event>
<event>
 5   0  0.8030324E-07  0.3581042E+04  0.7818609E-02  0.8094848E-01
        1   -1    0    0  501    0  0.00000000000E+00  0.00000000000E+00  0.25171657433E+04  0.25171657433E+04  0.50400001928E-02 0. -1.
       -1   -1    0    0    0  501  0.00000000000E+00  0.00000000000E+00 -0.12736409379E+04  0.12736409379E+04  0.50400001928E-02 0.  1.
    10030    2    1    2    0    0  0.00000000000E+00  0.00000000000E+00  0.12435248054E+04  0.37908066812E+04  0.35810419368E+04 0.  0.
        1    1    3    3  502    0 -0.67330057122E+03 -0.58403925989E+03 -0.10221116818E+04  0.13561518375E+04  0.50400001928E-02 0.  1.
       -1    1    3    3    0  502  0.67330057122E+03  0.58403925989E+03  0.22656364871E+04  0.24346548437E+04  0.50400001928E-02 0. -1.
</event>
<event>
 5   0  0.5284458E-07  0.2377034E+04  0.7818609E-02  0.8448152E-01
        1   -1    0    0  501    0  0.00000000000E+00  0.00000000000E+00  0.13444630008E+04  0.13444630008E+04  0.50400001928E-02 0. -1.
       -1   -1    0    0    0  501  0.00000000000E+00  0.00000000000E+00 -0.10506598036E+04  0.10506598036E+04  0.50400001928E-02 0.  1.
    10030    2    1    2    0    0  0.00000000000E+00  0.00000000000E+00  0.29380319720E+03  0.23951228043E+04  0.23770344821E+04 0.  0.
        5    1    3    3  502    0 -0.50942285915E+03 -0.58545506514E+03 -0.76010482330E+03  0.10863013924E+04  0.46999998093E+01 0.  1.
       -5    1    3    3    0  502  0.50942285915E+03  0.58545506514E+03  0.10539080205E+04  0.13088214120E+04  0.46999998093E+01 0. -1.
</event>
<event>
 5   0  0.5284458E-07  0.3782895E+04  0.7818609E-02  0.8049836E-01
        1   -1    0    0  501    0  0.00000000000E+00  0.00000000000E+00  0.31639468235E+04  0.31639468235E+04  0.50400001928E-02 0. -1.
       -1   -1    0    0    0  501  0.00000000000E+00  0.00000000000E+00 -0.11307311974E+04  0.11307311974E+04  0.50400001928E-02 0.  1.
    10030    2    1    2    0    0  0.00000000000E+00  0.00000000000E+00  0.20332156261E+04  0.42946780209E+04  0.37828948599E+04 0.  0.
        5    1    3    3  502    0  0.14669278673E+04  0.79594948942E+03  0.61763667399E+01  0.16689736951E+04  0.46999998093E+01 0.  1.
       -5    1    3    3    0  502 -0.14669278673E+04 -0.79594948942E+03  0.20270392593E+04  0.26257043258E+04  0.46999998093E+01 0. -1.
</event>
<event>
 5   0  0.8030324E-07  0.3770099E+04  0.7818609E-02  0.8052602E-01
       -1   -1    0    0    0  501  0.00000000000E+00  0.00000000000E+00  0.14608877717E+04  0.14608877717E+04  0.50400001928E-02 0. -1.
        1   -1    0    0  501    0  0.00000000000E+00  0.00000000000E+00 -0.24323649480E+04  0.24323649481E+04  0.50400001928E-02 0.  1.
    10030    2    1    2    0    0  0.00000000000E+00  0.00000000000E+00 -0.97147717633E+03  0.38932527198E+04  0.37700993138E+04 0.  0.
        1    1    3    3  502    0 -0.16248970503E+04 -0.61262382666E+03 -0.12430522451E+04  0.21355976356E+04  0.50400001928E-02 0.  1.
       -1    1    3    3    0  502  0.16248970503E+04  0.61262382666E+03  0.27157506872E+03  0.17576550842E+04  0.50400001928E-02 0. -1.
</event>
<event>
 5   0  0.5284458E-07  0.2164191E+04  0.7818609E-02  0.8533482E-01
        1   -1    0    0  501    0  0.00000000000E+00  0.00000000000E+00  0.19637059545E+04  0.19637059545E+04  0.50400001928E-02 0.  1.
       -1   -1    0    0    0  501  0.00000000000E+00  0.00000000000E+00 -0.59628602052E+03  0.59628602054E+03  0.50400001928E-02 0. -1.
    10030    2    1    2    0    0  0.00000000000E+00  0.00000000000E+00  0.13674199339E+04  0.25599919750E+04  0.21641907579E+04 0.  0.
        5    1    3    3  502    0 -0.29696499710E+03 -0.10337252132E+04  0.82433070922E+03  0.13551085691E+04  0.46999998093E+01 0. -1.
       -5    1    3    3    0  502  0.29696499710E+03  0.10337252132E+04  0.54308922472E+03  0.12048834059E+04  0.46999998093E+01 0.  1.
</event>
<event>
 5   0  0.5338817E-07  0.2164193E+04  0.7818609E-02  0.8533481E-01
        1   -1    0    0  501    0  0.00000000000E+00  0.00000000000E+00  0.16582945990E+04  0.16582945990E+04  0.50400001928E-02 0.  1.
       -1   -1    0    0    0  501  0.00000000000E+00  0.00000000000E+00 -0.70610671448E+03  0.70610671450E+03  0.50400001928E-02 0. -1.
    10030    2    1    2    0    0  0.00000000000E+00  0.00000000000E+00  0.95218788447E+03  0.23644013135E+04  0.21641931069E+04 0.  0.
        3    1    3    3  502    0  0.16310260980E+03 -0.27743509907E+03  0.16047995793E+04  0.16367511709E+04  0.10100000352E+00 0.  1.
       -3    1    3    3    0  502 -0.16310260980E+03  0.27743509907E+03 -0.65261169484E+03  0.72765014255E+03  0.10100000352E+00 0. -1.
</event>
<event>
 5   0  0.1337854E-06  0.2448443E+04  0.7818609E-02  0.8421587E-01
       -2   -1    0    0    0  501  0.00000000000E+00  0.00000000000E+00  0.96028090259E+03  0.96028090259E+03  0.25500000920E-02 0.  1.
        2   -1    0    0  501    0  0.00000000000E+00  0.00000000000E+00 -0.15607076109E+04  0.15607076109E+04  0.25500000920E-02 0. -1.
    10030    2    1    2    0    0  0.00000000000E+00  0.00000000000E+00 -0.60042670827E+03  0.25209885135E+04  0.24484425362E+04 0.  0.
        3    1    3    3  502    0 -0.10778158720E+04 -0.15849489224E+03  0.27482341205E+03  0.11235370946E+04  0.10100000352E+00 0. -1.
       -3    1    3    3    0  502  0.10778158720E+04  0.15849489224E+03 -0.87525012032E+03  0.13974514189E+04  0.10100000352E+00 0.  1.
</event>
<event>
 5   0  0.1341932E-06  0.3898351E+04  0.7818609E-02  0.8025372E-01
        2   -1    0    0  501    0  0.00000000000E+00  0.00000000000E+00  0.20318335514E+04  0.20318335514E+04  0.25500000920E-02 0.  1.
       -2   -1    0    0    0  501  0.00000000000E+00  0.00000000000E+00 -0.18698802728E+04  0.18698802728E+04  0.25500000920E-02 0. -1.
    10030    2    1    2    0    0  0.00000000000E+00  0.00000000000E+00  0.16195327860E+03  0.39017138242E+04  0.38983511773E+04 0.  0.
        2    1    3    3  502    0  0.15016706796E+04  0.11200223833E+04  0.61979080924E+03  0.19732221406E+04  0.25500000920E-02 0.  1.
       -2    1    3    3    0  502 -0.15016706796E+04 -0.11200223833E+04 -0.45783753064E+03  0.19284916836E+04  0.25500000920E-02 0. -1.
</event>
<event>
 5   0  0.1337854E-06  0.3005619E+04  0.7818609E-02  0.8242128E-01
        2   -1    0    0  501    0  0.00000000000E+00  0.00000000000E+00  0.22065533263E+04  0.22065533263E+04  0.25500000920E-02 0.  1.
       -2   -1    0    0    0  501  0.00000000000E+00  0.00000000000E+00 -0.10235134650E+04  0.10235134650E+04  0.25500000920E-02 0. -1.
    10030    2    1    2    0    0  0.00000000000E+00  0.00000000000E+00  0.11830398613E+04  0.32300667913E+04  0.30056194308E+04 0.  0.
        3    1    3    3  502    0 -0.96416662334E+03 -0.85794529677E+03 -0.23587557099E+03  0.13119926467E+04  0.10100000352E+00 0. -1.
       -3    1    3    3    0  502  0.96416662334E+03  0.85794529677E+03  0.14189154323E+04  0.19180741446E+04  0.10100000352E+00 0.  1.
</event>
<event>
 5   0  0.1372748E-06  0.3752834E+04  0.7818609E-02  0.8056353E-01
       -2   -1    0    0    0  501  0.00000000000E+00  0.00000000000E+00  0.23667158658E+04  0.23667158658E+04  0.25500000920E-02 0. -1.
        2   -1    0    0  501    0  0.00000000000E+00  0.00000000000E+00 -0.14876901547E+04  0.14876901547E+04  0.25500000920E-02 0.  1.
    10030    2    1    2    0    0  0.00000000000E+00  0.00000000000E+00  0.87902571107E+03  0.38544060205E+04  0.37528335388E+04 0.  0.
        1    1    3    3  502    0  0.11601324899E+04  0.13516287963E+03  0.19478534579E+04  0.22711912054E+04  0.50400001928E-02 0. -1.
       -1    1    3    3    0  502 -0.11601324899E+04 -0.13516287963E+03 -0.10688277468E+04  0.15832148150E+04  0.50400001928E-02 0.  1.
</event>
<event>
 5   0  0.1214844E-06  0.3787962E+04  0.7818609E-02  0.8048743E-01
        2   -1    0    0  501    0  0.00000000000E+00  0.00000000000E+00  0.21859593437E+04  0.21859593437E+04  0.25500000920E-02 0. -1.
       -2   -1    0    0    0  501  0.00000000000E+00  0.00000000000E+00 -0.16410021283E+04  0.16410021283E+04  0.25500000920E-02 0.  1.
    10030    2    1    2    0    0  0.00000000000E+00  0.00000000000E+00  0.54495721542E+03  0.38269614720E+04  0.37879619509E+04 0.  0.
        4    1    3    3  502    0 -0.20130461362E+03  0.74728735958E+02  0.21736215902E+04  0.21842024544E+04  0.12699999809E+01 0. -1.
       -4    1    3    3    0  502  0.20130461362E+03 -0.74728735958E+02 -0.16286643748E+04  0.16427590176E+04  0.12699999809E+01 0.  1.
</event>
<event>
 5   0  0.1341932E-06  0.3787434E+04  0.7818609E-02  0.8048857E-01
        2   -1    0    0  501    0  0.00000000000E+00  0.00000000000E+00  0.15259414913E+04  0.15259414913E+04  0.25500000920E-02 0.  1.
       -2   -1    0    0    0  501  0.00000000000E+00  0.00000000000E+00 -0.23501325185E+04  0.23501325185E+04  0.25500000920E-02 0. -1.
    10030    2    1    2    0    0  0.00000000000E+00  0.00000000000E+00 -0.82419102712E+03  0.38760740098E+04  0.37874343400E+04 0.  0.
        2    1    3    3  502    0 -0.13301960361E+04 -0.13322582725E+04 -0.62140875319E+03  0.19825444352E+04  0.25500000920E-02 0. -1.
       -2    1    3    3    0  502  0.13301960361E+04  0.13322582725E+04 -0.20278227393E+03  0.18935295746E+04  0.25500000920E-02 0.  1.
</event>
<event>
 5   0  0.1341932E-06  0.3720779E+04  0.7818609E-02  0.8063373E-01
       -2   -1    0    0    0  501  0.00000000000E+00  0.00000000000E+00  0.12342399480E+04  0.12342399480E+04  0.25500000920E-02 0.  1.
        2   -1    0    0  501    0  0.00000000000E+00  0.00000000000E+00 -0.28041944829E+04  0.28041944829E+04  0.25500000920E-02 0. -1.
    10030    2    1    2    0    0  0.00000000000E+00  0.00000000000E+00 -0.15699545349E+04  0.40384344309E+04  0.37207788715E+04 0.  0.
        2    1    3    3  502    0 -0.89701288243E+03 -0.13698752708E+04 -0.17434661418E+04  0.23918328864E+04  0.25500000920E-02 0. -1.
       -2    1    3    3    0  502  0.89701288243E+03  0.13698752708E+04  0.17351160692E+03  0.16466015445E+04  0.25500000920E-02 0.  1.
</event>
<event>
 5   0  0.4255250E-07  0.3741185E+04  0.7818609E-02  0.8058895E-01
        1   -1    0    0  501    0  0.00000000000E+00  0.00000000000E+00  0.16464547880E+04  0.16464547880E+04  0.50400001928E-02 0.  1.
       -1   -1    0    0    0  501  0.00000000000E+00  0.00000000000E+00 -0.21252433337E+04  0.21252433337E+04  0.50400001928E-02 0. -1.
    10030    2    1    2    0    0  0.00000000000E+00  0.00000000000E+00 -0.47878854568E+03  0.37716981217E+04  0.37411854070E+04 0.  0.
        2    1    3    3  502    0  0.90425922653E+03 -0.13457297050E+04 -0.11799793423E+04  0.20052492204E+04  0.25500000920E-02 0. -1.
       -2    1    3    3    0  502 -0.90425922653E+03  0.13457297050E+04  0.70119079663E+03  0.17664489013E+04  0.25500000920E-02 0.  1.
</event>
<event>
 5   0  0.4255250E-07  0.3500881E+04  0.7818609E-02  0.8113581E-01
       -1   -1    0    0    0  501  0.00000000000E+00  0.00000000000E+00  0.16306918126E+04  0.16306918126E+04  0.50400001928E-02 0.  1.
        1   -1    0    0  501    0  0.00000000000E+00  0.00000000000E+00 -0.18789825195E+04  0.18789825195E+04  0.50400001928E-02 0. -1.
    10030    2    1    2    0    0  0.00000000000E+00  0.00000000000E+00 -0.24829070692E+03  0.35096743321E+04  0.35008806953E+04 0.  0.
        2    1    3    3  502    0 -0.11388246310E+04  0.18396804275E+03  0.11957008392E+04  0.16614650998E+04  0.25500000920E-02 0.  1.
       -2    1    3    3    0  502  0.11388246310E+04 -0.18396804275E+03 -0.14439915462E+04  0.18482092323E+04  0.25500000920E-02 0. -1.
</event>
<event>
 5   0  0.1079205E-06  0.3856159E+04  0.7818609E-02  0.8034209E-01
       -1   -1    0    0    0  501  0.00000000000E+00  0.00000000000E+00  0.17733196150E+04  0.17733196150E+04  0.50400001928E-02 0. -1.
        1   -1    0    0  501    0  0.00000000000E+00  0.00000000000E+00 -0.20963459757E+04  0.20963459757E+04  0.50400001928E-02 0.  1.
    10030    2    1    2    0    0  0.00000000000E+00  0.00000000000E+00 -0.32302636070E+03  0.38696655907E+04  0.38561594566E+04 0.  0.
        4    1    3    3  502    0 -0.18364039392E+04  0.53751960376E+03  0.76346701257E+02  0.19149770714E+04  0.12699999809E+01 0. -1.
       -4    1    3    3    0  502  0.18364039392E+04 -0.53751960376E+03 -0.39937306196E+03  0.19546885194E+04  0.12699999809E+01 0.  1.
</event>
<event>
 5   0  0.1372748E-06  0.3770661E+04  0.7818609E-02  0.8052480E-01
        2   -1    0    0  501    0  0.00000000000E+00  0.00000000000E+00  0.23895774416E+04  0.23895774416E+04  0.25500000920E-02 0. -1.
       -2   -1    0    0    0  501  0.00000000000E+00  0.00000000000E+00 -0.14874896653E+04  0.14874896653E+04  0.25500000920E-02 0.  1.
    10030    2    1    2    0    0  0.00000000000E+00  0.00000000000E+00  0.90208777634E+03  0.38770671069E+04  0.37706613472E+04 0.  0.
        1    1    3    3  502    0 -0.12912921077E+04  0.42966335351E+02  0.18628120758E+04  0.22670135075E+04  0.50400001928E-02 0. -1.
       -1    1    3    3    0  502  0.12912921077E+04 -0.42966335351E+02 -0.96072429946E+03  0.16100535994E+04  0.50400001928E-02 0.  1.
</event>
<event>
 5   0  0.1214844E-06  0.3209193E+04  0.7818609E-02  0.8186394E-01
       -2   -1    0    0    0  501  0.00000000000E+00  0.00000000000E+00  0.10378747729E+04  0.10378747729E+04  0.25500000920E-02 0.  1.
        2   -1    0    0  501    0  0.00000000000E+00  0.00000000000E+00 -0.24807706961E+04  0.24807706961E+04  0.25500000920E-02 0. -1.
    10030    2    1    2    0    0  0.00000000000E+00  0.00000000000E+00 -0.14428959232E+04  0.35186454690E+04  0.32091926230E+04 0.  0.
        4    1    3    3  502    0 -0.17678207853E+03  0.15461931289E+04 -0.29291101871E+03  0.15835919844E+04  0.12699999809E+01 0.  1.
       -4    1    3    3    0  502  0.17678207853E+03 -0.15461931289E+04 -0.11499849045E+04  0.19350534847E+04  0.12699999809E+01 0. -1.
</event>
<event>
 5   0  0.5284458E-07  0.3196113E+04  0.7818609E-02  0.8189844E-01
       -1   -1    0    0    0  501  0.00000000000E+00  0.00000000000E+00  0.11730232913E+04  0.11730232913E+04  0.50400001928E-02 0.  1.
        1   -1    0    0  501    0  0.00000000000E+00  0.00000000000E+00 -0.21770965431E+04  0.21770965431E+04  0.50400001928E-02 0. -1.
    10030    2    1    2    0    0  0.00000000000E+00  0.00000000000E+00 -0.10040732518E+04  0.33501198344E+04  0.31961132349E+04 0.  0.
        5    1    3    3  502    0  0.55784980632E+03 -0.85694278733E+03 -0.17893073331E+04  0.20608712162E+04  0.46999998093E+01 0. -1.
       -5    1    3    3    0  502 -0.55784980632E+03  0.85694278733E+03  0.78523408137E+03  0.12892486183E+04  0.46999998093E+01 0.  1.
</event>
<event>
 5   0  0.1337854E-06  0.1945898E+04  0.7818609E-02  0.8632341E-01
        2   -1    0    0  501    0  0.00000000000E+00  0.00000000000E+00  0.22311922419E+04  0.22311922419E+04  0.25500000920E-02 0. -1.
       -2   -1    0    0    0  501  0.00000000000E+00  0.00000000000E+00 -0.42427077139E+03  0.42427077140E+03  0.25500000920E-02 0.  1.
    10030    2    1    2    0    0  0.00000000000E+00  0.00000000000E+00  0.18069214705E+04  0.26554630133E+04  0.19458978941E+04 0.  0.
        3    1    3    3  502    0  0.14606426834E+03 -0.80306982199E+03  0.16260456179E+04  0.18194175638E+04  0.10100000352E+00 0. -1.
       -3    1    3    3    0  502 -0.14606426834E+03  0.80306982199E+03  0.18087585257E+03  0.83604544955E+03  0.10100000352E+00 0.  1.
</event>
<event>
 5   0  0.5284458E-07  0.3674020E+04  0.7818609E-02  0.8073744E-01
        1   -1    0    0  501    0  0.00000000000E+00  0.00000000000E+00  0.16287864597E+04  0.16287864597E+04  0.50400001928E-02 0.  1.
       -1   -1    0    0    0  501  0.00000000000E+00  0.00000000000E+00 -0.20718522745E+04  0.20718522745E+04  0.50400001928E-02 0. -1.
    10030    2    1    2    0    0  0.00000000000E+00  0.00000000000E+00 -0.44306581483E+03  0.37006387343E+04  0.36740195597E+04 0.  0.
        5    1    3    3  502    0  0.11556845795E+03 -0.62233124025E+03  0.15154703823E+04  0.16423534366E+04  0.46999998093E+01 0.  1.
       -5    1    3    3    0  502 -0.11556845795E+03  0.62233124025E+03 -0.19585361971E+04  0.20582852977E+04  0.46999998093E+01 0. -1.
</event>
<event>
 5   0  0.4255250E-07  0.3577592E+04  0.7818609E-02  0.8095644E-01
        1   -1    0    0  501    0  0.00000000000E+00  0.00000000000E+00  0.17680780355E+04  0.17680780355E+04  0.50400001928E-02 0.  1.
       -1   -1    0    0    0  501  0.00000000000E+00  0.00000000000E+00 -0.18097564475E+04  0.18097564475E+04  0.50400001928E-02 0. -1.
    10030    2    1    2    0    0  0.00000000000E+00  0.00000000000E+00 -0.41678411956E+02  0.35778344830E+04  0.35775917176E+04 0.  0.
        2    1    3    3  502    0 -0.12628971617E+04 -0.11198508268E+04 -0.61317620574E+03  0.17958174113E+04  0.25500000920E-02 0. -1.
       -2    1    3    3    0  502  0.12628971617E+04  0.11198508268E+04  0.57149779378E+03  0.17820170717E+04  0.25500000920E-02 0.  1.
</event>
<event>
 5   0  0.1341932E-06  0.2845845E+04  0.7818609E-02  0.8289175E-01
       -2   -1    0    0    0  501  0.00000000000E+00  0.00000000000E+00  0.12218026183E+04  0.12218026183E+04  0.25500000920E-02 0. -1.
        2   -1    0    0  501    0  0.00000000000E+00  0.00000000000E+00 -0.16571482537E+04  0.16571482537E+04  0.25500000920E-02 0.  1.
    10030    2    1    2    0    0  0.00000000000E+00  0.00000000000E+00 -0.43534563539E+03  0.28789508720E+04  0.28458447430E+04 0.  0.
        2    1    3    3  502    0 -0.13845845485E+04  0.32446454284E+03 -0.16856468211E+03  0.14320494626E+04  0.25500000920E-02 0. -1.
       -2    1    3    3    0  502  0.13845845485E+04 -0.32446454284E+03 -0.26678095327E+03  0.14469014094E+04  0.25500000920E-02 0.  1.
</event>
<event>
 5   0  0.4795023E-07  0.3846335E+04  0.7818609E-02  0.8036284E-01
        1   -1    0    0  501    0  0.00000000000E+00  0.00000000000E+00  0.21317137288E+04  0.21317137288E+04  0.50400001928E-02 0. -1.
       -1   -1    0    0    0  501  0.00000000000E+00  0.00000000000E+00 -0.17350235281E+04  0.17350235281E+04  0.50400001928E-02 0.  1.
    10030    2    1    2    0    0  0.00000000000E+00  0.00000000000E+00  0.39669020067E+03  0.38667372569E+04  0.38463351256E+04 0.  0.
        3    1    3    3  502    0  0.41026294471E+03 -0.10079606475E+04 -0.13957116091E+04  0.17698336805E+04  0.10100000352E+00 0.  1.
       -3    1    3    3    0  502 -0.41026294471E+03  0.10079606475E+04  0.17924018098E+04  0.20969035764E+04  0.10100000352E+00 0. -1.
</event>
<event>
 5   0  0.1214844E-06  0.3706418E+04  0.7818609E-02  0.8066541E-01
       -2   -1    0    0    0  501  0.00000000000E+00  0.00000000000E+00  0.22329543856E+04  0.22329543856E+04  0.25500000920E-02 0. -1.
        2   -1    0    0  501    0  0.00000000000E+00  0.00000000000E+00 -0.15380442963E+04  0.15380442963E+04  0.25500000920E-02 0.  1.
    10030    2    1    2    0    0  0.00000000000E+00  0.00000000000E+00  0.69491008926E+03  0.37709986819E+04  0.37064175462E+04 0.  0.
        4    1    3    3  502    0  0.37095806798E+03 -0.76314326664E+03  0.20237006397E+04  0.21943936351E+04  0.12699999809E+01 0. -1.
       -4    1    3    3    0  502 -0.37095806798E+03  0.76314326664E+03 -0.13287905505E+04  0.15766050468E+04  0.12699999809E+01 0.  1.
</event>
<event>
 5   0  0.4795023E-07  0.3802160E+04  0.7818609E-02  0.8045692E-01
       -1   -1    0    0    0  501  0.00000000000E+00  0.00000000000E+00  0.22278687626E+04  0.22278687627E+04  0.50400001928E-02 0. -1.
        1   -1    0    0  501    0  0.00000000000E+00  0.00000000000E+00 -0.16222253206E+04  0.16222253206E+04  0.50400001928E-02 0.  1.
    10030    2    1    2    0    0  0.00000000000E+00  0.00000000000E+00  0.60564344207E+03  0.38500940832E+04  0.38021599744E+04 0.  0.
        3    1    3    3  502    0  0.91331212748E+03 -0.14353730801E+04  0.11618504974E+04  0.20601775433E+04  0.10100000352E+00 0. -1.
       -3    1    3    3    0  502 -0.91331212748E+03  0.14353730801E+04 -0.55620705534E+03  0.17899165399E+04  0.10100000352E+00 0.  1.
</event>
<event>
 5   0  0.1214844E-06  0.3870512E+04  0.7818609E-02  0.8031190E-01
        2   -1    0    0  501    0  0.00000000000E+00  0.00000000000E+00  0.26648032254E+04  0.26648032254E+04  0.25500000920E-02 0.  1.
       -2   -1    0    0    0  501  0.00000000000E+00  0.00000000000E+00 -0.14054381699E+04  0.14054381699E+04  0.25500000920E-02 0. -1.
    10030    2    1    2    0    0  0.00000000000E+00  0.00000000000E+00  0.12593650555E+04  0.40702413953E+04  0.38705121977E+04 0.  0.
        4    1    3    3  502    0  0.12562202574E+04  0.62706064292E+03  0.20302974929E+04  0.24684821060E+04  0.12699999809E+01 0.  1.
       -4    1    3    3    0  502 -0.12562202574E+04 -0.62706064292E+03 -0.77093243736E+03  0.16017592893E+04  0.12699999809E+01 0. -1.
</event>
<event>
 5   0  0.1184616E-06  0.2316250E+04  0.7818609E-02  0.8471542E-01
        2   -1    0    0  501    0  0.00000000000E+00  0.00000000000E+00  0.14104367900E+04  0.14104367900E+04  0.25500000920E-02 0.  1.
       -2   -1    0    0    0  501  0.00000000000E+00  0.00000000000E+00 -0.95094864417E+03  0.95094864418E+03  0.25500000920E-02 0. -1.
    10030    2    1    2    0    0  0.00000000000E+00  0.00000000000E+00  0.45948814583E+03  0.23613854342E+04  0.23162495143E+04 0.  0.
        5    1    3    3  502    0 -0.17287600648E+02  0.36349152730E+03 -0.89113775006E+03  0.96258689536E+03  0.46999998093E+01 0. -1.
       -5    1    3    3    0  502  0.17287600648E+02 -0.36349152730E+03  0.13506258959E+04  0.13987985388E+04  0.46999998093E+01 0.  1.
</event>
<event>
 5   0  0.8030324E-07  0.3751500E+04  0.7818609E-02  0.8056644E-01
       -1   -1    0    0    0  501  0.00000000000E+00  0.00000000000E+00  0.13979346813E+04  0.13979346813E+04  0.50400001928E-02 0.  1.
        1   -1    0    0  501    0  0.00000000000E+00  0.00000000000E+00 -0.25168823938E+04  0.25168823938E+04  0.50400001928E-02 0. -1.
    10030    2    1    2    0    0  0.00000000000E+00  0.00000000000E+00 -0.11189477126E+04  0.39148170751E+04  0.37514995333E+04 0.  0.
        1    1    3    3  502    0 -0.70537489051E+03  0.71820127726E+03  0.10921705192E+04  0.14853293419E+04  0.50400001928E-02 0.  1.
       -1    1    3    3    0  502  0.70537489051E+03 -0.71820127726E+03 -0.22111182318E+04  0.24294877332E+04  0.50400001928E-02 0. -1.
</event>
<event>
 5   0  0.1184616E-06  0.3773713E+04  0.7818609E-02  0.8051820E-01
        2   -1    0    0  501    0  0.00000000000E+00  0.00000000000E+00  0.16793758067E+04  0.16793758067E+04  0.25500000920E-02 0. -1.
       -2   -1    0    0    0  501  0.00000000000E+00  0.00000000000E+00 -0.21199703555E+04  0.21199703555E+04  0.25500000920E-02 0.  1.
    10030    2    1    2    0    0  0.00000000000E+00  0.00000000000E+00 -0.44059454883E+03  0.37993461622E+04  0.37737127215E+04 0.  0.
        5    1    3    3  502    0 -0.25850641858E+03 -0.89568606838E+03 -0.18719054467E+04  0.20912032883E+04  0.46999998093E+01 0.  1.
       -5    1    3    3    0  502  0.25850641858E+03  0.89568606838E+03  0.14313108979E+04  0.17081428740E+04  0.46999998093E+01 0. -1.
</event>
<event>
 5   0  0.4255250E-07  0.3719806E+04  0.7818609E-02  0.8063587E-01
        1   -1    0    0  501    0  0.00000000000E+00  0.00000000000E+00  0.18088583411E+04  0.18088583411E+04  0.50400001928E-02 0. -1.
       -1   -1    0    0    0  501  0.00000000000E+00  0.00000000000E+00 -0.19123877675E+04  0.19123877675E+04  0.50400001928E-02 0.  1.
    10030    2    1    2    0    0  0.00000000000E+00  0.00000000000E+00 -0.10352942641E+03  0.37212461086E+04  0.37198056749E+04 0.  0.
        2    1    3    3  502    0  0.48078732893E+03  0.40290868289E+02  0.17451654538E+04  0.18106303518E+04  0.25500000920E-02 0. -1.
       -2    1    3    3    0  502 -0.48078732893E+03 -0.40290868289E+02 -0.18486948803E+04  0.19106157568E+04  0.25500000920E-02 0.  1.
</event>
<event>
 5   0  0.1341932E-06  0.3149801E+04  0.7818609E-02  0.8202202E-01
       -2   -1    0    0    0  501  0.00000000000E+00  0.00000000000E+00  0.12809256035E+04  0.12809256035E+04  0.25500000920E-02 0.  1.
        2   -1    0    0  501    0  0.00000000000E+00  0.00000000000E+00 -0.19363428442E+04  0.19363428442E+04  0.25500000920E-02 0. -1.
    10030    2    1    2    0    0  0.00000000000E+00  0.00000000000E+00 -0.65541724063E+03  0.32172684477E+04  0.31498007088E+04 0.  0.
        2    1    3    3  502    0 -0.35835680051E+03 -0.78141921388E+03 -0.16755474799E+04  0.18832139925E+04  0.25500000920E-02 0. -1.
       -2    1    3    3    0  502  0.35835680051E+03  0.78141921388E+03  0.10201302393E+04  0.13340544552E+04  0.25500000920E-02 0.  1.
</event>
</LesHouchesEvents>
