<LesHouchesEvents version="3.0">
<header>
<!--
#*********************************************************************
#                                                                    *
#                        MadGraph5_aMC@NLO                           *
#                                                                    *
#                           Going Beyond                             *
#                                                                    *
#                   http://madgraph.hep.uiuc.edu                     *
#                   http://madgraph.phys.ucl.ac.be                   *
#                   http://amcatnlo.cern.ch                          *
#                                                                    *
#                     The MadGraph5_aMC@NLO team                     *
#                                                                    *
#....................................................................*
#                                                                    *
# This file contains all the information necessary to reproduce      *
# the events generated:                                              *
#                                                                    *
# 1. software version                                                *
# 2. proc_card          : code generation info including model       *
# 3. param_card         : model primary parameters in the LH format  *
# 4. run_card           : running parameters (collider and cuts)     *
# 5. pythia_card        : present only if pythia has been run        *
# 6. pgs_card           : present only if pgs has been run           *
# 7. delphes_cards      : present only if delphes has been run       *
#                                                                    *
#                                                                    *
#*********************************************************************
-->
<MGVersion>
#5.2.2.3
</MGVersion>
<MG5ProcCard>
#************************************************************
#*                     MadGraph5_aMC@NLO                    *
#*                                                          *
#*                *                       *                 *
#*                  *        * *        *                   *
#*                    * * * * 5 * * * *                     *
#*                  *        * *        *                   *
#*                *                       *                 *
#*                                                          *
#*                                                          *
#*         VERSION 2.2.3                 2015-02-10         *
#*                                                          *
#*    The MadGraph5_aMC@NLO Development Team - Find us at   *
#*    https://server06.fynu.ucl.ac.be/projects/madgraph     *
#*                                                          *
#************************************************************
#*                                                          *
#*               Command File for MadGraph5_aMC@NLO         *
#*                                                          *
#*     run as ./bin/mg5_aMC  filename                       *
#*                                                          *
#************************************************************
set group_subprocesses Auto
set ignore_six_quark_processes False
set loop_optimized_output True
set gauge unitary
set complex_mass_scheme False
import model sm
define p = g u c d s u~ c~ d~ s~
define j = g u c d s u~ c~ d~ s~
define l+ = e+ mu+
define l- = e- mu-
define vl = ve vm vt
define vl~ = ve~ vm~ vt~
import model Zprime_UFO
generate p p > zph, zph > j j
add process p p > zph, zph > b b~
output Dijet_signal
</MG5ProcCard>
<MGProcCard>
#*********************************************************************
#                        MadGraph/MadEvent                           *
#                   http://madgraph.hep.uiuc.edu                     *
#                                                                    *
#                          proc_card.dat                             *
#*********************************************************************
#                                                                    *
#            This Files is generated by MADGRAPH 5                   *
#                                                                    *
# WARNING: This Files is generated for MADEVENT (compatibility issue)*
#          This files is NOT a valid MG4 proc_card.dat               *
#          Running this in MG4 will NEVER reproduce the result of MG5*
#                                                                    *
#*********************************************************************
#*********************************************************************
# Process(es) requested : mg2 input                                  *
#*********************************************************************
# Begin PROCESS # This is TAG. Do not modify this line
p p > zph , zph > j j           #Process
# Be carefull the coupling are here in MG5 convention
          
end_coup           # End the couplings input

done               # this tells MG there are no more procs
# End PROCESS  # This is TAG. Do not modify this line
#*********************************************************************
# Model information                                                  *
#*********************************************************************
# Begin MODEL  # This is TAG. Do not modify this line
Zprime_UFO
# End   MODEL  # This is TAG. Do not modify this line
#*********************************************************************
# Start multiparticle definitions                                    *
#*********************************************************************
# Begin MULTIPARTICLES # This is TAG. Do not modify this line

# End  MULTIPARTICLES # This is TAG. Do not modify this line
</MGProcCard>
<MGRunCard>
#*********************************************************************
#                       MadGraph5_aMC@NLO                            *
#                                                                    *
#                     run_card.dat MadEvent                          *
#                                                                    *
#  This file is used to set the parameters of the run.               *
#                                                                    *
#  Some notation/conventions:                                        *
#                                                                    *
#   Lines starting with a '# ' are info or comments                  *
#                                                                    *
#   mind the format:   value    = variable     ! comment             *
#*********************************************************************
#
#*******************                                                 
# Running parameters
#*******************                                                 
#                                                                    
#*********************************************************************
# Tag name for the run (one word)                                    *
#*********************************************************************
  tag_1     = run_tag ! name of the run 
#*********************************************************************
# Run to generate the grid pack                                      *
#*********************************************************************
  .false.     = gridpack  !True = setting up the grid pack
#*********************************************************************
# Number of events and rnd seed                                      *
# Warning: Do not generate more than 1M events in a single run       *
# If you want to run Pythia, avoid more than 50k events in a run.    *
#*********************************************************************
  2000 = nevents ! Number of unweighted events requested 
 1740 = iseed   ! rnd seed (0=assigned automatically=default))
#*********************************************************************
# Collider type and energy                                           *
# lpp: 0=No PDF, 1=proton, -1=antiproton, 2=photon from proton,      *
#                                         3=photon from electron     *
#*********************************************************************
        1     = lpp1    ! beam 1 type 
        1     = lpp2    ! beam 2 type
     4000     = ebeam1  ! beam 1 total energy in GeV
     4000     = ebeam2  ! beam 2 total energy in GeV
#*********************************************************************
# Beam polarization from -100 (left-handed) to 100 (right-handed)    *
#*********************************************************************
        0     = polbeam1 ! beam polarization for beam 1
        0     = polbeam2 ! beam polarization for beam 2
#*********************************************************************
# PDF CHOICE: this automatically fixes also alpha_s and its evol.    *
#*********************************************************************
 'nn23lo1'    = pdlabel     ! PDF set                                     
 230000    = lhaid     ! if pdlabel=lhapdf, this is the lhapdf number
#*********************************************************************
# Renormalization and factorization scales                           *
#*********************************************************************
 F        = fixed_ren_scale  ! if .true. use fixed ren scale
 F        = fixed_fac_scale  ! if .true. use fixed fac scale
 91.1880  = scale            ! fixed ren scale
 91.1880  = dsqrt_q2fact1    ! fixed fact scale for pdf1
 91.1880  = dsqrt_q2fact2    ! fixed fact scale for pdf2
 1        = scalefact        ! scale factor for event-by-event scales
#*********************************************************************
# Matching - Warning! ickkw > 1 is still beta
#*********************************************************************
 0        = ickkw            ! 0 no matching, 1 MLM, 2 CKKW matching
 1        = highestmult      ! for ickkw=2, highest mult group
 1        = ktscheme         ! for ickkw=1, 1 Durham kT, 2 Pythia pTE
 1        = alpsfact         ! scale factor for QCD emission vx
 F        = chcluster        ! cluster only according to channel diag
 T        = pdfwgt           ! for ickkw=1, perform pdf reweighting
 5        = asrwgtflavor     ! highest quark flavor for a_s reweight
 T        = clusinfo         ! include clustering tag in output
 3.0      = lhe_version       ! Change the way clustering information pass to shower.        
#*********************************************************************
#**********************************************************
#
#**********************************************************
# Automatic ptj and mjj cuts if xqcut > 0
# (turn off for VBF and single top processes)
#**********************************************************
   T  = auto_ptj_mjj  ! Automatic setting of ptj and mjj
#**********************************************************
#                                                                    
#**********************************
# BW cutoff (M+/-bwcutoff*Gamma)
#**********************************
  15  = bwcutoff      ! (M+/-bwcutoff*Gamma)
#**********************************************************
# Apply pt/E/eta/dr/mij cuts on decay products or not
# (note that etmiss/ptll/ptheavy/ht/sorted cuts always apply)
#**********************************************************
   T  = cut_decays    ! Cut decay products 
#*************************************************************
# Number of helicities to sum per event (0 = all helicities)
# 0 gives more stable result, but longer run time (needed for
# long decay chains e.g.).
# Use >=2 if most helicities contribute, e.g. pure QCD.
#*************************************************************
   0  = nhel          ! Number of helicities used per event
#*******************                                                 
# Standard Cuts
#*******************                                                 
#                                                                    
#*********************************************************************
# Minimum and maximum pt's (for max, -1 means no cut)                *
#*********************************************************************
 20  = ptj       ! minimum pt for the jets 
  0  = ptb       ! minimum pt for the b 
 10  = pta       ! minimum pt for the photons 
 10  = ptl       ! minimum pt for the charged leptons 
  0  = misset    ! minimum missing Et (sum of neutrino's momenta)
  0  = ptheavy   ! minimum pt for one heavy final state
 1.0 = ptonium   ! minimum pt for the quarkonium states
 -1  = ptjmax    ! maximum pt for the jets
 -1  = ptbmax    ! maximum pt for the b
 -1  = ptamax    ! maximum pt for the photons
 -1  = ptlmax    ! maximum pt for the charged leptons
 -1  = missetmax ! maximum missing Et (sum of neutrino's momenta)
#*********************************************************************
# Minimum and maximum E's (in the center of mass frame)              *
#*********************************************************************
  0  = ej     ! minimum E for the jets 
  0  = eb     ! minimum E for the b 
  0  = ea     ! minimum E for the photons 
  0  = el     ! minimum E for the charged leptons 
 -1   = ejmax ! maximum E for the jets
 -1   = ebmax ! maximum E for the b
 -1   = eamax ! maximum E for the photons
 -1   = elmax ! maximum E for the charged leptons
#*********************************************************************
# Maximum and minimum absolute rapidity (for max, -1 means no cut)   *
#*********************************************************************
   5  = etaj    ! max rap for the jets 
  -1  = etab    ! max rap for the b
 2.5  = etaa    ! max rap for the photons 
 2.5  = etal    ! max rap for the charged leptons 
 0.6  = etaonium ! max rap for the quarkonium states
   0  = etajmin ! min rap for the jets
   0  = etabmin ! min rap for the b
   0  = etaamin ! min rap for the photons
   0  = etalmin ! main rap for the charged leptons
#*********************************************************************
# Minimum and maximum DeltaR distance                                *
#*********************************************************************
 0.4 = drjj    ! min distance between jets 
 0   = drbb    ! min distance between b's 
 0.4 = drll    ! min distance between leptons 
 0.4 = draa    ! min distance between gammas 
 0   = drbj    ! min distance between b and jet 
 0.4 = draj    ! min distance between gamma and jet 
 0.4 = drjl    ! min distance between jet and lepton 
 0   = drab    ! min distance between gamma and b 
 0   = drbl    ! min distance between b and lepton 
 0.4 = dral    ! min distance between gamma and lepton 
 -1  = drjjmax ! max distance between jets
 -1  = drbbmax ! max distance between b's
 -1  = drllmax ! max distance between leptons
 -1  = draamax ! max distance between gammas
 -1  = drbjmax ! max distance between b and jet
 -1  = drajmax ! max distance between gamma and jet
 -1  = drjlmax ! max distance between jet and lepton
 -1  = drabmax ! max distance between gamma and b
 -1  = drblmax ! max distance between b and lepton
 -1  = dralmax ! maxdistance between gamma and lepton
#*********************************************************************
# Minimum and maximum invariant mass for pairs                       *
# WARNING: for four lepton final state mmll cut require to have      *
#          different lepton masses for each flavor!                  *           
#*********************************************************************
 0   = mmjj    ! min invariant mass of a jet pair 
 0   = mmbb    ! min invariant mass of a b pair 
 0   = mmaa    ! min invariant mass of gamma gamma pair
 0   = mmll    ! min invariant mass of l+l- (same flavour) lepton pair
 -1  = mmjjmax ! max invariant mass of a jet pair
 -1  = mmbbmax ! max invariant mass of a b pair
 -1  = mmaamax ! max invariant mass of gamma gamma pair
 -1  = mmllmax ! max invariant mass of l+l- (same flavour) lepton pair
#*********************************************************************
# Minimum and maximum invariant mass for all letpons                 *
#*********************************************************************
 0   = mmnl    ! min invariant mass for all letpons (l+- and vl) 
 -1  = mmnlmax ! max invariant mass for all letpons (l+- and vl) 
#*********************************************************************
# Minimum and maximum pt for 4-momenta sum of leptons                *
#*********************************************************************
 0   = ptllmin  ! Minimum pt for 4-momenta sum of leptons(l and vl)
 -1  = ptllmax  ! Maximum pt for 4-momenta sum of leptons(l and vl)
#*********************************************************************
# Inclusive cuts                                                     *
#*********************************************************************
 0  = xptj ! minimum pt for at least one jet  
 0  = xptb ! minimum pt for at least one b 
 0  = xpta ! minimum pt for at least one photon 
 0  = xptl ! minimum pt for at least one charged lepton 
#*********************************************************************
# Control the pt's of the jets sorted by pt                          *
#*********************************************************************
 0   = ptj1min ! minimum pt for the leading jet in pt
 0   = ptj2min ! minimum pt for the second jet in pt
 0   = ptj3min ! minimum pt for the third jet in pt
 0   = ptj4min ! minimum pt for the fourth jet in pt
 -1  = ptj1max ! maximum pt for the leading jet in pt 
 -1  = ptj2max ! maximum pt for the second jet in pt
 -1  = ptj3max ! maximum pt for the third jet in pt
 -1  = ptj4max ! maximum pt for the fourth jet in pt
 0   = cutuse  ! reject event if fails any (0) / all (1) jet pt cuts
#*********************************************************************
# Control the pt's of leptons sorted by pt                           *
#*********************************************************************
 0   = ptl1min ! minimum pt for the leading lepton in pt
 0   = ptl2min ! minimum pt for the second lepton in pt
 0   = ptl3min ! minimum pt for the third lepton in pt
 0   = ptl4min ! minimum pt for the fourth lepton in pt
 -1  = ptl1max ! maximum pt for the leading lepton in pt 
 -1  = ptl2max ! maximum pt for the second lepton in pt
 -1  = ptl3max ! maximum pt for the third lepton in pt
 -1  = ptl4max ! maximum pt for the fourth lepton in pt
#*********************************************************************
# Control the Ht(k)=Sum of k leading jets                            *
#*********************************************************************
 0   = htjmin ! minimum jet HT=Sum(jet pt)
 -1  = htjmax ! maximum jet HT=Sum(jet pt)
 0   = ihtmin  !inclusive Ht for all partons (including b)
 -1  = ihtmax  !inclusive Ht for all partons (including b)
 0   = ht2min ! minimum Ht for the two leading jets
 0   = ht3min ! minimum Ht for the three leading jets
 0   = ht4min ! minimum Ht for the four leading jets
 -1  = ht2max ! maximum Ht for the two leading jets
 -1  = ht3max ! maximum Ht for the three leading jets
 -1  = ht4max ! maximum Ht for the four leading jets
#***********************************************************************
# Photon-isolation cuts, according to hep-ph/9801442                   *
# When ptgmin=0, all the other parameters are ignored                  *
# When ptgmin>0, pta and draj are not going to be used                 *
#***********************************************************************
   0 = ptgmin ! Min photon transverse momentum
 0.4 = R0gamma ! Radius of isolation code
 1.0 = xn ! n parameter of eq.(3.4) in hep-ph/9801442
 1.0 = epsgamma ! epsilon_gamma parameter of eq.(3.4) in hep-ph/9801442
 .true. = isoEM ! isolate photons from EM energy (photons and leptons)
#*********************************************************************
# WBF cuts                                                           *
#*********************************************************************
 0   = xetamin ! minimum rapidity for two jets in the WBF case  
 0   = deltaeta ! minimum rapidity for two jets in the WBF case 
#*********************************************************************
# KT DURHAM CUT                                                      *
#*********************************************************************
 -1    =  ktdurham        
 0.4  =  dparameter 
#*********************************************************************
# maximal pdg code for quark to be considered as a light jet         *
# (otherwise b cuts are applied)                                     *
#*********************************************************************
 4 = maxjetflavor    ! Maximum jet pdg code
#*********************************************************************
# Jet measure cuts                                                   *
#*********************************************************************
 0   = xqcut   ! minimum kt jet measure between partons
#*********************************************************************
#
#*********************************************************************
# Store info for systematics studies                                 *
# WARNING: If use_syst is T, matched Pythia output is                *
#          meaningful ONLY if plotted taking matchscale              *
#          reweighting into account!                                 *
#*********************************************************************
   F  = use_syst      ! Enable systematics studies
#
#**************************************
# Parameter of the systematics study
#  will be used by SysCalc (if installed)
#**************************************                                  
#
0.5 1 2 = sys_scalefact  # factorization/renormalization scale factor
0.5 1 2 = sys_alpsfact  # \alpha_s emission scale factors
30 50 = sys_matchscale # variation of merging scale
# PDF sets and number of members (0 or none for all members).
CT10nlo.LHgrid = sys_pdf # matching scales
# MSTW2008nlo68cl.LHgrid 1  = sys_pdf
</MGRunCard>
<slha>
######################################################################
## PARAM_CARD AUTOMATICALY GENERATED BY MG5 FOLLOWING UFO MODEL   ####
######################################################################
##                                                                  ##
##  Width set on Auto will be computed following the information    ##
##        present in the decay.py files of the model.               ##
##        See  arXiv:1402.1178 for more details.                    ##
##                                                                  ##
######################################################################

###################################
## INFORMATION FOR CKMBLOCK
###################################
Block ckmblock 
    1 2.277360e-01 # cabi 

###################################
## INFORMATION FOR FRBLOCK
###################################
Block frblock 
    1 8.000000e-01 # gz 

###################################
## INFORMATION FOR MASS
###################################
Block mass 
    1 5.040000e-03 # MD 
    2 2.550000e-03 # MU 
    3 1.010000e-01 # MS 
    4 1.270000e+00 # MC 
    5 4.700000e+00 # MB 
    6 1.720000e+02 # MT 
   11 5.110000e-04 # Me 
   13 1.056600e-01 # MM 
   15 1.777000e+00 # MTA 
   23 9.118760e+01 # MZ 
   25 1.200000e+02 # MH 
  10030 3.500000e+03 # MZph 
  10031 3.000000e+02 # MZpl 
## Dependent parameters, given by model restrictions.
## Those values should be edited following the 
## analytical expression. MG5 ignores those values 
## but they are important for interfacing the output of MG5
## to external program such as Pythia.
  12 0.000000 # ve : 0.0 
  14 0.000000 # vm : 0.0 
  16 0.000000 # vt : 0.0 
  21 0.000000 # g : 0.0 
  22 0.000000 # a : 0.0 
  24 79.824360 # w+ : cmath.sqrt(MZ__exp__2/2. + cmath.sqrt(MZ__exp__4/4. - (aEW*cmath.pi*MZ__exp__2)/(Gf*sqrt__2))) 

###################################
## INFORMATION FOR SMINPUTS
###################################
Block sminputs 
    1 1.279000e+02 # aEWM1 
    2 1.166370e-05 # Gf 
    3 1.184000e-01 # aS 

###################################
## INFORMATION FOR YUKAWA
###################################
Block yukawa 
    1 5.040000e-03 # ymdo 
    2 2.550000e-03 # ymup 
    3 1.010000e-01 # yms 
    4 1.270000e+00 # ymc 
    5 4.700000e+00 # ymb 
    6 1.720000e+02 # ymt 
   11 5.110000e-04 # yme 
   13 1.056600e-01 # ymm 
   15 1.777000e+00 # ymtau 

###################################
## INFORMATION FOR DECAY
###################################
DECAY   6 1.508336e+00 # WT 
DECAY  23 2.495200e+00 # WZ 
DECAY  24 2.085000e+00 # WW 
DECAY  25 5.753088e-03 # WH 
## Dependent parameters, given by model restrictions.
## Those values should be edited following the 
## analytical expression. MG5 ignores those values 
## but they are important for interfacing the output of MG5
## to external program such as Pythia.
DECAY  1 0.000000 # d : 0.0 
DECAY  2 0.000000 # u : 0.0 
DECAY  3 0.000000 # s : 0.0 
DECAY  4 0.000000 # c : 0.0 
DECAY  5 0.000000 # b : 0.0 
DECAY  11 0.000000 # e- : 0.0 
DECAY  12 0.000000 # ve : 0.0 
DECAY  13 0.000000 # mu- : 0.0 
DECAY  14 0.000000 # vm : 0.0 
DECAY  15 0.000000 # ta- : 0.0 
DECAY  16 0.000000 # vt : 0.0 
DECAY  21 0.000000 # g : 0.0 
DECAY  22 0.000000 # a : 0.0 
DECAY  10030 0.308725 # zph : (gz__exp__2*MZph*(5 + cmath.sqrt(1 - (4*MT__exp__2)/MZph__exp__2)))/(144.*cmath.pi) 
DECAY  10031 0.132629 # zpl : (5*gz__exp__2*MZpl)/(144.*cmath.pi) 
#===========================================================
# QUANTUM NUMBERS OF NEW STATE(S) (NON SM PDG CODE)
#===========================================================

Block QNUMBERS 10030  # zph 
        1 0  # 3 times electric charge
        2 3  # number of spin states (2S+1)
        3 1  # colour rep (1: singlet, 3: triplet, 8: octet)
        4 0  # Particle/Antiparticle distinction (0=own anti)
Block QNUMBERS 10031  # zpl 
        1 0  # 3 times electric charge
        2 3  # number of spin states (2S+1)
        3 1  # colour rep (1: singlet, 3: triplet, 8: octet)
        4 0  # Particle/Antiparticle distinction (0=own anti)
</slha>
## END BANNER##
<MGGenerationInfo>
#  Number of Events        :         3877
#  Integrated weight (pb)  :  0.14584E-03
#  Max wgt                 :  0.57408E-07
#  Average wgt             :  0.37617E-07
</MGGenerationInfo>
</header>
<init>
     2212     2212  0.40000000000E+04  0.40000000000E+04 0 0  247000  247000 2   1
  0.14588532260E-03  0.31004632296E-06  0.57408270000E-07   0
</init>
<event>
 5   0  0.5707187E-07  0.3520229E+04  0.7818609E-02  0.8109013E-01
        2   -1    0    0  501    0  0.00000000000E+00  0.00000000000E+00  0.27726627393E+04  0.27726627393E+04  0.25500000920E-02 0. -1.
       -2   -1    0    0    0  501  0.00000000000E+00  0.00000000000E+00 -0.11173382981E+04  0.11173382981E+04  0.25500000920E-02 0.  1.
    10030    2    1    2    0    0  0.00000000000E+00  0.00000000000E+00  0.16553244412E+04  0.38900010374E+04  0.35202285530E+04 0.  0.
        1    1    3    3  502    0  0.86678459557E+02  0.88597222453E+03  0.25055596393E+04  0.26590015126E+04  0.50400001928E-02 0. -1.
       -1    1    3    3    0  502 -0.86678459557E+02 -0.88597222453E+03 -0.85023519809E+03  0.12309995248E+04  0.50400001928E-02 0.  1.
</event>
<event>
 5   0  0.5707187E-07  0.3522896E+04  0.7818609E-02  0.8108385E-01
        2   -1    0    0  501    0  0.00000000000E+00  0.00000000000E+00  0.17217401674E+04  0.17217401674E+04  0.25500000920E-02 0.  1.
       -2   -1    0    0    0  501  0.00000000000E+00  0.00000000000E+00 -0.18020714943E+04  0.18020714943E+04  0.25500000920E-02 0. -1.
    10030    2    1    2    0    0  0.00000000000E+00  0.00000000000E+00 -0.80331326910E+02  0.35238116617E+04  0.35228958976E+04 0.  0.
        1    1    3    3  502    0 -0.52566208348E+03 -0.16811397195E+04 -0.52313519575E+02  0.17621827621E+04  0.50400001928E-02 0.  1.
       -1    1    3    3    0  502  0.52566208348E+03  0.16811397195E+04 -0.28017807334E+02  0.17616288997E+04  0.50400001928E-02 0. -1.
</event>
<event>
 5   0  0.5677193E-07  0.3562487E+04  0.7818609E-02  0.8099139E-01
       -2   -1    0    0    0  501  0.00000000000E+00  0.00000000000E+00  0.13216620955E+04  0.13216620955E+04  0.25500000920E-02 0.  1.
        2   -1    0    0  501    0  0.00000000000E+00  0.00000000000E+00 -0.24006346817E+04  0.24006346817E+04  0.25500000920E-02 0. -1.
    10030    2    1    2    0    0  0.00000000000E+00  0.00000000000E+00 -0.10789725862E+04  0.37222967773E+04  0.35624866956E+04 0.  0.
        3    1    3    3  502    0  0.14103570401E+04 -0.52459079432E+03 -0.15354104697E+04  0.21498343663E+04  0.10100000352E+00 0. -1.
       -3    1    3    3    0  502 -0.14103570401E+04  0.52459079432E+03  0.45643788347E+03  0.15724624109E+04  0.10100000352E+00 0.  1.
</event>
<event>
 5   0  0.5707187E-07  0.3594927E+04  0.7818609E-02  0.8091655E-01
        2   -1    0    0  501    0  0.00000000000E+00  0.00000000000E+00  0.24690831702E+04  0.24690831702E+04  0.25500000920E-02 0. -1.
       -2   -1    0    0    0  501  0.00000000000E+00  0.00000000000E+00 -0.13085320262E+04  0.13085320263E+04  0.25500000920E-02 0.  1.
    10030    2    1    2    0    0  0.00000000000E+00  0.00000000000E+00  0.11605511439E+04  0.37776151964E+04  0.35949266494E+04 0.  0.
        1    1    3    3  502    0  0.10766029720E+04 -0.98756170797E+03 -0.52008854841E+03  0.15507560042E+04  0.50400001928E-02 0.  1.
       -1    1    3    3    0  502 -0.10766029720E+04  0.98756170797E+03  0.16806396924E+04  0.22268591922E+04  0.50400001928E-02 0. -1.
</event>
<event>
 5   0  0.5677193E-07  0.3493088E+04  0.7818609E-02  0.8115430E-01
        2   -1    0    0  501    0  0.00000000000E+00  0.00000000000E+00  0.19401650038E+04  0.19401650038E+04  0.25500000920E-02 0. -1.
       -2   -1    0    0    0  501  0.00000000000E+00  0.00000000000E+00 -0.15722458386E+04  0.15722458386E+04  0.25500000920E-02 0.  1.
    10030    2    1    2    0    0  0.00000000000E+00  0.00000000000E+00  0.36791916520E+03  0.35124108423E+04  0.34930882344E+04 0.  0.
        3    1    3    3  502    0 -0.72886581457E+02  0.14274096202E+04  0.11933078772E+04  0.18619329680E+04  0.10100000352E+00 0. -1.
       -3    1    3    3    0  502  0.72886581457E+02 -0.14274096202E+04 -0.82538871199E+03  0.16504778743E+04  0.10100000352E+00 0.  1.
</event>
<event>
 5   0  0.1866421E-07  0.3503078E+04  0.7818609E-02  0.8113061E-01
        1   -1    0    0  501    0  0.00000000000E+00  0.00000000000E+00  0.23205607539E+04  0.23205607539E+04  0.50400001928E-02 0. -1.
       -1   -1    0    0    0  501  0.00000000000E+00  0.00000000000E+00 -0.13220462216E+04  0.13220462216E+04  0.50400001928E-02 0.  1.
    10030    2    1    2    0    0  0.00000000000E+00  0.00000000000E+00  0.99851453230E+03  0.36426069754E+04  0.35030778333E+04 0.  0.
        1    1    3    3  502    0  0.68194945864E+03 -0.95369630592E+03 -0.85384019978E+03  0.14503912558E+04  0.50400001928E-02 0.  1.
       -1    1    3    3    0  502 -0.68194945864E+03  0.95369630592E+03  0.18523547321E+04  0.21922157197E+04  0.50400001928E-02 0. -1.
</event>
<event>
 5   0  0.1873457E-07  0.3478142E+04  0.7818609E-02  0.8118990E-01
        1   -1    0    0  501    0  0.00000000000E+00  0.00000000000E+00  0.20405676778E+04  0.20405676778E+04  0.50400001928E-02 0. -1.
       -1   -1    0    0    0  501  0.00000000000E+00  0.00000000000E+00 -0.14821211173E+04  0.14821211173E+04  0.50400001928E-02 0.  1.
    10030    2    1    2    0    0  0.00000000000E+00  0.00000000000E+00  0.55844656046E+03  0.35226887951E+04  0.34781422895E+04 0.  0.
        3    1    3    3  502    0  0.62552334417E+03 -0.79747411686E+03  0.17105192558E+04  0.19882455975E+04  0.10100000352E+00 0. -1.
       -3    1    3    3    0  502 -0.62552334417E+03  0.79747411686E+03 -0.11520726954E+04  0.15344431976E+04  0.10100000352E+00 0.  1.
</event>
<event>
 5   0  0.5707187E-07  0.3500116E+04  0.7818609E-02  0.8113762E-01
        2   -1    0    0  501    0  0.00000000000E+00  0.00000000000E+00  0.13529636201E+04  0.13529636201E+04  0.25500000920E-02 0.  1.
       -2   -1    0    0    0  501  0.00000000000E+00  0.00000000000E+00 -0.22636992918E+04  0.22636992918E+04  0.25500000920E-02 0. -1.
    10030    2    1    2    0    0  0.00000000000E+00  0.00000000000E+00 -0.91073567169E+03  0.36166629118E+04  0.35001158773E+04 0.  0.
        1    1    3    3  502    0  0.10056038433E+04 -0.39560197191E+02  0.10240532655E+04  0.14357886994E+04  0.50400001928E-02 0.  1.
       -1    1    3    3    0  502 -0.10056038433E+04  0.39560197191E+02 -0.19347889372E+04  0.21808742124E+04  0.50400001928E-02 0. -1.
</event>
<event>
 5   0  0.1897049E-07  0.3484852E+04  0.7818609E-02  0.8117389E-01
        1   -1    0    0  501    0  0.00000000000E+00  0.00000000000E+00  0.16292009368E+04  0.16292009368E+04  0.50400001928E-02 0. -1.
       -1   -1    0    0    0  501  0.00000000000E+00  0.00000000000E+00 -0.18635197694E+04  0.18635197694E+04  0.50400001928E-02 0.  1.
    10030    2    1    2    0    0  0.00000000000E+00  0.00000000000E+00 -0.23431883257E+03  0.34927207062E+04  0.34848518787E+04 0.  0.
        2    1    3    3  502    0  0.23042415568E+03 -0.12334195256E+04  0.10945490193E+04  0.16650695400E+04  0.25500000920E-02 0. -1.
       -2    1    3    3    0  502 -0.23042415568E+03  0.12334195256E+04 -0.13288678518E+04  0.18276511662E+04  0.25500000920E-02 0.  1.
</event>
<event>
 5   0  0.5707187E-07  0.3505968E+04  0.7818609E-02  0.8112377E-01
       -2   -1    0    0    0  501  0.00000000000E+00  0.00000000000E+00  0.18784565623E+04  0.18784565623E+04  0.25500000920E-02 0. -1.
        2   -1    0    0  501    0  0.00000000000E+00  0.00000000000E+00 -0.16358924073E+04  0.16358924073E+04  0.25500000920E-02 0.  1.
    10030    2    1    2    0    0  0.00000000000E+00  0.00000000000E+00  0.24256415498E+03  0.35143489697E+04  0.35059679564E+04 0.  0.
        1    1    3    3  502    0  0.16881024389E+03 -0.35398186178E+03  0.18339192009E+04  0.18753825456E+04  0.50400001928E-02 0. -1.
       -1    1    3    3    0  502 -0.16881024389E+03  0.35398186178E+03 -0.15913550459E+04  0.16389664241E+04  0.50400001928E-02 0.  1.
</event>
<event>
 5   0  0.5554745E-07  0.3498450E+04  0.7818609E-02  0.8114157E-01
        2   -1    0    0  501    0  0.00000000000E+00  0.00000000000E+00  0.16433334127E+04  0.16433334127E+04  0.25500000920E-02 0. -1.
       -2   -1    0    0    0  501  0.00000000000E+00  0.00000000000E+00 -0.18619395654E+04  0.18619395654E+04  0.25500000920E-02 0.  1.
    10030    2    1    2    0    0  0.00000000000E+00  0.00000000000E+00 -0.21860615267E+03  0.35052729781E+04  0.34984496568E+04 0.  0.
        5    1    3    3  502    0  0.37573589886E+03 -0.12092006476E+04  0.10998736862E+04  0.16772262481E+04  0.46999998093E+01 0. -1.
       -5    1    3    3    0  502 -0.37573589886E+03  0.12092006476E+04 -0.13184798388E+04  0.18280467300E+04  0.46999998093E+01 0.  1.
</event>
<event>
 5   0  0.5554745E-07  0.3505109E+04  0.7818609E-02  0.8112580E-01
        2   -1    0    0  501    0  0.00000000000E+00  0.00000000000E+00  0.25306364381E+04  0.25306364381E+04  0.25500000920E-02 0. -1.
       -2   -1    0    0    0  501  0.00000000000E+00  0.00000000000E+00 -0.12137055687E+04  0.12137055687E+04  0.25500000920E-02 0.  1.
    10030    2    1    2    0    0  0.00000000000E+00  0.00000000000E+00  0.13169308694E+04  0.37443420068E+04  0.35051091494E+04 0.  0.
        5    1    3    3  502    0 -0.86292864066E+02  0.98682249422E+03  0.22028795654E+04  0.24153603382E+04  0.46999998093E+01 0. -1.
       -5    1    3    3    0  502  0.86292864066E+02 -0.98682249422E+03 -0.88594869608E+03  0.13289816686E+04  0.46999998093E+01 0.  1.
</event>
<event>
 5   0  0.1908190E-07  0.3481287E+04  0.7818609E-02  0.8118239E-01
        1   -1    0    0  501    0  0.00000000000E+00  0.00000000000E+00  0.19044379553E+04  0.19044379553E+04  0.50400001928E-02 0. -1.
       -1   -1    0    0    0  501  0.00000000000E+00  0.00000000000E+00 -0.15909361504E+04  0.15909361504E+04  0.50400001928E-02 0.  1.
    10030    2    1    2    0    0  0.00000000000E+00  0.00000000000E+00  0.31350180483E+03  0.34953741057E+04  0.34812866525E+04 0.  0.
        5    1    3    3  502    0  0.34130189614E+03 -0.82709347411E+03 -0.13423571133E+04  0.16132313253E+04  0.46999998093E+01 0.  1.
       -5    1    3    3    0  502 -0.34130189614E+03  0.82709347411E+03  0.16558589181E+04  0.18821427804E+04  0.46999998093E+01 0. -1.
</event>
<event>
 5   0  0.1866421E-07  0.3480918E+04  0.7818609E-02  0.8118327E-01
        1   -1    0    0  501    0  0.00000000000E+00  0.00000000000E+00  0.19559188959E+04  0.19559188959E+04  0.50400001928E-02 0.  1.
       -1   -1    0    0    0  501  0.00000000000E+00  0.00000000000E+00 -0.15487339564E+04  0.15487339564E+04  0.50400001928E-02 0. -1.
    10030    2    1    2    0    0  0.00000000000E+00  0.00000000000E+00  0.40718493953E+03  0.35046528524E+04  0.34809182755E+04 0.  0.
        1    1    3    3  502    0 -0.15015356149E+03  0.15681363739E+04 -0.54145336359E+03  0.16657639461E+04  0.50400001928E-02 0.  1.
       -1    1    3    3    0  502  0.15015356149E+03 -0.15681363739E+04  0.94863830312E+03  0.18388889062E+04  0.50400001928E-02 0. -1.
</event>
<event>
 5   0  0.1873457E-07  0.3523631E+04  0.7818609E-02  0.8108212E-01
       -1   -1    0    0    0  501  0.00000000000E+00  0.00000000000E+00  0.29984547387E+04  0.29984547387E+04  0.50400001928E-02 0.  1.
        1   -1    0    0  501    0  0.00000000000E+00  0.00000000000E+00 -0.10351977434E+04  0.10351977434E+04  0.50400001928E-02 0. -1.
    10030    2    1    2    0    0  0.00000000000E+00  0.00000000000E+00  0.19632569953E+04  0.40336524821E+04  0.35236308429E+04 0.  0.
        3    1    3    3  502    0 -0.16524558162E+04  0.61095289411E+03  0.96909339340E+03  0.20107251624E+04  0.10100000352E+00 0.  1.
       -3    1    3    3    0  502  0.16524558162E+04 -0.61095289411E+03  0.99416360192E+03  0.20229273197E+04  0.10100000352E+00 0. -1.
</event>
<event>
 5   0  0.1873457E-07  0.3508095E+04  0.7818609E-02  0.8111874E-01
       -1   -1    0    0    0  501  0.00000000000E+00  0.00000000000E+00  0.15312306858E+04  0.15312306858E+04  0.50400001928E-02 0.  1.
        1   -1    0    0  501    0  0.00000000000E+00  0.00000000000E+00 -0.20092870241E+04  0.20092870241E+04  0.50400001928E-02 0. -1.
    10030    2    1    2    0    0  0.00000000000E+00  0.00000000000E+00 -0.47805633830E+03  0.35405177099E+04  0.35080946099E+04 0.  0.
        3    1    3    3  502    0 -0.14923815163E+03  0.73829501797E+02 -0.20012934060E+04  0.20082076905E+04  0.10100000352E+00 0. -1.
       -3    1    3    3    0  502  0.14923815163E+03 -0.73829501797E+02  0.15232370677E+04  0.15323100195E+04  0.10100000352E+00 0.  1.
</event>
<event>
 5   0  0.5707187E-07  0.3486044E+04  0.7818609E-02  0.8117105E-01
       -2   -1    0    0    0  501  0.00000000000E+00  0.00000000000E+00  0.19632674627E+04  0.19632674627E+04  0.25500000920E-02 0.  1.
        2   -1    0    0  501    0  0.00000000000E+00  0.00000000000E+00 -0.15474839353E+04  0.15474839353E+04  0.25500000920E-02 0. -1.
    10030    2    1    2    0    0  0.00000000000E+00  0.00000000000E+00  0.41578352734E+03  0.35107513980E+04  0.34860435220E+04 0.  0.
        1    1    3    3  502    0  0.13020229850E+04 -0.11478304896E+04  0.36822496746E+03  0.17743641996E+04  0.50400001928E-02 0.  1.
       -1    1    3    3    0  502 -0.13020229850E+04  0.11478304896E+04  0.47558559882E+02  0.17363871984E+04  0.50400001928E-02 0. -1.
</event>
<event>
 5   0  0.1933647E-07  0.3479537E+04  0.7818609E-02  0.8118657E-01
        1   -1    0    0  501    0  0.00000000000E+00  0.00000000000E+00  0.20827007520E+04  0.20827007520E+04  0.50400001928E-02 0.  1.
       -1   -1    0    0    0  501  0.00000000000E+00  0.00000000000E+00 -0.14533021954E+04  0.14533021954E+04  0.50400001928E-02 0. -1.
    10030    2    1    2    0    0  0.00000000000E+00  0.00000000000E+00  0.62939855657E+03  0.35360029474E+04  0.34795365066E+04 0.  0.
        4    1    3    3  502    0  0.29449615057E+03 -0.77064986250E+03 -0.12418765795E+04  0.14909353590E+04  0.12699999809E+01 0. -1.
       -4    1    3    3    0  502 -0.29449615057E+03  0.77064986250E+03  0.18712751360E+04  0.20450675884E+04  0.12699999809E+01 0.  1.
</event>
<event>
 5   0  0.1866421E-07  0.3539905E+04  0.7818609E-02  0.8104397E-01
        1   -1    0    0  501    0  0.00000000000E+00  0.00000000000E+00  0.18329736396E+04  0.18329736396E+04  0.50400001928E-02 0. -1.
       -1   -1    0    0    0  501  0.00000000000E+00  0.00000000000E+00 -0.17090985327E+04  0.17090985327E+04  0.50400001928E-02 0.  1.
    10030    2    1    2    0    0  0.00000000000E+00  0.00000000000E+00  0.12387510684E+03  0.35420721723E+04  0.35399053987E+04 0.  0.
        1    1    3    3  502    0  0.90125189817E+03 -0.14192559501E+04  0.61562074298E+03  0.17903997696E+04  0.50400001928E-02 0. -1.
       -1    1    3    3    0  502 -0.90125189817E+03  0.14192559501E+04 -0.49174563614E+03  0.17516724027E+04  0.50400001928E-02 0.  1.
</event>
<event>
 5   0  0.5740827E-07  0.3515366E+04  0.7818609E-02  0.8110158E-01
        2   -1    0    0  501    0  0.00000000000E+00  0.00000000000E+00  0.17300239477E+04  0.17300239477E+04  0.25500000920E-02 0. -1.
       -2   -1    0    0    0  501  0.00000000000E+00  0.00000000000E+00 -0.17857843857E+04  0.17857843857E+04  0.25500000920E-02 0.  1.
    10030    2    1    2    0    0  0.00000000000E+00  0.00000000000E+00 -0.55760438004E+02  0.35158083335E+04  0.35153661276E+04 0.  0.
        2    1    3    3  502    0 -0.40910307396E+03  0.13834549691E+04 -0.10320666677E+04  0.17738304832E+04  0.25500000920E-02 0.  1.
       -2    1    3    3    0  502  0.40910307396E+03 -0.13834549691E+04  0.97630622967E+03  0.17419778502E+04  0.25500000920E-02 0. -1.
</event>
<event>
 5   0  0.1873457E-07  0.3512639E+04  0.7818609E-02  0.8110801E-01
        1   -1    0    0  501    0  0.00000000000E+00  0.00000000000E+00  0.19432777507E+04  0.19432777507E+04  0.50400001928E-02 0.  1.
       -1   -1    0    0    0  501  0.00000000000E+00  0.00000000000E+00 -0.15873476429E+04  0.15873476429E+04  0.50400001928E-02 0. -1.
    10030    2    1    2    0    0  0.00000000000E+00  0.00000000000E+00  0.35593010783E+03  0.35306253936E+04  0.35126385280E+04 0.  0.
        3    1    3    3  502    0  0.14021387523E+04 -0.68256652003E+03 -0.63411219959E+03  0.16834454036E+04  0.10100000352E+00 0. -1.
       -3    1    3    3    0  502 -0.14021387523E+04  0.68256652003E+03  0.99004230742E+03  0.18471799900E+04  0.10100000352E+00 0.  1.
</event>
<event>
 5   0  0.5677193E-07  0.3409596E+04  0.7818609E-02  0.8135555E-01
        2   -1    0    0  501    0  0.00000000000E+00  0.00000000000E+00  0.18025710608E+04  0.18025710608E+04  0.25500000920E-02 0.  1.
       -2   -1    0    0    0  501  0.00000000000E+00  0.00000000000E+00 -0.16123287036E+04  0.16123287036E+04  0.25500000920E-02 0. -1.
    10030    2    1    2    0    0  0.00000000000E+00  0.00000000000E+00  0.19024235712E+03  0.34148997644E+04  0.34095964932E+04 0.  0.
        3    1    3    3  502    0 -0.14230924374E+04 -0.53147566042E+03  0.87006788690E+03  0.17506217756E+04  0.10100000352E+00 0.  1.
       -3    1    3    3    0  502  0.14230924374E+04  0.53147566042E+03 -0.67982552978E+03  0.16642779888E+04  0.10100000352E+00 0. -1.
</event>
<event>
 5   0  0.1866421E-07  0.3517040E+04  0.7818609E-02  0.8109763E-01
        1   -1    0    0  501    0  0.00000000000E+00  0.00000000000E+00  0.21283518993E+04  0.21283518993E+04  0.50400001928E-02 0. -1.
       -1   -1    0    0    0  501  0.00000000000E+00  0.00000000000E+00 -0.14529518891E+04  0.14529518891E+04  0.50400001928E-02 0.  1.
    10030    2    1    2    0    0  0.00000000000E+00  0.00000000000E+00  0.67540001023E+03  0.35813037884E+04  0.35170401833E+04 0.  0.
        1    1    3    3  502    0 -0.62725515585E+03 -0.83539980813E+03 -0.11027325067E+04  0.15189999510E+04  0.50400001928E-02 0.  1.
       -1    1    3    3    0  502  0.62725515585E+03  0.83539980813E+03  0.17781325169E+04  0.20623038374E+04  0.50400001928E-02 0. -1.
</event>
<event>
 5   0  0.5740827E-07  0.3501044E+04  0.7818609E-02  0.8113543E-01
        2   -1    0    0  501    0  0.00000000000E+00  0.00000000000E+00  0.13989089478E+04  0.13989089478E+04  0.25500000920E-02 0.  1.
       -2   -1    0    0    0  501  0.00000000000E+00  0.00000000000E+00 -0.21905124538E+04  0.21905124538E+04  0.25500000920E-02 0. -1.
    10030    2    1    2    0    0  0.00000000000E+00  0.00000000000E+00 -0.79160350604E+03  0.35894214016E+04  0.35010441139E+04 0.  0.
        2    1    3    3  502    0  0.74156825772E+03  0.11509471537E+04 -0.15140805564E+04  0.20413335747E+04  0.25500000920E-02 0. -1.
       -2    1    3    3    0  502 -0.74156825772E+03 -0.11509471537E+04  0.72247705041E+03  0.15480878269E+04  0.25500000920E-02 0.  1.
</event>
<event>
 5   0  0.1897049E-07  0.3491931E+04  0.7818609E-02  0.8115705E-01
       -1   -1    0    0    0  501  0.00000000000E+00  0.00000000000E+00  0.22142699675E+04  0.22142699675E+04  0.50400001928E-02 0. -1.
        1   -1    0    0  501    0  0.00000000000E+00  0.00000000000E+00 -0.13767047047E+04  0.13767047047E+04  0.50400001928E-02 0.  1.
    10030    2    1    2    0    0  0.00000000000E+00  0.00000000000E+00  0.83756526281E+03  0.35909746723E+04  0.34919312032E+04 0.  0.
        2    1    3    3  502    0  0.10428755060E+04 -0.74007489429E+03 -0.80367116169E+03  0.15103600585E+04  0.25500000920E-02 0.  1.
       -2    1    3    3    0  502 -0.10428755060E+04  0.74007489429E+03  0.16412364245E+04  0.20806146138E+04  0.25500000920E-02 0. -1.
</event>
<event>
 5   0  0.5677193E-07  0.3455025E+04  0.7818609E-02  0.8124532E-01
        2   -1    0    0  501    0  0.00000000000E+00  0.00000000000E+00  0.28107075382E+04  0.28107075382E+04  0.25500000920E-02 0. -1.
       -2   -1    0    0    0  501  0.00000000000E+00  0.00000000000E+00 -0.10617607254E+04  0.10617607254E+04  0.25500000920E-02 0.  1.
    10030    2    1    2    0    0  0.00000000000E+00  0.00000000000E+00  0.17489468128E+04  0.38724682636E+04  0.34550246741E+04 0.  0.
        3    1    3    3  502    0  0.12390565513E+04 -0.96415229502E+03  0.16822807302E+04  0.23010691538E+04  0.10100000352E+00 0. -1.
       -3    1    3    3    0  502 -0.12390565513E+04  0.96415229502E+03  0.66666082542E+02  0.15713991097E+04  0.10100000352E+00 0.  1.
</event>
<event>
 5   0  0.5554745E-07  0.3505028E+04  0.7818609E-02  0.8112600E-01
       -2   -1    0    0    0  501  0.00000000000E+00  0.00000000000E+00  0.22026301069E+04  0.22026301069E+04  0.25500000920E-02 0.  1.
        2   -1    0    0  501    0  0.00000000000E+00  0.00000000000E+00 -0.13943805401E+04  0.13943805401E+04  0.25500000920E-02 0. -1.
    10030    2    1    2    0    0  0.00000000000E+00  0.00000000000E+00  0.80824956679E+03  0.35970106469E+04  0.35050275651E+04 0.  0.
        5    1    3    3  502    0  0.83795651000E+03 -0.14445796741E+04  0.94938829065E+03  0.19210262267E+04  0.46999998093E+01 0.  1.
       -5    1    3    3    0  502 -0.83795651000E+03  0.14445796741E+04 -0.14113872385E+03  0.16759844202E+04  0.46999998093E+01 0. -1.
</event>
<event>
 5   0  0.1897049E-07  0.3465022E+04  0.7818609E-02  0.8122130E-01
        1   -1    0    0  501    0  0.00000000000E+00  0.00000000000E+00  0.13900099255E+04  0.13900099256E+04  0.50400001928E-02 0. -1.
       -1   -1    0    0    0  501  0.00000000000E+00  0.00000000000E+00 -0.21594049355E+04  0.21594049355E+04  0.50400001928E-02 0.  1.
    10030    2    1    2    0    0  0.00000000000E+00  0.00000000000E+00 -0.76939500995E+03  0.35494148611E+04  0.34650219587E+04 0.  0.
        2    1    3    3  502    0 -0.82631682724E+03 -0.11147332993E+04  0.67795212687E+03  0.15443603575E+04  0.25500000920E-02 0. -1.
       -2    1    3    3    0  502  0.82631682724E+03  0.11147332993E+04 -0.14473471368E+04  0.20050545035E+04  0.25500000920E-02 0.  1.
</event>
<event>
 5   0  0.5677193E-07  0.3483523E+04  0.7818609E-02  0.8117706E-01
        2   -1    0    0  501    0  0.00000000000E+00  0.00000000000E+00  0.20449306094E+04  0.20449306094E+04  0.25500000920E-02 0. -1.
       -2   -1    0    0    0  501  0.00000000000E+00  0.00000000000E+00 -0.14835387344E+04  0.14835387344E+04  0.25500000920E-02 0.  1.
    10030    2    1    2    0    0  0.00000000000E+00  0.00000000000E+00  0.56139187493E+03  0.35284693438E+04  0.34835233705E+04 0.  0.
        3    1    3    3  502    0  0.46757077576E+03 -0.12386108688E+03  0.19755362259E+04  0.20338897190E+04  0.10100000352E+00 0. -1.
       -3    1    3    3    0  502 -0.46757077576E+03  0.12386108688E+03 -0.14141443510E+04  0.14945796248E+04  0.10100000352E+00 0.  1.
</event>
<event>
 5   0  0.5707187E-07  0.3502464E+04  0.7818609E-02  0.8113206E-01
       -2   -1    0    0    0  501  0.00000000000E+00  0.00000000000E+00  0.17438571368E+04  0.17438571368E+04  0.25500000920E-02 0. -1.
        2   -1    0    0  501    0  0.00000000000E+00  0.00000000000E+00 -0.17586379764E+04  0.17586379764E+04  0.25500000920E-02 0.  1.
    10030    2    1    2    0    0  0.00000000000E+00  0.00000000000E+00 -0.14780839617E+02  0.35024951133E+04  0.35024639249E+04 0.  0.
        1    1    3    3  502    0  0.46932642742E+03  0.95243320814E+03 -0.14000323748E+04  0.17571246290E+04  0.50400001928E-02 0.  1.
       -1    1    3    3    0  502 -0.46932642742E+03 -0.95243320814E+03  0.13852515352E+04  0.17453704842E+04  0.50400001928E-02 0. -1.
</event>
<event>
 5   0  0.1908190E-07  0.3500086E+04  0.7818609E-02  0.8113769E-01
        1   -1    0    0  501    0  0.00000000000E+00  0.00000000000E+00  0.10542706390E+04  0.10542706390E+04  0.50400001928E-02 0.  1.
       -1   -1    0    0    0  501  0.00000000000E+00  0.00000000000E+00 -0.29049952398E+04  0.29049952398E+04  0.50400001928E-02 0. -1.
    10030    2    1    2    0    0  0.00000000000E+00  0.00000000000E+00 -0.18507246008E+04  0.39592658788E+04  0.35000863919E+04 0.  0.
        5    1    3    3  502    0  0.13499846476E+04  0.51145660048E+03  0.19364950622E+03  0.14565605460E+04  0.46999998093E+01 0.  1.
       -5    1    3    3    0  502 -0.13499846476E+04 -0.51145660048E+03 -0.20443741070E+04  0.25027053327E+04  0.46999998093E+01 0. -1.
</event>
<event>
 5   0  0.5677193E-07  0.3485700E+04  0.7818609E-02  0.8117187E-01
       -2   -1    0    0    0  501  0.00000000000E+00  0.00000000000E+00  0.13945175374E+04  0.13945175374E+04  0.25500000920E-02 0.  1.
        2   -1    0    0  501    0  0.00000000000E+00  0.00000000000E+00 -0.21781916597E+04  0.21781916597E+04  0.25500000920E-02 0. -1.
    10030    2    1    2    0    0  0.00000000000E+00  0.00000000000E+00 -0.78367412222E+03  0.35727091971E+04  0.34857001990E+04 0.  0.
        3    1    3    3  502    0 -0.22636840343E+03  0.11384815085E+04 -0.17243439012E+04  0.20786401081E+04  0.10100000352E+00 0. -1.
       -3    1    3    3    0  502  0.22636840343E+03 -0.11384815085E+04  0.94066977901E+03  0.14940690890E+04  0.10100000352E+00 0.  1.
</event>
<event>
 5   0  0.1933647E-07  0.3488126E+04  0.7818609E-02  0.8116610E-01
        1   -1    0    0  501    0  0.00000000000E+00  0.00000000000E+00  0.14279739290E+04  0.14279739290E+04  0.50400001928E-02 0.  1.
       -1   -1    0    0    0  501  0.00000000000E+00  0.00000000000E+00 -0.21301194383E+04  0.21301194384E+04  0.50400001928E-02 0. -1.
    10030    2    1    2    0    0  0.00000000000E+00  0.00000000000E+00 -0.70214550932E+03  0.35580933674E+04  0.34881255847E+04 0.  0.
        4    1    3    3  502    0 -0.39959449375E+03 -0.24999896458E+03  0.13617692199E+04  0.14410386056E+04  0.12699999809E+01 0.  1.
       -4    1    3    3    0  502  0.39959449375E+03  0.24999896458E+03 -0.20639147292E+04  0.21170547617E+04  0.12699999809E+01 0. -1.
</event>
<event>
 5   0  0.1866421E-07  0.3543746E+04  0.7818609E-02  0.8103500E-01
       -1   -1    0    0    0  501  0.00000000000E+00  0.00000000000E+00  0.14790072157E+04  0.14790072157E+04  0.50400001928E-02 0. -1.
        1   -1    0    0  501    0  0.00000000000E+00  0.00000000000E+00 -0.21227311978E+04  0.21227311978E+04  0.50400001928E-02 0.  1.
    10030    2    1    2    0    0  0.00000000000E+00  0.00000000000E+00 -0.64372398209E+03  0.36017384136E+04  0.35437464687E+04 0.  0.
        1    1    3    3  502    0  0.10136543193E+04  0.11552489822E+04 -0.12180163400E+04  0.19610352099E+04  0.50400001928E-02 0.  1.
       -1    1    3    3    0  502 -0.10136543193E+04 -0.11552489822E+04  0.57429235794E+03  0.16407032036E+04  0.50400001928E-02 0. -1.
</event>
<event>
 5   0  0.1873457E-07  0.3684985E+04  0.7818609E-02  0.8071297E-01
       -1   -1    0    0    0  501  0.00000000000E+00  0.00000000000E+00  0.31123902963E+04  0.31123902963E+04  0.50400001928E-02 0. -1.
        1   -1    0    0  501    0  0.00000000000E+00  0.00000000000E+00 -0.10907306593E+04  0.10907306593E+04  0.50400001928E-02 0.  1.
    10030    2    1    2    0    0  0.00000000000E+00  0.00000000000E+00  0.20216596370E+04  0.42031209556E+04  0.36849854924E+04 0.  0.
        3    1    3    3  502    0 -0.16705747491E+04  0.54007875328E+03  0.16482184852E+04  0.24081381267E+04  0.10100000352E+00 0. -1.
       -3    1    3    3    0  502  0.16705747491E+04 -0.54007875328E+03  0.37344115183E+03  0.17949828289E+04  0.10100000352E+00 0.  1.
</event>
<event>
 5   0  0.5573334E-07  0.3493971E+04  0.7818609E-02  0.8115220E-01
       -2   -1    0    0    0  501  0.00000000000E+00  0.00000000000E+00  0.13528068604E+04  0.13528068604E+04  0.25500000920E-02 0. -1.
        2   -1    0    0  501    0  0.00000000000E+00  0.00000000000E+00 -0.22560196392E+04  0.22560196392E+04  0.25500000920E-02 0.  1.
    10030    2    1    2    0    0  0.00000000000E+00  0.00000000000E+00 -0.90321277881E+03  0.36088264996E+04  0.34939712908E+04 0.  0.
        4    1    3    3  502    0  0.78757303305E+03  0.14720643270E+04 -0.98302156298E+03  0.19374152037E+04  0.12699999809E+01 0. -1.
       -4    1    3    3    0  502 -0.78757303305E+03 -0.14720643270E+04  0.79808784175E+02  0.16714112960E+04  0.12699999809E+01 0.  1.
</event>
<event>
 5   0  0.5573334E-07  0.3457438E+04  0.7818609E-02  0.8123951E-01
       -2   -1    0    0    0  501  0.00000000000E+00  0.00000000000E+00  0.14954974036E+04  0.14954974036E+04  0.25500000920E-02 0. -1.
        2   -1    0    0  501    0  0.00000000000E+00  0.00000000000E+00 -0.19983117002E+04  0.19983117002E+04  0.25500000920E-02 0.  1.
    10030    2    1    2    0    0  0.00000000000E+00  0.00000000000E+00 -0.50281429663E+03  0.34938091038E+04  0.34574383345E+04 0.  0.
        4    1    3    3  502    0  0.40184687336E+03  0.11632575245E+04 -0.14781876337E+04  0.19234576344E+04  0.12699999809E+01 0.  1.
       -4    1    3    3    0  502 -0.40184687336E+03 -0.11632575245E+04  0.97537333705E+03  0.15703514694E+04  0.12699999809E+01 0. -1.
</event>
<event>
 5   0  0.1897049E-07  0.3508227E+04  0.7818609E-02  0.8111843E-01
       -1   -1    0    0    0  501  0.00000000000E+00  0.00000000000E+00  0.13828790557E+04  0.13828790557E+04  0.50400001928E-02 0. -1.
        1   -1    0    0  501    0  0.00000000000E+00  0.00000000000E+00 -0.22250053643E+04  0.22250053643E+04  0.50400001928E-02 0.  1.
    10030    2    1    2    0    0  0.00000000000E+00  0.00000000000E+00 -0.84212630858E+03  0.36078844200E+04  0.35082265133E+04 0.  0.
        2    1    3    3  502    0  0.15734326088E+04  0.77196641598E+03 -0.49586867943E+03  0.18214027751E+04  0.25500000920E-02 0.  1.
       -2    1    3    3    0  502 -0.15734326088E+04 -0.77196641598E+03 -0.34625762915E+03  0.17864816449E+04  0.25500000920E-02 0. -1.
</event>
<event>
 5   0  0.1908190E-07  0.3514691E+04  0.7818609E-02  0.8110317E-01
        1   -1    0    0  501    0  0.00000000000E+00  0.00000000000E+00  0.23839597073E+04  0.23839597073E+04  0.50400001928E-02 0.  1.
       -1   -1    0    0    0  501  0.00000000000E+00  0.00000000000E+00 -0.12954339839E+04  0.12954339839E+04  0.50400001928E-02 0. -1.
    10030    2    1    2    0    0  0.00000000000E+00  0.00000000000E+00  0.10885257235E+04  0.36793936912E+04  0.35146905531E+04 0.  0.
        5    1    3    3  502    0 -0.10210908403E+03 -0.17521449738E+04  0.63673134179E+03  0.18670530699E+04  0.46999998093E+01 0. -1.
       -5    1    3    3    0  502  0.10210908403E+03  0.17521449738E+04  0.45179438170E+03  0.18123406213E+04  0.46999998093E+01 0.  1.
</event>
<event>
 5   0  0.1908190E-07  0.3517669E+04  0.7818609E-02  0.8109615E-01
        1   -1    0    0  501    0  0.00000000000E+00  0.00000000000E+00  0.32732816793E+04  0.32732816793E+04  0.50400001928E-02 0. -1.
       -1   -1    0    0    0  501  0.00000000000E+00  0.00000000000E+00 -0.94507582340E+03  0.94507582342E+03  0.50400001928E-02 0.  1.
    10030    2    1    2    0    0  0.00000000000E+00  0.00000000000E+00  0.23282058559E+04  0.42183575027E+04  0.35176693297E+04 0.  0.
        5    1    3    3  502    0 -0.10244919506E+04  0.10716220380E+04  0.22989202398E+04  0.27355098078E+04  0.46999998093E+01 0. -1.
       -5    1    3    3    0  502  0.10244919506E+04 -0.10716220380E+04  0.29285616076E+02  0.14828476950E+04  0.46999998093E+01 0.  1.
</event>
<event>
 5   0  0.5740827E-07  0.3489259E+04  0.7818609E-02  0.8116340E-01
        2   -1    0    0  501    0  0.00000000000E+00  0.00000000000E+00  0.25487049688E+04  0.25487049688E+04  0.25500000920E-02 0. -1.
       -2   -1    0    0    0  501  0.00000000000E+00  0.00000000000E+00 -0.11942269546E+04  0.11942269546E+04  0.25500000920E-02 0.  1.
    10030    2    1    2    0    0  0.00000000000E+00  0.00000000000E+00  0.13544780142E+04  0.37429319234E+04  0.34892590463E+04 0.  0.
        2    1    3    3  502    0 -0.30405197152E+03  0.14837015373E+04 -0.25169430762E+03  0.15353070955E+04  0.25500000920E-02 0.  1.
       -2    1    3    3    0  502  0.30405197152E+03 -0.14837015373E+04  0.16061723219E+04  0.22076248279E+04  0.25500000920E-02 0. -1.
</event>
<event>
 5   0  0.5677193E-07  0.3307131E+04  0.7818609E-02  0.8161083E-01
        2   -1    0    0  501    0  0.00000000000E+00  0.00000000000E+00  0.90108155036E+03  0.90108155037E+03  0.25500000920E-02 0.  1.
       -2   -1    0    0    0  501  0.00000000000E+00  0.00000000000E+00 -0.30344409532E+04  0.30344409532E+04  0.25500000920E-02 0. -1.
    10030    2    1    2    0    0  0.00000000000E+00  0.00000000000E+00 -0.21333594028E+04  0.39355225036E+04  0.33071309370E+04 0.  0.
        3    1    3    3  502    0 -0.20713111928E+03  0.58505944606E+03  0.75721598507E+03  0.97906788031E+03  0.10100000352E+00 0.  1.
       -3    1    3    3    0  502  0.20713111928E+03 -0.58505944606E+03 -0.28905753879E+04  0.29564546233E+04  0.10100000352E+00 0. -1.
</event>
<event>
 5   0  0.5707187E-07  0.3503034E+04  0.7818609E-02  0.8113071E-01
       -2   -1    0    0    0  501  0.00000000000E+00  0.00000000000E+00  0.95794924724E+03  0.95794924724E+03  0.25500000920E-02 0.  1.
        2   -1    0    0  501    0  0.00000000000E+00  0.00000000000E+00 -0.32024783979E+04  0.32024783979E+04  0.25500000920E-02 0. -1.
    10030    2    1    2    0    0  0.00000000000E+00  0.00000000000E+00 -0.22445291506E+04  0.41604276451E+04  0.35030339824E+04 0.  0.
        1    1    3    3  502    0 -0.50080361821E+03  0.77038103193E+02  0.86900316060E+03  0.10059352000E+04  0.50400001928E-02 0.  1.
       -1    1    3    3    0  502  0.50080361821E+03 -0.77038103193E+02 -0.31135323112E+04  0.31544924451E+04  0.50400001928E-02 0. -1.
</event>
<event>
 5   0  0.5740827E-07  0.3493085E+04  0.7818609E-02  0.8115431E-01
       -2   -1    0    0    0  501  0.00000000000E+00  0.00000000000E+00  0.13456708105E+04  0.13456708105E+04  0.25500000920E-02 0.  1.
        2   -1    0    0  501    0  0.00000000000E+00  0.00000000000E+00 -0.22668333562E+04  0.22668333562E+04  0.25500000920E-02 0. -1.
    10030    2    1    2    0    0  0.00000000000E+00  0.00000000000E+00 -0.92116254573E+03  0.36125041668E+04  0.34930854440E+04 0.  0.
        2    1    3    3  502    0 -0.27693801217E+03  0.17192802606E+04 -0.32263371812E+03  0.17710764504E+04  0.25500000920E-02 0.  1.
       -2    1    3    3    0  502  0.27693801217E+03 -0.17192802606E+04 -0.59852882761E+03  0.18414277164E+04  0.25500000920E-02 0. -1.
</event>
<event>
 5   0  0.5677193E-07  0.3493696E+04  0.7818609E-02  0.8115285E-01
       -2   -1    0    0    0  501  0.00000000000E+00  0.00000000000E+00  0.19389277710E+04  0.19389277710E+04  0.25500000920E-02 0. -1.
        2   -1    0    0  501    0  0.00000000000E+00  0.00000000000E+00 -0.15737967531E+04  0.15737967531E+04  0.25500000920E-02 0.  1.
    10030    2    1    2    0    0  0.00000000000E+00  0.00000000000E+00  0.36513101788E+03  0.35127245241E+04  0.34936961691E+04 0.  0.
        3    1    3    3  502    0  0.58037023173E+03 -0.12220182117E+04  0.12937181228E+04  0.18718612948E+04  0.10100000352E+00 0. -1.
       -3    1    3    3    0  502 -0.58037023173E+03  0.12220182117E+04 -0.92858710489E+03  0.16408632293E+04  0.10100000352E+00 0.  1.
</event>
<event>
 5   0  0.1908190E-07  0.3424491E+04  0.7818609E-02  0.8131922E-01
        1   -1    0    0  501    0  0.00000000000E+00  0.00000000000E+00  0.22675973973E+04  0.22675973973E+04  0.50400001928E-02 0.  1.
       -1   -1    0    0    0  501  0.00000000000E+00  0.00000000000E+00 -0.12929033518E+04  0.12929033518E+04  0.50400001928E-02 0. -1.
    10030    2    1    2    0    0  0.00000000000E+00  0.00000000000E+00  0.97469404557E+03  0.35605007491E+04  0.34244907800E+04 0.  0.
        5    1    3    3  502    0  0.14841703264E+04 -0.20303476014E+03  0.13496086646E+04  0.20162961859E+04  0.46999998093E+01 0.  1.
       -5    1    3    3    0  502 -0.14841703264E+04  0.20303476014E+03 -0.37491461908E+03  0.15442045632E+04  0.46999998093E+01 0. -1.
</event>
<event>
 5   0  0.5554745E-07  0.3338619E+04  0.7818609E-02  0.8153138E-01
       -2   -1    0    0    0  501  0.00000000000E+00  0.00000000000E+00  0.13861618472E+04  0.13861618472E+04  0.25500000920E-02 0.  1.
        2   -1    0    0  501    0  0.00000000000E+00  0.00000000000E+00 -0.20102945220E+04  0.20102945220E+04  0.25500000920E-02 0. -1.
    10030    2    1    2    0    0  0.00000000000E+00  0.00000000000E+00 -0.62413267474E+03  0.33964563692E+04  0.33386186174E+04 0.  0.
        5    1    3    3  502    0  0.11274176732E+04  0.10377769427E+04  0.36161400521E+03  0.15744327141E+04  0.46999998093E+01 0.  1.
       -5    1    3    3    0  502 -0.11274176732E+04 -0.10377769427E+04 -0.98574667995E+03  0.18220236551E+04  0.46999998093E+01 0. -1.
</event>
<event>
 5   0  0.1908190E-07  0.3299007E+04  0.7818609E-02  0.8163148E-01
       -1   -1    0    0    0  501  0.00000000000E+00  0.00000000000E+00  0.96598518601E+03  0.96598518603E+03  0.50400001928E-02 0.  1.
        1   -1    0    0  501    0  0.00000000000E+00  0.00000000000E+00 -0.28166711177E+04  0.28166711177E+04  0.50400001928E-02 0. -1.
    10030    2    1    2    0    0  0.00000000000E+00  0.00000000000E+00 -0.18506859317E+04  0.37826563038E+04  0.32990074711E+04 0.  0.
        5    1    3    3  502    0  0.91997532060E+03 -0.36825200647E+03  0.58664360648E+03  0.11515801934E+04  0.46999998093E+01 0.  1.
       -5    1    3    3    0  502 -0.91997532060E+03  0.36825200647E+03 -0.24373295382E+04  0.26310761104E+04  0.46999998093E+01 0. -1.
</event>
<event>
 5   0  0.1873457E-07  0.3518745E+04  0.7818609E-02  0.8109362E-01
        1   -1    0    0  501    0  0.00000000000E+00  0.00000000000E+00  0.13023320296E+04  0.13023320296E+04  0.50400001928E-02 0. -1.
       -1   -1    0    0    0  501  0.00000000000E+00  0.00000000000E+00 -0.23768062910E+04  0.23768062910E+04  0.50400001928E-02 0.  1.
    10030    2    1    2    0    0  0.00000000000E+00  0.00000000000E+00 -0.10744742613E+04  0.36791383206E+04  0.35187446403E+04 0.  0.
        3    1    3    3  502    0  0.50476866090E+03 -0.93634746560E+03  0.92801664942E+03  0.14116489964E+04  0.10100000352E+00 0. -1.
       -3    1    3    3    0  502 -0.50476866090E+03  0.93634746560E+03 -0.20024909107E+04  0.22674893242E+04  0.10100000352E+00 0.  1.
</event>
<event>
 5   0  0.5677193E-07  0.3488730E+04  0.7818609E-02  0.8116466E-01
        2   -1    0    0  501    0  0.00000000000E+00  0.00000000000E+00  0.14785472852E+04  0.14785472852E+04  0.25500000920E-02 0. -1.
       -2   -1    0    0    0  501  0.00000000000E+00  0.00000000000E+00 -0.20579722001E+04  0.20579722001E+04  0.25500000920E-02 0.  1.
    10030    2    1    2    0    0  0.00000000000E+00  0.00000000000E+00 -0.57942491491E+03  0.35365194854E+04  0.34887299750E+04 0.  0.
        3    1    3    3  502    0  0.15461216242E+04 -0.88066875346E+02  0.52413090914E+03  0.16349192860E+04  0.10100000352E+00 0. -1.
       -3    1    3    3    0  502 -0.15461216242E+04  0.88066875346E+02 -0.11035558241E+04  0.19016001994E+04  0.10100000352E+00 0.  1.
</event>
<event>
 5   0  0.1866421E-07  0.3500625E+04  0.7818609E-02  0.8113642E-01
       -1   -1    0    0    0  501  0.00000000000E+00  0.00000000000E+00  0.16061125205E+04  0.16061125205E+04  0.50400001928E-02 0. -1.
        1   -1    0    0  501    0  0.00000000000E+00  0.00000000000E+00 -0.19074593980E+04  0.19074593980E+04  0.50400001928E-02 0.  1.
    10030    2    1    2    0    0  0.00000000000E+00  0.00000000000E+00 -0.30134687750E+03  0.35135719186E+04  0.35006253279E+04 0.  0.
        1    1    3    3  502    0 -0.91276364641E+03  0.14546131226E+04  0.18904192685E+03  0.17276497506E+04  0.50400001928E-02 0. -1.
       -1    1    3    3    0  502  0.91276364641E+03 -0.14546131226E+04 -0.49038880435E+03  0.17859221680E+04  0.50400001928E-02 0.  1.
</event>
<event>
 5   0  0.1873457E-07  0.3574091E+04  0.7818609E-02  0.8096452E-01
        1   -1    0    0  501    0  0.00000000000E+00  0.00000000000E+00  0.22370783189E+04  0.22370783189E+04  0.50400001928E-02 0. -1.
       -1   -1    0    0    0  501  0.00000000000E+00  0.00000000000E+00 -0.14275459227E+04  0.14275459227E+04  0.50400001928E-02 0.  1.
    10030    2    1    2    0    0  0.00000000000E+00  0.00000000000E+00  0.80953239622E+03  0.36646242417E+04  0.35740912316E+04 0.  0.
        3    1    3    3  502    0  0.16442720588E+04 -0.69274035343E+03  0.50736187437E+03  0.18549759789E+04  0.10100000352E+00 0.  1.
       -3    1    3    3    0  502 -0.16442720588E+04  0.69274035343E+03  0.30217052185E+03  0.18096482628E+04  0.10100000352E+00 0. -1.
</event>
<event>
 5   0  0.1933647E-07  0.3221997E+04  0.7818609E-02  0.8183032E-01
       -1   -1    0    0    0  501  0.00000000000E+00  0.00000000000E+00  0.14738276359E+04  0.14738276359E+04  0.50400001928E-02 0. -1.
        1   -1    0    0  501    0  0.00000000000E+00  0.00000000000E+00 -0.17609363423E+04  0.17609363423E+04  0.50400001928E-02 0.  1.
    10030    2    1    2    0    0  0.00000000000E+00  0.00000000000E+00 -0.28710870641E+03  0.32347639783E+04  0.32219972976E+04 0.  0.
        4    1    3    3  502    0  0.16246108443E+03  0.13457277109E+04  0.73049180770E+03  0.15398040687E+04  0.12699999809E+01 0.  1.
       -4    1    3    3    0  502 -0.16246108443E+03 -0.13457277109E+04 -0.10176005141E+04  0.16949599096E+04  0.12699999809E+01 0. -1.
</event>
<event>
 5   0  0.1908190E-07  0.3497910E+04  0.7818609E-02  0.8114286E-01
        1   -1    0    0  501    0  0.00000000000E+00  0.00000000000E+00  0.21456651064E+04  0.21456651064E+04  0.50400001928E-02 0. -1.
       -1   -1    0    0    0  501  0.00000000000E+00  0.00000000000E+00 -0.14255918699E+04  0.14255918699E+04  0.50400001928E-02 0.  1.
    10030    2    1    2    0    0  0.00000000000E+00  0.00000000000E+00  0.72007323655E+03  0.35712569763E+04  0.34979095078E+04 0.  0.
        5    1    3    3  502    0  0.47526471627E+03  0.15992087716E+04  0.89589982604E+03  0.18936746906E+04  0.46999998093E+01 0. -1.
       -5    1    3    3    0  502 -0.47526471627E+03 -0.15992087716E+04 -0.17582658949E+03  0.16775822857E+04  0.46999998093E+01 0.  1.
</event>
<event>
 5   0  0.5573334E-07  0.3498976E+04  0.7818609E-02  0.8114033E-01
       -2   -1    0    0    0  501  0.00000000000E+00  0.00000000000E+00  0.14592205542E+04  0.14592205542E+04  0.25500000920E-02 0. -1.
        2   -1    0    0  501    0  0.00000000000E+00  0.00000000000E+00 -0.20974958771E+04  0.20974958771E+04  0.25500000920E-02 0.  1.
    10030    2    1    2    0    0  0.00000000000E+00  0.00000000000E+00 -0.63827532288E+03  0.35567164313E+04  0.34989764768E+04 0.  0.
        4    1    3    3  502    0 -0.84969832437E+03  0.64260338664E+03  0.10914876807E+04  0.15252125508E+04  0.12699999809E+01 0. -1.
       -4    1    3    3    0  502  0.84969832437E+03 -0.64260338664E+03 -0.17297630036E+04  0.20315038805E+04  0.12699999809E+01 0.  1.
</event>
<event>
 5   0  0.5707187E-07  0.3519474E+04  0.7818609E-02  0.8109190E-01
        2   -1    0    0  501    0  0.00000000000E+00  0.00000000000E+00  0.33510505163E+04  0.33510505163E+04  0.25500000920E-02 0. -1.
       -2   -1    0    0    0  501  0.00000000000E+00  0.00000000000E+00 -0.92409037049E+03  0.92409037049E+03  0.25500000920E-02 0.  1.
    10030    2    1    2    0    0  0.00000000000E+00  0.00000000000E+00  0.24269601458E+04  0.42751408868E+04  0.35194735477E+04 0.  0.
        1    1    3    3  502    0  0.32166765594E+03  0.10784850707E+04  0.28567427014E+04  0.30704362867E+04  0.50400001928E-02 0. -1.
       -1    1    3    3    0  502 -0.32166765594E+03 -0.10784850707E+04 -0.42978255557E+03  0.12047046001E+04  0.50400001928E-02 0.  1.
</event>
<event>
 5   0  0.1933647E-07  0.3532965E+04  0.7818609E-02  0.8106022E-01
        1   -1    0    0  501    0  0.00000000000E+00  0.00000000000E+00  0.30230203346E+04  0.30230203346E+04  0.50400001928E-02 0. -1.
       -1   -1    0    0    0  501  0.00000000000E+00  0.00000000000E+00 -0.10322325368E+04  0.10322325368E+04  0.50400001928E-02 0.  1.
    10030    2    1    2    0    0  0.00000000000E+00  0.00000000000E+00  0.19907877978E+04  0.40552528714E+04  0.35329647317E+04 0.  0.
        4    1    3    3  502    0  0.86649911714E+03  0.15313445735E+04  0.11755027790E+04  0.21160447347E+04  0.12699999809E+01 0.  1.
       -4    1    3    3    0  502 -0.86649911714E+03 -0.15313445735E+04  0.81528501880E+03  0.19392081367E+04  0.12699999809E+01 0. -1.
</event>
<event>
 5   0  0.5740827E-07  0.3321616E+04  0.7818609E-02  0.8157417E-01
        2   -1    0    0  501    0  0.00000000000E+00  0.00000000000E+00  0.19693868944E+04  0.19693868944E+04  0.25500000920E-02 0.  1.
       -2   -1    0    0    0  501  0.00000000000E+00  0.00000000000E+00 -0.14005794054E+04  0.14005794054E+04  0.25500000920E-02 0. -1.
    10030    2    1    2    0    0  0.00000000000E+00  0.00000000000E+00  0.56880748908E+03  0.33699662998E+04  0.33216157066E+04 0.  0.
        2    1    3    3  502    0  0.15629893579E+04  0.55551704004E+03  0.20106295325E+03  0.16709162833E+04  0.25500000920E-02 0.  1.
       -2    1    3    3    0  502 -0.15629893579E+04 -0.55551704004E+03  0.36774453583E+03  0.16990500165E+04  0.25500000920E-02 0. -1.
</event>
<event>
 5   0  0.1908190E-07  0.3520396E+04  0.7818609E-02  0.8108973E-01
       -1   -1    0    0    0  501  0.00000000000E+00  0.00000000000E+00  0.13161791413E+04  0.13161791413E+04  0.50400001928E-02 0. -1.
        1   -1    0    0  501    0  0.00000000000E+00  0.00000000000E+00 -0.23540087352E+04  0.23540087352E+04  0.50400001928E-02 0.  1.
    10030    2    1    2    0    0  0.00000000000E+00  0.00000000000E+00 -0.10378295939E+04  0.36701878765E+04  0.35203961117E+04 0.  0.
        5    1    3    3  502    0 -0.11910206446E+04  0.11350253673E+04  0.13337676526E+03  0.16506435750E+04  0.46999998093E+01 0. -1.
       -5    1    3    3    0  502  0.11910206446E+04 -0.11350253673E+04 -0.11712063591E+04  0.20195443015E+04  0.46999998093E+01 0.  1.
</event>
<event>
 5   0  0.5740827E-07  0.3480698E+04  0.7818609E-02  0.8118379E-01
        2   -1    0    0  501    0  0.00000000000E+00  0.00000000000E+00  0.22854079806E+04  0.22854079806E+04  0.25500000920E-02 0. -1.
       -2   -1    0    0    0  501  0.00000000000E+00  0.00000000000E+00 -0.13252843188E+04  0.13252843188E+04  0.25500000920E-02 0.  1.
    10030    2    1    2    0    0  0.00000000000E+00  0.00000000000E+00  0.96012366180E+03  0.36106922993E+04  0.34806984119E+04 0.  0.
        2    1    3    3  502    0 -0.20985426175E+03  0.21814748490E+03 -0.12977671181E+04  0.13326014517E+04  0.25500000920E-02 0.  1.
       -2    1    3    3    0  502  0.20985426175E+03 -0.21814748490E+03  0.22578907799E+04  0.22780908476E+04  0.25500000920E-02 0. -1.
</event>
<event>
 5   0  0.1933647E-07  0.3513160E+04  0.7818609E-02  0.8110678E-01
        1   -1    0    0  501    0  0.00000000000E+00  0.00000000000E+00  0.27162095272E+04  0.27162095272E+04  0.50400001928E-02 0. -1.
       -1   -1    0    0    0  501  0.00000000000E+00  0.00000000000E+00 -0.11359848243E+04  0.11359848244E+04  0.50400001928E-02 0.  1.
    10030    2    1    2    0    0  0.00000000000E+00  0.00000000000E+00  0.15802247028E+04  0.38521943515E+04  0.35131597189E+04 0.  0.
        4    1    3    3  502    0  0.71036528377E+02 -0.15770400240E+04 -0.54601458364E+02  0.15795836027E+04  0.12699999809E+01 0. -1.
       -4    1    3    3    0  502 -0.71036528377E+02  0.15770400240E+04  0.16348261612E+04  0.22726107489E+04  0.12699999809E+01 0.  1.
</event>
<event>
 5   0  0.1933647E-07  0.3485257E+04  0.7818609E-02  0.8117293E-01
       -1   -1    0    0    0  501  0.00000000000E+00  0.00000000000E+00  0.26340894099E+04  0.26340894099E+04  0.50400001928E-02 0.  1.
        1   -1    0    0  501    0  0.00000000000E+00  0.00000000000E+00 -0.11528670210E+04  0.11528670210E+04  0.50400001928E-02 0. -1.
    10030    2    1    2    0    0  0.00000000000E+00  0.00000000000E+00  0.14812223889E+04  0.37869564308E+04  0.34852574143E+04 0.  0.
        4    1    3    3  502    0 -0.16255731343E+04  0.14236055650E+03  0.14051042841E+04  0.21533866827E+04  0.12699999809E+01 0.  1.
       -4    1    3    3    0  502  0.16255731343E+04 -0.14236055650E+03  0.76118104758E+02  0.16335697481E+04  0.12699999809E+01 0. -1.
</event>
<event>
 5   0  0.1897049E-07  0.3493234E+04  0.7818609E-02  0.8115395E-01
       -1   -1    0    0    0  501  0.00000000000E+00  0.00000000000E+00  0.28011607529E+04  0.28011607529E+04  0.50400001928E-02 0. -1.
        1   -1    0    0  501    0  0.00000000000E+00  0.00000000000E+00 -0.10890740265E+04  0.10890740265E+04  0.50400001928E-02 0.  1.
    10030    2    1    2    0    0  0.00000000000E+00  0.00000000000E+00  0.17120867264E+04  0.38902347794E+04  0.34932342721E+04 0.  0.
        2    1    3    3  502    0 -0.11851863708E+04 -0.59696262791E+03 -0.40864172852E+03  0.13885313014E+04  0.25500000920E-02 0.  1.
       -2    1    3    3    0  502  0.11851863708E+04  0.59696262791E+03  0.21207284549E+04  0.25017034780E+04  0.25500000920E-02 0. -1.
</event>
<event>
 5   0  0.5740827E-07  0.3477189E+04  0.7818609E-02  0.8119217E-01
       -2   -1    0    0    0  501  0.00000000000E+00  0.00000000000E+00  0.15449573133E+04  0.15449573133E+04  0.25500000920E-02 0. -1.
        2   -1    0    0  501    0  0.00000000000E+00  0.00000000000E+00 -0.19565014051E+04  0.19565014051E+04  0.25500000920E-02 0.  1.
    10030    2    1    2    0    0  0.00000000000E+00  0.00000000000E+00 -0.41154409177E+03  0.35014587184E+04  0.34771891834E+04 0.  0.
        2    1    3    3  502    0 -0.94801974814E+03 -0.14085226056E+04 -0.58259478159E+03  0.17950192347E+04  0.25500000920E-02 0.  1.
       -2    1    3    3    0  502  0.94801974814E+03  0.14085226056E+04  0.17105068982E+03  0.17064394838E+04  0.25500000920E-02 0. -1.
</event>
<event>
 5   0  0.1823000E-07  0.3480742E+04  0.7818609E-02  0.8118369E-01
        3   -1    0    0  501    0  0.00000000000E+00  0.00000000000E+00  0.19186778817E+04  0.19186778843E+04  0.10100000352E+00 0.  1.
       -3   -1    0    0    0  501  0.00000000000E+00  0.00000000000E+00 -0.15786347156E+04  0.15786347189E+04  0.10100000352E+00 0. -1.
    10030    2    1    2    0    0  0.00000000000E+00  0.00000000000E+00  0.34004316603E+03  0.34973126032E+04  0.34807421751E+04 0.  0.
        3    1    3    3  502    0  0.26004441880E+03  0.55875047363E+03 -0.14653220072E+04  0.15896520961E+04  0.10100000352E+00 0. -1.
       -3    1    3    3    0  502 -0.26004441880E+03 -0.55875047363E+03  0.18053651732E+04  0.19076605071E+04  0.10100000352E+00 0.  1.
</event>
<event>
 5   0  0.5554745E-07  0.3525550E+04  0.7818609E-02  0.8107762E-01
       -2   -1    0    0    0  501  0.00000000000E+00  0.00000000000E+00  0.10392415018E+04  0.10392415018E+04  0.25500000920E-02 0. -1.
        2   -1    0    0  501    0  0.00000000000E+00  0.00000000000E+00 -0.29900411476E+04  0.29900411476E+04  0.25500000920E-02 0.  1.
    10030    2    1    2    0    0  0.00000000000E+00  0.00000000000E+00 -0.19507996458E+04  0.40292826494E+04  0.35255495190E+04 0.  0.
        5    1    3    3  502    0  0.22905009076E+03  0.12280804138E+04  0.44596310693E+03  0.13264805424E+04  0.46999998093E+01 0. -1.
       -5    1    3    3    0  502 -0.22905009076E+03 -0.12280804138E+04 -0.23967627527E+04  0.27028021070E+04  0.46999998093E+01 0.  1.
</event>
<event>
 5   0  0.5554745E-07  0.3483660E+04  0.7818609E-02  0.8117673E-01
        2   -1    0    0  501    0  0.00000000000E+00  0.00000000000E+00  0.20253321925E+04  0.20253321925E+04  0.25500000920E-02 0. -1.
       -2   -1    0    0    0  501  0.00000000000E+00  0.00000000000E+00 -0.14980120189E+04  0.14980120189E+04  0.25500000920E-02 0.  1.
    10030    2    1    2    0    0  0.00000000000E+00  0.00000000000E+00  0.52732017358E+03  0.35233442114E+04  0.34836601250E+04 0.  0.
        5    1    3    3  502    0  0.55608701149E+03 -0.16501382545E+04  0.30610062582E+03  0.17680239553E+04  0.46999998093E+01 0. -1.
       -5    1    3    3    0  502 -0.55608701149E+03  0.16501382545E+04  0.22121954776E+03  0.17553202561E+04  0.46999998093E+01 0.  1.
</event>
<event>
 5   0  0.5573334E-07  0.3508362E+04  0.7818609E-02  0.8111811E-01
       -2   -1    0    0    0  501  0.00000000000E+00  0.00000000000E+00  0.20087469379E+04  0.20087469379E+04  0.25500000920E-02 0.  1.
        2   -1    0    0  501    0  0.00000000000E+00  0.00000000000E+00 -0.15318757788E+04  0.15318757788E+04  0.25500000920E-02 0. -1.
    10030    2    1    2    0    0  0.00000000000E+00  0.00000000000E+00  0.47687115909E+03  0.35406227168E+04  0.35083618856E+04 0.  0.
        4    1    3    3  502    0 -0.89593616489E+02 -0.38563773090E+03 -0.14861980895E+04  0.15380279093E+04  0.12699999809E+01 0. -1.
       -4    1    3    3    0  502  0.89593616489E+02  0.38563773090E+03  0.19630692486E+04  0.20025948075E+04  0.12699999809E+01 0.  1.
</event>
<event>
 5   0  0.1933647E-07  0.3497442E+04  0.7818609E-02  0.8114397E-01
       -1   -1    0    0    0  501  0.00000000000E+00  0.00000000000E+00  0.13722050491E+04  0.13722050491E+04  0.50400001928E-02 0. -1.
        1   -1    0    0  501    0  0.00000000000E+00  0.00000000000E+00 -0.22285476364E+04  0.22285476364E+04  0.50400001928E-02 0.  1.
    10030    2    1    2    0    0  0.00000000000E+00  0.00000000000E+00 -0.85634258727E+03  0.36007526856E+04  0.34974415329E+04 0.  0.
        4    1    3    3  502    0 -0.11904423694E+04 -0.12159777052E+04 -0.13447333433E+02  0.17017453564E+04  0.12699999809E+01 0. -1.
       -4    1    3    3    0  502  0.11904423694E+04  0.12159777052E+04 -0.84289525383E+03  0.18990073292E+04  0.12699999809E+01 0.  1.
</event>
<event>
 5   0  0.1897049E-07  0.3459900E+04  0.7818609E-02  0.8123359E-01
       -1   -1    0    0    0  501  0.00000000000E+00  0.00000000000E+00  0.14194671707E+04  0.14194671707E+04  0.50400001928E-02 0. -1.
        1   -1    0    0  501    0  0.00000000000E+00  0.00000000000E+00 -0.21083456308E+04  0.21083456308E+04  0.50400001928E-02 0.  1.
    10030    2    1    2    0    0  0.00000000000E+00  0.00000000000E+00 -0.68887846009E+03  0.35278128015E+04  0.34599002340E+04 0.  0.
        2    1    3    3  502    0 -0.14338374865E+04  0.27141964571E+03 -0.12917442400E+04  0.19488873091E+04  0.25500000920E-02 0. -1.
       -2    1    3    3    0  502  0.14338374865E+04 -0.27141964571E+03  0.60286577992E+03  0.15789254924E+04  0.25500000920E-02 0.  1.
</event>
<event>
 5   0  0.5740827E-07  0.3477800E+04  0.7818609E-02  0.8119071E-01
        2   -1    0    0  501    0  0.00000000000E+00  0.00000000000E+00  0.17882486136E+04  0.17882486136E+04  0.25500000920E-02 0. -1.
       -2   -1    0    0    0  501  0.00000000000E+00  0.00000000000E+00 -0.16909136306E+04  0.16909136306E+04  0.25500000920E-02 0.  1.
    10030    2    1    2    0    0  0.00000000000E+00  0.00000000000E+00  0.97334983021E+02  0.34791622443E+04  0.34778004289E+04 0.  0.
        2    1    3    3  502    0  0.88398219829E+03  0.51890879336E+03 -0.13565473001E+04  0.17002680495E+04  0.25500000920E-02 0.  1.
       -2    1    3    3    0  502 -0.88398219829E+03 -0.51890879336E+03  0.14538822832E+04  0.17788941947E+04  0.25500000920E-02 0. -1.
</event>
<event>
 5   0  0.1897049E-07  0.3555966E+04  0.7818609E-02  0.8100653E-01
        1   -1    0    0  501    0  0.00000000000E+00  0.00000000000E+00  0.17999523353E+04  0.17999523353E+04  0.50400001928E-02 0.  1.
       -1   -1    0    0    0  501  0.00000000000E+00  0.00000000000E+00 -0.17562822883E+04  0.17562822883E+04  0.50400001928E-02 0. -1.
    10030    2    1    2    0    0  0.00000000000E+00  0.00000000000E+00  0.43670047021E+02  0.35562346236E+04  0.35559664826E+04 0.  0.
        2    1    3    3  502    0 -0.43548703084E+03 -0.14232635919E+04 -0.95081026538E+03  0.17661733683E+04  0.25500000920E-02 0. -1.
       -2    1    3    3    0  502  0.43548703084E+03  0.14232635919E+04  0.99448031240E+03  0.17900612553E+04  0.25500000920E-02 0.  1.
</event>
<event>
 5   0  0.5677193E-07  0.3602059E+04  0.7818609E-02  0.8090020E-01
        2   -1    0    0  501    0  0.00000000000E+00  0.00000000000E+00  0.21005159831E+04  0.21005159831E+04  0.25500000920E-02 0. -1.
       -2   -1    0    0    0  501  0.00000000000E+00  0.00000000000E+00 -0.15442426460E+04  0.15442426460E+04  0.25500000920E-02 0.  1.
    10030    2    1    2    0    0  0.00000000000E+00  0.00000000000E+00  0.55627333713E+03  0.36447586291E+04  0.36020585002E+04 0.  0.
        3    1    3    3  502    0  0.14015303870E+04  0.10275311838E+04 -0.20033093932E+03  0.17493542394E+04  0.10100000352E+00 0.  1.
       -3    1    3    3    0  502 -0.14015303870E+04 -0.10275311838E+04  0.75660427645E+03  0.18954043898E+04  0.10100000352E+00 0. -1.
</event>
<event>
 5   0  0.5554745E-07  0.3531463E+04  0.7818609E-02  0.8106374E-01
        2   -1    0    0  501    0  0.00000000000E+00  0.00000000000E+00  0.18946261203E+04  0.18946261203E+04  0.25500000920E-02 0. -1.
       -2   -1    0    0    0  501  0.00000000000E+00  0.00000000000E+00 -0.16456059085E+04  0.16456059085E+04  0.25500000920E-02 0.  1.
    10030    2    1    2    0    0  0.00000000000E+00  0.00000000000E+00  0.24902021181E+03  0.35402320289E+04  0.35314631178E+04 0.  0.
        5    1    3    3  502    0  0.22229296611E+03 -0.46650955914E+03 -0.15680959723E+04  0.16510579638E+04  0.46999998093E+01 0.  1.
       -5    1    3    3    0  502 -0.22229296611E+03  0.46650955914E+03  0.18171161841E+04  0.18891740651E+04  0.46999998093E+01 0. -1.
</event>
<event>
 5   0  0.1908190E-07  0.3498376E+04  0.7818609E-02  0.8114175E-01
        1   -1    0    0  501    0  0.00000000000E+00  0.00000000000E+00  0.23542877629E+04  0.23542877630E+04  0.50400001928E-02 0.  1.
       -1   -1    0    0    0  501  0.00000000000E+00  0.00000000000E+00 -0.12996109854E+04  0.12996109854E+04  0.50400001928E-02 0. -1.
    10030    2    1    2    0    0  0.00000000000E+00  0.00000000000E+00  0.10546767775E+04  0.36538987484E+04  0.34983757600E+04 0.  0.
        5    1    3    3  502    0 -0.66357466980E+03  0.11686409500E+04 -0.64207112907E+03  0.14894060686E+04  0.46999998093E+01 0. -1.
       -5    1    3    3    0  502  0.66357466980E+03 -0.11686409500E+04  0.16967479066E+04  0.21644926798E+04  0.46999998093E+01 0.  1.
</event>
<event>
 5   0  0.1873457E-07  0.3475269E+04  0.7818609E-02  0.8119676E-01
       -1   -1    0    0    0  501  0.00000000000E+00  0.00000000000E+00  0.13018123848E+04  0.13018123848E+04  0.50400001928E-02 0.  1.
        1   -1    0    0  501    0  0.00000000000E+00  0.00000000000E+00 -0.23193618556E+04  0.23193618556E+04  0.50400001928E-02 0. -1.
    10030    2    1    2    0    0  0.00000000000E+00  0.00000000000E+00 -0.10175494708E+04  0.36211742405E+04  0.34752691916E+04 0.  0.
        3    1    3    3  502    0 -0.62384086725E+02 -0.13584327825E+04  0.61837175582E+03  0.14938591090E+04  0.10100000352E+00 0.  1.
       -3    1    3    3    0  502  0.62384086725E+02  0.13584327825E+04 -0.16359212266E+04  0.21273151315E+04  0.10100000352E+00 0. -1.
</event>
<event>
 5   0  0.5677193E-07  0.3525669E+04  0.7818609E-02  0.8107733E-01
       -2   -1    0    0    0  501  0.00000000000E+00  0.00000000000E+00  0.12811214157E+04  0.12811214157E+04  0.25500000920E-02 0. -1.
        2   -1    0    0  501    0  0.00000000000E+00  0.00000000000E+00 -0.24256762191E+04  0.24256762191E+04  0.25500000920E-02 0.  1.
    10030    2    1    2    0    0  0.00000000000E+00  0.00000000000E+00 -0.11445548034E+04  0.37067976348E+04  0.35256691574E+04 0.  0.
        3    1    3    3  502    0  0.14274297886E+03  0.31144015990E+03  0.12457839887E+04  0.12920326188E+04  0.10100000352E+00 0. -1.
       -3    1    3    3    0  502 -0.14274297886E+03 -0.31144015990E+03 -0.23903387922E+04  0.24147650160E+04  0.10100000352E+00 0.  1.
</event>
<event>
 5   0  0.5707187E-07  0.3498993E+04  0.7818609E-02  0.8114029E-01
        2   -1    0    0  501    0  0.00000000000E+00  0.00000000000E+00  0.19716109545E+04  0.19716109545E+04  0.25500000920E-02 0.  1.
       -2   -1    0    0    0  501  0.00000000000E+00  0.00000000000E+00 -0.15524050803E+04  0.15524050803E+04  0.25500000920E-02 0. -1.
    10030    2    1    2    0    0  0.00000000000E+00  0.00000000000E+00  0.41920587420E+03  0.35240160348E+04  0.34989934908E+04 0.  0.
        1    1    3    3  502    0 -0.59230831194E+03  0.20648941541E+03 -0.14352549507E+04  0.15663408916E+04  0.50400001928E-02 0. -1.
       -1    1    3    3    0  502  0.59230831194E+03 -0.20648941541E+03  0.18544608249E+04  0.19576751432E+04  0.50400001928E-02 0.  1.
</event>
<event>
 5   0  0.5707187E-07  0.3500609E+04  0.7818609E-02  0.8113646E-01
       -2   -1    0    0    0  501  0.00000000000E+00  0.00000000000E+00  0.10763328864E+04  0.10763328864E+04  0.25500000920E-02 0. -1.
        2   -1    0    0  501    0  0.00000000000E+00  0.00000000000E+00 -0.28462989438E+04  0.28462989438E+04  0.25500000920E-02 0.  1.
    10030    2    1    2    0    0  0.00000000000E+00  0.00000000000E+00 -0.17699660574E+04  0.39226318302E+04  0.35006086087E+04 0.  0.
        1    1    3    3  502    0 -0.13965793983E+04  0.79421750416E+03 -0.16632256238E+04  0.23124737697E+04  0.50400001928E-02 0.  1.
       -1    1    3    3    0  502  0.13965793983E+04 -0.79421750416E+03 -0.10674043353E+03  0.16101580605E+04  0.50400001928E-02 0. -1.
</event>
<event>
 5   0  0.5740827E-07  0.3483226E+04  0.7818609E-02  0.8117777E-01
       -2   -1    0    0    0  501  0.00000000000E+00  0.00000000000E+00  0.17768800178E+04  0.17768800178E+04  0.25500000920E-02 0. -1.
        2   -1    0    0  501    0  0.00000000000E+00  0.00000000000E+00 -0.17070457946E+04  0.17070457946E+04  0.25500000920E-02 0.  1.
    10030    2    1    2    0    0  0.00000000000E+00  0.00000000000E+00  0.69834223288E+02  0.34839258124E+04  0.34832258393E+04 0.  0.
        2    1    3    3  502    0  0.67433168659E+01 -0.99558074773E+03  0.14641861011E+04  0.17706121643E+04  0.25500000920E-02 0. -1.
       -2    1    3    3    0  502 -0.67433168659E+01  0.99558074773E+03 -0.13943518778E+04  0.17133136481E+04  0.25500000920E-02 0.  1.
</event>
<event>
 5   0  0.1866421E-07  0.3474963E+04  0.7818609E-02  0.8119749E-01
        1   -1    0    0  501    0  0.00000000000E+00  0.00000000000E+00  0.24808373240E+04  0.24808373240E+04  0.50400001928E-02 0. -1.
       -1   -1    0    0    0  501  0.00000000000E+00  0.00000000000E+00 -0.12168643457E+04  0.12168643457E+04  0.50400001928E-02 0.  1.
    10030    2    1    2    0    0  0.00000000000E+00  0.00000000000E+00  0.12639729783E+04  0.36977016697E+04  0.34749633017E+04 0.  0.
        1    1    3    3  502    0 -0.26607725954E+03  0.45562018136E+03 -0.11295556403E+04  0.12467087881E+04  0.50400001928E-02 0.  1.
       -1    1    3    3    0  502  0.26607725954E+03 -0.45562018136E+03  0.23935286186E+04  0.24509928816E+04  0.50400001928E-02 0. -1.
</event>
<event>
 5   0  0.5707187E-07  0.3523458E+04  0.7818609E-02  0.8108253E-01
        2   -1    0    0  501    0  0.00000000000E+00  0.00000000000E+00  0.17478553848E+04  0.17478553848E+04  0.25500000920E-02 0.  1.
       -2   -1    0    0    0  501  0.00000000000E+00  0.00000000000E+00 -0.17757123328E+04  0.17757123328E+04  0.25500000920E-02 0. -1.
    10030    2    1    2    0    0  0.00000000000E+00  0.00000000000E+00 -0.27856947991E+02  0.35235677176E+04  0.35234575988E+04 0.  0.
        1    1    3    3  502    0 -0.27270778567E+03 -0.61806284826E+03  0.16131801941E+04  0.17489201124E+04  0.50400001928E-02 0.  1.
       -1    1    3    3    0  502  0.27270778567E+03  0.61806284826E+03 -0.16410371421E+04  0.17746476052E+04  0.50400001928E-02 0. -1.
</event>
<event>
 5   0  0.5573334E-07  0.3402583E+04  0.7818609E-02  0.8137273E-01
       -2   -1    0    0    0  501  0.00000000000E+00  0.00000000000E+00  0.17964105205E+04  0.17964105205E+04  0.25500000920E-02 0. -1.
        2   -1    0    0  501    0  0.00000000000E+00  0.00000000000E+00 -0.16112091853E+04  0.16112091853E+04  0.25500000920E-02 0.  1.
    10030    2    1    2    0    0  0.00000000000E+00  0.00000000000E+00  0.18520133522E+03  0.34076197058E+04  0.34025832135E+04 0.  0.
        4    1    3    3  502    0  0.87492331932E+03 -0.86130519264E+03 -0.10868752047E+04  0.16397063069E+04  0.12699999809E+01 0.  1.
       -4    1    3    3    0  502 -0.87492331932E+03  0.86130519264E+03  0.12720765399E+04  0.17679133988E+04  0.12699999809E+01 0. -1.
</event>
<event>
 5   0  0.5677193E-07  0.3516457E+04  0.7818609E-02  0.8109901E-01
       -2   -1    0    0    0  501  0.00000000000E+00  0.00000000000E+00  0.13438973457E+04  0.13438973457E+04  0.25500000920E-02 0.  1.
        2   -1    0    0  501    0  0.00000000000E+00  0.00000000000E+00 -0.23003008351E+04  0.23003008351E+04  0.25500000920E-02 0. -1.
    10030    2    1    2    0    0  0.00000000000E+00  0.00000000000E+00 -0.95640348938E+03  0.36441981807E+04  0.35164574142E+04 0.  0.
        3    1    3    3  502    0 -0.66279243360E+01 -0.16919662467E+03  0.13354279732E+04  0.13461200946E+04  0.10100000352E+00 0.  1.
       -3    1    3    3    0  502  0.66279243360E+01  0.16919662467E+03 -0.22918314626E+04  0.22980780862E+04  0.10100000352E+00 0. -1.
</event>
<event>
 5   0  0.1908190E-07  0.3511686E+04  0.7818609E-02  0.8111026E-01
       -1   -1    0    0    0  501  0.00000000000E+00  0.00000000000E+00  0.16717928987E+04  0.16717928987E+04  0.50400001928E-02 0. -1.
        1   -1    0    0  501    0  0.00000000000E+00  0.00000000000E+00 -0.18441185752E+04  0.18441185752E+04  0.50400001928E-02 0.  1.
    10030    2    1    2    0    0  0.00000000000E+00  0.00000000000E+00 -0.17232567654E+03  0.35159114739E+04  0.35116858279E+04 0.  0.
        5    1    3    3  502    0 -0.46323033150E+03 -0.83509776784E+03  0.13890386806E+04  0.16856515559E+04  0.46999998093E+01 0. -1.
       -5    1    3    3    0  502  0.46323033150E+03  0.83509776784E+03 -0.15613643571E+04  0.18302599180E+04  0.46999998093E+01 0.  1.
</event>
<event>
 5   0  0.1897049E-07  0.3496838E+04  0.7818609E-02  0.8114540E-01
       -1   -1    0    0    0  501  0.00000000000E+00  0.00000000000E+00  0.19162300144E+04  0.19162300144E+04  0.50400001928E-02 0. -1.
        1   -1    0    0  501    0  0.00000000000E+00  0.00000000000E+00 -0.15953038664E+04  0.15953038664E+04  0.50400001928E-02 0.  1.
    10030    2    1    2    0    0  0.00000000000E+00  0.00000000000E+00  0.32092614800E+03  0.35115338808E+04  0.34968380866E+04 0.  0.
        2    1    3    3  502    0  0.10455876535E+04  0.30951188470E+03  0.15329248038E+04  0.18811989799E+04  0.25500000920E-02 0. -1.
       -2    1    3    3    0  502 -0.10455876535E+04 -0.30951188470E+03 -0.12119986558E+04  0.16303349010E+04  0.25500000920E-02 0.  1.
</event>
<event>
 5   0  0.5707187E-07  0.3474048E+04  0.7818609E-02  0.8119968E-01
       -2   -1    0    0    0  501  0.00000000000E+00  0.00000000000E+00  0.14520540530E+04  0.14520540530E+04  0.25500000920E-02 0. -1.
        2   -1    0    0  501    0  0.00000000000E+00  0.00000000000E+00 -0.20779204407E+04  0.20779204407E+04  0.25500000920E-02 0.  1.
    10030    2    1    2    0    0  0.00000000000E+00  0.00000000000E+00 -0.62586638765E+03  0.35299744938E+04  0.34740482425E+04 0.  0.
        1    1    3    3  502    0 -0.14936244636E+04  0.68761481675E+03 -0.88187985043E+03  0.18658617969E+04  0.50400001928E-02 0. -1.
       -1    1    3    3    0  502  0.14936244636E+04 -0.68761481675E+03  0.25601346278E+03  0.16641126968E+04  0.50400001928E-02 0.  1.
</event>
<event>
 5   0  0.5573334E-07  0.3458137E+04  0.7818609E-02  0.8123783E-01
        2   -1    0    0  501    0  0.00000000000E+00  0.00000000000E+00  0.19927172534E+04  0.19927172534E+04  0.25500000920E-02 0.  1.
       -2   -1    0    0    0  501  0.00000000000E+00  0.00000000000E+00 -0.15003019970E+04  0.15003019970E+04  0.25500000920E-02 0. -1.
    10030    2    1    2    0    0  0.00000000000E+00  0.00000000000E+00  0.49241525644E+03  0.34930192504E+04  0.34581368826E+04 0.  0.
        4    1    3    3  502    0  0.11989825688E+04 -0.10912522211E+04 -0.36092564701E+03  0.16609212943E+04  0.12699999809E+01 0. -1.
       -4    1    3    3    0  502 -0.11989825688E+04  0.10912522211E+04  0.85334090345E+03  0.18320979561E+04  0.12699999809E+01 0.  1.
</event>
<event>
 5   0  0.5677193E-07  0.3501298E+04  0.7818609E-02  0.8113482E-01
       -2   -1    0    0    0  501  0.00000000000E+00  0.00000000000E+00  0.13059932891E+04  0.13059932891E+04  0.25500000920E-02 0. -1.
        2   -1    0    0  501    0  0.00000000000E+00  0.00000000000E+00 -0.23466977853E+04  0.23466977853E+04  0.25500000920E-02 0.  1.
    10030    2    1    2    0    0  0.00000000000E+00  0.00000000000E+00 -0.10407044962E+04  0.36526910743E+04  0.35012977931E+04 0.  0.
        3    1    3    3  502    0 -0.46963008749E+03  0.73002597722E+02 -0.22781064985E+04  0.23271551360E+04  0.10100000352E+00 0.  1.
       -3    1    3    3    0  502  0.46963008749E+03 -0.73002597722E+02  0.12374020023E+04  0.13255359384E+04  0.10100000352E+00 0. -1.
</event>
<event>
 5   0  0.1866421E-07  0.3410893E+04  0.7818609E-02  0.8135238E-01
        1   -1    0    0  501    0  0.00000000000E+00  0.00000000000E+00  0.16656392769E+04  0.16656392769E+04  0.50400001928E-02 0. -1.
       -1   -1    0    0    0  501  0.00000000000E+00  0.00000000000E+00 -0.17462047468E+04  0.17462047468E+04  0.50400001928E-02 0.  1.
    10030    2    1    2    0    0  0.00000000000E+00  0.00000000000E+00 -0.80565469876E+02  0.34118440238E+04  0.34108926761E+04 0.  0.
        1    1    3    3  502    0  0.80335075554E+03 -0.11045818956E+04 -0.10618773461E+04  0.17300454036E+04  0.50400001928E-02 0.  1.
       -1    1    3    3    0  502 -0.80335075554E+03  0.11045818956E+04  0.98131187619E+03  0.16817986202E+04  0.50400001928E-02 0. -1.
</event>
<event>
 5   0  0.5740827E-07  0.3484472E+04  0.7818609E-02  0.8117480E-01
        2   -1    0    0  501    0  0.00000000000E+00  0.00000000000E+00  0.20674673698E+04  0.20674673698E+04  0.25500000920E-02 0. -1.
       -2   -1    0    0    0  501  0.00000000000E+00  0.00000000000E+00 -0.14681665627E+04  0.14681665627E+04  0.25500000920E-02 0.  1.
    10030    2    1    2    0    0  0.00000000000E+00  0.00000000000E+00  0.59930080708E+03  0.35356339325E+04  0.34844721045E+04 0.  0.
        2    1    3    3  502    0 -0.10468521424E+04  0.10854863428E+04  0.11849321955E+04  0.19178749481E+04  0.25500000920E-02 0. -1.
       -2    1    3    3    0  502  0.10468521424E+04 -0.10854863428E+04 -0.58563138845E+03  0.16177589844E+04  0.25500000920E-02 0.  1.
</event>
<event>
 5   0  0.1866421E-07  0.3451578E+04  0.7818609E-02  0.8125362E-01
        1   -1    0    0  501    0  0.00000000000E+00  0.00000000000E+00  0.23566918675E+04  0.23566918675E+04  0.50400001928E-02 0.  1.
       -1   -1    0    0    0  501  0.00000000000E+00  0.00000000000E+00 -0.12637835325E+04  0.12637835325E+04  0.50400001928E-02 0. -1.
    10030    2    1    2    0    0  0.00000000000E+00  0.00000000000E+00  0.10929083350E+04  0.36204754000E+04  0.34515784060E+04 0.  0.
        1    1    3    3  502    0  0.17186974053E+03 -0.11188106420E+04  0.19129174943E+04  0.22227302581E+04  0.50400001928E-02 0.  1.
       -1    1    3    3    0  502 -0.17186974053E+03  0.11188106420E+04 -0.82000915926E+03  0.13977451419E+04  0.50400001928E-02 0. -1.
</event>
<event>
 5   0  0.1897049E-07  0.3075782E+04  0.7818609E-02  0.8222416E-01
       -1   -1    0    0    0  501  0.00000000000E+00  0.00000000000E+00  0.11258576661E+04  0.11258576661E+04  0.50400001928E-02 0. -1.
        1   -1    0    0  501    0  0.00000000000E+00  0.00000000000E+00 -0.21007169918E+04  0.21007169918E+04  0.50400001928E-02 0.  1.
    10030    2    1    2    0    0  0.00000000000E+00  0.00000000000E+00 -0.97485932567E+03  0.32265746579E+04  0.30757817410E+04 0.  0.
        2    1    3    3  502    0  0.50969286959E+03  0.93242706177E+03  0.67878392044E+03  0.12609340417E+04  0.25500000920E-02 0. -1.
       -2    1    3    3    0  502 -0.50969286959E+03 -0.93242706177E+03 -0.16536432461E+04  0.19656406163E+04  0.25500000920E-02 0.  1.
</event>
<event>
 5   0  0.5554745E-07  0.3531311E+04  0.7818609E-02  0.8106410E-01
        2   -1    0    0  501    0  0.00000000000E+00  0.00000000000E+00  0.11337690905E+04  0.11337690905E+04  0.25500000920E-02 0.  1.
       -2   -1    0    0    0  501  0.00000000000E+00  0.00000000000E+00 -0.27497120783E+04  0.27497120783E+04  0.25500000920E-02 0. -1.
    10030    2    1    2    0    0  0.00000000000E+00  0.00000000000E+00 -0.16159429879E+04  0.38834811688E+04  0.35313105568E+04 0.  0.
        5    1    3    3  502    0  0.60238240087E+03 -0.10796430843E+04  0.57830655048E+03  0.13649008399E+04  0.46999998093E+01 0.  1.
       -5    1    3    3    0  502 -0.60238240087E+03  0.10796430843E+04 -0.21942495384E+04  0.25185803289E+04  0.46999998093E+01 0. -1.
</event>
<event>
 5   0  0.1866421E-07  0.3508160E+04  0.7818609E-02  0.8111859E-01
        1   -1    0    0  501    0  0.00000000000E+00  0.00000000000E+00  0.21552410507E+04  0.21552410507E+04  0.50400001928E-02 0.  1.
       -1   -1    0    0    0  501  0.00000000000E+00  0.00000000000E+00 -0.14275879792E+04  0.14275879792E+04  0.50400001928E-02 0. -1.
    10030    2    1    2    0    0  0.00000000000E+00  0.00000000000E+00  0.72765307148E+03  0.35828290300E+04  0.35081597548E+04 0.  0.
        1    1    3    3  502    0  0.16724376170E+04  0.41733853015E+03  0.31984223097E+02  0.17240191478E+04  0.50400001928E-02 0. -1.
       -1    1    3    3    0  502 -0.16724376170E+04 -0.41733853015E+03  0.69566884838E+03  0.18588098822E+04  0.50400001928E-02 0.  1.
</event>
<event>
 5   0  0.5573334E-07  0.3503246E+04  0.7818609E-02  0.8113021E-01
        2   -1    0    0  501    0  0.00000000000E+00  0.00000000000E+00  0.26973366562E+04  0.26973366562E+04  0.25500000920E-02 0.  1.
       -2   -1    0    0    0  501  0.00000000000E+00  0.00000000000E+00 -0.11374858958E+04  0.11374858958E+04  0.25500000920E-02 0. -1.
    10030    2    1    2    0    0  0.00000000000E+00  0.00000000000E+00  0.15598507604E+04  0.38348225520E+04  0.35032455824E+04 0.  0.
        4    1    3    3  502    0  0.16088017299E+04  0.75785217300E+01  0.21625175944E+02  0.16089654134E+04  0.12699999809E+01 0. -1.
       -4    1    3    3    0  502 -0.16088017299E+04 -0.75785217300E+01  0.15382255844E+04  0.22258571387E+04  0.12699999809E+01 0.  1.
</event>
<event>
 5   0  0.1823000E-07  0.3555879E+04  0.7818609E-02  0.8100673E-01
        3   -1    0    0  501    0  0.00000000000E+00  0.00000000000E+00  0.15595392191E+04  0.15595392224E+04  0.10100000352E+00 0. -1.
       -3   -1    0    0    0  501  0.00000000000E+00  0.00000000000E+00 -0.20269253376E+04  0.20269253401E+04  0.10100000352E+00 0.  1.
    10030    2    1    2    0    0  0.00000000000E+00  0.00000000000E+00 -0.46738611847E+03  0.35864645625E+04  0.35558793953E+04 0.  0.
        5    1    3    3  502    0  0.15769672268E+04  0.34092264093E+03 -0.98710782795E+03  0.18914168857E+04  0.46999998093E+01 0. -1.
       -5    1    3    3    0  502 -0.15769672268E+04 -0.34092264093E+03  0.51972170948E+03  0.16950476768E+04  0.46999998093E+01 0.  1.
</event>
<event>
 5   0  0.5677193E-07  0.3487247E+04  0.7818609E-02  0.8116819E-01
       -2   -1    0    0    0  501  0.00000000000E+00  0.00000000000E+00  0.18475243039E+04  0.18475243039E+04  0.25500000920E-02 0. -1.
        2   -1    0    0  501    0  0.00000000000E+00  0.00000000000E+00 -0.16455654353E+04  0.16455654353E+04  0.25500000920E-02 0.  1.
    10030    2    1    2    0    0  0.00000000000E+00  0.00000000000E+00  0.20195886866E+03  0.34930897392E+04  0.34872465559E+04 0.  0.
        3    1    3    3  502    0  0.13297805115E+04  0.22126268744E+03 -0.10067436745E+04  0.16824999917E+04  0.10100000352E+00 0.  1.
       -3    1    3    3    0  502 -0.13297805115E+04 -0.22126268744E+03  0.12087025432E+04  0.18105897475E+04  0.10100000352E+00 0. -1.
</event>
<event>
 5   0  0.5677193E-07  0.3488680E+04  0.7818609E-02  0.8116478E-01
        2   -1    0    0  501    0  0.00000000000E+00  0.00000000000E+00  0.14343354439E+04  0.14343354439E+04  0.25500000920E-02 0. -1.
       -2   -1    0    0    0  501  0.00000000000E+00  0.00000000000E+00 -0.21213459369E+04  0.21213459369E+04  0.25500000920E-02 0.  1.
    10030    2    1    2    0    0  0.00000000000E+00  0.00000000000E+00 -0.68701049304E+03  0.35556813808E+04  0.34886797882E+04 0.  0.
        3    1    3    3  502    0  0.52124629291E+03 -0.16526387773E+04 -0.14015133721E+03  0.17385496926E+04  0.10100000352E+00 0. -1.
       -3    1    3    3    0  502 -0.52124629291E+03  0.16526387773E+04 -0.54685915583E+03  0.18171316883E+04  0.10100000352E+00 0.  1.
</event>
<event>
 5   0  0.1873457E-07  0.3467538E+04  0.7818609E-02  0.8121526E-01
        1   -1    0    0  501    0  0.00000000000E+00  0.00000000000E+00  0.24108351401E+04  0.24108351401E+04  0.50400001928E-02 0. -1.
       -1   -1    0    0    0  501  0.00000000000E+00  0.00000000000E+00 -0.12468520343E+04  0.12468520343E+04  0.50400001928E-02 0.  1.
    10030    2    1    2    0    0  0.00000000000E+00  0.00000000000E+00  0.11639831058E+04  0.36576871744E+04  0.34675378577E+04 0.  0.
        3    1    3    3  502    0  0.16537763143E+04  0.47071404477E+03  0.81645711196E+03  0.19034573900E+04  0.10100000352E+00 0. -1.
       -3    1    3    3    0  502 -0.16537763143E+04 -0.47071404477E+03  0.34752599382E+03  0.17542297843E+04  0.10100000352E+00 0.  1.
</event>
<event>
 5   0  0.5740827E-07  0.3540479E+04  0.7818609E-02  0.8104263E-01
        2   -1    0    0  501    0  0.00000000000E+00  0.00000000000E+00  0.19270606770E+04  0.19270606770E+04  0.25500000920E-02 0. -1.
       -2   -1    0    0    0  501  0.00000000000E+00  0.00000000000E+00 -0.16261805240E+04  0.16261805240E+04  0.25500000920E-02 0.  1.
    10030    2    1    2    0    0  0.00000000000E+00  0.00000000000E+00  0.30088015301E+03  0.35532412009E+04  0.35404793694E+04 0.  0.
        2    1    3    3  502    0 -0.16165002663E+04  0.32151484191E+02  0.87390024271E+03  0.18378815150E+04  0.25500000920E-02 0. -1.
       -2    1    3    3    0  502  0.16165002663E+04 -0.32151484191E+02 -0.57302008970E+03  0.17153596859E+04  0.25500000920E-02 0.  1.
</event>
<event>
 5   0  0.5573334E-07  0.3503353E+04  0.7818609E-02  0.8112996E-01
       -2   -1    0    0    0  501  0.00000000000E+00  0.00000000000E+00  0.10401897884E+04  0.10401897884E+04  0.25500000920E-02 0. -1.
        2   -1    0    0  501    0  0.00000000000E+00  0.00000000000E+00 -0.29498183591E+04  0.29498183592E+04  0.25500000920E-02 0.  1.
    10030    2    1    2    0    0  0.00000000000E+00  0.00000000000E+00 -0.19096285707E+04  0.39900081476E+04  0.35033532137E+04 0.  0.
        4    1    3    3  502    0  0.38616607867E+03 -0.13853272296E+04  0.18416155518E+03  0.14498871903E+04  0.12699999809E+01 0. -1.
       -4    1    3    3    0  502 -0.38616607867E+03  0.13853272296E+04 -0.20937901259E+04  0.25401209573E+04  0.12699999809E+01 0.  1.
</event>
<event>
 5   0  0.5573334E-07  0.3507642E+04  0.7818609E-02  0.8111981E-01
       -2   -1    0    0    0  501  0.00000000000E+00  0.00000000000E+00  0.17362953383E+04  0.17362953383E+04  0.25500000920E-02 0.  1.
        2   -1    0    0  501    0  0.00000000000E+00  0.00000000000E+00 -0.17715233207E+04  0.17715233207E+04  0.25500000920E-02 0. -1.
    10030    2    1    2    0    0  0.00000000000E+00  0.00000000000E+00 -0.35227982405E+02  0.35078186589E+04  0.35076417624E+04 0.  0.
        4    1    3    3  502    0 -0.14004693755E+04  0.66948352026E+03  0.79873803354E+03  0.17457109482E+04  0.12699999809E+01 0.  1.
       -4    1    3    3    0  502  0.14004693755E+04 -0.66948352026E+03 -0.83396601594E+03  0.17621077107E+04  0.12699999809E+01 0. -1.
</event>
<event>
 5   0  0.1933647E-07  0.3482192E+04  0.7818609E-02  0.8118023E-01
        1   -1    0    0  501    0  0.00000000000E+00  0.00000000000E+00  0.11956006679E+04  0.11956006679E+04  0.50400001928E-02 0.  1.
       -1   -1    0    0    0  501  0.00000000000E+00  0.00000000000E+00 -0.25354740708E+04  0.25354740708E+04  0.50400001928E-02 0. -1.
    10030    2    1    2    0    0  0.00000000000E+00  0.00000000000E+00 -0.13398734029E+04  0.37310747388E+04  0.34821915471E+04 0.  0.
        4    1    3    3  502    0 -0.16163120492E+04  0.34322264944E+03 -0.12579270092E+04  0.20766916961E+04  0.12699999809E+01 0. -1.
       -4    1    3    3    0  502  0.16163120492E+04 -0.34322264944E+03 -0.81946393709E+02  0.16543830426E+04  0.12699999809E+01 0.  1.
</event>
<event>
 5   0  0.1908190E-07  0.3519426E+04  0.7818609E-02  0.8109202E-01
       -1   -1    0    0    0  501  0.00000000000E+00  0.00000000000E+00  0.11418024346E+04  0.11418024346E+04  0.50400001928E-02 0.  1.
        1   -1    0    0  501    0  0.00000000000E+00  0.00000000000E+00 -0.27120183511E+04  0.27120183511E+04  0.50400001928E-02 0. -1.
    10030    2    1    2    0    0  0.00000000000E+00  0.00000000000E+00 -0.15702159164E+04  0.38538207857E+04  0.35194256100E+04 0.  0.
        5    1    3    3  502    0 -0.74787866796E+03 -0.33489805692E+03  0.92012399965E+03  0.12321239691E+04  0.46999998093E+01 0.  1.
       -5    1    3    3    0  502  0.74787866796E+03  0.33489805692E+03 -0.24903399161E+04  0.26216968166E+04  0.46999998093E+01 0. -1.
</event>
<event>
 5   0  0.1866421E-07  0.3310597E+04  0.7818609E-02  0.8160204E-01
        1   -1    0    0  501    0  0.00000000000E+00  0.00000000000E+00  0.19738362373E+04  0.19738362373E+04  0.50400001928E-02 0. -1.
       -1   -1    0    0    0  501  0.00000000000E+00  0.00000000000E+00 -0.13881660512E+04  0.13881660512E+04  0.50400001928E-02 0.  1.
    10030    2    1    2    0    0  0.00000000000E+00  0.00000000000E+00  0.58567018613E+03  0.33620022885E+04  0.33105965959E+04 0.  0.
        1    1    3    3  502    0  0.70433541310E+03  0.31287823510E+03 -0.11948457328E+04  0.14218429904E+04  0.50400001928E-02 0.  1.
       -1    1    3    3    0  502 -0.70433541310E+03 -0.31287823510E+03  0.17805159190E+04  0.19401592981E+04  0.50400001928E-02 0. -1.
</event>
<event>
 5   0  0.1933647E-07  0.3511157E+04  0.7818609E-02  0.8111151E-01
       -1   -1    0    0    0  501  0.00000000000E+00  0.00000000000E+00  0.18572565813E+04  0.18572565813E+04  0.50400001928E-02 0.  1.
        1   -1    0    0  501    0  0.00000000000E+00  0.00000000000E+00 -0.16594671826E+04  0.16594671826E+04  0.50400001928E-02 0. -1.
    10030    2    1    2    0    0  0.00000000000E+00  0.00000000000E+00  0.19778939869E+03  0.35167237638E+04  0.35111572715E+04 0.  0.
        4    1    3    3  502    0  0.59331621572E+03  0.66073159607E+03  0.16157144364E+04  0.18436716429E+04  0.12699999809E+01 0.  1.
       -4    1    3    3    0  502 -0.59331621572E+03 -0.66073159607E+03 -0.14179250377E+04  0.16730521209E+04  0.12699999809E+01 0. -1.
</event>
<event>
 5   0  0.1866421E-07  0.3516955E+04  0.7818609E-02  0.8109783E-01
       -1   -1    0    0    0  501  0.00000000000E+00  0.00000000000E+00  0.11480956497E+04  0.11480956498E+04  0.50400001928E-02 0.  1.
        1   -1    0    0  501    0  0.00000000000E+00  0.00000000000E+00 -0.26933676313E+04  0.26933676314E+04  0.50400001928E-02 0. -1.
    10030    2    1    2    0    0  0.00000000000E+00  0.00000000000E+00 -0.15452719816E+04  0.38414632811E+04  0.35169553086E+04 0.  0.
        1    1    3    3  502    0 -0.13380512853E+04  0.49195257923E+03 -0.18971141652E+04  0.23730656835E+04  0.50400001928E-02 0. -1.
       -1    1    3    3    0  502  0.13380512853E+04 -0.49195257923E+03  0.35184218364E+03  0.14683975976E+04  0.50400001928E-02 0.  1.
</event>
<event>
 5   0  0.5740827E-07  0.3465253E+04  0.7818609E-02  0.8122074E-01
        2   -1    0    0  501    0  0.00000000000E+00  0.00000000000E+00  0.19713784576E+04  0.19713784576E+04  0.25500000920E-02 0. -1.
       -2   -1    0    0    0  501  0.00000000000E+00  0.00000000000E+00 -0.15227896136E+04  0.15227896136E+04  0.25500000920E-02 0.  1.
    10030    2    1    2    0    0  0.00000000000E+00  0.00000000000E+00  0.44858884398E+03  0.34941680713E+04  0.34652530296E+04 0.  0.
        2    1    3    3  502    0  0.11424294643E+04 -0.54330941218E+03 -0.96950363318E+03  0.15938216628E+04  0.25500000920E-02 0. -1.
       -2    1    3    3    0  502 -0.11424294643E+04  0.54330941218E+03  0.14180924772E+04  0.19003464084E+04  0.25500000920E-02 0.  1.
</event>
<event>
 5   0  0.1933647E-07  0.3493505E+04  0.7818609E-02  0.8115331E-01
       -1   -1    0    0    0  501  0.00000000000E+00  0.00000000000E+00  0.12734360553E+04  0.12734360554E+04  0.50400001928E-02 0. -1.
        1   -1    0    0  501    0  0.00000000000E+00  0.00000000000E+00 -0.23959932234E+04  0.23959932234E+04  0.50400001928E-02 0.  1.
    10030    2    1    2    0    0  0.00000000000E+00  0.00000000000E+00 -0.11225571681E+04  0.36694292788E+04  0.34935049215E+04 0.  0.
        4    1    3    3  502    0  0.93983364321E+03 -0.25294767456E+03  0.96223698285E+03  0.13686385305E+04  0.12699999809E+01 0. -1.
       -4    1    3    3    0  502 -0.93983364321E+03  0.25294767456E+03 -0.20847941509E+04  0.23007907483E+04  0.12699999809E+01 0.  1.
</event>
<event>
 5   0  0.5573334E-07  0.3548708E+04  0.7818609E-02  0.8102343E-01
       -2   -1    0    0    0  501  0.00000000000E+00  0.00000000000E+00  0.14304525656E+04  0.14304525656E+04  0.25500000920E-02 0. -1.
        2   -1    0    0  501    0  0.00000000000E+00  0.00000000000E+00 -0.22009338352E+04  0.22009338352E+04  0.25500000920E-02 0.  1.
    10030    2    1    2    0    0  0.00000000000E+00  0.00000000000E+00 -0.77048126960E+03  0.36313864009E+04  0.35487076247E+04 0.  0.
        4    1    3    3  502    0 -0.13460979457E+04 -0.10154152300E+03  0.79312608980E+03  0.15656758820E+04  0.12699999809E+01 0. -1.
       -4    1    3    3    0  502  0.13460979457E+04  0.10154152300E+03 -0.15636073594E+04  0.20657105188E+04  0.12699999809E+01 0.  1.
</event>
<event>
 5   0  0.1866421E-07  0.3483806E+04  0.7818609E-02  0.8117638E-01
       -1   -1    0    0    0  501  0.00000000000E+00  0.00000000000E+00  0.20748383769E+04  0.20748383769E+04  0.50400001928E-02 0. -1.
        1   -1    0    0  501    0  0.00000000000E+00  0.00000000000E+00 -0.14623916791E+04  0.14623916791E+04  0.50400001928E-02 0.  1.
    10030    2    1    2    0    0  0.00000000000E+00  0.00000000000E+00  0.61244669781E+03  0.35372300560E+04  0.34838061817E+04 0.  0.
        1    1    3    3  502    0  0.39841498725E+02  0.75734727636E+03 -0.12859642943E+04  0.14929388495E+04  0.50400001928E-02 0.  1.
       -1    1    3    3    0  502 -0.39841498725E+02 -0.75734727636E+03  0.18984109921E+04  0.20442912065E+04  0.50400001928E-02 0. -1.
</event>
<event>
 5   0  0.1873457E-07  0.3526211E+04  0.7818609E-02  0.8107606E-01
        1   -1    0    0  501    0  0.00000000000E+00  0.00000000000E+00  0.13164566099E+04  0.13164566099E+04  0.50400001928E-02 0. -1.
       -1   -1    0    0    0  501  0.00000000000E+00  0.00000000000E+00 -0.23612942765E+04  0.23612942765E+04  0.50400001928E-02 0.  1.
    10030    2    1    2    0    0  0.00000000000E+00  0.00000000000E+00 -0.10448376666E+04  0.36777508864E+04  0.35262112575E+04 0.  0.
        3    1    3    3  502    0 -0.65772048553E+03 -0.15634152413E+04 -0.10244334629E+04  0.19814962488E+04  0.10100000352E+00 0.  1.
       -3    1    3    3    0  502  0.65772048553E+03  0.15634152413E+04 -0.20404203723E+02  0.16962546376E+04  0.10100000352E+00 0. -1.
</event>
<event>
 5   0  0.5740827E-07  0.3480078E+04  0.7818609E-02  0.8118527E-01
        2   -1    0    0  501    0  0.00000000000E+00  0.00000000000E+00  0.24916039819E+04  0.24916039819E+04  0.25500000920E-02 0.  1.
       -2   -1    0    0    0  501  0.00000000000E+00  0.00000000000E+00 -0.12151754971E+04  0.12151754971E+04  0.25500000920E-02 0. -1.
    10030    2    1    2    0    0  0.00000000000E+00  0.00000000000E+00  0.12764284848E+04  0.37067794791E+04  0.34800782218E+04 0.  0.
        2    1    3    3  502    0 -0.14569337580E+04  0.36142182643E+03  0.15755726280E+04  0.21761688395E+04  0.25500000920E-02 0.  1.
       -2    1    3    3    0  502  0.14569337580E+04 -0.36142182643E+03 -0.29914414319E+03  0.15306106396E+04  0.25500000920E-02 0. -1.
</event>
<event>
 5   0  0.5707187E-07  0.3503489E+04  0.7818609E-02  0.8112964E-01
       -2   -1    0    0    0  501  0.00000000000E+00  0.00000000000E+00  0.15769035651E+04  0.15769035651E+04  0.25500000920E-02 0. -1.
        2   -1    0    0  501    0  0.00000000000E+00  0.00000000000E+00 -0.19459708711E+04  0.19459708711E+04  0.25500000920E-02 0.  1.
    10030    2    1    2    0    0  0.00000000000E+00  0.00000000000E+00 -0.36906730603E+03  0.35228744362E+04  0.35034887779E+04 0.  0.
        1    1    3    3  502    0 -0.16285385843E+04  0.23348722936E+03 -0.78948889197E+03  0.18248142145E+04  0.50400001928E-02 0.  1.
       -1    1    3    3    0  502  0.16285385843E+04 -0.23348722936E+03  0.42042158594E+03  0.16980602217E+04  0.50400001928E-02 0. -1.
</event>
<event>
 5   0  0.5554745E-07  0.3500493E+04  0.7818609E-02  0.8113673E-01
       -2   -1    0    0    0  501  0.00000000000E+00  0.00000000000E+00  0.15603026612E+04  0.15603026612E+04  0.25500000920E-02 0. -1.
        2   -1    0    0  501    0  0.00000000000E+00  0.00000000000E+00 -0.19633129812E+04  0.19633129812E+04  0.25500000920E-02 0.  1.
    10030    2    1    2    0    0  0.00000000000E+00  0.00000000000E+00 -0.40301032005E+03  0.35236156424E+04  0.35004928049E+04 0.  0.
        5    1    3    3  502    0 -0.11933543399E+03  0.50470089483E+03 -0.18841861778E+04  0.19542629254E+04  0.46999998093E+01 0.  1.
       -5    1    3    3    0  502  0.11933543399E+03 -0.50470089483E+03  0.14811758577E+04  0.15693527170E+04  0.46999998093E+01 0. -1.
</event>
<event>
 5   0  0.1933647E-07  0.3479776E+04  0.7818609E-02  0.8118599E-01
       -1   -1    0    0    0  501  0.00000000000E+00  0.00000000000E+00  0.11719453686E+04  0.11719453687E+04  0.50400001928E-02 0. -1.
        1   -1    0    0  501    0  0.00000000000E+00  0.00000000000E+00 -0.25830650192E+04  0.25830650192E+04  0.50400001928E-02 0.  1.
    10030    2    1    2    0    0  0.00000000000E+00  0.00000000000E+00 -0.14111196505E+04  0.37550103878E+04  0.34797764791E+04 0.  0.
        4    1    3    3  502    0  0.14377331125E+04 -0.17057964479E+03  0.33566119671E+03  0.14862180088E+04  0.12699999809E+01 0.  1.
       -4    1    3    3    0  502 -0.14377331125E+04  0.17057964479E+03 -0.17467808472E+04  0.22687923790E+04  0.12699999809E+01 0. -1.
</event>
<event>
 5   0  0.1866421E-07  0.3461584E+04  0.7818609E-02  0.8122955E-01
       -1   -1    0    0    0  501  0.00000000000E+00  0.00000000000E+00  0.13425133314E+04  0.13425133314E+04  0.50400001928E-02 0. -1.
        1   -1    0    0  501    0  0.00000000000E+00  0.00000000000E+00 -0.22313675273E+04  0.22313675273E+04  0.50400001928E-02 0.  1.
    10030    2    1    2    0    0  0.00000000000E+00  0.00000000000E+00 -0.88885419591E+03  0.35738808586E+04  0.34615838297E+04 0.  0.
        1    1    3    3  502    0  0.13784624460E+04 -0.94169954219E+03  0.27211890778E+02  0.16696398503E+04  0.50400001928E-02 0.  1.
       -1    1    3    3    0  502 -0.13784624460E+04  0.94169954219E+03 -0.91606608668E+03  0.19042410083E+04  0.50400001928E-02 0. -1.
</event>
<event>
 5   0  0.1908190E-07  0.3501070E+04  0.7818609E-02  0.8113536E-01
        1   -1    0    0  501    0  0.00000000000E+00  0.00000000000E+00  0.17480749192E+04  0.17480749192E+04  0.50400001928E-02 0. -1.
       -1   -1    0    0    0  501  0.00000000000E+00  0.00000000000E+00 -0.17529982552E+04  0.17529982552E+04  0.50400001928E-02 0.  1.
    10030    2    1    2    0    0  0.00000000000E+00  0.00000000000E+00 -0.49233360416E+01  0.35010731744E+04  0.35010697127E+04 0.  0.
        5    1    3    3  502    0  0.31872318226E+03  0.12107991654E+04 -0.12258725014E+04  0.17522569919E+04  0.46999998093E+01 0.  1.
       -5    1    3    3    0  502 -0.31872318226E+03 -0.12107991654E+04  0.12209491654E+04  0.17488161825E+04  0.46999998093E+01 0. -1.
</event>
<event>
 5   0  0.5677193E-07  0.3248684E+04  0.7818609E-02  0.8176077E-01
        2   -1    0    0  501    0  0.00000000000E+00  0.00000000000E+00  0.19467202683E+04  0.19467202683E+04  0.25500000920E-02 0. -1.
       -2   -1    0    0    0  501  0.00000000000E+00  0.00000000000E+00 -0.13553498967E+04  0.13553498967E+04  0.25500000920E-02 0.  1.
    10030    2    1    2    0    0  0.00000000000E+00  0.00000000000E+00  0.59137037166E+03  0.33020701650E+04  0.32486841118E+04 0.  0.
        3    1    3    3  502    0 -0.68889716084E+03  0.74339796192E+03  0.15859017295E+04  0.18821009893E+04  0.10100000352E+00 0. -1.
       -3    1    3    3    0  502  0.68889716084E+03 -0.74339796192E+03 -0.99453135788E+03  0.14199691757E+04  0.10100000352E+00 0.  1.
</event>
<event>
 5   0  0.5740827E-07  0.3525349E+04  0.7818609E-02  0.8107809E-01
       -2   -1    0    0    0  501  0.00000000000E+00  0.00000000000E+00  0.11954187111E+04  0.11954187111E+04  0.25500000920E-02 0. -1.
        2   -1    0    0  501    0  0.00000000000E+00  0.00000000000E+00 -0.25991073623E+04  0.25991073623E+04  0.25500000920E-02 0.  1.
    10030    2    1    2    0    0  0.00000000000E+00  0.00000000000E+00 -0.14036886512E+04  0.37945260734E+04  0.35253491021E+04 0.  0.
        2    1    3    3  502    0  0.24025456976E+03  0.39752961837E+03 -0.25320491679E+04  0.25743008846E+04  0.25500000920E-02 0.  1.
       -2    1    3    3    0  502 -0.24025456976E+03 -0.39752961837E+03  0.11283605167E+04  0.12202251888E+04  0.25500000920E-02 0. -1.
</event>
<event>
 5   0  0.1897049E-07  0.3485971E+04  0.7818609E-02  0.8117123E-01
       -1   -1    0    0    0  501  0.00000000000E+00  0.00000000000E+00  0.17732870067E+04  0.17732870067E+04  0.50400001928E-02 0.  1.
        1   -1    0    0  501    0  0.00000000000E+00  0.00000000000E+00 -0.17132015205E+04  0.17132015205E+04  0.50400001928E-02 0. -1.
    10030    2    1    2    0    0  0.00000000000E+00  0.00000000000E+00  0.60085486180E+02  0.34864885272E+04  0.34859707378E+04 0.  0.
        2    1    3    3  502    0  0.78275856655E+03  0.10005856160E+04  0.12235830825E+04  0.17638135129E+04  0.25500000920E-02 0.  1.
       -2    1    3    3    0  502 -0.78275856655E+03 -0.10005856160E+04 -0.11634975963E+04  0.17226750144E+04  0.25500000920E-02 0. -1.
</event>
<event>
 5   0  0.1897049E-07  0.3491478E+04  0.7818609E-02  0.8115813E-01
        1   -1    0    0  501    0  0.00000000000E+00  0.00000000000E+00  0.11066117463E+04  0.11066117463E+04  0.50400001928E-02 0. -1.
       -1   -1    0    0    0  501  0.00000000000E+00  0.00000000000E+00 -0.27539955497E+04  0.27539955497E+04  0.50400001928E-02 0.  1.
    10030    2    1    2    0    0  0.00000000000E+00  0.00000000000E+00 -0.16473838033E+04  0.38606072960E+04  0.34914775237E+04 0.  0.
        2    1    3    3  502    0 -0.37083553068E+03  0.84373633951E+03 -0.24630709034E+04  0.26298532805E+04  0.25500000920E-02 0.  1.
       -2    1    3    3    0  502  0.37083553068E+03 -0.84373633951E+03  0.81568710013E+03  0.12307540155E+04  0.25500000920E-02 0. -1.
</event>
<event>
 5   0  0.5573334E-07  0.3164216E+04  0.7818609E-02  0.8198332E-01
       -2   -1    0    0    0  501  0.00000000000E+00  0.00000000000E+00  0.19394508662E+04  0.19394508662E+04  0.25500000920E-02 0.  1.
        2   -1    0    0  501    0  0.00000000000E+00  0.00000000000E+00 -0.12906055716E+04  0.12906055716E+04  0.25500000920E-02 0. -1.
    10030    2    1    2    0    0  0.00000000000E+00  0.00000000000E+00  0.64884529452E+03  0.32300564378E+04  0.31642162340E+04 0.  0.
        4    1    3    3  502    0 -0.10672931517E+04 -0.71898880427E+03  0.12639013079E+04  0.18037482366E+04  0.12699999809E+01 0.  1.
       -4    1    3    3    0  502  0.10672931517E+04  0.71898880427E+03 -0.61505601335E+03  0.14263082012E+04  0.12699999809E+01 0. -1.
</event>
<event>
 5   0  0.1873457E-07  0.3491860E+04  0.7818609E-02  0.8115722E-01
       -1   -1    0    0    0  501  0.00000000000E+00  0.00000000000E+00  0.23068703704E+04  0.23068703704E+04  0.50400001928E-02 0. -1.
        1   -1    0    0  501    0  0.00000000000E+00  0.00000000000E+00 -0.13213882455E+04  0.13213882455E+04  0.50400001928E-02 0.  1.
    10030    2    1    2    0    0  0.00000000000E+00  0.00000000000E+00  0.98548212497E+03  0.36282586159E+04  0.34918599006E+04 0.  0.
        3    1    3    3  502    0 -0.10085185386E+03  0.14269446583E+04  0.15328047821E+04  0.20966241114E+04  0.10100000352E+00 0. -1.
       -3    1    3    3    0  502  0.10085185386E+03 -0.14269446583E+04 -0.54732265713E+03  0.15316345045E+04  0.10100000352E+00 0.  1.
</event>
<event>
 5   0  0.5707187E-07  0.3498152E+04  0.7818609E-02  0.8114228E-01
       -2   -1    0    0    0  501  0.00000000000E+00  0.00000000000E+00  0.13067382677E+04  0.13067382677E+04  0.25500000920E-02 0.  1.
        2   -1    0    0  501    0  0.00000000000E+00  0.00000000000E+00 -0.23411467098E+04  0.23411467098E+04  0.25500000920E-02 0. -1.
    10030    2    1    2    0    0  0.00000000000E+00  0.00000000000E+00 -0.10344084421E+04  0.36478849775E+04  0.34981515096E+04 0.  0.
        1    1    3    3  502    0  0.10085951848E+04 -0.57900413515E+03 -0.18795527738E+04  0.22102553393E+04  0.50400001928E-02 0. -1.
       -1    1    3    3    0  502 -0.10085951848E+04  0.57900413515E+03  0.84514433167E+03  0.14376296382E+04  0.50400001928E-02 0.  1.
</event>
<event>
 5   0  0.1897049E-07  0.3503232E+04  0.7818609E-02  0.8113024E-01
       -1   -1    0    0    0  501  0.00000000000E+00  0.00000000000E+00  0.28859629927E+04  0.28859629927E+04  0.50400001928E-02 0. -1.
        1   -1    0    0  501    0  0.00000000000E+00  0.00000000000E+00 -0.10631317452E+04  0.10631317452E+04  0.50400001928E-02 0.  1.
    10030    2    1    2    0    0  0.00000000000E+00  0.00000000000E+00  0.18228312475E+04  0.39490947380E+04  0.35032321494E+04 0.  0.
        2    1    3    3  502    0  0.15232562286E+04  0.62268713823E+03  0.23494917165E+03  0.16623025968E+04  0.25500000920E-02 0.  1.
       -2    1    3    3    0  502 -0.15232562286E+04 -0.62268713823E+03  0.15878820759E+04  0.22867921412E+04  0.25500000920E-02 0. -1.
</event>
<event>
 5   0  0.1933647E-07  0.3489361E+04  0.7818609E-02  0.8116316E-01
       -1   -1    0    0    0  501  0.00000000000E+00  0.00000000000E+00  0.13136092866E+04  0.13136092866E+04  0.50400001928E-02 0. -1.
        1   -1    0    0  501    0  0.00000000000E+00  0.00000000000E+00 -0.23172117477E+04  0.23172117477E+04  0.50400001928E-02 0.  1.
    10030    2    1    2    0    0  0.00000000000E+00  0.00000000000E+00 -0.10036024611E+04  0.36308210343E+04  0.34893614721E+04 0.  0.
        4    1    3    3  502    0 -0.11489963103E+04 -0.51987028995E+03 -0.17562680281E+04  0.21621601788E+04  0.12699999809E+01 0.  1.
       -4    1    3    3    0  502  0.11489963103E+04  0.51987028995E+03  0.75266556703E+03  0.14686608554E+04  0.12699999809E+01 0. -1.
</event>
<event>
 5   0  0.5573334E-07  0.3494954E+04  0.7818609E-02  0.8114987E-01
       -2   -1    0    0    0  501  0.00000000000E+00  0.00000000000E+00  0.16847268607E+04  0.16847268607E+04  0.25500000920E-02 0.  1.
        2   -1    0    0  501    0  0.00000000000E+00  0.00000000000E+00 -0.18125640264E+04  0.18125640264E+04  0.25500000920E-02 0. -1.
    10030    2    1    2    0    0  0.00000000000E+00  0.00000000000E+00 -0.12783716573E+03  0.34972908870E+04  0.34949536775E+04 0.  0.
        4    1    3    3  502    0 -0.72480393785E+03 -0.87853332139E+03  0.12623024483E+04  0.17001678238E+04  0.12699999809E+01 0.  1.
       -4    1    3    3    0  502  0.72480393785E+03  0.87853332139E+03 -0.13901396140E+04  0.17971230633E+04  0.12699999809E+01 0. -1.
</event>
<event>
 5   0  0.5740827E-07  0.3498246E+04  0.7818609E-02  0.8114206E-01
        2   -1    0    0  501    0  0.00000000000E+00  0.00000000000E+00  0.28245181578E+04  0.28245181578E+04  0.25500000920E-02 0. -1.
       -2   -1    0    0    0  501  0.00000000000E+00  0.00000000000E+00 -0.10831694367E+04  0.10831694367E+04  0.25500000920E-02 0.  1.
    10030    2    1    2    0    0  0.00000000000E+00  0.00000000000E+00  0.17413487210E+04  0.39076875945E+04  0.34982462703E+04 0.  0.
        2    1    3    3  502    0  0.40119345316E+03 -0.39774149028E+03  0.27198012325E+04  0.27778540682E+04  0.25500000920E-02 0. -1.
       -2    1    3    3    0  502 -0.40119345316E+03  0.39774149028E+03 -0.97845251145E+03  0.11298335263E+04  0.25500000920E-02 0.  1.
</event>
<event>
 5   0  0.1908190E-07  0.3501762E+04  0.7818609E-02  0.8113372E-01
       -1   -1    0    0    0  501  0.00000000000E+00  0.00000000000E+00  0.17270410935E+04  0.17270410935E+04  0.50400001928E-02 0. -1.
        1   -1    0    0  501    0  0.00000000000E+00  0.00000000000E+00 -0.17750503873E+04  0.17750503873E+04  0.50400001928E-02 0.  1.
    10030    2    1    2    0    0  0.00000000000E+00  0.00000000000E+00 -0.48009293783E+02  0.35020914807E+04  0.35017623916E+04 0.  0.
        5    1    3    3  502    0  0.10047314690E+04 -0.41591071973E+03  0.13483837007E+04  0.17322320127E+04  0.46999998093E+01 0. -1.
       -5    1    3    3    0  502 -0.10047314690E+04  0.41591071973E+03 -0.13963929945E+04  0.17698594680E+04  0.46999998093E+01 0.  1.
</event>
<event>
 5   0  0.5554745E-07  0.3478621E+04  0.7818609E-02  0.8118875E-01
       -2   -1    0    0    0  501  0.00000000000E+00  0.00000000000E+00  0.18203477914E+04  0.18203477914E+04  0.25500000920E-02 0. -1.
        2   -1    0    0  501    0  0.00000000000E+00  0.00000000000E+00 -0.16618803734E+04  0.16618803734E+04  0.25500000920E-02 0.  1.
    10030    2    1    2    0    0  0.00000000000E+00  0.00000000000E+00  0.15846741803E+03  0.34822281647E+04  0.34786205698E+04 0.  0.
        5    1    3    3  502    0 -0.76316286284E+02  0.14979879697E+03  0.18121888737E+04  0.18199764996E+04  0.46999998093E+01 0. -1.
       -5    1    3    3    0  502  0.76316286284E+02 -0.14979879697E+03 -0.16537214557E+04  0.16622516651E+04  0.46999998093E+01 0.  1.
</event>
<event>
 5   0  0.5740827E-07  0.3515128E+04  0.7818609E-02  0.8110214E-01
       -2   -1    0    0    0  501  0.00000000000E+00  0.00000000000E+00  0.16084391361E+04  0.16084391361E+04  0.25500000920E-02 0. -1.
        2   -1    0    0  501    0  0.00000000000E+00  0.00000000000E+00 -0.19205147133E+04  0.19205147133E+04  0.25500000920E-02 0.  1.
    10030    2    1    2    0    0  0.00000000000E+00  0.00000000000E+00 -0.31207557724E+03  0.35289538494E+04  0.35151278932E+04 0.  0.
        2    1    3    3  502    0  0.13829543663E+04 -0.52390206526E+03  0.79743188100E+03  0.16801588491E+04  0.25500000920E-02 0. -1.
       -2    1    3    3    0  502 -0.13829543663E+04  0.52390206526E+03 -0.11095074582E+04  0.18487950003E+04  0.25500000920E-02 0.  1.
</event>
<event>
 5   0  0.5554745E-07  0.3499618E+04  0.7818609E-02  0.8113881E-01
        2   -1    0    0  501    0  0.00000000000E+00  0.00000000000E+00  0.24135119082E+04  0.24135119082E+04  0.25500000920E-02 0. -1.
       -2   -1    0    0    0  501  0.00000000000E+00  0.00000000000E+00 -0.12686205252E+04  0.12686205252E+04  0.25500000920E-02 0.  1.
    10030    2    1    2    0    0  0.00000000000E+00  0.00000000000E+00  0.11448913830E+04  0.36821324334E+04  0.34996175475E+04 0.  0.
        5    1    3    3  502    0  0.53154677073E+03  0.15326111388E+03  0.23190756744E+04  0.23841486976E+04  0.46999998093E+01 0. -1.
       -5    1    3    3    0  502 -0.53154677073E+03 -0.15326111388E+03 -0.11741842914E+04  0.12979837359E+04  0.46999998093E+01 0.  1.
</event>
<event>
 5   0  0.1873457E-07  0.3510228E+04  0.7818609E-02  0.8111370E-01
       -1   -1    0    0    0  501  0.00000000000E+00  0.00000000000E+00  0.20808752934E+04  0.20808752934E+04  0.50400001928E-02 0. -1.
        1   -1    0    0  501    0  0.00000000000E+00  0.00000000000E+00 -0.14803506756E+04  0.14803506756E+04  0.50400001928E-02 0.  1.
    10030    2    1    2    0    0  0.00000000000E+00  0.00000000000E+00  0.60052461783E+03  0.35612259690E+04  0.35102279962E+04 0.  0.
        3    1    3    3  502    0  0.92054602830E+03 -0.49225709280E+03 -0.11311589155E+04  0.15392343999E+04  0.10100000352E+00 0.  1.
       -3    1    3    3    0  502 -0.92054602830E+03  0.49225709280E+03  0.17316835333E+04  0.20219915691E+04  0.10100000352E+00 0. -1.
</event>
<event>
 5   0  0.5707187E-07  0.3476957E+04  0.7818609E-02  0.8119273E-01
        2   -1    0    0  501    0  0.00000000000E+00  0.00000000000E+00  0.16368294834E+04  0.16368294834E+04  0.25500000920E-02 0. -1.
       -2   -1    0    0    0  501  0.00000000000E+00  0.00000000000E+00 -0.18464405112E+04  0.18464405112E+04  0.25500000920E-02 0.  1.
    10030    2    1    2    0    0  0.00000000000E+00  0.00000000000E+00 -0.20961102781E+03  0.34832699946E+04  0.34769574447E+04 0.  0.
        1    1    3    3  502    0 -0.15086291457E+04 -0.62413272084E+03 -0.70322131993E+03  0.17776455714E+04  0.50400001928E-02 0.  1.
       -1    1    3    3    0  502  0.15086291457E+04  0.62413272084E+03  0.49361029213E+03  0.17056244232E+04  0.50400001928E-02 0. -1.
</event>
<event>
 5   0  0.1873457E-07  0.3520592E+04  0.7818609E-02  0.8108927E-01
        1   -1    0    0  501    0  0.00000000000E+00  0.00000000000E+00  0.21540799012E+04  0.21540799012E+04  0.50400001928E-02 0.  1.
       -1   -1    0    0    0  501  0.00000000000E+00  0.00000000000E+00 -0.14384991402E+04  0.14384991402E+04  0.50400001928E-02 0. -1.
    10030    2    1    2    0    0  0.00000000000E+00  0.00000000000E+00  0.71558076097E+03  0.35925790414E+04  0.35205920444E+04 0.  0.
        3    1    3    3  502    0  0.44578779310E+03 -0.13287665012E+04  0.14446003640E+04  0.20127636208E+04  0.10100000352E+00 0.  1.
       -3    1    3    3    0  502 -0.44578779310E+03  0.13287665012E+04 -0.72901960307E+03  0.15798154206E+04  0.10100000352E+00 0. -1.
</event>
<event>
 5   0  0.5740827E-07  0.3516644E+04  0.7818609E-02  0.8109857E-01
       -2   -1    0    0    0  501  0.00000000000E+00  0.00000000000E+00  0.11121253302E+04  0.11121253302E+04  0.25500000920E-02 0.  1.
        2   -1    0    0  501    0  0.00000000000E+00  0.00000000000E+00 -0.27799883264E+04  0.27799883264E+04  0.25500000920E-02 0. -1.
    10030    2    1    2    0    0  0.00000000000E+00  0.00000000000E+00 -0.16678629962E+04  0.38921136566E+04  0.35166435335E+04 0.  0.
        2    1    3    3  502    0  0.24331662653E+03  0.88749821580E+03 -0.24921807165E+04  0.26566559408E+04  0.25500000920E-02 0. -1.
       -2    1    3    3    0  502 -0.24331662653E+03 -0.88749821580E+03  0.82431772026E+03  0.12354577159E+04  0.25500000920E-02 0.  1.
</event>
<event>
 5   0  0.5677193E-07  0.3509086E+04  0.7818609E-02  0.8111640E-01
        2   -1    0    0  501    0  0.00000000000E+00  0.00000000000E+00  0.18662426343E+04  0.18662426343E+04  0.25500000920E-02 0. -1.
       -2   -1    0    0    0  501  0.00000000000E+00  0.00000000000E+00 -0.16495291945E+04  0.16495291945E+04  0.25500000920E-02 0.  1.
    10030    2    1    2    0    0  0.00000000000E+00  0.00000000000E+00  0.21671343981E+03  0.35157718288E+04  0.35090863252E+04 0.  0.
        3    1    3    3  502    0  0.11417097209E+03  0.49653860838E+03  0.17904944109E+04  0.18615734866E+04  0.10100000352E+00 0. -1.
       -3    1    3    3    0  502 -0.11417097209E+03 -0.49653860838E+03 -0.15737809710E+04  0.16541983423E+04  0.10100000352E+00 0.  1.
</event>
<event>
 5   0  0.5707187E-07  0.3482188E+04  0.7818609E-02  0.8118024E-01
        2   -1    0    0  501    0  0.00000000000E+00  0.00000000000E+00  0.99603231643E+03  0.99603231644E+03  0.25500000920E-02 0.  1.
       -2   -1    0    0    0  501  0.00000000000E+00  0.00000000000E+00 -0.30434842816E+04  0.30434842816E+04  0.25500000920E-02 0. -1.
    10030    2    1    2    0    0  0.00000000000E+00  0.00000000000E+00 -0.20474519651E+04  0.40395165980E+04  0.34821882195E+04 0.  0.
        1    1    3    3  502    0 -0.35373461147E+03  0.20549492143E+03  0.93948796932E+03  0.10246921404E+04  0.50400001928E-02 0.  1.
       -1    1    3    3    0  502  0.35373461147E+03 -0.20549492143E+03 -0.29869399345E+04  0.30148244576E+04  0.50400001928E-02 0. -1.
</event>
<event>
 5   0  0.5554745E-07  0.3489180E+04  0.7818609E-02  0.8116359E-01
        2   -1    0    0  501    0  0.00000000000E+00  0.00000000000E+00  0.21164219035E+04  0.21164219035E+04  0.25500000920E-02 0.  1.
       -2   -1    0    0    0  501  0.00000000000E+00  0.00000000000E+00 -0.14380847942E+04  0.14380847942E+04  0.25500000920E-02 0. -1.
    10030    2    1    2    0    0  0.00000000000E+00  0.00000000000E+00  0.67833710934E+03  0.35545066977E+04  0.34891799366E+04 0.  0.
        5    1    3    3  502    0  0.44248194594E+03 -0.77675813384E+03 -0.11870223712E+04  0.14859971974E+04  0.46999998093E+01 0. -1.
       -5    1    3    3    0  502 -0.44248194594E+03  0.77675813384E+03  0.18653594806E+04  0.20685095003E+04  0.46999998093E+01 0.  1.
</event>
<event>
 5   0  0.1933647E-07  0.3512884E+04  0.7818609E-02  0.8110743E-01
       -1   -1    0    0    0  501  0.00000000000E+00  0.00000000000E+00  0.12374338194E+04  0.12374338194E+04  0.50400001928E-02 0. -1.
        1   -1    0    0  501    0  0.00000000000E+00  0.00000000000E+00 -0.24931345189E+04  0.24931345189E+04  0.50400001928E-02 0.  1.
    10030    2    1    2    0    0  0.00000000000E+00  0.00000000000E+00 -0.12557006995E+04  0.37305683384E+04  0.35128842680E+04 0.  0.
        4    1    3    3  502    0  0.56269037973E+03  0.94100899359E+03  0.82939520487E+03  0.13747786761E+04  0.12699999809E+01 0. -1.
       -4    1    3    3    0  502 -0.56269037973E+03 -0.94100899359E+03 -0.20850959044E+04  0.23557896623E+04  0.12699999809E+01 0.  1.
</event>
<event>
 5   0  0.1908190E-07  0.3507264E+04  0.7818609E-02  0.8112071E-01
        1   -1    0    0  501    0  0.00000000000E+00  0.00000000000E+00  0.16363254768E+04  0.16363254768E+04  0.50400001928E-02 0.  1.
       -1   -1    0    0    0  501  0.00000000000E+00  0.00000000000E+00 -0.18793486266E+04  0.18793486266E+04  0.50400001928E-02 0. -1.
    10030    2    1    2    0    0  0.00000000000E+00  0.00000000000E+00 -0.24302314981E+03  0.35156741034E+04  0.35072644825E+04 0.  0.
        5    1    3    3  502    0  0.16414504773E+04 -0.60053949636E+03  0.20943896161E+02  0.17479897290E+04  0.46999998093E+01 0.  1.
       -5    1    3    3    0  502 -0.16414504773E+04  0.60053949636E+03 -0.26396704597E+03  0.17676843744E+04  0.46999998093E+01 0. -1.
</event>
<event>
 5   0  0.5573334E-07  0.3522580E+04  0.7818609E-02  0.8108459E-01
       -2   -1    0    0    0  501  0.00000000000E+00  0.00000000000E+00  0.17621922545E+04  0.17621922545E+04  0.25500000920E-02 0. -1.
        2   -1    0    0  501    0  0.00000000000E+00  0.00000000000E+00 -0.17603884700E+04  0.17603884700E+04  0.25500000920E-02 0.  1.
    10030    2    1    2    0    0  0.00000000000E+00  0.00000000000E+00  0.18037845372E+01  0.35225807245E+04  0.35225802627E+04 0.  0.
        4    1    3    3  502    0 -0.14731400249E+04  0.90517649985E+03  0.33654353833E+03  0.17614622320E+04  0.12699999809E+01 0.  1.
       -4    1    3    3    0  502  0.14731400249E+04 -0.90517649985E+03 -0.33473975379E+03  0.17611184925E+04  0.12699999809E+01 0. -1.
</event>
<event>
 5   0  0.1933647E-07  0.3514846E+04  0.7818609E-02  0.8110281E-01
        1   -1    0    0  501    0  0.00000000000E+00  0.00000000000E+00  0.23828849829E+04  0.23828849829E+04  0.50400001928E-02 0. -1.
       -1   -1    0    0    0  501  0.00000000000E+00  0.00000000000E+00 -0.12961326416E+04  0.12961326416E+04  0.50400001928E-02 0.  1.
    10030    2    1    2    0    0  0.00000000000E+00  0.00000000000E+00  0.10867523412E+04  0.36790176245E+04  0.35148456624E+04 0.  0.
        4    1    3    3  502    0 -0.11094196923E+04 -0.13629580345E+04  0.55192703138E+03  0.18420346680E+04  0.12699999809E+01 0.  1.
       -4    1    3    3    0  502  0.11094196923E+04  0.13629580345E+04  0.53482530984E+03  0.18369829565E+04  0.12699999809E+01 0. -1.
</event>
<event>
 5   0  0.1873457E-07  0.3472641E+04  0.7818609E-02  0.8120304E-01
       -1   -1    0    0    0  501  0.00000000000E+00  0.00000000000E+00  0.17721466608E+04  0.17721466608E+04  0.50400001928E-02 0.  1.
        1   -1    0    0  501    0  0.00000000000E+00  0.00000000000E+00 -0.17012189693E+04  0.17012189693E+04  0.50400001928E-02 0. -1.
    10030    2    1    2    0    0  0.00000000000E+00  0.00000000000E+00  0.70927691510E+02  0.34733656301E+04  0.34726413669E+04 0.  0.
        3    1    3    3  502    0 -0.16163543803E+04  0.31325873745E+03  0.58701061407E+03  0.17479456486E+04  0.10100000352E+00 0.  1.
       -3    1    3    3    0  502  0.16163543803E+04 -0.31325873745E+03 -0.51608292256E+03  0.17254199815E+04  0.10100000352E+00 0. -1.
</event>
<event>
 5   0  0.5707187E-07  0.3465819E+04  0.7818609E-02  0.8121939E-01
       -2   -1    0    0    0  501  0.00000000000E+00  0.00000000000E+00  0.23033494871E+04  0.23033494871E+04  0.25500000920E-02 0. -1.
        2   -1    0    0  501    0  0.00000000000E+00  0.00000000000E+00 -0.13037424538E+04  0.13037424538E+04  0.25500000920E-02 0.  1.
    10030    2    1    2    0    0  0.00000000000E+00  0.00000000000E+00  0.99960703324E+03  0.36070919409E+04  0.34658185251E+04 0.  0.
        1    1    3    3  502    0  0.38313101835E+03 -0.15630326506E+04  0.11687423151E+04  0.19889240919E+04  0.50400001928E-02 0. -1.
       -1    1    3    3    0  502 -0.38313101835E+03  0.15630326506E+04 -0.16913528189E+03  0.16181678490E+04  0.50400001928E-02 0.  1.
</event>
<event>
 5   0  0.1908190E-07  0.3360399E+04  0.7818609E-02  0.8147695E-01
        1   -1    0    0  501    0  0.00000000000E+00  0.00000000000E+00  0.25324736708E+04  0.25324736708E+04  0.50400001928E-02 0. -1.
       -1   -1    0    0    0  501  0.00000000000E+00  0.00000000000E+00 -0.11147478736E+04  0.11147478736E+04  0.50400001928E-02 0.  1.
    10030    2    1    2    0    0  0.00000000000E+00  0.00000000000E+00  0.14177257972E+04  0.36472215444E+04  0.33603985712E+04 0.  0.
        5    1    3    3  502    0 -0.11436066044E+04  0.13619110819E+03  0.20366652456E+04  0.23397460324E+04  0.46999998093E+01 0. -1.
       -5    1    3    3    0  502  0.11436066044E+04 -0.13619110819E+03 -0.61893944844E+03  0.13074755119E+04  0.46999998093E+01 0.  1.
</event>
<event>
 5   0  0.5573334E-07  0.3502695E+04  0.7818609E-02  0.8113151E-01
       -2   -1    0    0    0  501  0.00000000000E+00  0.00000000000E+00  0.11508616553E+04  0.11508616553E+04  0.25500000920E-02 0.  1.
        2   -1    0    0  501    0  0.00000000000E+00  0.00000000000E+00 -0.26651499427E+04  0.26651499427E+04  0.25500000920E-02 0. -1.
    10030    2    1    2    0    0  0.00000000000E+00  0.00000000000E+00 -0.15142882874E+04  0.38160115980E+04  0.35026954618E+04 0.  0.
        4    1    3    3  502    0  0.70311100131E+03 -0.33227912861E+03 -0.24667278835E+04  0.25864111358E+04  0.12699999809E+01 0. -1.
       -4    1    3    3    0  502 -0.70311100131E+03  0.33227912861E+03  0.95243959604E+03  0.12296004621E+04  0.12699999809E+01 0.  1.
</event>
<event>
 5   0  0.5707187E-07  0.3497530E+04  0.7818609E-02  0.8114375E-01
        2   -1    0    0  501    0  0.00000000000E+00  0.00000000000E+00  0.14735453118E+04  0.14735453118E+04  0.25500000920E-02 0.  1.
       -2   -1    0    0    0  501  0.00000000000E+00  0.00000000000E+00 -0.20753890580E+04  0.20753890580E+04  0.25500000920E-02 0. -1.
    10030    2    1    2    0    0  0.00000000000E+00  0.00000000000E+00 -0.60184374620E+03  0.35489343697E+04  0.34975304524E+04 0.  0.
        1    1    3    3  502    0 -0.86748970415E+03  0.13096144093E+04 -0.10806897902E+04  0.19067036242E+04  0.50400001928E-02 0.  1.
       -1    1    3    3    0  502  0.86748970415E+03 -0.13096144093E+04  0.47884604397E+03  0.16422307456E+04  0.50400001928E-02 0. -1.
</event>
<event>
 5   0  0.5677193E-07  0.3465261E+04  0.7818609E-02  0.8122072E-01
       -2   -1    0    0    0  501  0.00000000000E+00  0.00000000000E+00  0.13430348370E+04  0.13430348370E+04  0.25500000920E-02 0. -1.
        2   -1    0    0  501    0  0.00000000000E+00  0.00000000000E+00 -0.22352426109E+04  0.22352426109E+04  0.25500000920E-02 0.  1.
    10030    2    1    2    0    0  0.00000000000E+00  0.00000000000E+00 -0.89220777388E+03  0.35782774479E+04  0.34652611420E+04 0.  0.
        3    1    3    3  502    0 -0.76534885446E+03  0.21923755600E+02  0.11588618281E+04  0.13889565389E+04  0.10100000352E+00 0. -1.
       -3    1    3    3    0  502  0.76534885446E+03 -0.21923755600E+02 -0.20510696020E+04  0.21893209090E+04  0.10100000352E+00 0.  1.
</event>
<event>
 5   0  0.5740827E-07  0.3415688E+04  0.7818609E-02  0.8134067E-01
        2   -1    0    0  501    0  0.00000000000E+00  0.00000000000E+00  0.26804023564E+04  0.26804023564E+04  0.25500000920E-02 0. -1.
       -2   -1    0    0    0  501  0.00000000000E+00  0.00000000000E+00 -0.10881689662E+04  0.10881689662E+04  0.25500000920E-02 0.  1.
    10030    2    1    2    0    0  0.00000000000E+00  0.00000000000E+00  0.15922333901E+04  0.37685713226E+04  0.34156877265E+04 0.  0.
        2    1    3    3  502    0  0.11380530509E+04 -0.40630380723E+03  0.21276477790E+04  0.24468617864E+04  0.25500000920E-02 0. -1.
       -2    1    3    3    0  502 -0.11380530509E+04  0.40630380723E+03 -0.53541438884E+03  0.13217095362E+04  0.25500000920E-02 0.  1.
</event>
<event>
 5   0  0.5707187E-07  0.3440905E+04  0.7818609E-02  0.8127939E-01
       -2   -1    0    0    0  501  0.00000000000E+00  0.00000000000E+00  0.21438581951E+04  0.21438581951E+04  0.25500000920E-02 0.  1.
        2   -1    0    0  501    0  0.00000000000E+00  0.00000000000E+00 -0.13806684930E+04  0.13806684930E+04  0.25500000920E-02 0. -1.
    10030    2    1    2    0    0  0.00000000000E+00  0.00000000000E+00  0.76318970208E+03  0.35245266881E+04  0.34409053829E+04 0.  0.
        1    1    3    3  502    0 -0.39479084768E+03 -0.12905806956E+04 -0.71134037062E+03  0.15256026574E+04  0.50400001928E-02 0. -1.
       -1    1    3    3    0  502  0.39479084768E+03  0.12905806956E+04  0.14745300727E+04  0.19989240307E+04  0.50400001928E-02 0.  1.
</event>
<event>
 5   0  0.5677193E-07  0.3632912E+04  0.7818609E-02  0.8082994E-01
        2   -1    0    0  501    0  0.00000000000E+00  0.00000000000E+00  0.20577680318E+04  0.20577680318E+04  0.25500000920E-02 0.  1.
       -2   -1    0    0    0  501  0.00000000000E+00  0.00000000000E+00 -0.16034420065E+04  0.16034420065E+04  0.25500000920E-02 0. -1.
    10030    2    1    2    0    0  0.00000000000E+00  0.00000000000E+00  0.45432602526E+03  0.36612100383E+04  0.36329116157E+04 0.  0.
        3    1    3    3  502    0  0.44205803218E+03  0.12153687823E+04 -0.10583020186E+04  0.16710893912E+04  0.10100000352E+00 0. -1.
       -3    1    3    3    0  502 -0.44205803218E+03 -0.12153687823E+04  0.15126280438E+04  0.19901206471E+04  0.10100000352E+00 0.  1.
</event>
<event>
 5   0  0.5740827E-07  0.3443830E+04  0.7818609E-02  0.8127232E-01
        2   -1    0    0  501    0  0.00000000000E+00  0.00000000000E+00  0.21360077047E+04  0.21360077047E+04  0.25500000920E-02 0. -1.
       -2   -1    0    0    0  501  0.00000000000E+00  0.00000000000E+00 -0.13880991685E+04  0.13880991685E+04  0.25500000920E-02 0.  1.
    10030    2    1    2    0    0  0.00000000000E+00  0.00000000000E+00  0.74790853626E+03  0.35241068732E+04  0.34438295654E+04 0.  0.
        2    1    3    3  502    0 -0.73708121333E+03  0.68296704483E+03  0.18048547702E+04  0.20657283076E+04  0.25500000920E-02 0. -1.
       -2    1    3    3    0  502  0.73708121333E+03 -0.68296704483E+03 -0.10569462339E+04  0.14583785657E+04  0.25500000920E-02 0.  1.
</event>
<event>
 5   0  0.1873457E-07  0.3409210E+04  0.7818609E-02  0.8135650E-01
        1   -1    0    0  501    0  0.00000000000E+00  0.00000000000E+00  0.23358391828E+04  0.23358391828E+04  0.50400001928E-02 0. -1.
       -1   -1    0    0    0  501  0.00000000000E+00  0.00000000000E+00 -0.12439545924E+04  0.12439545924E+04  0.50400001928E-02 0.  1.
    10030    2    1    2    0    0  0.00000000000E+00  0.00000000000E+00  0.10918845904E+04  0.35797937752E+04  0.34092098079E+04 0.  0.
        3    1    3    3  502    0 -0.10823470193E+04  0.10865812756E+04  0.13271748376E+04  0.20281831767E+04  0.10100000352E+00 0. -1.
       -3    1    3    3    0  502  0.10823470193E+04 -0.10865812756E+04 -0.23529024717E+03  0.15516105985E+04  0.10100000352E+00 0.  1.
</event>
<event>
 5   0  0.1866421E-07  0.3403403E+04  0.7818609E-02  0.8137072E-01
       -1   -1    0    0    0  501  0.00000000000E+00  0.00000000000E+00  0.24394916245E+04  0.24394916245E+04  0.50400001928E-02 0.  1.
        1   -1    0    0  501    0  0.00000000000E+00  0.00000000000E+00 -0.11870459694E+04  0.11870459694E+04  0.50400001928E-02 0. -1.
    10030    2    1    2    0    0  0.00000000000E+00  0.00000000000E+00  0.12524456551E+04  0.36265375939E+04  0.34034034144E+04 0.  0.
        1    1    3    3  502    0 -0.12371647614E+04  0.11680850657E+04  0.65615986157E+03  0.18236077242E+04  0.50400001928E-02 0.  1.
       -1    1    3    3    0  502  0.12371647614E+04 -0.11680850657E+04  0.59628579350E+03  0.18029298697E+04  0.50400001928E-02 0. -1.
</event>
<event>
 5   0  0.5740827E-07  0.3508371E+04  0.7818609E-02  0.8111809E-01
        2   -1    0    0  501    0  0.00000000000E+00  0.00000000000E+00  0.16674445360E+04  0.16674445360E+04  0.25500000920E-02 0. -1.
       -2   -1    0    0    0  501  0.00000000000E+00  0.00000000000E+00 -0.18454389730E+04  0.18454389730E+04  0.25500000920E-02 0.  1.
    10030    2    1    2    0    0  0.00000000000E+00  0.00000000000E+00 -0.17799443700E+03  0.35128835090E+04  0.35083712073E+04 0.  0.
        2    1    3    3  502    0 -0.51344225700E+02  0.17438123456E+04 -0.27267089172E+03  0.17657483233E+04  0.25500000920E-02 0.  1.
       -2    1    3    3    0  502  0.51344225700E+02 -0.17438123456E+04  0.94676454718E+02  0.17471351857E+04  0.25500000920E-02 0. -1.
</event>
<event>
 5   0  0.5554745E-07  0.3519646E+04  0.7818609E-02  0.8109150E-01
        2   -1    0    0  501    0  0.00000000000E+00  0.00000000000E+00  0.23387168209E+04  0.23387168209E+04  0.25500000920E-02 0.  1.
       -2   -1    0    0    0  501  0.00000000000E+00  0.00000000000E+00 -0.13242202953E+04  0.13242202953E+04  0.25500000920E-02 0. -1.
    10030    2    1    2    0    0  0.00000000000E+00  0.00000000000E+00  0.10144965256E+04  0.36629371163E+04  0.35196455954E+04 0.  0.
        5    1    3    3  502    0 -0.13512426137E+04  0.56410286379E+03 -0.50865159087E+03  0.15501023105E+04  0.46999998093E+01 0. -1.
       -5    1    3    3    0  502  0.13512426137E+04 -0.56410286379E+03  0.15231481165E+04  0.21128348058E+04  0.46999998093E+01 0.  1.
</event>
<event>
 5   0  0.5554745E-07  0.3293721E+04  0.7818609E-02  0.8164495E-01
       -2   -1    0    0    0  501  0.00000000000E+00  0.00000000000E+00  0.10379066899E+04  0.10379066899E+04  0.25500000920E-02 0. -1.
        2   -1    0    0  501    0  0.00000000000E+00  0.00000000000E+00 -0.26130954551E+04  0.26130954551E+04  0.25500000920E-02 0.  1.
    10030    2    1    2    0    0  0.00000000000E+00  0.00000000000E+00 -0.15751887652E+04  0.36510021451E+04  0.32937208469E+04 0.  0.
        5    1    3    3  502    0 -0.18218890332E+02 -0.16379618327E+04 -0.97595749384E+03  0.19067684739E+04  0.46999998093E+01 0.  1.
       -5    1    3    3    0  502  0.18218890332E+02  0.16379618327E+04 -0.59923127134E+03  0.17442336712E+04  0.46999998093E+01 0. -1.
</event>
<event>
 5   0  0.1933647E-07  0.3440789E+04  0.7818609E-02  0.8127967E-01
        1   -1    0    0  501    0  0.00000000000E+00  0.00000000000E+00  0.15905896030E+04  0.15905896030E+04  0.50400001928E-02 0.  1.
       -1   -1    0    0    0  501  0.00000000000E+00  0.00000000000E+00 -0.18607926614E+04  0.18607926614E+04  0.50400001928E-02 0. -1.
    10030    2    1    2    0    0  0.00000000000E+00  0.00000000000E+00 -0.27020305842E+03  0.34513822645E+04  0.34407891308E+04 0.  0.
        4    1    3    3  502    0  0.44051908357E+03  0.80411022666E+03  0.13250949524E+04  0.16113747439E+04  0.12699999809E+01 0.  1.
       -4    1    3    3    0  502 -0.44051908357E+03 -0.80411022666E+03 -0.15952980108E+04  0.18400075206E+04  0.12699999809E+01 0. -1.
</event>
<event>
 5   0  0.1823000E-07  0.3477470E+04  0.7818609E-02  0.8119150E-01
        3   -1    0    0  501    0  0.00000000000E+00  0.00000000000E+00  0.16367673518E+04  0.16367673549E+04  0.10100000352E+00 0. -1.
       -3   -1    0    0    0  501  0.00000000000E+00  0.00000000000E+00 -0.18470545651E+04  0.18470545678E+04  0.10100000352E+00 0.  1.
    10030    2    1    2    0    0  0.00000000000E+00  0.00000000000E+00 -0.21028721326E+03  0.34838219227E+04  0.34774695509E+04 0.  0.
        2    1    3    3  502    0  0.98060874224E+03 -0.77829138849E+03 -0.13139411161E+04  0.18148752705E+04  0.25500000920E-02 0.  1.
       -2    1    3    3    0  502 -0.98060874224E+03  0.77829138849E+03  0.11036539029E+04  0.16689466523E+04  0.25500000920E-02 0. -1.
</event>
<event>
 5   0  0.5707187E-07  0.3433053E+04  0.7818609E-02  0.8129841E-01
       -2   -1    0    0    0  501  0.00000000000E+00  0.00000000000E+00  0.13829208603E+04  0.13829208603E+04  0.25500000920E-02 0.  1.
        2   -1    0    0  501    0  0.00000000000E+00  0.00000000000E+00 -0.21306088397E+04  0.21306088397E+04  0.25500000920E-02 0. -1.
    10030    2    1    2    0    0  0.00000000000E+00  0.00000000000E+00 -0.74768797932E+03  0.35135297000E+04  0.34330531074E+04 0.  0.
        1    1    3    3  502    0 -0.13935697671E+04  0.47284410776E+03  0.53052480717E+03  0.15643128897E+04  0.50400001928E-02 0.  1.
       -1    1    3    3    0  502  0.13935697671E+04 -0.47284410776E+03 -0.12782127865E+04  0.19492168103E+04  0.50400001928E-02 0. -1.
</event>
<event>
 5   0  0.5573334E-07  0.3453755E+04  0.7818609E-02  0.8124838E-01
       -2   -1    0    0    0  501  0.00000000000E+00  0.00000000000E+00  0.17873254226E+04  0.17873254226E+04  0.25500000920E-02 0.  1.
        2   -1    0    0  501    0  0.00000000000E+00  0.00000000000E+00 -0.16684743271E+04  0.16684743271E+04  0.25500000920E-02 0. -1.
    10030    2    1    2    0    0  0.00000000000E+00  0.00000000000E+00  0.11885109546E+03  0.34557997496E+04  0.34537553948E+04 0.  0.
        4    1    3    3  502    0 -0.53830933385E+03 -0.72588280072E+03  0.15318339393E+04  0.17785386164E+04  0.12699999809E+01 0.  1.
       -4    1    3    3    0  502  0.53830933385E+03  0.72588280072E+03 -0.14129828439E+04  0.16772611333E+04  0.12699999809E+01 0. -1.
</event>
<event>
 5   0  0.5740827E-07  0.3649592E+04  0.7818609E-02  0.8079226E-01
        2   -1    0    0  501    0  0.00000000000E+00  0.00000000000E+00  0.23482134351E+04  0.23482134351E+04  0.25500000920E-02 0.  1.
       -2   -1    0    0    0  501  0.00000000000E+00  0.00000000000E+00 -0.14180486501E+04  0.14180486501E+04  0.25500000920E-02 0. -1.
    10030    2    1    2    0    0  0.00000000000E+00  0.00000000000E+00  0.93016478492E+03  0.37662620852E+04  0.36495922467E+04 0.  0.
        2    1    3    3  502    0  0.14493988952E+04 -0.51018444022E+03 -0.55067789824E+03  0.16322657467E+04  0.25500000920E-02 0.  1.
       -2    1    3    3    0  502 -0.14493988952E+04  0.51018444022E+03  0.14808426832E+04  0.21339963385E+04  0.25500000920E-02 0. -1.
</event>
<event>
 5   0  0.5740827E-07  0.3518138E+04  0.7818609E-02  0.8109505E-01
       -2   -1    0    0    0  501  0.00000000000E+00  0.00000000000E+00  0.15655996387E+04  0.15655996387E+04  0.25500000920E-02 0. -1.
        2   -1    0    0  501    0  0.00000000000E+00  0.00000000000E+00 -0.19764467155E+04  0.19764467155E+04  0.25500000920E-02 0.  1.
    10030    2    1    2    0    0  0.00000000000E+00  0.00000000000E+00 -0.41084707686E+03  0.35420463542E+04  0.35181382939E+04 0.  0.
        2    1    3    3  502    0 -0.12653084126E+04  0.93919681326E+03 -0.99254732310E+03  0.18623228027E+04  0.25500000920E-02 0.  1.
       -2    1    3    3    0  502  0.12653084126E+04 -0.93919681326E+03  0.58170024623E+03  0.16797235515E+04  0.25500000920E-02 0. -1.
</event>
<event>
 5   0  0.1897049E-07  0.3490157E+04  0.7818609E-02  0.8116126E-01
        1   -1    0    0  501    0  0.00000000000E+00  0.00000000000E+00  0.31066385384E+04  0.31066385384E+04  0.50400001928E-02 0. -1.
       -1   -1    0    0    0  501  0.00000000000E+00  0.00000000000E+00 -0.98025554286E+03  0.98025554287E+03  0.50400001928E-02 0.  1.
    10030    2    1    2    0    0  0.00000000000E+00  0.00000000000E+00  0.21263829956E+04  0.40868940813E+04  0.34901573873E+04 0.  0.
        2    1    3    3  502    0 -0.15791873791E+04 -0.34137150639E+03  0.18354438380E+04  0.24452446434E+04  0.25500000920E-02 0. -1.
       -2    1    3    3    0  502  0.15791873791E+04  0.34137150639E+03  0.29093915759E+03  0.16416494379E+04  0.25500000920E-02 0.  1.
</event>
<event>
 5   0  0.1873457E-07  0.3393876E+04  0.7818609E-02  0.8139411E-01
        1   -1    0    0  501    0  0.00000000000E+00  0.00000000000E+00  0.10280610618E+04  0.10280610618E+04  0.50400001928E-02 0. -1.
       -1   -1    0    0    0  501  0.00000000000E+00  0.00000000000E+00 -0.28009992254E+04  0.28009992254E+04  0.50400001928E-02 0.  1.
    10030    2    1    2    0    0  0.00000000000E+00  0.00000000000E+00 -0.17729381635E+04  0.38290602872E+04  0.33938758008E+04 0.  0.
        3    1    3    3  502    0 -0.13085818460E+04 -0.54813111678E+03 -0.19368497164E+04  0.24008792146E+04  0.10100000352E+00 0.  1.
       -3    1    3    3    0  502  0.13085818460E+04  0.54813111678E+03  0.16391155284E+03  0.14281810727E+04  0.10100000352E+00 0. -1.
</event>
<event>
 5   0  0.5554745E-07  0.3525128E+04  0.7818609E-02  0.8107861E-01
        2   -1    0    0  501    0  0.00000000000E+00  0.00000000000E+00  0.15417552273E+04  0.15417552273E+04  0.25500000920E-02 0. -1.
       -2   -1    0    0    0  501  0.00000000000E+00  0.00000000000E+00 -0.20149971748E+04  0.20149971748E+04  0.25500000920E-02 0.  1.
    10030    2    1    2    0    0  0.00000000000E+00  0.00000000000E+00 -0.47324194756E+03  0.35567524021E+04  0.35251283251E+04 0.  0.
        5    1    3    3  502    0 -0.56306041969E+03  0.16382205709E+04  0.91576481416E+02  0.17347080495E+04  0.46999998093E+01 0.  1.
       -5    1    3    3    0  502  0.56306041969E+03 -0.16382205709E+04 -0.56481842897E+03  0.18220443526E+04  0.46999998093E+01 0. -1.
</event>
<event>
 5   0  0.5707187E-07  0.3499559E+04  0.7818609E-02  0.8113894E-01
        2   -1    0    0  501    0  0.00000000000E+00  0.00000000000E+00  0.22808194313E+04  0.22808194313E+04  0.25500000920E-02 0. -1.
       -2   -1    0    0    0  501  0.00000000000E+00  0.00000000000E+00 -0.13423811059E+04  0.13423811059E+04  0.25500000920E-02 0.  1.
    10030    2    1    2    0    0  0.00000000000E+00  0.00000000000E+00  0.93843832540E+03  0.36232005373E+04  0.34995593498E+04 0.  0.
        1    1    3    3  502    0  0.24913412831E+03 -0.14721459290E+04 -0.47540146541E+03  0.15669358645E+04  0.50400001928E-02 0.  1.
       -1    1    3    3    0  502 -0.24913412831E+03  0.14721459290E+04  0.14138397908E+04  0.20562646727E+04  0.50400001928E-02 0. -1.
</event>
<event>
 5   0  0.1933647E-07  0.3469661E+04  0.7818609E-02  0.8121018E-01
       -1   -1    0    0    0  501  0.00000000000E+00  0.00000000000E+00  0.13550759601E+04  0.13550759601E+04  0.50400001928E-02 0.  1.
        1   -1    0    0  501    0  0.00000000000E+00  0.00000000000E+00 -0.22210094184E+04  0.22210094184E+04  0.50400001928E-02 0. -1.
    10030    2    1    2    0    0  0.00000000000E+00  0.00000000000E+00 -0.86593345838E+03  0.35760853785E+04  0.34696607730E+04 0.  0.
        4    1    3    3  502    0  0.15238336331E+04  0.47320574583E+03  0.26883164786E+03  0.16181052769E+04  0.12699999809E+01 0.  1.
       -4    1    3    3    0  502 -0.15238336331E+04 -0.47320574583E+03 -0.11347651062E+04  0.19579801016E+04  0.12699999809E+01 0. -1.
</event>
<event>
 5   0  0.1873457E-07  0.3483582E+04  0.7818609E-02  0.8117692E-01
        1   -1    0    0  501    0  0.00000000000E+00  0.00000000000E+00  0.22676756402E+04  0.22676756402E+04  0.50400001928E-02 0. -1.
       -1   -1    0    0    0  501  0.00000000000E+00  0.00000000000E+00 -0.13378618311E+04  0.13378618311E+04  0.50400001928E-02 0.  1.
    10030    2    1    2    0    0  0.00000000000E+00  0.00000000000E+00  0.92981380913E+03  0.36055374713E+04  0.34835824574E+04 0.  0.
        3    1    3    3  502    0 -0.28845575514E+03  0.32336218142E+03  0.22109962691E+04  0.22530588841E+04  0.10100000352E+00 0. -1.
       -3    1    3    3    0  502  0.28845575514E+03 -0.32336218142E+03 -0.12811824599E+04  0.13524785872E+04  0.10100000352E+00 0.  1.
</event>
<event>
 5   0  0.5554745E-07  0.3492584E+04  0.7818609E-02  0.8115550E-01
        2   -1    0    0  501    0  0.00000000000E+00  0.00000000000E+00  0.27165189336E+04  0.27165189336E+04  0.25500000920E-02 0. -1.
       -2   -1    0    0    0  501  0.00000000000E+00  0.00000000000E+00 -0.11225895641E+04  0.11225895641E+04  0.25500000920E-02 0.  1.
    10030    2    1    2    0    0  0.00000000000E+00  0.00000000000E+00  0.15939293695E+04  0.38391084977E+04  0.34925840323E+04 0.  0.
        5    1    3    3  502    0  0.34343305516E+03 -0.81458193063E+03  0.24523813348E+04  0.26068537141E+04  0.46999998093E+01 0. -1.
       -5    1    3    3    0  502 -0.34343305516E+03  0.81458193063E+03 -0.85845196534E+03  0.12322547837E+04  0.46999998093E+01 0.  1.
</event>
<event>
 5   0  0.5554745E-07  0.3558795E+04  0.7818609E-02  0.8099996E-01
       -2   -1    0    0    0  501  0.00000000000E+00  0.00000000000E+00  0.17693479426E+04  0.17693479426E+04  0.25500000920E-02 0.  1.
        2   -1    0    0  501    0  0.00000000000E+00  0.00000000000E+00 -0.17895046109E+04  0.17895046109E+04  0.25500000920E-02 0. -1.
    10030    2    1    2    0    0  0.00000000000E+00  0.00000000000E+00 -0.20156668282E+02  0.35588525534E+04  0.35587954712E+04 0.  0.
        5    1    3    3  502    0 -0.28307640843E+03 -0.17287148666E+04  0.30241166739E+03  0.17776563924E+04  0.46999998093E+01 0. -1.
       -5    1    3    3    0  502  0.28307640843E+03  0.17287148666E+04 -0.32256833567E+03  0.17811961610E+04  0.46999998093E+01 0.  1.
</event>
<event>
 5   0  0.5740827E-07  0.3501584E+04  0.7818609E-02  0.8113415E-01
        2   -1    0    0  501    0  0.00000000000E+00  0.00000000000E+00  0.16360699163E+04  0.16360699163E+04  0.25500000920E-02 0.  1.
       -2   -1    0    0    0  501  0.00000000000E+00  0.00000000000E+00 -0.18735587613E+04  0.18735587613E+04  0.25500000920E-02 0. -1.
    10030    2    1    2    0    0  0.00000000000E+00  0.00000000000E+00 -0.23748884505E+03  0.35096286776E+04  0.35015842847E+04 0.  0.
        2    1    3    3  502    0  0.26609616042E+03 -0.16201114516E+04  0.49068603587E+03  0.17135755215E+04  0.25500000920E-02 0.  1.
       -2    1    3    3    0  502 -0.26609616042E+03  0.16201114516E+04 -0.72817488092E+03  0.17960531561E+04  0.25500000920E-02 0. -1.
</event>
<event>
 5   0  0.5573334E-07  0.3511885E+04  0.7818609E-02  0.8110979E-01
       -2   -1    0    0    0  501  0.00000000000E+00  0.00000000000E+00  0.16489871351E+04  0.16489871351E+04  0.25500000920E-02 0.  1.
        2   -1    0    0  501    0  0.00000000000E+00  0.00000000000E+00 -0.18698350283E+04  0.18698350283E+04  0.25500000920E-02 0. -1.
    10030    2    1    2    0    0  0.00000000000E+00  0.00000000000E+00 -0.22084789320E+03  0.35188221634E+04  0.35118849107E+04 0.  0.
        4    1    3    3  502    0 -0.12081106254E+04 -0.11515597622E+04 -0.65713087194E+03  0.17937234360E+04  0.12699999809E+01 0. -1.
       -4    1    3    3    0  502  0.12081106254E+04  0.11515597622E+04  0.43628297874E+03  0.17250987275E+04  0.12699999809E+01 0.  1.
</event>
<event>
 5   0  0.1866421E-07  0.3502616E+04  0.7818609E-02  0.8113170E-01
        1   -1    0    0  501    0  0.00000000000E+00  0.00000000000E+00  0.24331491962E+04  0.24331491962E+04  0.50400001928E-02 0. -1.
       -1   -1    0    0    0  501  0.00000000000E+00  0.00000000000E+00 -0.12605394081E+04  0.12605394081E+04  0.50400001928E-02 0.  1.
    10030    2    1    2    0    0  0.00000000000E+00  0.00000000000E+00  0.11726097882E+04  0.36936886043E+04  0.35026164207E+04 0.  0.
        1    1    3    3  502    0 -0.15274083957E+04  0.29037962432E+03 -0.26376005904E+03  0.15769800577E+04  0.50400001928E-02 0.  1.
       -1    1    3    3    0  502  0.15274083957E+04 -0.29037962432E+03  0.14363698472E+04  0.21167085467E+04  0.50400001928E-02 0. -1.
</event>
<event>
 5   0  0.1866421E-07  0.3467866E+04  0.7818609E-02  0.8121448E-01
        1   -1    0    0  501    0  0.00000000000E+00  0.00000000000E+00  0.17179625063E+04  0.17179625063E+04  0.50400001928E-02 0.  1.
       -1   -1    0    0    0  501  0.00000000000E+00  0.00000000000E+00 -0.17500524062E+04  0.17500524062E+04  0.50400001928E-02 0. -1.
    10030    2    1    2    0    0  0.00000000000E+00  0.00000000000E+00 -0.32089899855E+02  0.34680149125E+04  0.34678664438E+04 0.  0.
        1    1    3    3  502    0  0.47038656112E+03 -0.11511152032E+04 -0.12244818421E+04  0.17451892475E+04  0.50400001928E-02 0. -1.
       -1    1    3    3    0  502 -0.47038656112E+03  0.11511152032E+04  0.11923919422E+04  0.17228256650E+04  0.50400001928E-02 0.  1.
</event>
<event>
 5   0  0.1908190E-07  0.3556406E+04  0.7818609E-02  0.8100551E-01
        1   -1    0    0  501    0  0.00000000000E+00  0.00000000000E+00  0.30420133818E+04  0.30420133818E+04  0.50400001928E-02 0.  1.
       -1   -1    0    0    0  501  0.00000000000E+00  0.00000000000E+00 -0.10394452485E+04  0.10394452485E+04  0.50400001928E-02 0. -1.
    10030    2    1    2    0    0  0.00000000000E+00  0.00000000000E+00  0.20025681333E+04  0.40814586303E+04  0.35564062510E+04 0.  0.
        5    1    3    3  502    0 -0.17367309705E+04  0.26449370962E+03  0.13172339774E+04  0.21957501742E+04  0.46999998093E+01 0.  1.
       -5    1    3    3    0  502  0.17367309705E+04 -0.26449370962E+03  0.68533415588E+03  0.18857084561E+04  0.46999998093E+01 0. -1.
</event>
<event>
 5   0  0.5707187E-07  0.3504323E+04  0.7818609E-02  0.8112766E-01
        2   -1    0    0  501    0  0.00000000000E+00  0.00000000000E+00  0.13670336192E+04  0.13670336192E+04  0.25500000920E-02 0.  1.
       -2   -1    0    0    0  501  0.00000000000E+00  0.00000000000E+00 -0.22457901244E+04  0.22457901244E+04  0.25500000920E-02 0. -1.
    10030    2    1    2    0    0  0.00000000000E+00  0.00000000000E+00 -0.87875650513E+03  0.36128237436E+04  0.35043233879E+04 0.  0.
        1    1    3    3  502    0 -0.14032190701E+04  0.36522523606E+03  0.57477456514E+03  0.15597368472E+04  0.50400001928E-02 0.  1.
       -1    1    3    3    0  502  0.14032190701E+04 -0.36522523606E+03 -0.14535310703E+04  0.20530868964E+04  0.50400001928E-02 0. -1.
</event>
<event>
 5   0  0.5573334E-07  0.3454458E+04  0.7818609E-02  0.8124668E-01
       -2   -1    0    0    0  501  0.00000000000E+00  0.00000000000E+00  0.16695013743E+04  0.16695013743E+04  0.25500000920E-02 0.  1.
        2   -1    0    0  501    0  0.00000000000E+00  0.00000000000E+00 -0.17869526336E+04  0.17869526336E+04  0.25500000920E-02 0. -1.
    10030    2    1    2    0    0  0.00000000000E+00  0.00000000000E+00 -0.11745125927E+03  0.34564540080E+04  0.34544579185E+04 0.  0.
        4    1    3    3  502    0 -0.14993877518E+04 -0.74775449569E+03  0.36106160749E+03  0.17139625180E+04  0.12699999809E+01 0. -1.
       -4    1    3    3    0  502  0.14993877518E+04  0.74775449569E+03 -0.47851286676E+03  0.17424914899E+04  0.12699999809E+01 0.  1.
</event>
<event>
 5   0  0.1933647E-07  0.3478992E+04  0.7818609E-02  0.8118787E-01
       -1   -1    0    0    0  501  0.00000000000E+00  0.00000000000E+00  0.15079680677E+04  0.15079680677E+04  0.50400001928E-02 0. -1.
        1   -1    0    0  501    0  0.00000000000E+00  0.00000000000E+00 -0.20065717355E+04  0.20065717355E+04  0.50400001928E-02 0.  1.
    10030    2    1    2    0    0  0.00000000000E+00  0.00000000000E+00 -0.49860366780E+03  0.35145398033E+04  0.34789918671E+04 0.  0.
        4    1    3    3  502    0  0.96067495256E+03  0.64797262882E+03  0.10612897672E+04  0.15713377979E+04  0.12699999809E+01 0. -1.
       -4    1    3    3    0  502 -0.96067495256E+03 -0.64797262882E+03 -0.15598934350E+04  0.19432020054E+04  0.12699999809E+01 0.  1.
</event>
<event>
 5   0  0.1908190E-07  0.3508531E+04  0.7818609E-02  0.8111771E-01
        1   -1    0    0  501    0  0.00000000000E+00  0.00000000000E+00  0.26801643769E+04  0.26801643769E+04  0.50400001928E-02 0.  1.
       -1   -1    0    0    0  501  0.00000000000E+00  0.00000000000E+00 -0.11482307926E+04  0.11482307926E+04  0.50400001928E-02 0. -1.
    10030    2    1    2    0    0  0.00000000000E+00  0.00000000000E+00  0.15319335843E+04  0.38283951695E+04  0.35085308987E+04 0.  0.
        5    1    3    3  502    0 -0.24912502930E+03 -0.11942829248E+04 -0.60953215266E+03  0.13637912303E+04  0.46999998093E+01 0. -1.
       -5    1    3    3    0  502  0.24912502930E+03  0.11942829248E+04  0.21414657370E+04  0.24646039392E+04  0.46999998093E+01 0.  1.
</event>
<event>
 5   0  0.5707187E-07  0.3527195E+04  0.7818609E-02  0.8107375E-01
        2   -1    0    0  501    0  0.00000000000E+00  0.00000000000E+00  0.11875850320E+04  0.11875850320E+04  0.25500000920E-02 0.  1.
       -2   -1    0    0    0  501  0.00000000000E+00  0.00000000000E+00 -0.26189921720E+04  0.26189921720E+04  0.25500000920E-02 0. -1.
    10030    2    1    2    0    0  0.00000000000E+00  0.00000000000E+00 -0.14314071400E+04  0.38065772040E+04  0.35271948642E+04 0.  0.
        1    1    3    3  502    0 -0.35590327730E+03 -0.20285863191E+03  0.11355259264E+04  0.12071610899E+04  0.50400001928E-02 0.  1.
       -1    1    3    3    0  502  0.35590327730E+03  0.20285863191E+03 -0.25669330664E+04  0.25994161142E+04  0.50400001928E-02 0. -1.
</event>
<event>
 5   0  0.1873457E-07  0.3568562E+04  0.7818609E-02  0.8097731E-01
       -1   -1    0    0    0  501  0.00000000000E+00  0.00000000000E+00  0.30114633587E+04  0.30114633587E+04  0.50400001928E-02 0.  1.
        1   -1    0    0  501    0  0.00000000000E+00  0.00000000000E+00 -0.10571798550E+04  0.10571798550E+04  0.50400001928E-02 0. -1.
    10030    2    1    2    0    0  0.00000000000E+00  0.00000000000E+00  0.19542835037E+04  0.40686432136E+04  0.35685618373E+04 0.  0.
        3    1    3    3  502    0  0.17769513932E+02 -0.92988242090E+03 -0.75895945409E+03  0.12004234817E+04  0.10100000352E+00 0. -1.
       -3    1    3    3    0  502 -0.17769513932E+02  0.92988242090E+03  0.27132429578E+04  0.28682197319E+04  0.10100000352E+00 0.  1.
</event>
<event>
 5   0  0.5740827E-07  0.3501115E+04  0.7818609E-02  0.8113526E-01
       -2   -1    0    0    0  501  0.00000000000E+00  0.00000000000E+00  0.16004784725E+04  0.16004784725E+04  0.25500000920E-02 0.  1.
        2   -1    0    0  501    0  0.00000000000E+00  0.00000000000E+00 -0.19147099591E+04  0.19147099591E+04  0.25500000920E-02 0. -1.
    10030    2    1    2    0    0  0.00000000000E+00  0.00000000000E+00 -0.31423148655E+03  0.35151884316E+04  0.35011152912E+04 0.  0.
        2    1    3    3  502    0  0.10896804737E+04  0.92683347570E+03  0.85591380155E+03  0.16670369708E+04  0.25500000920E-02 0.  1.
       -2    1    3    3    0  502 -0.10896804737E+04 -0.92683347570E+03 -0.11701452881E+04  0.18481514607E+04  0.25500000920E-02 0. -1.
</event>
<event>
 5   0  0.5740827E-07  0.3503069E+04  0.7818609E-02  0.8113063E-01
       -2   -1    0    0    0  501  0.00000000000E+00  0.00000000000E+00  0.13246909607E+04  0.13246909607E+04  0.25500000920E-02 0. -1.
        2   -1    0    0  501    0  0.00000000000E+00  0.00000000000E+00 -0.23159163799E+04  0.23159163799E+04  0.25500000920E-02 0.  1.
    10030    2    1    2    0    0  0.00000000000E+00  0.00000000000E+00 -0.99122541917E+03  0.36406073406E+04  0.35030692224E+04 0.  0.
        2    1    3    3  502    0 -0.88464069068E+03  0.69885992940E+03 -0.18887199675E+04  0.21996039344E+04  0.25500000920E-02 0.  1.
       -2    1    3    3    0  502  0.88464069068E+03 -0.69885992940E+03  0.89749454832E+03  0.14410034062E+04  0.25500000920E-02 0. -1.
</event>
<event>
 5   0  0.5573334E-07  0.3506971E+04  0.7818609E-02  0.8112140E-01
       -2   -1    0    0    0  501  0.00000000000E+00  0.00000000000E+00  0.15709296413E+04  0.15709296413E+04  0.25500000920E-02 0. -1.
        2   -1    0    0  501    0  0.00000000000E+00  0.00000000000E+00 -0.19572556234E+04  0.19572556234E+04  0.25500000920E-02 0.  1.
    10030    2    1    2    0    0  0.00000000000E+00  0.00000000000E+00 -0.38632598207E+03  0.35281852647E+04  0.35069707010E+04 0.  0.
        4    1    3    3  502    0  0.49619694621E+03 -0.15583036902E+04  0.44326750665E+03  0.16944053516E+04  0.12699999809E+01 0. -1.
       -4    1    3    3    0  502 -0.49619694621E+03  0.15583036902E+04 -0.82959348872E+03  0.18337799131E+04  0.12699999809E+01 0.  1.
</event>
<event>
 5   0  0.5677193E-07  0.3543265E+04  0.7818609E-02  0.8103613E-01
       -2   -1    0    0    0  501  0.00000000000E+00  0.00000000000E+00  0.12741314367E+04  0.12741314367E+04  0.25500000920E-02 0. -1.
        2   -1    0    0  501    0  0.00000000000E+00  0.00000000000E+00 -0.24633889616E+04  0.24633889616E+04  0.25500000920E-02 0.  1.
    10030    2    1    2    0    0  0.00000000000E+00  0.00000000000E+00 -0.11892575249E+04  0.37375203983E+04  0.35432647752E+04 0.  0.
        3    1    3    3  502    0 -0.43187099859E+03 -0.86019765780E+03 -0.21635277385E+04  0.23679748426E+04  0.10100000352E+00 0.  1.
       -3    1    3    3    0  502  0.43187099859E+03  0.86019765780E+03  0.97427021354E+03  0.13695455557E+04  0.10100000352E+00 0. -1.
</event>
<event>
 5   0  0.5707187E-07  0.3496873E+04  0.7818609E-02  0.8114531E-01
        2   -1    0    0  501    0  0.00000000000E+00  0.00000000000E+00  0.19100199585E+04  0.19100199585E+04  0.25500000920E-02 0. -1.
       -2   -1    0    0    0  501  0.00000000000E+00  0.00000000000E+00 -0.16005226536E+04  0.16005226536E+04  0.25500000920E-02 0.  1.
    10030    2    1    2    0    0  0.00000000000E+00  0.00000000000E+00  0.30949730487E+03  0.35105426121E+04  0.34968730102E+04 0.  0.
        1    1    3    3  502    0 -0.13986236676E+04  0.10411145825E+04  0.23999465753E+02  0.17437441647E+04  0.50400001928E-02 0.  1.
       -1    1    3    3    0  502  0.13986236676E+04 -0.10411145825E+04  0.28549783912E+03  0.17667984474E+04  0.50400001928E-02 0. -1.
</event>
<event>
 5   0  0.5554745E-07  0.3509097E+04  0.7818609E-02  0.8111638E-01
        2   -1    0    0  501    0  0.00000000000E+00  0.00000000000E+00  0.30921005387E+04  0.30921005387E+04  0.25500000920E-02 0.  1.
       -2   -1    0    0    0  501  0.00000000000E+00  0.00000000000E+00 -0.99558204912E+03  0.99558204912E+03  0.25500000920E-02 0. -1.
    10030    2    1    2    0    0  0.00000000000E+00  0.00000000000E+00  0.20965184896E+04  0.40876825878E+04  0.35090966304E+04 0.  0.
        5    1    3    3  502    0  0.10098026415E+04 -0.14305947190E+04  0.11764760354E+04  0.21096019948E+04  0.46999998093E+01 0.  1.
       -5    1    3    3    0  502 -0.10098026415E+04  0.14305947190E+04  0.92004245418E+03  0.19780805930E+04  0.46999998093E+01 0. -1.
</event>
<event>
 5   0  0.1933647E-07  0.3521682E+04  0.7818609E-02  0.8108671E-01
       -1   -1    0    0    0  501  0.00000000000E+00  0.00000000000E+00  0.14983378990E+04  0.14983378990E+04  0.50400001928E-02 0. -1.
        1   -1    0    0  501    0  0.00000000000E+00  0.00000000000E+00 -0.20693340091E+04  0.20693340092E+04  0.50400001928E-02 0.  1.
    10030    2    1    2    0    0  0.00000000000E+00  0.00000000000E+00 -0.57099611013E+03  0.35676719082E+04  0.35216823091E+04 0.  0.
        4    1    3    3  502    0 -0.86350600419E+03 -0.15342583622E+04 -0.31702710737E+03  0.17888820925E+04  0.12699999809E+01 0.  1.
       -4    1    3    3    0  502  0.86350600419E+03  0.15342583622E+04 -0.25396900277E+03  0.17787898157E+04  0.12699999809E+01 0. -1.
</event>
<event>
 5   0  0.1908190E-07  0.3466141E+04  0.7818609E-02  0.8121861E-01
        1   -1    0    0  501    0  0.00000000000E+00  0.00000000000E+00  0.18648043274E+04  0.18648043274E+04  0.50400001928E-02 0.  1.
       -1   -1    0    0    0  501  0.00000000000E+00  0.00000000000E+00 -0.16106426410E+04  0.16106426410E+04  0.50400001928E-02 0. -1.
    10030    2    1    2    0    0  0.00000000000E+00  0.00000000000E+00  0.25416168640E+03  0.34754469685E+04  0.34661410052E+04 0.  0.
        5    1    3    3  502    0 -0.17164537640E+04 -0.18472174320E+03  0.27972501298E+03  0.17488864512E+04  0.46999998093E+01 0.  1.
       -5    1    3    3    0  502  0.17164537640E+04  0.18472174320E+03 -0.25563326577E+02  0.17265605173E+04  0.46999998093E+01 0. -1.
</event>
<event>
 5   0  0.5573334E-07  0.3495102E+04  0.7818609E-02  0.8114952E-01
       -2   -1    0    0    0  501  0.00000000000E+00  0.00000000000E+00  0.12321669654E+04  0.12321669654E+04  0.25500000920E-02 0.  1.
        2   -1    0    0  501    0  0.00000000000E+00  0.00000000000E+00 -0.24785067014E+04  0.24785067014E+04  0.25500000920E-02 0. -1.
    10030    2    1    2    0    0  0.00000000000E+00  0.00000000000E+00 -0.12463397361E+04  0.37106736668E+04  0.34951017616E+04 0.  0.
        4    1    3    3  502    0  0.16949966688E+04 -0.28829191461E+03 -0.95519951910E+03  0.19668588331E+04  0.12699999809E+01 0. -1.
       -4    1    3    3    0  502 -0.16949966688E+04  0.28829191461E+03 -0.29114021697E+03  0.17438148337E+04  0.12699999809E+01 0.  1.
</event>
<event>
 5   0  0.5740827E-07  0.3495393E+04  0.7818609E-02  0.8114883E-01
        2   -1    0    0  501    0  0.00000000000E+00  0.00000000000E+00  0.27101647708E+04  0.27101647708E+04  0.25500000920E-02 0.  1.
       -2   -1    0    0    0  501  0.00000000000E+00  0.00000000000E+00 -0.11270321957E+04  0.11270321957E+04  0.25500000920E-02 0. -1.
    10030    2    1    2    0    0  0.00000000000E+00  0.00000000000E+00  0.15831325751E+04  0.38371969665E+04  0.34953929406E+04 0.  0.
        2    1    3    3  502    0 -0.13475967212E+04  0.98196597298E+03  0.13663800379E+04  0.21557524216E+04  0.25500000920E-02 0. -1.
       -2    1    3    3    0  502  0.13475967212E+04 -0.98196597298E+03  0.21675253718E+03  0.16814445449E+04  0.25500000920E-02 0.  1.
</event>
<event>
 5   0  0.1908190E-07  0.3482935E+04  0.7818609E-02  0.8117846E-01
       -1   -1    0    0    0  501  0.00000000000E+00  0.00000000000E+00  0.24552830242E+04  0.24552830242E+04  0.50400001928E-02 0.  1.
        1   -1    0    0  501    0  0.00000000000E+00  0.00000000000E+00 -0.12351767979E+04  0.12351767979E+04  0.50400001928E-02 0. -1.
    10030    2    1    2    0    0  0.00000000000E+00  0.00000000000E+00  0.12201062263E+04  0.36904598222E+04  0.34829347533E+04 0.  0.
        5    1    3    3  502    0 -0.63565977057E+03 -0.39580202287E+03 -0.10558748157E+04  0.12944559868E+04  0.46999998093E+01 0. -1.
       -5    1    3    3    0  502  0.63565977057E+03  0.39580202287E+03  0.22759810421E+04  0.23960038354E+04  0.46999998093E+01 0.  1.
</event>
<event>
 5   0  0.1933647E-07  0.3478042E+04  0.7818609E-02  0.8119013E-01
       -1   -1    0    0    0  501  0.00000000000E+00  0.00000000000E+00  0.30282288793E+04  0.30282288794E+04  0.50400001928E-02 0.  1.
        1   -1    0    0  501    0  0.00000000000E+00  0.00000000000E+00 -0.99866771852E+03  0.99866771853E+03  0.50400001928E-02 0. -1.
    10030    2    1    2    0    0  0.00000000000E+00  0.00000000000E+00  0.20295611608E+04  0.40268965979E+04  0.34780422229E+04 0.  0.
        4    1    3    3  502    0  0.99540939061E+03  0.73388082039E+03 -0.40076249787E+03  0.13000127330E+04  0.12699999809E+01 0. -1.
       -4    1    3    3    0  502 -0.99540939061E+03 -0.73388082039E+03  0.24303236587E+04  0.27268838649E+04  0.12699999809E+01 0.  1.
</event>
<event>
 5   0  0.5554745E-07  0.3676136E+04  0.7818609E-02  0.8073271E-01
       -2   -1    0    0    0  501  0.00000000000E+00  0.00000000000E+00  0.15853333286E+04  0.15853333286E+04  0.25500000920E-02 0. -1.
        2   -1    0    0  501    0  0.00000000000E+00  0.00000000000E+00 -0.21310940989E+04  0.21310940989E+04  0.25500000920E-02 0.  1.
    10030    2    1    2    0    0  0.00000000000E+00  0.00000000000E+00 -0.54576077030E+03  0.37164274275E+04  0.36761362877E+04 0.  0.
        5    1    3    3  502    0 -0.35881017528E+03  0.70455283916E+03  0.14046230571E+04  0.16118707974E+04  0.46999998093E+01 0. -1.
       -5    1    3    3    0  502  0.35881017528E+03 -0.70455283916E+03 -0.19503838274E+04  0.21045566301E+04  0.46999998093E+01 0.  1.
</event>
<event>
 5   0  0.1897049E-07  0.3501234E+04  0.7818609E-02  0.8113497E-01
        1   -1    0    0  501    0  0.00000000000E+00  0.00000000000E+00  0.18345874411E+04  0.18345874411E+04  0.50400001928E-02 0.  1.
       -1   -1    0    0    0  501  0.00000000000E+00  0.00000000000E+00 -0.16704903993E+04  0.16704903993E+04  0.50400001928E-02 0. -1.
    10030    2    1    2    0    0  0.00000000000E+00  0.00000000000E+00  0.16409704180E+03  0.35050778404E+04  0.35012344720E+04 0.  0.
        2    1    3    3  502    0  0.35860584207E+03 -0.13050046742E+04 -0.10295871530E+04  0.17004955323E+04  0.25500000920E-02 0. -1.
       -2    1    3    3    0  502 -0.35860584207E+03  0.13050046742E+04  0.11936841948E+04  0.18045823081E+04  0.25500000920E-02 0.  1.
</event>
<event>
 5   0  0.1873457E-07  0.3550105E+04  0.7818609E-02  0.8102017E-01
       -1   -1    0    0    0  501  0.00000000000E+00  0.00000000000E+00  0.11872648476E+04  0.11872648476E+04  0.50400001928E-02 0. -1.
        1   -1    0    0  501    0  0.00000000000E+00  0.00000000000E+00 -0.26538402166E+04  0.26538402166E+04  0.50400001928E-02 0.  1.
    10030    2    1    2    0    0  0.00000000000E+00  0.00000000000E+00 -0.14665753690E+04  0.38411050642E+04  0.35501049000E+04 0.  0.
        3    1    3    3  502    0 -0.15819227318E+04  0.60172683173E+03 -0.15440219415E+03  0.16995278042E+04  0.10100000352E+00 0. -1.
       -3    1    3    3    0  502  0.15819227318E+04 -0.60172683173E+03 -0.13121731749E+04  0.21415772600E+04  0.10100000352E+00 0.  1.
</event>
<event>
 5   0  0.1866421E-07  0.3485181E+04  0.7818609E-02  0.8117311E-01
        1   -1    0    0  501    0  0.00000000000E+00  0.00000000000E+00  0.20885893698E+04  0.20885893698E+04  0.50400001928E-02 0. -1.
       -1   -1    0    0    0  501  0.00000000000E+00  0.00000000000E+00 -0.14539105125E+04  0.14539105125E+04  0.50400001928E-02 0.  1.
    10030    2    1    2    0    0  0.00000000000E+00  0.00000000000E+00  0.63467885723E+03  0.35424998823E+04  0.34851812240E+04 0.  0.
        1    1    3    3  502    0 -0.10947605769E+03 -0.95767007567E+03  0.17929399223E+04  0.20356204327E+04  0.50400001928E-02 0. -1.
       -1    1    3    3    0  502  0.10947605769E+03  0.95767007567E+03 -0.11582610650E+04  0.15068794497E+04  0.50400001928E-02 0.  1.
</event>
<event>
 5   0  0.5707187E-07  0.3498352E+04  0.7818609E-02  0.8114181E-01
        2   -1    0    0  501    0  0.00000000000E+00  0.00000000000E+00  0.19210216618E+04  0.19210216618E+04  0.25500000920E-02 0.  1.
       -2   -1    0    0    0  501  0.00000000000E+00  0.00000000000E+00 -0.15927030081E+04  0.15927030081E+04  0.25500000920E-02 0. -1.
    10030    2    1    2    0    0  0.00000000000E+00  0.00000000000E+00  0.32831865372E+03  0.35137246699E+04  0.34983521718E+04 0.  0.
        1    1    3    3  502    0 -0.19378641652E+03  0.12700945980E+03 -0.15772216902E+04  0.15941495658E+04  0.50400001928E-02 0. -1.
       -1    1    3    3    0  502  0.19378641652E+03 -0.12700945980E+03  0.19055403439E+04  0.19195751041E+04  0.50400001928E-02 0.  1.
</event>
<event>
 5   0  0.5677193E-07  0.3698351E+04  0.7818609E-02  0.8068327E-01
       -2   -1    0    0    0  501  0.00000000000E+00  0.00000000000E+00  0.17183424202E+04  0.17183424202E+04  0.25500000920E-02 0.  1.
        2   -1    0    0  501    0  0.00000000000E+00  0.00000000000E+00 -0.19899703825E+04  0.19899703825E+04  0.25500000920E-02 0. -1.
    10030    2    1    2    0    0  0.00000000000E+00  0.00000000000E+00 -0.27162796235E+03  0.37083128028E+04  0.36983512669E+04 0.  0.
        3    1    3    3  502    0  0.16087454139E+03  0.85262754537E+03 -0.17731839767E+04  0.19740911262E+04  0.10100000352E+00 0. -1.
       -3    1    3    3    0  502 -0.16087454139E+03 -0.85262754537E+03  0.15015560143E+04  0.17342216766E+04  0.10100000352E+00 0.  1.
</event>
<event>
 5   0  0.5554745E-07  0.3374823E+04  0.7818609E-02  0.8144113E-01
       -2   -1    0    0    0  501  0.00000000000E+00  0.00000000000E+00  0.12097652819E+04  0.12097652819E+04  0.25500000920E-02 0. -1.
        2   -1    0    0  501    0  0.00000000000E+00  0.00000000000E+00 -0.23536440595E+04  0.23536440595E+04  0.25500000920E-02 0.  1.
    10030    2    1    2    0    0  0.00000000000E+00  0.00000000000E+00 -0.11438787776E+04  0.35634093414E+04  0.33748225845E+04 0.  0.
        5    1    3    3  502    0 -0.31736707601E+03 -0.10608562550E+04  0.77247345551E+03  0.13501389499E+04  0.46999998093E+01 0. -1.
       -5    1    3    3    0  502  0.31736707601E+03  0.10608562550E+04 -0.19163522331E+04  0.22132703915E+04  0.46999998093E+01 0.  1.
</event>
<event>
 5   0  0.5573334E-07  0.3490079E+04  0.7818609E-02  0.8116145E-01
       -2   -1    0    0    0  501  0.00000000000E+00  0.00000000000E+00  0.12600859954E+04  0.12600859954E+04  0.25500000920E-02 0. -1.
        2   -1    0    0  501    0  0.00000000000E+00  0.00000000000E+00 -0.24166312808E+04  0.24166312808E+04  0.25500000920E-02 0.  1.
    10030    2    1    2    0    0  0.00000000000E+00  0.00000000000E+00 -0.11565452854E+04  0.36767172762E+04  0.34900792158E+04 0.  0.
        4    1    3    3  502    0 -0.11493399627E+04 -0.12842383982E+04 -0.28993737348E+03  0.17476601233E+04  0.12699999809E+01 0. -1.
       -4    1    3    3    0  502  0.11493399627E+04  0.12842383982E+04 -0.86660791195E+03  0.19290571529E+04  0.12699999809E+01 0.  1.
</event>
<event>
 5   0  0.5707187E-07  0.3498167E+04  0.7818609E-02  0.8114225E-01
       -2   -1    0    0    0  501  0.00000000000E+00  0.00000000000E+00  0.19674809143E+04  0.19674809143E+04  0.25500000920E-02 0.  1.
        2   -1    0    0  501    0  0.00000000000E+00  0.00000000000E+00 -0.15549288370E+04  0.15549288370E+04  0.25500000920E-02 0. -1.
    10030    2    1    2    0    0  0.00000000000E+00  0.00000000000E+00  0.41255207723E+03  0.35224097513E+04  0.34981668399E+04 0.  0.
        1    1    3    3  502    0 -0.10574297689E+03 -0.15176206838E+04 -0.66280369451E+03  0.16594164199E+04  0.50400001928E-02 0. -1.
       -1    1    3    3    0  502  0.10574297689E+03  0.15176206838E+04  0.10753557717E+04  0.18629933314E+04  0.50400001928E-02 0.  1.
</event>
<event>
 5   0  0.1897049E-07  0.3479141E+04  0.7818609E-02  0.8118751E-01
        1   -1    0    0  501    0  0.00000000000E+00  0.00000000000E+00  0.17288955062E+04  0.17288955062E+04  0.50400001928E-02 0. -1.
       -1   -1    0    0    0  501  0.00000000000E+00  0.00000000000E+00 -0.17503114453E+04  0.17503114453E+04  0.50400001928E-02 0.  1.
    10030    2    1    2    0    0  0.00000000000E+00  0.00000000000E+00 -0.21415939111E+02  0.34792069516E+04  0.34791410390E+04 0.  0.
        2    1    3    3  502    0  0.66868722778E+03  0.79482709302E+03  0.13847441639E+04  0.17310138982E+04  0.25500000920E-02 0. -1.
       -2    1    3    3    0  502 -0.66868722778E+03 -0.79482709302E+03 -0.14061601030E+04  0.17481930533E+04  0.25500000920E-02 0.  1.
</event>
<event>
 5   0  0.1873457E-07  0.3499648E+04  0.7818609E-02  0.8113873E-01
        1   -1    0    0  501    0  0.00000000000E+00  0.00000000000E+00  0.10917306508E+04  0.10917306508E+04  0.50400001928E-02 0. -1.
       -1   -1    0    0    0  501  0.00000000000E+00  0.00000000000E+00 -0.28046153830E+04  0.28046153830E+04  0.50400001928E-02 0.  1.
    10030    2    1    2    0    0  0.00000000000E+00  0.00000000000E+00 -0.17128847321E+04  0.38963460338E+04  0.34996483122E+04 0.  0.
        3    1    3    3  502    0 -0.10265394103E+04 -0.51578631164E+03 -0.23259282025E+04  0.25941782309E+04  0.10100000352E+00 0.  1.
       -3    1    3    3    0  502  0.10265394103E+04  0.51578631164E+03  0.61304347033E+03  0.13021678029E+04  0.10100000352E+00 0. -1.
</event>
<event>
 5   0  0.5677193E-07  0.3478414E+04  0.7818609E-02  0.8118925E-01
       -2   -1    0    0    0  501  0.00000000000E+00  0.00000000000E+00  0.11886944117E+04  0.11886944117E+04  0.25500000920E-02 0.  1.
        2   -1    0    0  501    0  0.00000000000E+00  0.00000000000E+00 -0.25446749199E+04  0.25446749199E+04  0.25500000920E-02 0. -1.
    10030    2    1    2    0    0  0.00000000000E+00  0.00000000000E+00 -0.13559805082E+04  0.37333693316E+04  0.34784139242E+04 0.  0.
        3    1    3    3  502    0 -0.60312872647E+03  0.14832668121E+04 -0.14067230987E+04  0.21313644886E+04  0.10100000352E+00 0. -1.
       -3    1    3    3    0  502  0.60312872647E+03 -0.14832668121E+04  0.50742590498E+02  0.16020048431E+04  0.10100000352E+00 0.  1.
</event>
<event>
 5   0  0.5677193E-07  0.3377972E+04  0.7818609E-02  0.8143334E-01
        2   -1    0    0  501    0  0.00000000000E+00  0.00000000000E+00  0.17601744258E+04  0.17601744258E+04  0.25500000920E-02 0.  1.
       -2   -1    0    0    0  501  0.00000000000E+00  0.00000000000E+00 -0.16206767988E+04  0.16206767988E+04  0.25500000920E-02 0. -1.
    10030    2    1    2    0    0  0.00000000000E+00  0.00000000000E+00  0.13949762709E+03  0.33808512246E+04  0.33779720862E+04 0.  0.
        3    1    3    3  502    0  0.19709271715E+03  0.11555105685E+04 -0.11472742954E+04  0.16402099049E+04  0.10100000352E+00 0. -1.
       -3    1    3    3    0  502 -0.19709271715E+03 -0.11555105685E+04  0.12867719225E+04  0.17406413197E+04  0.10100000352E+00 0.  1.
</event>
<event>
 5   0  0.1933647E-07  0.3506899E+04  0.7818609E-02  0.8112157E-01
       -1   -1    0    0    0  501  0.00000000000E+00  0.00000000000E+00  0.12454242836E+04  0.12454242836E+04  0.50400001928E-02 0. -1.
        1   -1    0    0  501    0  0.00000000000E+00  0.00000000000E+00 -0.24687048039E+04  0.24687048039E+04  0.50400001928E-02 0.  1.
    10030    2    1    2    0    0  0.00000000000E+00  0.00000000000E+00 -0.12232805203E+04  0.37141290875E+04  0.35068988647E+04 0.  0.
        4    1    3    3  502    0 -0.33422834312E+03  0.13703287589E+04 -0.17148634756E+04  0.22204206461E+04  0.12699999809E+01 0.  1.
       -4    1    3    3    0  502  0.33422834312E+03 -0.13703287589E+04  0.49158295531E+03  0.14937084414E+04  0.12699999809E+01 0. -1.
</event>
<event>
 5   0  0.1866421E-07  0.3511622E+04  0.7818609E-02  0.8111041E-01
       -1   -1    0    0    0  501  0.00000000000E+00  0.00000000000E+00  0.18026770880E+04  0.18026770880E+04  0.50400001928E-02 0. -1.
        1   -1    0    0  501    0  0.00000000000E+00  0.00000000000E+00 -0.17101637771E+04  0.17101637771E+04  0.50400001928E-02 0.  1.
    10030    2    1    2    0    0  0.00000000000E+00  0.00000000000E+00  0.92513310900E+02  0.35128408651E+04  0.35116224499E+04 0.  0.
        1    1    3    3  502    0 -0.99974788557E+03 -0.10363537008E+04 -0.95875517090E+03  0.17299526889E+04  0.50400001928E-02 0.  1.
       -1    1    3    3    0  502  0.99974788557E+03  0.10363537008E+04  0.10512684818E+04  0.17828881762E+04  0.50400001928E-02 0. -1.
</event>
<event>
 5   0  0.5554745E-07  0.3502175E+04  0.7818609E-02  0.8113275E-01
        2   -1    0    0  501    0  0.00000000000E+00  0.00000000000E+00  0.29215829840E+04  0.29215829840E+04  0.25500000920E-02 0. -1.
       -2   -1    0    0    0  501  0.00000000000E+00  0.00000000000E+00 -0.10495363511E+04  0.10495363511E+04  0.25500000920E-02 0.  1.
    10030    2    1    2    0    0  0.00000000000E+00  0.00000000000E+00  0.18720466329E+04  0.39711193350E+04  0.35021750638E+04 0.  0.
        5    1    3    3  502    0 -0.13592993157E+04  0.82770466756E+03  0.10781308322E+03  0.15951286460E+04  0.46999998093E+01 0. -1.
       -5    1    3    3    0  502  0.13592993157E+04 -0.82770466756E+03  0.17642335497E+04  0.23759906890E+04  0.46999998093E+01 0.  1.
</event>
<event>
 5   0  0.1933647E-07  0.3497859E+04  0.7818609E-02  0.8114297E-01
       -1   -1    0    0    0  501  0.00000000000E+00  0.00000000000E+00  0.14307846019E+04  0.14307846019E+04  0.50400001928E-02 0.  1.
        1   -1    0    0  501    0  0.00000000000E+00  0.00000000000E+00 -0.21378163737E+04  0.21378163738E+04  0.50400001928E-02 0. -1.
    10030    2    1    2    0    0  0.00000000000E+00  0.00000000000E+00 -0.70703177188E+03  0.35686009756E+04  0.34978592020E+04 0.  0.
        4    1    3    3  502    0 -0.97860983293E+02 -0.13462558541E+03  0.14226862258E+04  0.14323890988E+04  0.12699999809E+01 0.  1.
       -4    1    3    3    0  502  0.97860983293E+02  0.13462558541E+03 -0.21297179977E+04  0.21362118769E+04  0.12699999809E+01 0. -1.
</event>
<event>
 5   0  0.1866421E-07  0.3482787E+04  0.7818609E-02  0.8117881E-01
       -1   -1    0    0    0  501  0.00000000000E+00  0.00000000000E+00  0.14226018282E+04  0.14226018282E+04  0.50400001928E-02 0.  1.
        1   -1    0    0  501    0  0.00000000000E+00  0.00000000000E+00 -0.21316229259E+04  0.21316229259E+04  0.50400001928E-02 0. -1.
    10030    2    1    2    0    0  0.00000000000E+00  0.00000000000E+00 -0.70902109774E+03  0.35542247541E+04  0.34827866265E+04 0.  0.
        1    1    3    3  502    0 -0.15932851126E+04 -0.13723313691E+03  0.34887328548E+03  0.16367965521E+04  0.50400001928E-02 0.  1.
       -1    1    3    3    0  502  0.15932851126E+04  0.13723313691E+03 -0.10578943832E+04  0.19174282020E+04  0.50400001928E-02 0. -1.
</event>
<event>
 5   0  0.5573334E-07  0.3479408E+04  0.7818609E-02  0.8118687E-01
       -2   -1    0    0    0  501  0.00000000000E+00  0.00000000000E+00  0.21734875420E+04  0.21734875420E+04  0.25500000920E-02 0.  1.
        2   -1    0    0  501    0  0.00000000000E+00  0.00000000000E+00 -0.13924947072E+04  0.13924947072E+04  0.25500000920E-02 0. -1.
    10030    2    1    2    0    0  0.00000000000E+00  0.00000000000E+00  0.78099283483E+03  0.35659822492E+04  0.34794079372E+04 0.  0.
        4    1    3    3  502    0 -0.14168570691E+03  0.16121264831E+04  0.10447706639E+04  0.19262850231E+04  0.12699999809E+01 0.  1.
       -4    1    3    3    0  502  0.14168570691E+03 -0.16121264831E+04 -0.26377782911E+03  0.16396972261E+04  0.12699999809E+01 0. -1.
</event>
<event>
 5   0  0.1873457E-07  0.3506908E+04  0.7818609E-02  0.8112155E-01
        1   -1    0    0  501    0  0.00000000000E+00  0.00000000000E+00  0.26218891025E+04  0.26218891025E+04  0.50400001928E-02 0.  1.
       -1   -1    0    0    0  501  0.00000000000E+00  0.00000000000E+00 -0.11726663842E+04  0.11726663843E+04  0.50400001928E-02 0. -1.
    10030    2    1    2    0    0  0.00000000000E+00  0.00000000000E+00  0.14492227183E+04  0.37945554868E+04  0.35069081617E+04 0.  0.
        3    1    3    3  502    0 -0.60373477997E+03  0.13426012422E+04 -0.30616961449E+03  0.15036002205E+04  0.10100000352E+00 0. -1.
       -3    1    3    3    0  502  0.60373477997E+03 -0.13426012422E+04  0.17553923328E+04  0.22909552663E+04  0.10100000352E+00 0.  1.
</event>
<event>
 5   0  0.1873457E-07  0.3495373E+04  0.7818609E-02  0.8114887E-01
        1   -1    0    0  501    0  0.00000000000E+00  0.00000000000E+00  0.23626765588E+04  0.23626765588E+04  0.50400001928E-02 0. -1.
       -1   -1    0    0    0  501  0.00000000000E+00  0.00000000000E+00 -0.12927743203E+04  0.12927743203E+04  0.50400001928E-02 0.  1.
    10030    2    1    2    0    0  0.00000000000E+00  0.00000000000E+00  0.10699022385E+04  0.36554508791E+04  0.34953727025E+04 0.  0.
        3    1    3    3  502    0 -0.16881795651E+04  0.35063674978E+03  0.83352794721E+03  0.19151149374E+04  0.10100000352E+00 0.  1.
       -3    1    3    3    0  502  0.16881795651E+04 -0.35063674978E+03  0.23637429125E+03  0.17403359417E+04  0.10100000352E+00 0. -1.
</event>
<event>
 5   0  0.1866421E-07  0.3523923E+04  0.7818609E-02  0.8108144E-01
        1   -1    0    0  501    0  0.00000000000E+00  0.00000000000E+00  0.19116053340E+04  0.19116053340E+04  0.50400001928E-02 0. -1.
       -1   -1    0    0    0  501  0.00000000000E+00  0.00000000000E+00 -0.16240322506E+04  0.16240322506E+04  0.50400001928E-02 0.  1.
    10030    2    1    2    0    0  0.00000000000E+00  0.00000000000E+00  0.28757308343E+03  0.35356375846E+04  0.35239232187E+04 0.  0.
        1    1    3    3  502    0 -0.26554188306E+03  0.71816544970E+03 -0.14483833196E+04  0.16383187557E+04  0.50400001928E-02 0.  1.
       -1    1    3    3    0  502  0.26554188306E+03 -0.71816544970E+03  0.17359564031E+04  0.18973188288E+04  0.50400001928E-02 0. -1.
</event>
<event>
 5   0  0.1908190E-07  0.3491557E+04  0.7818609E-02  0.8115794E-01
        1   -1    0    0  501    0  0.00000000000E+00  0.00000000000E+00  0.23159465822E+04  0.23159465822E+04  0.50400001928E-02 0.  1.
       -1   -1    0    0    0  501  0.00000000000E+00  0.00000000000E+00 -0.13159813941E+04  0.13159813941E+04  0.50400001928E-02 0. -1.
    10030    2    1    2    0    0  0.00000000000E+00  0.00000000000E+00  0.99996518804E+03  0.36319279763E+04  0.34915570234E+04 0.  0.
        5    1    3    3  502    0 -0.49575368011E+03 -0.79020939889E+03  0.20349492892E+04  0.22385806452E+04  0.46999998093E+01 0.  1.
       -5    1    3    3    0  502  0.49575368011E+03  0.79020939889E+03 -0.10349841012E+04  0.13933473311E+04  0.46999998093E+01 0. -1.
</event>
<event>
 5   0  0.1908190E-07  0.3498260E+04  0.7818609E-02  0.8114202E-01
        1   -1    0    0  501    0  0.00000000000E+00  0.00000000000E+00  0.26081881496E+04  0.26081881496E+04  0.50400001928E-02 0.  1.
       -1   -1    0    0    0  501  0.00000000000E+00  0.00000000000E+00 -0.11730196151E+04  0.11730196152E+04  0.50400001928E-02 0. -1.
    10030    2    1    2    0    0  0.00000000000E+00  0.00000000000E+00  0.14351685345E+04  0.37812077648E+04  0.34982600587E+04 0.  0.
        5    1    3    3  502    0  0.71622684101E+03 -0.47670588830E+03 -0.92848444675E+03  0.12658336579E+04  0.46999998093E+01 0. -1.
       -5    1    3    3    0  502 -0.71622684101E+03  0.47670588830E+03  0.23636529812E+04  0.25153741068E+04  0.46999998093E+01 0.  1.
</event>
<event>
 5   0  0.1897049E-07  0.3501229E+04  0.7818609E-02  0.8113499E-01
       -1   -1    0    0    0  501  0.00000000000E+00  0.00000000000E+00  0.14935829140E+04  0.14935829140E+04  0.50400001928E-02 0. -1.
        1   -1    0    0  501    0  0.00000000000E+00  0.00000000000E+00 -0.20518787395E+04  0.20518787395E+04  0.50400001928E-02 0.  1.
    10030    2    1    2    0    0  0.00000000000E+00  0.00000000000E+00 -0.55829582545E+03  0.35454616535E+04  0.35012289425E+04 0.  0.
        2    1    3    3  502    0  0.12285878544E+03 -0.73903880332E+02 -0.20459234642E+04  0.20509409757E+04  0.25500000920E-02 0.  1.
       -2    1    3    3    0  502 -0.12285878544E+03  0.73903880332E+02  0.14876276387E+04  0.14945206778E+04  0.25500000920E-02 0. -1.
</event>
<event>
 5   0  0.1897049E-07  0.3489737E+04  0.7818609E-02  0.8116226E-01
        1   -1    0    0  501    0  0.00000000000E+00  0.00000000000E+00  0.23319426589E+04  0.23319426589E+04  0.50400001928E-02 0. -1.
       -1   -1    0    0    0  501  0.00000000000E+00  0.00000000000E+00 -0.13055923086E+04  0.13055923086E+04  0.50400001928E-02 0.  1.
    10030    2    1    2    0    0  0.00000000000E+00  0.00000000000E+00  0.10263503503E+04  0.36375349676E+04  0.34897371819E+04 0.  0.
        2    1    3    3  502    0  0.77654952230E+03 -0.17578661322E+03  0.21315544295E+04  0.22754020260E+04  0.25500000920E-02 0. -1.
       -2    1    3    3    0  502 -0.77654952230E+03  0.17578661322E+03 -0.11052040792E+04  0.13621329416E+04  0.25500000920E-02 0.  1.
</event>
<event>
 5   0  0.1897049E-07  0.3547045E+04  0.7818609E-02  0.8102730E-01
        1   -1    0    0  501    0  0.00000000000E+00  0.00000000000E+00  0.25410993215E+04  0.25410993215E+04  0.50400001928E-02 0.  1.
       -1   -1    0    0    0  501  0.00000000000E+00  0.00000000000E+00 -0.12378037643E+04  0.12378037643E+04  0.50400001928E-02 0. -1.
    10030    2    1    2    0    0  0.00000000000E+00  0.00000000000E+00  0.13032955572E+04  0.37789030858E+04  0.35470451397E+04 0.  0.
        2    1    3    3  502    0 -0.15445041652E+04  0.69681742934E+03  0.12096544338E+04  0.20819009331E+04  0.25500000920E-02 0.  1.
       -2    1    3    3    0  502  0.15445041652E+04 -0.69681742934E+03  0.93641123360E+02  0.16970021527E+04  0.25500000920E-02 0. -1.
</event>
<event>
 5   0  0.5554745E-07  0.3482020E+04  0.7818609E-02  0.8118064E-01
        2   -1    0    0  501    0  0.00000000000E+00  0.00000000000E+00  0.20792474940E+04  0.20792474940E+04  0.25500000920E-02 0. -1.
       -2   -1    0    0    0  501  0.00000000000E+00  0.00000000000E+00 -0.14577944245E+04  0.14577944245E+04  0.25500000920E-02 0.  1.
    10030    2    1    2    0    0  0.00000000000E+00  0.00000000000E+00  0.62145306947E+03  0.35370419185E+04  0.34820197609E+04 0.  0.
        5    1    3    3  502    0  0.96543984897E+03 -0.56992371660E+03 -0.10423146553E+04  0.15307936097E+04  0.46999998093E+01 0.  1.
       -5    1    3    3    0  502 -0.96543984897E+03  0.56992371660E+03  0.16637677248E+04  0.20062483088E+04  0.46999998093E+01 0. -1.
</event>
<event>
 5   0  0.1866421E-07  0.3467557E+04  0.7818609E-02  0.8121522E-01
        1   -1    0    0  501    0  0.00000000000E+00  0.00000000000E+00  0.11630853626E+04  0.11630853626E+04  0.50400001928E-02 0. -1.
       -1   -1    0    0    0  501  0.00000000000E+00  0.00000000000E+00 -0.25844949234E+04  0.25844949234E+04  0.50400001928E-02 0.  1.
    10030    2    1    2    0    0  0.00000000000E+00  0.00000000000E+00 -0.14214095608E+04  0.37475802860E+04  0.34675571892E+04 0.  0.
        1    1    3    3  502    0 -0.93478118998E+03  0.14568285818E+04 -0.81781860435E+03  0.19144170547E+04  0.50400001928E-02 0.  1.
       -1    1    3    3    0  502  0.93478118998E+03 -0.14568285818E+04 -0.60359095649E+03  0.18331632313E+04  0.50400001928E-02 0. -1.
</event>
<event>
 5   0  0.5677193E-07  0.3507591E+04  0.7818609E-02  0.8111993E-01
        2   -1    0    0  501    0  0.00000000000E+00  0.00000000000E+00  0.10191135913E+04  0.10191135913E+04  0.25500000920E-02 0.  1.
       -2   -1    0    0    0  501  0.00000000000E+00  0.00000000000E+00 -0.30181118379E+04  0.30181118379E+04  0.25500000920E-02 0. -1.
    10030    2    1    2    0    0  0.00000000000E+00  0.00000000000E+00 -0.19989982466E+04  0.40372254291E+04  0.35075910787E+04 0.  0.
        3    1    3    3  502    0  0.79233104143E+03 -0.11050699582E+04 -0.22743704675E+04  0.26498545479E+04  0.10100000352E+00 0. -1.
       -3    1    3    3    0  502 -0.79233104143E+03  0.11050699582E+04  0.27537222085E+03  0.13873708812E+04  0.10100000352E+00 0.  1.
</event>
<event>
 5   0  0.1933647E-07  0.3529947E+04  0.7818609E-02  0.8106729E-01
       -1   -1    0    0    0  501  0.00000000000E+00  0.00000000000E+00  0.18311485704E+04  0.18311485704E+04  0.50400001928E-02 0.  1.
        1   -1    0    0  501    0  0.00000000000E+00  0.00000000000E+00 -0.17011901449E+04  0.17011901449E+04  0.50400001928E-02 0. -1.
    10030    2    1    2    0    0  0.00000000000E+00  0.00000000000E+00  0.12995842550E+03  0.35323387153E+04  0.35299472527E+04 0.  0.
        4    1    3    3  502    0 -0.23880608202E+03 -0.10673974866E+04  0.14511124217E+04  0.18171666441E+04  0.12699999809E+01 0.  1.
       -4    1    3    3    0  502  0.23880608202E+03  0.10673974866E+04 -0.13211539962E+04  0.17151720712E+04  0.12699999809E+01 0. -1.
</event>
<event>
 5   0  0.5573334E-07  0.3562240E+04  0.7818609E-02  0.8099196E-01
       -2   -1    0    0    0  501  0.00000000000E+00  0.00000000000E+00  0.10552314679E+04  0.10552314679E+04  0.25500000920E-02 0.  1.
        2   -1    0    0  501    0  0.00000000000E+00  0.00000000000E+00 -0.30063442045E+04  0.30063442045E+04  0.25500000920E-02 0. -1.
    10030    2    1    2    0    0  0.00000000000E+00  0.00000000000E+00 -0.19511127367E+04  0.40615756724E+04  0.35622403107E+04 0.  0.
        4    1    3    3  502    0 -0.87620763538E+03 -0.64271218031E+03  0.63349153389E+03  0.12578282488E+04  0.12699999809E+01 0.  1.
       -4    1    3    3    0  502  0.87620763538E+03  0.64271218031E+03 -0.25846042706E+04  0.28037474236E+04  0.12699999809E+01 0. -1.
</event>
<event>
 5   0  0.5707187E-07  0.3508453E+04  0.7818609E-02  0.8111790E-01
        2   -1    0    0  501    0  0.00000000000E+00  0.00000000000E+00  0.14202075310E+04  0.14202075310E+04  0.25500000920E-02 0. -1.
       -2   -1    0    0    0  501  0.00000000000E+00  0.00000000000E+00 -0.21668036298E+04  0.21668036298E+04  0.25500000920E-02 0.  1.
    10030    2    1    2    0    0  0.00000000000E+00  0.00000000000E+00 -0.74659609874E+03  0.35870111608E+04  0.35084531254E+04 0.  0.
        1    1    3    3  502    0 -0.16704398139E+03 -0.89077603590E+03 -0.19089026225E+04  0.21131244308E+04  0.50400001928E-02 0.  1.
       -1    1    3    3    0  502  0.16704398139E+03  0.89077603590E+03  0.11623065237E+04  0.14738867300E+04  0.50400001928E-02 0. -1.
</event>
<event>
 5   0  0.1873457E-07  0.3492269E+04  0.7818609E-02  0.8115624E-01
        1   -1    0    0  501    0  0.00000000000E+00  0.00000000000E+00  0.93454918630E+03  0.93454918632E+03  0.50400001928E-02 0. -1.
       -1   -1    0    0    0  501  0.00000000000E+00  0.00000000000E+00 -0.32625206968E+04  0.32625206968E+04  0.50400001928E-02 0.  1.
    10030    2    1    2    0    0  0.00000000000E+00  0.00000000000E+00 -0.23279715105E+04  0.41970698831E+04  0.34922692121E+04 0.  0.
        3    1    3    3  502    0 -0.14859043687E+04  0.44397209122E+03 -0.19955965148E+03  0.15636006764E+04  0.10100000352E+00 0. -1.
       -3    1    3    3    0  502  0.14859043687E+04 -0.44397209122E+03 -0.21284118590E+04  0.26334692067E+04  0.10100000352E+00 0.  1.
</event>
<event>
 5   0  0.5677193E-07  0.3501427E+04  0.7818609E-02  0.8113452E-01
        2   -1    0    0  501    0  0.00000000000E+00  0.00000000000E+00  0.22072742827E+04  0.22072742827E+04  0.25500000920E-02 0. -1.
       -2   -1    0    0    0  501  0.00000000000E+00  0.00000000000E+00 -0.13885892932E+04  0.13885892932E+04  0.25500000920E-02 0.  1.
    10030    2    1    2    0    0  0.00000000000E+00  0.00000000000E+00  0.81868498951E+03  0.35958635759E+04  0.35014268155E+04 0.  0.
        3    1    3    3  502    0 -0.12150124627E+04  0.28363455360E+03 -0.85190725937E+03  0.15107778901E+04  0.10100000352E+00 0.  1.
       -3    1    3    3    0  502  0.12150124627E+04 -0.28363455360E+03  0.16705922489E+04  0.20850856857E+04  0.10100000352E+00 0. -1.
</event>
<event>
 5   0  0.1933647E-07  0.3503936E+04  0.7818609E-02  0.8112858E-01
       -1   -1    0    0    0  501  0.00000000000E+00  0.00000000000E+00  0.15315304546E+04  0.15315304546E+04  0.50400001928E-02 0. -1.
        1   -1    0    0  501    0  0.00000000000E+00  0.00000000000E+00 -0.20041340212E+04  0.20041340212E+04  0.50400001928E-02 0.  1.
    10030    2    1    2    0    0  0.00000000000E+00  0.00000000000E+00 -0.47260356669E+03  0.35356644758E+04  0.35039362372E+04 0.  0.
        4    1    3    3  502    0 -0.91669993735E+03  0.18789076557E+03  0.12582408717E+04  0.15680604003E+04  0.12699999809E+01 0. -1.
       -4    1    3    3    0  502  0.91669993735E+03 -0.18789076557E+03 -0.17308444384E+04  0.19676040755E+04  0.12699999809E+01 0.  1.
</event>
<event>
 5   0  0.5740827E-07  0.3666865E+04  0.7818609E-02  0.8075345E-01
        2   -1    0    0  501    0  0.00000000000E+00  0.00000000000E+00  0.21076096251E+04  0.21076096251E+04  0.25500000920E-02 0.  1.
       -2   -1    0    0    0  501  0.00000000000E+00  0.00000000000E+00 -0.15949226696E+04  0.15949226696E+04  0.25500000920E-02 0. -1.
    10030    2    1    2    0    0  0.00000000000E+00  0.00000000000E+00  0.51268695552E+03  0.37025322947E+04  0.36668648024E+04 0.  0.
        2    1    3    3  502    0 -0.17931759437E+04 -0.38042808892E+03  0.29231122074E+03  0.18562465746E+04  0.25500000920E-02 0. -1.
       -2    1    3    3    0  502  0.17931759437E+04  0.38042808892E+03  0.22037573478E+03  0.18462857201E+04  0.25500000920E-02 0.  1.
</event>
<event>
 5   0  0.1933647E-07  0.3488723E+04  0.7818609E-02  0.8116468E-01
        1   -1    0    0  501    0  0.00000000000E+00  0.00000000000E+00  0.29693358369E+04  0.29693358369E+04  0.50400001928E-02 0. -1.
       -1   -1    0    0    0  501  0.00000000000E+00  0.00000000000E+00 -0.10247396879E+04  0.10247396879E+04  0.50400001928E-02 0.  1.
    10030    2    1    2    0    0  0.00000000000E+00  0.00000000000E+00  0.19445961490E+04  0.39940755248E+04  0.34887225621E+04 0.  0.
        4    1    3    3  502    0  0.41739763569E+02 -0.72850822674E+03 -0.84160924448E+03  0.11139004343E+04  0.12699999809E+01 0.  1.
       -4    1    3    3    0  502 -0.41739763569E+02  0.72850822674E+03  0.27862053935E+04  0.28801750905E+04  0.12699999809E+01 0. -1.
</event>
<event>
 5   0  0.1933647E-07  0.3504242E+04  0.7818609E-02  0.8112785E-01
        1   -1    0    0  501    0  0.00000000000E+00  0.00000000000E+00  0.12136742213E+04  0.12136742213E+04  0.50400001928E-02 0. -1.
       -1   -1    0    0    0  501  0.00000000000E+00  0.00000000000E+00 -0.25294496831E+04  0.25294496831E+04  0.50400001928E-02 0.  1.
    10030    2    1    2    0    0  0.00000000000E+00  0.00000000000E+00 -0.13157754618E+04  0.37431239044E+04  0.35042419291E+04 0.  0.
        4    1    3    3  502    0  0.10730893719E+04 -0.20079090991E+03 -0.21217430159E+04  0.23861334472E+04  0.12699999809E+01 0.  1.
       -4    1    3    3    0  502 -0.10730893719E+04  0.20079090991E+03  0.80596755410E+03  0.13569904571E+04  0.12699999809E+01 0. -1.
</event>
<event>
 5   0  0.1897049E-07  0.3474130E+04  0.7818609E-02  0.8119948E-01
        1   -1    0    0  501    0  0.00000000000E+00  0.00000000000E+00  0.17859546819E+04  0.17859546819E+04  0.50400001928E-02 0. -1.
       -1   -1    0    0    0  501  0.00000000000E+00  0.00000000000E+00 -0.16895133712E+04  0.16895133712E+04  0.50400001928E-02 0.  1.
    10030    2    1    2    0    0  0.00000000000E+00  0.00000000000E+00  0.96441310687E+02  0.34754680531E+04  0.34741297129E+04 0.  0.
        2    1    3    3  502    0 -0.17250874824E+04 -0.55143053369E+02 -0.14788224966E+03  0.17322923362E+04  0.25500000920E-02 0.  1.
       -2    1    3    3    0  502  0.17250874824E+04  0.55143053369E+02  0.24432356034E+03  0.17431757170E+04  0.25500000920E-02 0. -1.
</event>
<event>
 5   0  0.5740827E-07  0.3533351E+04  0.7818609E-02  0.8105931E-01
        2   -1    0    0  501    0  0.00000000000E+00  0.00000000000E+00  0.94072505692E+03  0.94072505693E+03  0.25500000920E-02 0.  1.
       -2   -1    0    0    0  501  0.00000000000E+00  0.00000000000E+00 -0.33178054936E+04  0.33178054936E+04  0.25500000920E-02 0. -1.
    10030    2    1    2    0    0  0.00000000000E+00  0.00000000000E+00 -0.23770804367E+04  0.42585305505E+04  0.35333512488E+04 0.  0.
        2    1    3    3  502    0  0.41510475927E+03  0.17056827703E+04 -0.14280071276E+04  0.22629339430E+04  0.25500000920E-02 0. -1.
       -2    1    3    3    0  502 -0.41510475927E+03 -0.17056827703E+04 -0.94907330912E+03  0.19955966075E+04  0.25500000920E-02 0.  1.
</event>
<event>
 5   0  0.5707187E-07  0.3483424E+04  0.7818609E-02  0.8117729E-01
       -2   -1    0    0    0  501  0.00000000000E+00  0.00000000000E+00  0.17336500085E+04  0.17336500085E+04  0.25500000920E-02 0. -1.
        2   -1    0    0  501    0  0.00000000000E+00  0.00000000000E+00 -0.17498115482E+04  0.17498115482E+04  0.25500000920E-02 0.  1.
    10030    2    1    2    0    0  0.00000000000E+00  0.00000000000E+00 -0.16161539733E+02  0.34834615568E+04  0.34834240658E+04 0.  0.
        1    1    3    3  502    0  0.53028104157E+03  0.14748790174E+04  0.75159490359E+03  0.17382062588E+04  0.50400001928E-02 0. -1.
       -1    1    3    3    0  502 -0.53028104157E+03 -0.14748790174E+04 -0.76775644332E+03  0.17452552980E+04  0.50400001928E-02 0.  1.
</event>
<event>
 5   0  0.5554745E-07  0.3462084E+04  0.7818609E-02  0.8122835E-01
       -2   -1    0    0    0  501  0.00000000000E+00  0.00000000000E+00  0.10997069082E+04  0.10997069082E+04  0.25500000920E-02 0.  1.
        2   -1    0    0  501    0  0.00000000000E+00  0.00000000000E+00 -0.27248221555E+04  0.27248221555E+04  0.25500000920E-02 0. -1.
    10030    2    1    2    0    0  0.00000000000E+00  0.00000000000E+00 -0.16251152473E+04  0.38245290638E+04  0.34620836201E+04 0.  0.
        5    1    3    3  502    0  0.13225330110E+04  0.10639639858E+04 -0.43733567678E+03  0.17528255796E+04  0.46999998093E+01 0. -1.
       -5    1    3    3    0  502 -0.13225330110E+04 -0.10639639858E+04 -0.11877795705E+04  0.20717034842E+04  0.46999998093E+01 0.  1.
</event>
<event>
 5   0  0.5707187E-07  0.3519913E+04  0.7818609E-02  0.8109087E-01
        2   -1    0    0  501    0  0.00000000000E+00  0.00000000000E+00  0.24481175732E+04  0.24481175732E+04  0.25500000920E-02 0. -1.
       -2   -1    0    0    0  501  0.00000000000E+00  0.00000000000E+00 -0.12652359503E+04  0.12652359503E+04  0.25500000920E-02 0.  1.
    10030    2    1    2    0    0  0.00000000000E+00  0.00000000000E+00  0.11828816228E+04  0.37133535235E+04  0.35199127058E+04 0.  0.
        1    1    3    3  502    0  0.11246152635E+04  0.13429448363E+04  0.41121292461E+03  0.17992655150E+04  0.50400001928E-02 0.  1.
       -1    1    3    3    0  502 -0.11246152635E+04 -0.13429448363E+04  0.77166869822E+03  0.19140880084E+04  0.50400001928E-02 0. -1.
</event>
<event>
 5   0  0.1866421E-07  0.3518987E+04  0.7818609E-02  0.8109305E-01
        1   -1    0    0  501    0  0.00000000000E+00  0.00000000000E+00  0.16112299173E+04  0.16112299173E+04  0.50400001928E-02 0. -1.
       -1   -1    0    0    0  501  0.00000000000E+00  0.00000000000E+00 -0.19213997035E+04  0.19213997035E+04  0.50400001928E-02 0.  1.
    10030    2    1    2    0    0  0.00000000000E+00  0.00000000000E+00 -0.31016978620E+03  0.35326296209E+04  0.35189866072E+04 0.  0.
        1    1    3    3  502    0 -0.56441024661E+03 -0.10455854227E+04  0.11476399077E+04  0.16519337639E+04  0.50400001928E-02 0. -1.
       -1    1    3    3    0  502  0.56441024661E+03  0.10455854227E+04 -0.14578096939E+04  0.18806958569E+04  0.50400001928E-02 0.  1.
</event>
<event>
 5   0  0.5554745E-07  0.3512365E+04  0.7818609E-02  0.8110866E-01
       -2   -1    0    0    0  501  0.00000000000E+00  0.00000000000E+00  0.20072520731E+04  0.20072520731E+04  0.25500000920E-02 0.  1.
        2   -1    0    0  501    0  0.00000000000E+00  0.00000000000E+00 -0.15365174415E+04  0.15365174415E+04  0.25500000920E-02 0. -1.
    10030    2    1    2    0    0  0.00000000000E+00  0.00000000000E+00  0.47073463167E+03  0.35437695146E+04  0.35123654820E+04 0.  0.
        5    1    3    3  502    0  0.13042408726E+04 -0.55820111651E+03  0.12797664761E+04  0.19106169327E+04  0.46999998093E+01 0.  1.
       -5    1    3    3    0  502 -0.13042408726E+04  0.55820111651E+03 -0.80903184448E+03  0.16331525818E+04  0.46999998093E+01 0. -1.
</event>
<event>
 5   0  0.5573334E-07  0.3495134E+04  0.7818609E-02  0.8114944E-01
       -2   -1    0    0    0  501  0.00000000000E+00  0.00000000000E+00  0.26654507743E+04  0.26654507743E+04  0.25500000920E-02 0.  1.
        2   -1    0    0  501    0  0.00000000000E+00  0.00000000000E+00 -0.11457689527E+04  0.11457689527E+04  0.25500000920E-02 0. -1.
    10030    2    1    2    0    0  0.00000000000E+00  0.00000000000E+00  0.15196818216E+04  0.38112197270E+04  0.34951341846E+04 0.  0.
        4    1    3    3  502    0  0.50098764280E+03 -0.15244670361E+04  0.51515313860E+01  0.16046857990E+04  0.12699999809E+01 0.  1.
       -4    1    3    3    0  502 -0.50098764280E+03  0.15244670361E+04  0.15145302902E+04  0.22065339280E+04  0.12699999809E+01 0. -1.
</event>
<event>
 5   0  0.5573334E-07  0.3520025E+04  0.7818609E-02  0.8109061E-01
        2   -1    0    0  501    0  0.00000000000E+00  0.00000000000E+00  0.24753256035E+04  0.24753256035E+04  0.25500000920E-02 0. -1.
       -2   -1    0    0    0  501  0.00000000000E+00  0.00000000000E+00 -0.12514088903E+04  0.12514088903E+04  0.25500000920E-02 0.  1.
    10030    2    1    2    0    0  0.00000000000E+00  0.00000000000E+00  0.12239167133E+04  0.37267344938E+04  0.35200252650E+04 0.  0.
        4    1    3    3  502    0  0.11784274811E+03 -0.49684363356E+03  0.23951781069E+04  0.24490039375E+04  0.12699999809E+01 0. -1.
       -4    1    3    3    0  502 -0.11784274811E+03  0.49684363356E+03 -0.11712613936E+04  0.12777305563E+04  0.12699999809E+01 0.  1.
</event>
<event>
 5   0  0.1897049E-07  0.3433246E+04  0.7818609E-02  0.8129794E-01
       -1   -1    0    0    0  501  0.00000000000E+00  0.00000000000E+00  0.14647049483E+04  0.14647049483E+04  0.50400001928E-02 0. -1.
        1   -1    0    0  501    0  0.00000000000E+00  0.00000000000E+00 -0.20118694391E+04  0.20118694391E+04  0.50400001928E-02 0.  1.
    10030    2    1    2    0    0  0.00000000000E+00  0.00000000000E+00 -0.54716449077E+03  0.34765743874E+04  0.34332463487E+04 0.  0.
        2    1    3    3  502    0 -0.54272920236E+03  0.15064289159E+04  0.35302596370E+03  0.16396677703E+04  0.25500000920E-02 0.  1.
       -2    1    3    3    0  502  0.54272920236E+03 -0.15064289159E+04 -0.90019045447E+03  0.18369066171E+04  0.25500000920E-02 0. -1.
</event>
<event>
 5   0  0.1873457E-07  0.3595919E+04  0.7818609E-02  0.8091427E-01
       -1   -1    0    0    0  501  0.00000000000E+00  0.00000000000E+00  0.26090200316E+04  0.26090200316E+04  0.50400001928E-02 0.  1.
        1   -1    0    0  501    0  0.00000000000E+00  0.00000000000E+00 -0.12390317993E+04  0.12390317993E+04  0.50400001928E-02 0. -1.
    10030    2    1    2    0    0  0.00000000000E+00  0.00000000000E+00  0.13699882323E+04  0.38480518310E+04  0.35959192340E+04 0.  0.
        3    1    3    3  502    0  0.48018142097E+03  0.12440080060E+04 -0.60560726515E+03  0.14645443953E+04  0.10100000352E+00 0. -1.
       -3    1    3    3    0  502 -0.48018142097E+03 -0.12440080060E+04  0.19755954975E+04  0.23835074357E+04  0.10100000352E+00 0.  1.
</event>
<event>
 5   0  0.1908190E-07  0.3474968E+04  0.7818609E-02  0.8119748E-01
        1   -1    0    0  501    0  0.00000000000E+00  0.00000000000E+00  0.27520744080E+04  0.27520744080E+04  0.50400001928E-02 0. -1.
       -1   -1    0    0    0  501  0.00000000000E+00  0.00000000000E+00 -0.10969366587E+04  0.10969366587E+04  0.50400001928E-02 0.  1.
    10030    2    1    2    0    0  0.00000000000E+00  0.00000000000E+00  0.16551377493E+04  0.38490110667E+04  0.34749683772E+04 0.  0.
        5    1    3    3  502    0 -0.71202572982E+03 -0.13570409758E+04  0.17344056912E+04  0.23144602052E+04  0.46999998093E+01 0. -1.
       -5    1    3    3    0  502  0.71202572982E+03  0.13570409758E+04 -0.79267941943E+02  0.15345508615E+04  0.46999998093E+01 0.  1.
</event>
<event>
 5   0  0.5573334E-07  0.3503805E+04  0.7818609E-02  0.8112889E-01
       -2   -1    0    0    0  501  0.00000000000E+00  0.00000000000E+00  0.12039073669E+04  0.12039073669E+04  0.25500000920E-02 0.  1.
        2   -1    0    0  501    0  0.00000000000E+00  0.00000000000E+00 -0.25493338131E+04  0.25493338131E+04  0.25500000920E-02 0. -1.
    10030    2    1    2    0    0  0.00000000000E+00  0.00000000000E+00 -0.13454264462E+04  0.37532411800E+04  0.35038046511E+04 0.  0.
        4    1    3    3  502    0  0.34362646492E+03  0.14655627394E+04 -0.16327332459E+04  0.22207594997E+04  0.12699999809E+01 0. -1.
       -4    1    3    3    0  502 -0.34362646492E+03 -0.14655627394E+04  0.28730679967E+03  0.15324816803E+04  0.12699999809E+01 0.  1.
</event>
<event>
 5   0  0.5554745E-07  0.3489877E+04  0.7818609E-02  0.8116193E-01
        2   -1    0    0  501    0  0.00000000000E+00  0.00000000000E+00  0.23112655900E+04  0.23112655900E+04  0.25500000920E-02 0.  1.
       -2   -1    0    0    0  501  0.00000000000E+00  0.00000000000E+00 -0.13173781220E+04  0.13173781220E+04  0.25500000920E-02 0. -1.
    10030    2    1    2    0    0  0.00000000000E+00  0.00000000000E+00  0.99388746794E+03  0.36286437120E+04  0.34898772027E+04 0.  0.
        5    1    3    3  502    0  0.41556503313E+03  0.14886408829E+04 -0.34522714813E+03  0.15836507976E+04  0.46999998093E+01 0. -1.
       -5    1    3    3    0  502 -0.41556503313E+03 -0.14886408829E+04  0.13391146161E+04  0.20449929144E+04  0.46999998093E+01 0.  1.
</event>
<event>
 5   0  0.5707187E-07  0.3412006E+04  0.7818609E-02  0.8134966E-01
        2   -1    0    0  501    0  0.00000000000E+00  0.00000000000E+00  0.15306105544E+04  0.15306105544E+04  0.25500000920E-02 0.  1.
       -2   -1    0    0    0  501  0.00000000000E+00  0.00000000000E+00 -0.19014940800E+04  0.19014940800E+04  0.25500000920E-02 0. -1.
    10030    2    1    2    0    0  0.00000000000E+00  0.00000000000E+00 -0.37088352561E+03  0.34321046343E+04  0.34120063938E+04 0.  0.
        1    1    3    3  502    0 -0.11001742973E+04 -0.12943592043E+04 -0.27361114997E+02  0.16989696480E+04  0.50400001928E-02 0. -1.
       -1    1    3    3    0  502  0.11001742973E+04  0.12943592043E+04 -0.34352241061E+03  0.17331349863E+04  0.50400001928E-02 0.  1.
</event>
<event>
 5   0  0.5707187E-07  0.3514374E+04  0.7818609E-02  0.8110392E-01
       -2   -1    0    0    0  501  0.00000000000E+00  0.00000000000E+00  0.19995298057E+04  0.19995298057E+04  0.25500000920E-02 0. -1.
        2   -1    0    0  501    0  0.00000000000E+00  0.00000000000E+00 -0.15442161465E+04  0.15442161465E+04  0.25500000920E-02 0.  1.
    10030    2    1    2    0    0  0.00000000000E+00  0.00000000000E+00  0.45531365917E+03  0.35437459522E+04  0.35143740332E+04 0.  0.
        1    1    3    3  502    0  0.16937047801E+04  0.45137744293E+03  0.10281281372E+03  0.17558325526E+04  0.50400001928E-02 0. -1.
       -1    1    3    3    0  502 -0.16937047801E+04 -0.45137744293E+03  0.35250084545E+03  0.17879133996E+04  0.50400001928E-02 0.  1.
</event>
<event>
 5   0  0.1823000E-07  0.3489702E+04  0.7818609E-02  0.8116235E-01
        3   -1    0    0  501    0  0.00000000000E+00  0.00000000000E+00  0.29004170319E+04  0.29004170336E+04  0.10100000352E+00 0.  1.
       -3   -1    0    0    0  501  0.00000000000E+00  0.00000000000E+00 -0.10496784488E+04  0.10496784537E+04  0.10100000352E+00 0. -1.
    10030    2    1    2    0    0  0.00000000000E+00  0.00000000000E+00  0.18507385830E+04  0.39500954873E+04  0.34897021444E+04 0.  0.
        1    1    3    3  502    0  0.52443773510E+03  0.25139212861E+03  0.27874777888E+04  0.28475016002E+04  0.50400001928E-02 0.  1.
       -1    1    3    3    0  502 -0.52443773510E+03 -0.25139212861E+03 -0.93673920573E+03  0.11025938871E+04  0.50400001928E-02 0. -1.
</event>
<event>
 5   0  0.1823000E-07  0.3557396E+04  0.7818609E-02  0.8100321E-01
       -3   -1    0    0    0  501  0.00000000000E+00  0.00000000000E+00  0.23250644236E+04  0.23250644258E+04  0.10100000352E+00 0. -1.
        3   -1    0    0  501    0  0.00000000000E+00  0.00000000000E+00 -0.13607221580E+04  0.13607221617E+04  0.10100000352E+00 0.  1.
    10030    2    1    2    0    0  0.00000000000E+00  0.00000000000E+00  0.96434226562E+03  0.36857865876E+04  0.35573960651E+04 0.  0.
        3    1    3    3  502    0  0.14492534031E+03  0.51391432711E+02 -0.13538228049E+04  0.13625272955E+04  0.10100000352E+00 0.  1.
       -3    1    3    3    0  502 -0.14492534031E+03 -0.51391432711E+02  0.23181650706E+04  0.23232592921E+04  0.10100000352E+00 0. -1.
</event>
<event>
 5   0  0.5573334E-07  0.3494847E+04  0.7818609E-02  0.8115012E-01
       -2   -1    0    0    0  501  0.00000000000E+00  0.00000000000E+00  0.10304920283E+04  0.10304920283E+04  0.25500000920E-02 0. -1.
        2   -1    0    0  501    0  0.00000000000E+00  0.00000000000E+00 -0.29631363659E+04  0.29631363659E+04  0.25500000920E-02 0.  1.
    10030    2    1    2    0    0  0.00000000000E+00  0.00000000000E+00 -0.19326443376E+04  0.39936283942E+04  0.34948467227E+04 0.  0.
        4    1    3    3  502    0 -0.42264881670E+03  0.33083278801E+03 -0.28666076306E+04  0.29164230277E+04  0.12699999809E+01 0.  1.
       -4    1    3    3    0  502  0.42264881670E+03 -0.33083278801E+03  0.93396329303E+03  0.10772053664E+04  0.12699999809E+01 0. -1.
</event>
<event>
 5   0  0.1933647E-07  0.3505748E+04  0.7818609E-02  0.8112429E-01
        1   -1    0    0  501    0  0.00000000000E+00  0.00000000000E+00  0.24383014500E+04  0.24383014500E+04  0.50400001928E-02 0. -1.
       -1   -1    0    0    0  501  0.00000000000E+00  0.00000000000E+00 -0.12601259009E+04  0.12601259009E+04  0.50400001928E-02 0.  1.
    10030    2    1    2    0    0  0.00000000000E+00  0.00000000000E+00  0.11781755491E+04  0.36984273509E+04  0.35057477441E+04 0.  0.
        4    1    3    3  502    0  0.19813283337E+03 -0.16094186805E+02  0.24263713050E+04  0.24345009684E+04  0.12699999809E+01 0. -1.
       -4    1    3    3    0  502 -0.19813283337E+03  0.16094186805E+02 -0.12481957559E+04  0.12639263825E+04  0.12699999809E+01 0.  1.
</event>
<event>
 5   0  0.5573334E-07  0.3525951E+04  0.7818609E-02  0.8107667E-01
       -2   -1    0    0    0  501  0.00000000000E+00  0.00000000000E+00  0.15382182550E+04  0.15382182550E+04  0.25500000920E-02 0.  1.
        2   -1    0    0  501    0  0.00000000000E+00  0.00000000000E+00 -0.20205731792E+04  0.20205731792E+04  0.25500000920E-02 0. -1.
    10030    2    1    2    0    0  0.00000000000E+00  0.00000000000E+00 -0.48235492419E+03  0.35587914342E+04  0.35259509638E+04 0.  0.
        4    1    3    3  502    0 -0.85717318216E+03 -0.14245694410E+04 -0.83310113010E+03  0.18596244412E+04  0.12699999809E+01 0. -1.
       -4    1    3    3    0  502  0.85717318216E+03  0.14245694410E+04  0.35074620591E+03  0.16991669930E+04  0.12699999809E+01 0.  1.
</event>
<event>
 5   0  0.1873457E-07  0.3494673E+04  0.7818609E-02  0.8115053E-01
        1   -1    0    0  501    0  0.00000000000E+00  0.00000000000E+00  0.21505955127E+04  0.21505955127E+04  0.50400001928E-02 0. -1.
       -1   -1    0    0    0  501  0.00000000000E+00  0.00000000000E+00 -0.14196929649E+04  0.14196929649E+04  0.50400001928E-02 0.  1.
    10030    2    1    2    0    0  0.00000000000E+00  0.00000000000E+00  0.73090254773E+03  0.35702884776E+04  0.34946732722E+04 0.  0.
        3    1    3    3  502    0  0.16442861837E+04 -0.47460657307E+03  0.72557929210E+03  0.18588689498E+04  0.10100000352E+00 0. -1.
       -3    1    3    3    0  502 -0.16442861837E+04  0.47460657307E+03  0.53232556294E+01  0.17114195279E+04  0.10100000352E+00 0.  1.
</event>
<event>
 5   0  0.1933647E-07  0.3493785E+04  0.7818609E-02  0.8115264E-01
        1   -1    0    0  501    0  0.00000000000E+00  0.00000000000E+00  0.23976031330E+04  0.23976031330E+04  0.50400001928E-02 0.  1.
       -1   -1    0    0    0  501  0.00000000000E+00  0.00000000000E+00 -0.12727850176E+04  0.12727850176E+04  0.50400001928E-02 0. -1.
    10030    2    1    2    0    0  0.00000000000E+00  0.00000000000E+00  0.11248181155E+04  0.36703881506E+04  0.34937849652E+04 0.  0.
        4    1    3    3  502    0  0.28892984283E+03 -0.29230324587E+03  0.23460864459E+04  0.23818154560E+04  0.12699999809E+01 0.  1.
       -4    1    3    3    0  502 -0.28892984283E+03  0.29230324587E+03 -0.12212683304E+04  0.12885726947E+04  0.12699999809E+01 0. -1.
</event>
<event>
 5   0  0.1897049E-07  0.3497819E+04  0.7818609E-02  0.8114307E-01
       -1   -1    0    0    0  501  0.00000000000E+00  0.00000000000E+00  0.10928947224E+04  0.10928947224E+04  0.50400001928E-02 0. -1.
        1   -1    0    0  501    0  0.00000000000E+00  0.00000000000E+00 -0.27987005066E+04  0.27987005066E+04  0.50400001928E-02 0.  1.
    10030    2    1    2    0    0  0.00000000000E+00  0.00000000000E+00 -0.17058057842E+04  0.38915952290E+04  0.34978193283E+04 0.  0.
        2    1    3    3  502    0  0.10499810083E+04 -0.19039674092E+03 -0.23945251080E+04  0.26215380084E+04  0.25500000920E-02 0.  1.
       -2    1    3    3    0  502 -0.10499810083E+04  0.19039674092E+03  0.68871932382E+03  0.12700572206E+04  0.25500000920E-02 0. -1.
</event>
<event>
 5   0  0.5707187E-07  0.3450144E+04  0.7818609E-02  0.8125708E-01
        2   -1    0    0  501    0  0.00000000000E+00  0.00000000000E+00  0.16744682324E+04  0.16744682324E+04  0.25500000920E-02 0. -1.
       -2   -1    0    0    0  501  0.00000000000E+00  0.00000000000E+00 -0.17772046757E+04  0.17772046757E+04  0.25500000920E-02 0.  1.
    10030    2    1    2    0    0  0.00000000000E+00  0.00000000000E+00 -0.10273644327E+03  0.34516729081E+04  0.34501436330E+04 0.  0.
        1    1    3    3  502    0 -0.16772192819E+04 -0.13294371676E+03 -0.43250193909E+03  0.17371806120E+04  0.50400001928E-02 0.  1.
       -1    1    3    3    0  502  0.16772192819E+04  0.13294371676E+03  0.32976549582E+03  0.17144922962E+04  0.50400001928E-02 0. -1.
</event>
<event>
 5   0  0.1873457E-07  0.3544507E+04  0.7818609E-02  0.8103323E-01
        1   -1    0    0  501    0  0.00000000000E+00  0.00000000000E+00  0.15679699327E+04  0.15679699327E+04  0.50400001928E-02 0. -1.
       -1   -1    0    0    0  501  0.00000000000E+00  0.00000000000E+00 -0.20031517271E+04  0.20031517271E+04  0.50400001928E-02 0.  1.
    10030    2    1    2    0    0  0.00000000000E+00  0.00000000000E+00 -0.43518179439E+03  0.35711216598E+04  0.35445065545E+04 0.  0.
        3    1    3    3  502    0 -0.16022820329E+04 -0.30044260057E+03  0.48283298166E+03  0.17002062132E+04  0.10100000352E+00 0.  1.
       -3    1    3    3    0  502  0.16022820329E+04  0.30044260057E+03 -0.91801477606E+03  0.18709154466E+04  0.10100000352E+00 0. -1.
</event>
<event>
 5   0  0.5707187E-07  0.3491965E+04  0.7818609E-02  0.8115697E-01
       -2   -1    0    0    0  501  0.00000000000E+00  0.00000000000E+00  0.13800398039E+04  0.13800398039E+04  0.25500000920E-02 0. -1.
        2   -1    0    0  501    0  0.00000000000E+00  0.00000000000E+00 -0.22089616449E+04  0.22089616449E+04  0.25500000920E-02 0.  1.
    10030    2    1    2    0    0  0.00000000000E+00  0.00000000000E+00 -0.82892184102E+03  0.35890014489E+04  0.34919650602E+04 0.  0.
        1    1    3    3  502    0 -0.56607834243E+02 -0.18608439817E+03 -0.21977918509E+04  0.22063818504E+04  0.50400001928E-02 0.  1.
       -1    1    3    3    0  502  0.56607834243E+02  0.18608439817E+03  0.13688700098E+04  0.13826195984E+04  0.50400001928E-02 0. -1.
</event>
<event>
 5   0  0.5740827E-07  0.3446776E+04  0.7818609E-02  0.8126520E-01
        2   -1    0    0  501    0  0.00000000000E+00  0.00000000000E+00  0.22650675742E+04  0.22650675742E+04  0.25500000920E-02 0. -1.
       -2   -1    0    0    0  501  0.00000000000E+00  0.00000000000E+00 -0.13112486435E+04  0.13112486435E+04  0.25500000920E-02 0.  1.
    10030    2    1    2    0    0  0.00000000000E+00  0.00000000000E+00  0.95381893072E+03  0.35763162177E+04  0.34467763397E+04 0.  0.
        2    1    3    3  502    0  0.24791657484E+03  0.11438106779E+04 -0.83566419988E+03  0.14380890619E+04  0.25500000920E-02 0.  1.
       -2    1    3    3    0  502 -0.24791657484E+03 -0.11438106779E+04  0.17894831306E+04  0.21382271558E+04  0.25500000920E-02 0. -1.
</event>
<event>
 5   0  0.5573334E-07  0.3485397E+04  0.7818609E-02  0.8117260E-01
        2   -1    0    0  501    0  0.00000000000E+00  0.00000000000E+00  0.20241615953E+04  0.20241615953E+04  0.25500000920E-02 0.  1.
       -2   -1    0    0    0  501  0.00000000000E+00  0.00000000000E+00 -0.15003729093E+04  0.15003729093E+04  0.25500000920E-02 0. -1.
    10030    2    1    2    0    0  0.00000000000E+00  0.00000000000E+00  0.52378868600E+03  0.35245345046E+04  0.34853965178E+04 0.  0.
        4    1    3    3  502    0 -0.63952376741E+03  0.13405148749E+04 -0.65994783213E+03  0.16252702954E+04  0.12699999809E+01 0. -1.
       -4    1    3    3    0  502  0.63952376741E+03 -0.13405148749E+04  0.11837365181E+04  0.18992642092E+04  0.12699999809E+01 0.  1.
</event>
<event>
 5   0  0.1933647E-07  0.3449816E+04  0.7818609E-02  0.8125787E-01
       -1   -1    0    0    0  501  0.00000000000E+00  0.00000000000E+00  0.19521461350E+04  0.19521461350E+04  0.50400001928E-02 0. -1.
        1   -1    0    0  501    0  0.00000000000E+00  0.00000000000E+00 -0.15241214281E+04  0.15241214281E+04  0.50400001928E-02 0.  1.
    10030    2    1    2    0    0  0.00000000000E+00  0.00000000000E+00  0.42802470682E+03  0.34762675631E+04  0.34498160850E+04 0.  0.
        4    1    3    3  502    0 -0.87539466173E+03  0.78424495539E+03 -0.10581854008E+04  0.15814910431E+04  0.12699999809E+01 0.  1.
       -4    1    3    3    0  502  0.87539466173E+03 -0.78424495539E+03  0.14862101077E+04  0.18947765200E+04  0.12699999809E+01 0. -1.
</event>
<event>
 5   0  0.1866421E-07  0.3500933E+04  0.7818609E-02  0.8113569E-01
        1   -1    0    0  501    0  0.00000000000E+00  0.00000000000E+00  0.21612472097E+04  0.21612472097E+04  0.50400001928E-02 0.  1.
       -1   -1    0    0    0  501  0.00000000000E+00  0.00000000000E+00 -0.14177613026E+04  0.14177613026E+04  0.50400001928E-02 0. -1.
    10030    2    1    2    0    0  0.00000000000E+00  0.00000000000E+00  0.74348590713E+03  0.35790085123E+04  0.35009328239E+04 0.  0.
        1    1    3    3  502    0  0.13505347003E+04 -0.40544482465E+03  0.14320834907E+04  0.20097742676E+04  0.50400001928E-02 0. -1.
       -1    1    3    3    0  502 -0.13505347003E+04  0.40544482465E+03 -0.68859758353E+03  0.15692342447E+04  0.50400001928E-02 0.  1.
</event>
<event>
 5   0  0.5573334E-07  0.3490828E+04  0.7818609E-02  0.8115967E-01
        2   -1    0    0  501    0  0.00000000000E+00  0.00000000000E+00  0.15961650161E+04  0.15961650161E+04  0.25500000920E-02 0.  1.
       -2   -1    0    0    0  501  0.00000000000E+00  0.00000000000E+00 -0.19086180885E+04  0.19086180885E+04  0.25500000920E-02 0. -1.
    10030    2    1    2    0    0  0.00000000000E+00  0.00000000000E+00 -0.31245307249E+03  0.35047831046E+04  0.34908276508E+04 0.  0.
        4    1    3    3  502    0  0.84232296070E+03 -0.13245984902E+04 -0.92242791601E+03  0.18206987679E+04  0.12699999809E+01 0. -1.
       -4    1    3    3    0  502 -0.84232296070E+03  0.13245984902E+04  0.60997484352E+03  0.16840843367E+04  0.12699999809E+01 0.  1.
</event>
<event>
 5   0  0.5677193E-07  0.3498552E+04  0.7818609E-02  0.8114133E-01
        2   -1    0    0  501    0  0.00000000000E+00  0.00000000000E+00  0.12438997575E+04  0.12438997575E+04  0.25500000920E-02 0. -1.
       -2   -1    0    0    0  501  0.00000000000E+00  0.00000000000E+00 -0.24599787018E+04  0.24599787018E+04  0.25500000920E-02 0.  1.
    10030    2    1    2    0    0  0.00000000000E+00  0.00000000000E+00 -0.12160789443E+04  0.37038784593E+04  0.34985522209E+04 0.  0.
        3    1    3    3  502    0  0.87543862533E+03  0.89260559979E+03  0.68721324642E+03  0.14266743145E+04  0.10100000352E+00 0. -1.
       -3    1    3    3    0  502 -0.87543862533E+03 -0.89260559979E+03 -0.19032921908E+04  0.22772041448E+04  0.10100000352E+00 0.  1.
</event>
<event>
 5   0  0.1897049E-07  0.3501988E+04  0.7818609E-02  0.8113319E-01
       -1   -1    0    0    0  501  0.00000000000E+00  0.00000000000E+00  0.15061505140E+04  0.15061505141E+04  0.50400001928E-02 0.  1.
        1   -1    0    0  501    0  0.00000000000E+00  0.00000000000E+00 -0.20356392967E+04  0.20356392967E+04  0.50400001928E-02 0. -1.
    10030    2    1    2    0    0  0.00000000000E+00  0.00000000000E+00 -0.52948878261E+03  0.35417898107E+04  0.35019875346E+04 0.  0.
        2    1    3    3  502    0 -0.69704435340E+03  0.30628875120E+03  0.13299760610E+04  0.15324881574E+04  0.25500000920E-02 0.  1.
       -2    1    3    3    0  502  0.69704435340E+03 -0.30628875120E+03 -0.18594648436E+04  0.20093016534E+04  0.25500000920E-02 0. -1.
</event>
<event>
 5   0  0.1873457E-07  0.3516617E+04  0.7818609E-02  0.8109863E-01
        1   -1    0    0  501    0  0.00000000000E+00  0.00000000000E+00  0.27469209740E+04  0.27469209740E+04  0.50400001928E-02 0. -1.
       -1   -1    0    0    0  501  0.00000000000E+00  0.00000000000E+00 -0.11254963483E+04  0.11254963483E+04  0.50400001928E-02 0.  1.
    10030    2    1    2    0    0  0.00000000000E+00  0.00000000000E+00  0.16214246257E+04  0.38724173222E+04  0.35166174232E+04 0.  0.
        3    1    3    3  502    0  0.12900539212E+03 -0.15255383622E+04 -0.14149670024E+03  0.15375080527E+04  0.10100000352E+00 0.  1.
       -3    1    3    3    0  502 -0.12900539212E+03  0.15255383622E+04  0.17629213259E+04  0.23349092696E+04  0.10100000352E+00 0. -1.
</event>
<event>
 5   0  0.5740827E-07  0.3496817E+04  0.7818609E-02  0.8114545E-01
        2   -1    0    0  501    0  0.00000000000E+00  0.00000000000E+00  0.20713811261E+04  0.20713811261E+04  0.25500000920E-02 0. -1.
       -2   -1    0    0    0  501  0.00000000000E+00  0.00000000000E+00 -0.14757938933E+04  0.14757938933E+04  0.25500000920E-02 0.  1.
    10030    2    1    2    0    0  0.00000000000E+00  0.00000000000E+00  0.59558723286E+03  0.35471750194E+04  0.34968166189E+04 0.  0.
        2    1    3    3  502    0  0.12295632644E+04 -0.11973561857E+04  0.63643343885E+03  0.18304467156E+04  0.25500000920E-02 0. -1.
       -2    1    3    3    0  502 -0.12295632644E+04  0.11973561857E+04 -0.40846205988E+02  0.17167283038E+04  0.25500000920E-02 0.  1.
</event>
<event>
 5   0  0.5573334E-07  0.3502410E+04  0.7818609E-02  0.8113219E-01
        2   -1    0    0  501    0  0.00000000000E+00  0.00000000000E+00  0.17747419927E+04  0.17747419927E+04  0.25500000920E-02 0. -1.
       -2   -1    0    0    0  501  0.00000000000E+00  0.00000000000E+00 -0.17279800308E+04  0.17279800308E+04  0.25500000920E-02 0.  1.
    10030    2    1    2    0    0  0.00000000000E+00  0.00000000000E+00  0.46761961916E+02  0.35027220236E+04  0.35024098694E+04 0.  0.
        4    1    3    3  502    0 -0.61893612006E+03  0.60945314989E+03  0.15441091679E+04  0.17716630035E+04  0.12699999809E+01 0. -1.
       -4    1    3    3    0  502  0.61893612006E+03 -0.60945314989E+03 -0.14973472060E+04  0.17310590201E+04  0.12699999809E+01 0.  1.
</event>
<event>
 5   0  0.1866421E-07  0.3503818E+04  0.7818609E-02  0.8112886E-01
        1   -1    0    0  501    0  0.00000000000E+00  0.00000000000E+00  0.25164050786E+04  0.25164050786E+04  0.50400001928E-02 0.  1.
       -1   -1    0    0    0  501  0.00000000000E+00  0.00000000000E+00 -0.12196702899E+04  0.12196702899E+04  0.50400001928E-02 0. -1.
    10030    2    1    2    0    0  0.00000000000E+00  0.00000000000E+00  0.12967347887E+04  0.37360753685E+04  0.35038176390E+04 0.  0.
        1    1    3    3  502    0 -0.40191869060E+03 -0.36785733292E+03  0.24237679461E+04  0.24842521426E+04  0.50400001928E-02 0.  1.
       -1    1    3    3    0  502  0.40191869060E+03  0.36785733292E+03 -0.11270331574E+04  0.12518232260E+04  0.50400001928E-02 0. -1.
</event>
<event>
 5   0  0.1866421E-07  0.3470337E+04  0.7818609E-02  0.8120856E-01
        1   -1    0    0  501    0  0.00000000000E+00  0.00000000000E+00  0.21859610400E+04  0.21859610400E+04  0.50400001928E-02 0. -1.
       -1   -1    0    0    0  501  0.00000000000E+00  0.00000000000E+00 -0.13773388287E+04  0.13773388287E+04  0.50400001928E-02 0.  1.
    10030    2    1    2    0    0  0.00000000000E+00  0.00000000000E+00  0.80862221131E+03  0.35632998686E+04  0.34703365936E+04 0.  0.
        1    1    3    3  502    0 -0.57661698799E+03 -0.62902791451E+03 -0.11470040336E+04  0.14296088700E+04  0.50400001928E-02 0.  1.
       -1    1    3    3    0  502  0.57661698799E+03  0.62902791451E+03  0.19556262449E+04  0.21336909987E+04  0.50400001928E-02 0. -1.
</event>
<event>
 5   0  0.5677193E-07  0.3439037E+04  0.7818609E-02  0.8128391E-01
       -2   -1    0    0    0  501  0.00000000000E+00  0.00000000000E+00  0.11589963064E+04  0.11589963064E+04  0.25500000920E-02 0.  1.
        2   -1    0    0  501    0  0.00000000000E+00  0.00000000000E+00 -0.25511239732E+04  0.25511239732E+04  0.25500000920E-02 0. -1.
    10030    2    1    2    0    0  0.00000000000E+00  0.00000000000E+00 -0.13921276668E+04  0.37101202796E+04  0.34390366454E+04 0.  0.
        3    1    3    3  502    0  0.78474513561E+03 -0.79173136985E+03 -0.21084930725E+04  0.23850380577E+04  0.10100000352E+00 0. -1.
       -3    1    3    3    0  502 -0.78474513561E+03  0.79173136985E+03  0.71636540570E+03  0.13250822218E+04  0.10100000352E+00 0.  1.
</event>
<event>
 5   0  0.1933647E-07  0.3485003E+04  0.7818609E-02  0.8117353E-01
       -1   -1    0    0    0  501  0.00000000000E+00  0.00000000000E+00  0.14616372266E+04  0.14616372266E+04  0.50400001928E-02 0. -1.
        1   -1    0    0  501    0  0.00000000000E+00  0.00000000000E+00 -0.20773353280E+04  0.20773353280E+04  0.50400001928E-02 0.  1.
    10030    2    1    2    0    0  0.00000000000E+00  0.00000000000E+00 -0.61569810140E+03  0.35389725546E+04  0.34850025237E+04 0.  0.
        4    1    3    3  502    0  0.61660229474E+03 -0.77609759379E+03  0.11474471414E+04  0.15162989218E+04  0.12699999809E+01 0. -1.
       -4    1    3    3    0  502 -0.61660229474E+03  0.77609759379E+03 -0.17631452428E+04  0.20226736329E+04  0.12699999809E+01 0.  1.
</event>
<event>
 5   0  0.1873457E-07  0.3518157E+04  0.7818609E-02  0.8109500E-01
       -1   -1    0    0    0  501  0.00000000000E+00  0.00000000000E+00  0.23576237487E+04  0.23576237487E+04  0.50400001928E-02 0.  1.
        1   -1    0    0  501    0  0.00000000000E+00  0.00000000000E+00 -0.13124895682E+04  0.13124895682E+04  0.50400001928E-02 0. -1.
    10030    2    1    2    0    0  0.00000000000E+00  0.00000000000E+00  0.10451341805E+04  0.36701133170E+04  0.35181566628E+04 0.  0.
        3    1    3    3  502    0  0.15175335786E+04  0.81179649828E+03  0.90220138618E+03  0.19431647043E+04  0.10100000352E+00 0.  1.
       -3    1    3    3    0  502 -0.15175335786E+04 -0.81179649828E+03  0.14293279430E+03  0.17269486126E+04  0.10100000352E+00 0. -1.
</event>
<event>
 5   0  0.1866421E-07  0.3525531E+04  0.7818609E-02  0.8107766E-01
       -1   -1    0    0    0  501  0.00000000000E+00  0.00000000000E+00  0.14211714058E+04  0.14211714058E+04  0.50400001928E-02 0.  1.
        1   -1    0    0  501    0  0.00000000000E+00  0.00000000000E+00 -0.21864657645E+04  0.21864657645E+04  0.50400001928E-02 0. -1.
    10030    2    1    2    0    0  0.00000000000E+00  0.00000000000E+00 -0.76529435871E+03  0.36076371703E+04  0.35255312361E+04 0.  0.
        1    1    3    3  502    0  0.15433764518E+04  0.78324004919E+03 -0.72490142946E+03  0.18764215755E+04  0.50400001928E-02 0. -1.
       -1    1    3    3    0  502 -0.15433764518E+04 -0.78324004919E+03 -0.40392929252E+02  0.17312155947E+04  0.50400001928E-02 0.  1.
</event>
<event>
 5   0  0.1873457E-07  0.3536724E+04  0.7818609E-02  0.8105142E-01
        1   -1    0    0  501    0  0.00000000000E+00  0.00000000000E+00  0.14736754145E+04  0.14736754145E+04  0.50400001928E-02 0. -1.
       -1   -1    0    0    0  501  0.00000000000E+00  0.00000000000E+00 -0.21219765320E+04  0.21219765320E+04  0.50400001928E-02 0.  1.
    10030    2    1    2    0    0  0.00000000000E+00  0.00000000000E+00 -0.64830111749E+03  0.35956519465E+04  0.35367242728E+04 0.  0.
        3    1    3    3  502    0  0.82718334011E+03  0.70798868586E+03  0.10924879759E+04  0.15424040473E+04  0.10100000352E+00 0. -1.
       -3    1    3    3    0  502 -0.82718334011E+03 -0.70798868586E+03 -0.17407890934E+04  0.20532478992E+04  0.10100000352E+00 0.  1.
</event>
<event>
 5   0  0.5554745E-07  0.3494827E+04  0.7818609E-02  0.8115017E-01
        2   -1    0    0  501    0  0.00000000000E+00  0.00000000000E+00  0.21874957111E+04  0.21874957111E+04  0.25500000920E-02 0. -1.
       -2   -1    0    0    0  501  0.00000000000E+00  0.00000000000E+00 -0.13958676831E+04  0.13958676831E+04  0.25500000920E-02 0.  1.
    10030    2    1    2    0    0  0.00000000000E+00  0.00000000000E+00  0.79162802801E+03  0.35833633941E+04  0.34948273605E+04 0.  0.
        5    1    3    3  502    0  0.16517953400E+04 -0.34375399722E+03 -0.70501759240E+02  0.16886643373E+04  0.46999998093E+01 0. -1.
       -5    1    3    3    0  502 -0.16517953400E+04  0.34375399722E+03  0.86212978725E+03  0.18946990568E+04  0.46999998093E+01 0.  1.
</event>
<event>
 5   0  0.1933647E-07  0.3444584E+04  0.7818609E-02  0.8127050E-01
       -1   -1    0    0    0  501  0.00000000000E+00  0.00000000000E+00  0.35161157033E+04  0.35161157033E+04  0.50400001928E-02 0.  1.
        1   -1    0    0  501    0  0.00000000000E+00  0.00000000000E+00 -0.84362666894E+03  0.84362666895E+03  0.50400001928E-02 0. -1.
    10030    2    1    2    0    0  0.00000000000E+00  0.00000000000E+00  0.26724890344E+04  0.43597423723E+04  0.34445835617E+04 0.  0.
        4    1    3    3  502    0  0.91038251481E+03 -0.11491656555E+04  0.24802050258E+04  0.28811103085E+04  0.12699999809E+01 0.  1.
       -4    1    3    3    0  502 -0.91038251481E+03  0.11491656555E+04  0.19228400853E+03  0.14786320637E+04  0.12699999809E+01 0. -1.
</event>
<event>
 5   0  0.1866421E-07  0.3456812E+04  0.7818609E-02  0.8124102E-01
       -1   -1    0    0    0  501  0.00000000000E+00  0.00000000000E+00  0.16135546811E+04  0.16135546811E+04  0.50400001928E-02 0. -1.
        1   -1    0    0  501    0  0.00000000000E+00  0.00000000000E+00 -0.18514324208E+04  0.18514324208E+04  0.50400001928E-02 0.  1.
    10030    2    1    2    0    0  0.00000000000E+00  0.00000000000E+00 -0.23787773969E+03  0.34649871019E+04  0.34568120859E+04 0.  0.
        1    1    3    3  502    0  0.38032618988E+03 -0.85587550754E+03 -0.15750327060E+04  0.18324570718E+04  0.50400001928E-02 0.  1.
       -1    1    3    3    0  502 -0.38032618988E+03  0.85587550754E+03  0.13371549663E+04  0.16325300300E+04  0.50400001928E-02 0. -1.
</event>
<event>
 5   0  0.1873457E-07  0.3484652E+04  0.7818609E-02  0.8117437E-01
        1   -1    0    0  501    0  0.00000000000E+00  0.00000000000E+00  0.24913496895E+04  0.24913496895E+04  0.50400001928E-02 0. -1.
       -1   -1    0    0    0  501  0.00000000000E+00  0.00000000000E+00 -0.12184959140E+04  0.12184959140E+04  0.50400001928E-02 0.  1.
    10030    2    1    2    0    0  0.00000000000E+00  0.00000000000E+00  0.12728537755E+04  0.37098456036E+04  0.34846517284E+04 0.  0.
        3    1    3    3  502    0  0.96540790835E+03  0.13507270090E+04  0.11989915635E+04  0.20479396138E+04  0.10100000352E+00 0.  1.
       -3    1    3    3    0  502 -0.96540790835E+03 -0.13507270090E+04  0.73862211991E+02  0.16619059898E+04  0.10100000352E+00 0. -1.
</event>
<event>
 5   0  0.5554745E-07  0.3550314E+04  0.7818609E-02  0.8101969E-01
        2   -1    0    0  501    0  0.00000000000E+00  0.00000000000E+00  0.17751469323E+04  0.17751469323E+04  0.25500000920E-02 0.  1.
       -2   -1    0    0    0  501  0.00000000000E+00  0.00000000000E+00 -0.17751667585E+04  0.17751667585E+04  0.25500000920E-02 0. -1.
    10030    2    1    2    0    0  0.00000000000E+00  0.00000000000E+00 -0.19826125769E-01  0.35503136908E+04  0.35503136908E+04 0.  0.
        5    1    3    3  502    0 -0.27032318550E+03 -0.11732341480E+03 -0.17505299294E+04  0.17751666209E+04  0.46999998093E+01 0. -1.
       -5    1    3    3    0  502  0.27032318550E+03  0.11732341480E+03  0.17505101033E+04  0.17751470699E+04  0.46999998093E+01 0.  1.
</event>
<event>
 5   0  0.5573334E-07  0.3437374E+04  0.7818609E-02  0.8128794E-01
       -2   -1    0    0    0  501  0.00000000000E+00  0.00000000000E+00  0.24393269487E+04  0.24393269487E+04  0.25500000920E-02 0.  1.
        2   -1    0    0  501    0  0.00000000000E+00  0.00000000000E+00 -0.12109429600E+04  0.12109429600E+04  0.25500000920E-02 0. -1.
    10030    2    1    2    0    0  0.00000000000E+00  0.00000000000E+00  0.12283839888E+04  0.36502699087E+04  0.34373744607E+04 0.  0.
        4    1    3    3  502    0  0.69825918397E+03  0.14494998973E+04 -0.27614562237E+02  0.16091550631E+04  0.12699999809E+01 0. -1.
       -4    1    3    3    0  502 -0.69825918397E+03 -0.14494998973E+04  0.12559985510E+04  0.20411148456E+04  0.12699999809E+01 0.  1.
</event>
<event>
 5   0  0.1908190E-07  0.3916577E+04  0.7818609E-02  0.8021590E-01
        1   -1    0    0  501    0  0.00000000000E+00  0.00000000000E+00  0.16190095249E+04  0.16190095249E+04  0.50400001928E-02 0. -1.
       -1   -1    0    0    0  501  0.00000000000E+00  0.00000000000E+00 -0.23686671279E+04  0.23686671279E+04  0.50400001928E-02 0.  1.
    10030    2    1    2    0    0  0.00000000000E+00  0.00000000000E+00 -0.74965760304E+03  0.39876766528E+04  0.39165774045E+04 0.  0.
        5    1    3    3  502    0  0.11475768540E+04 -0.60022538507E+03  0.11207375072E+04  0.17126814644E+04  0.46999998093E+01 0. -1.
       -5    1    3    3    0  502 -0.11475768540E+04  0.60022538507E+03 -0.18703951102E+04  0.22749951883E+04  0.46999998093E+01 0.  1.
</event>
<event>
 5   0  0.5573334E-07  0.3512537E+04  0.7818609E-02  0.8110825E-01
       -2   -1    0    0    0  501  0.00000000000E+00  0.00000000000E+00  0.12364022050E+04  0.12364022050E+04  0.25500000920E-02 0.  1.
        2   -1    0    0  501    0  0.00000000000E+00  0.00000000000E+00 -0.24947207127E+04  0.24947207127E+04  0.25500000920E-02 0. -1.
    10030    2    1    2    0    0  0.00000000000E+00  0.00000000000E+00 -0.12583185077E+04  0.37311229177E+04  0.35125365137E+04 0.  0.
        4    1    3    3  502    0 -0.13835549974E+03  0.30447047675E+03 -0.24605848849E+04  0.24832084294E+04  0.12699999809E+01 0. -1.
       -4    1    3    3    0  502  0.13835549974E+03 -0.30447047675E+03  0.12022663772E+04  0.12479144883E+04  0.12699999809E+01 0.  1.
</event>
<event>
 5   0  0.1873457E-07  0.3484864E+04  0.7818609E-02  0.8117386E-01
        1   -1    0    0  501    0  0.00000000000E+00  0.00000000000E+00  0.99590181844E+03  0.99590181846E+03  0.50400001928E-02 0.  1.
       -1   -1    0    0    0  501  0.00000000000E+00  0.00000000000E+00 -0.30485636104E+04  0.30485636104E+04  0.50400001928E-02 0. -1.
    10030    2    1    2    0    0  0.00000000000E+00  0.00000000000E+00 -0.20526617920E+04  0.40444654289E+04  0.34848644412E+04 0.  0.
        3    1    3    3  502    0  0.15126126908E+04 -0.66990145510E+03 -0.39139165673E+03  0.16999860444E+04  0.10100000352E+00 0.  1.
       -3    1    3    3    0  502 -0.15126126908E+04  0.66990145510E+03 -0.16612701353E+04  0.23444793845E+04  0.10100000352E+00 0. -1.
</event>
<event>
 5   0  0.5740827E-07  0.3506907E+04  0.7818609E-02  0.8112155E-01
       -2   -1    0    0    0  501  0.00000000000E+00  0.00000000000E+00  0.33009523778E+04  0.33009523778E+04  0.25500000920E-02 0. -1.
        2   -1    0    0  501    0  0.00000000000E+00  0.00000000000E+00 -0.93142795376E+03  0.93142795376E+03  0.25500000920E-02 0.  1.
    10030    2    1    2    0    0  0.00000000000E+00  0.00000000000E+00  0.23695244240E+04  0.42323803315E+04  0.35069070810E+04 0.  0.
        2    1    3    3  502    0  0.12684964509E+04 -0.12325778125E+01  0.26457799757E+04  0.29341500380E+04  0.25500000920E-02 0. -1.
       -2    1    3    3    0  502 -0.12684964509E+04  0.12325778125E+01 -0.27625555172E+03  0.12982302936E+04  0.25500000920E-02 0.  1.
</event>
<event>
 5   0  0.5707187E-07  0.3503459E+04  0.7818609E-02  0.8112971E-01
        2   -1    0    0  501    0  0.00000000000E+00  0.00000000000E+00  0.16127797358E+04  0.16127797358E+04  0.25500000920E-02 0.  1.
       -2   -1    0    0    0  501  0.00000000000E+00  0.00000000000E+00 -0.19026510267E+04  0.19026510267E+04  0.25500000920E-02 0. -1.
    10030    2    1    2    0    0  0.00000000000E+00  0.00000000000E+00 -0.28987129089E+03  0.35154307625E+04  0.35034594447E+04 0.  0.
        1    1    3    3  502    0 -0.11529023991E+04 -0.11202705743E+04 -0.84327849582E+03  0.18152985218E+04  0.50400001928E-02 0. -1.
       -1    1    3    3    0  502  0.11529023991E+04  0.11202705743E+04  0.55340720493E+03  0.17001322407E+04  0.50400001928E-02 0.  1.
</event>
<event>
 5   0  0.1933647E-07  0.3508795E+04  0.7818609E-02  0.8111709E-01
       -1   -1    0    0    0  501  0.00000000000E+00  0.00000000000E+00  0.29721510250E+04  0.29721510250E+04  0.50400001928E-02 0. -1.
        1   -1    0    0  501    0  0.00000000000E+00  0.00000000000E+00 -0.10355834088E+04  0.10355834088E+04  0.50400001928E-02 0.  1.
    10030    2    1    2    0    0  0.00000000000E+00  0.00000000000E+00  0.19365676162E+04  0.40077344337E+04  0.35087948300E+04 0.  0.
        4    1    3    3  502    0 -0.10121484850E+04 -0.14267794299E+04  0.81604743422E+03  0.19303054486E+04  0.12699999809E+01 0. -1.
       -4    1    3    3    0  502  0.10121484850E+04  0.14267794299E+04  0.11205201820E+04  0.20774289851E+04  0.12699999809E+01 0.  1.
</event>
<event>
 5   0  0.5707187E-07  0.3507967E+04  0.7818609E-02  0.8111904E-01
       -2   -1    0    0    0  501  0.00000000000E+00  0.00000000000E+00  0.10736231824E+04  0.10736231824E+04  0.25500000920E-02 0.  1.
        2   -1    0    0  501    0  0.00000000000E+00  0.00000000000E+00 -0.28654916407E+04  0.28654916407E+04  0.25500000920E-02 0. -1.
    10030    2    1    2    0    0  0.00000000000E+00  0.00000000000E+00 -0.17918684583E+04  0.39391148231E+04  0.35079670776E+04 0.  0.
        1    1    3    3  502    0 -0.14796464986E+04  0.18015186895E+03  0.14216108010E+03  0.14973370461E+04  0.50400001928E-02 0.  1.
       -1    1    3    3    0  502  0.14796464986E+04 -0.18015186895E+03 -0.19340295384E+04  0.24417777770E+04  0.50400001928E-02 0. -1.
</event>
<event>
 5   0  0.1897049E-07  0.3471010E+04  0.7818609E-02  0.8120695E-01
        1   -1    0    0  501    0  0.00000000000E+00  0.00000000000E+00  0.23862787209E+04  0.23862787209E+04  0.50400001928E-02 0.  1.
       -1   -1    0    0    0  501  0.00000000000E+00  0.00000000000E+00 -0.12622072866E+04  0.12622072866E+04  0.50400001928E-02 0. -1.
    10030    2    1    2    0    0  0.00000000000E+00  0.00000000000E+00  0.11240714344E+04  0.36484860075E+04  0.34710104519E+04 0.  0.
        2    1    3    3  502    0  0.14910887345E+04  0.13021570115E+03 -0.36133148025E+03  0.15397604299E+04  0.25500000920E-02 0. -1.
       -2    1    3    3    0  502 -0.14910887345E+04 -0.13021570115E+03  0.14854029146E+04  0.21087255776E+04  0.25500000920E-02 0.  1.
</event>
<event>
 5   0  0.5573334E-07  0.3482325E+04  0.7818609E-02  0.8117992E-01
        2   -1    0    0  501    0  0.00000000000E+00  0.00000000000E+00  0.10995835225E+04  0.10995835225E+04  0.25500000920E-02 0.  1.
       -2   -1    0    0    0  501  0.00000000000E+00  0.00000000000E+00 -0.27570861736E+04  0.27570861736E+04  0.25500000920E-02 0. -1.
    10030    2    1    2    0    0  0.00000000000E+00  0.00000000000E+00 -0.16575026511E+04  0.38566696960E+04  0.34823248134E+04 0.  0.
        4    1    3    3  502    0 -0.14018579849E+03 -0.15341432317E+04 -0.17273943790E+04  0.23145497331E+04  0.12699999809E+01 0. -1.
       -4    1    3    3    0  502  0.14018579849E+03  0.15341432317E+04  0.69891727863E+02  0.15421199629E+04  0.12699999809E+01 0.  1.
</event>
<event>
 5   0  0.5677193E-07  0.3491160E+04  0.7818609E-02  0.8115888E-01
       -2   -1    0    0    0  501  0.00000000000E+00  0.00000000000E+00  0.12360199802E+04  0.12360199802E+04  0.25500000920E-02 0.  1.
        2   -1    0    0  501    0  0.00000000000E+00  0.00000000000E+00 -0.24652101096E+04  0.24652101096E+04  0.25500000920E-02 0. -1.
    10030    2    1    2    0    0  0.00000000000E+00  0.00000000000E+00 -0.12291901294E+04  0.37012300898E+04  0.34911596646E+04 0.  0.
        3    1    3    3  502    0  0.11216409543E+04  0.27034529637E+03  0.77414295845E+03  0.13894107887E+04  0.10100000352E+00 0.  1.
       -3    1    3    3    0  502 -0.11216409543E+04 -0.27034529637E+03 -0.20033330879E+04  0.23118193011E+04  0.10100000352E+00 0. -1.
</event>
<event>
 5   0  0.1897049E-07  0.3308438E+04  0.7818609E-02  0.8160752E-01
        1   -1    0    0  501    0  0.00000000000E+00  0.00000000000E+00  0.21109262677E+04  0.21109262678E+04  0.50400001928E-02 0.  1.
       -1   -1    0    0    0  501  0.00000000000E+00  0.00000000000E+00 -0.12963225135E+04  0.12963225135E+04  0.50400001928E-02 0. -1.
    10030    2    1    2    0    0  0.00000000000E+00  0.00000000000E+00  0.81460375424E+03  0.34072487813E+04  0.33084384505E+04 0.  0.
        2    1    3    3  502    0 -0.48715357915E+03  0.10848371867E+03  0.20315395426E+04  0.20919465194E+04  0.25500000920E-02 0.  1.
       -2    1    3    3    0  502  0.48715357915E+03 -0.10848371867E+03 -0.12169357884E+04  0.13153022618E+04  0.25500000920E-02 0. -1.
</event>
<event>
 5   0  0.1933647E-07  0.3515549E+04  0.7818609E-02  0.8110115E-01
        1   -1    0    0  501    0  0.00000000000E+00  0.00000000000E+00  0.21113949270E+04  0.21113949270E+04  0.50400001928E-02 0. -1.
       -1   -1    0    0    0  501  0.00000000000E+00  0.00000000000E+00 -0.14633791539E+04  0.14633791539E+04  0.50400001928E-02 0.  1.
    10030    2    1    2    0    0  0.00000000000E+00  0.00000000000E+00  0.64801577313E+03  0.35747740809E+04  0.35155490733E+04 0.  0.
        4    1    3    3  502    0  0.77084394096E+03 -0.58393000667E+03 -0.11685743447E+04  0.15168197803E+04  0.12699999809E+01 0.  1.
       -4    1    3    3    0  502 -0.77084394096E+03  0.58393000667E+03  0.18165901178E+04  0.20579543005E+04  0.12699999809E+01 0. -1.
</event>
<event>
 5   0  0.1873457E-07  0.3489665E+04  0.7818609E-02  0.8116244E-01
       -1   -1    0    0    0  501  0.00000000000E+00  0.00000000000E+00  0.17222520817E+04  0.17222520817E+04  0.50400001928E-02 0.  1.
        1   -1    0    0  501    0  0.00000000000E+00  0.00000000000E+00 -0.17677086450E+04  0.17677086450E+04  0.50400001928E-02 0. -1.
    10030    2    1    2    0    0  0.00000000000E+00  0.00000000000E+00 -0.45456563271E+02  0.34899607267E+04  0.34896646795E+04 0.  0.
        3    1    3    3  502    0  0.86809138547E+03  0.13010535013E+04  0.75071758204E+03  0.17349062698E+04  0.10100000352E+00 0.  1.
       -3    1    3    3    0  502 -0.86809138547E+03 -0.13010535013E+04 -0.79617414531E+03  0.17550544569E+04  0.10100000352E+00 0. -1.
</event>
<event>
 5   0  0.1873457E-07  0.3505443E+04  0.7818609E-02  0.8112501E-01
       -1   -1    0    0    0  501  0.00000000000E+00  0.00000000000E+00  0.10871379836E+04  0.10871379836E+04  0.50400001928E-02 0.  1.
        1   -1    0    0  501    0  0.00000000000E+00  0.00000000000E+00 -0.28257981033E+04  0.28257981033E+04  0.50400001928E-02 0. -1.
    10030    2    1    2    0    0  0.00000000000E+00  0.00000000000E+00 -0.17386601198E+04  0.39129360869E+04  0.35054428834E+04 0.  0.
        3    1    3    3  502    0  0.69152482065E+03  0.15815537317E+04 -0.12088480456E+04  0.21073282591E+04  0.10100000352E+00 0. -1.
       -3    1    3    3    0  502 -0.69152482065E+03 -0.15815537317E+04 -0.52981207413E+03  0.18056078279E+04  0.10100000352E+00 0.  1.
</event>
<event>
 5   0  0.5707187E-07  0.3443354E+04  0.7818609E-02  0.8127347E-01
       -2   -1    0    0    0  501  0.00000000000E+00  0.00000000000E+00  0.11258095492E+04  0.11258095492E+04  0.25500000920E-02 0.  1.
        2   -1    0    0  501    0  0.00000000000E+00  0.00000000000E+00 -0.26329243099E+04  0.26329243099E+04  0.25500000920E-02 0. -1.
    10030    2    1    2    0    0  0.00000000000E+00  0.00000000000E+00 -0.15071147607E+04  0.37587338592E+04  0.34433537899E+04 0.  0.
        1    1    3    3  502    0 -0.20312889394E+03 -0.48096037153E+03  0.10373129797E+04  0.11612934359E+04  0.50400001928E-02 0.  1.
       -1    1    3    3    0  502  0.20312889394E+03  0.48096037153E+03 -0.25444277403E+04  0.25974404232E+04  0.50400001928E-02 0. -1.
</event>
<event>
 5   0  0.5554745E-07  0.3484650E+04  0.7818609E-02  0.8117437E-01
        2   -1    0    0  501    0  0.00000000000E+00  0.00000000000E+00  0.11439280537E+04  0.11439280537E+04  0.25500000920E-02 0.  1.
       -2   -1    0    0    0  501  0.00000000000E+00  0.00000000000E+00 -0.26537482062E+04  0.26537482062E+04  0.25500000920E-02 0. -1.
    10030    2    1    2    0    0  0.00000000000E+00  0.00000000000E+00 -0.15098201525E+04  0.37976762598E+04  0.34846503528E+04 0.  0.
        5    1    3    3  502    0 -0.15547295874E+02  0.18716054517E+03 -0.26426780331E+04  0.26493471016E+04  0.46999998093E+01 0. -1.
       -5    1    3    3    0  502  0.15547295874E+02 -0.18716054517E+03  0.11328578806E+04  0.11483291582E+04  0.46999998093E+01 0.  1.
</event>
<event>
 5   0  0.5740827E-07  0.3493825E+04  0.7818609E-02  0.8115255E-01
       -2   -1    0    0    0  501  0.00000000000E+00  0.00000000000E+00  0.12192604040E+04  0.12192604040E+04  0.25500000920E-02 0. -1.
        2   -1    0    0  501    0  0.00000000000E+00  0.00000000000E+00 -0.25029131571E+04  0.25029131571E+04  0.25500000920E-02 0.  1.
    10030    2    1    2    0    0  0.00000000000E+00  0.00000000000E+00 -0.12836527531E+04  0.37221735612E+04  0.34938247851E+04 0.  0.
        2    1    3    3  502    0 -0.53204156508E+03 -0.15637568786E+04 -0.36070341357E+02  0.16521818519E+04  0.25500000920E-02 0.  1.
       -2    1    3    3    0  502  0.53204156508E+03  0.15637568786E+04 -0.12475824118E+04  0.20699917093E+04  0.25500000920E-02 0. -1.
</event>
<event>
 5   0  0.1873457E-07  0.3472946E+04  0.7818609E-02  0.8120231E-01
        1   -1    0    0  501    0  0.00000000000E+00  0.00000000000E+00  0.16305450444E+04  0.16305450444E+04  0.50400001928E-02 0.  1.
       -1   -1    0    0    0  501  0.00000000000E+00  0.00000000000E+00 -0.18492826782E+04  0.18492826782E+04  0.50400001928E-02 0. -1.
    10030    2    1    2    0    0  0.00000000000E+00  0.00000000000E+00 -0.21873763375E+03  0.34798277226E+04  0.34729461307E+04 0.  0.
        3    1    3    3  502    0 -0.39702263842E+03 -0.16767720366E+04  0.10587597378E+03  0.17263838420E+04  0.10100000352E+00 0. -1.
       -3    1    3    3    0  502  0.39702263842E+03  0.16767720366E+04 -0.32461360753E+03  0.17534438806E+04  0.10100000352E+00 0.  1.
</event>
<event>
 5   0  0.5740827E-07  0.3508412E+04  0.7818609E-02  0.8111799E-01
       -2   -1    0    0    0  501  0.00000000000E+00  0.00000000000E+00  0.15167685599E+04  0.15167685599E+04  0.25500000920E-02 0.  1.
        2   -1    0    0  501    0  0.00000000000E+00  0.00000000000E+00 -0.20288124073E+04  0.20288124073E+04  0.25500000920E-02 0. -1.
    10030    2    1    2    0    0  0.00000000000E+00  0.00000000000E+00 -0.51204384741E+03  0.35455809673E+04  0.35084121043E+04 0.  0.
        2    1    3    3  502    0 -0.11190717202E+04 -0.35778674790E+03 -0.15724759574E+04  0.19629094499E+04  0.25500000920E-02 0. -1.
       -2    1    3    3    0  502  0.11190717202E+04  0.35778674790E+03  0.10604321100E+04  0.15826715174E+04  0.25500000920E-02 0.  1.
</event>
<event>
 5   0  0.1866421E-07  0.3474362E+04  0.7818609E-02  0.8119893E-01
       -1   -1    0    0    0  501  0.00000000000E+00  0.00000000000E+00  0.16075480025E+04  0.16075480025E+04  0.50400001928E-02 0.  1.
        1   -1    0    0  501    0  0.00000000000E+00  0.00000000000E+00 -0.18772676667E+04  0.18772676667E+04  0.50400001928E-02 0. -1.
    10030    2    1    2    0    0  0.00000000000E+00  0.00000000000E+00 -0.26971966420E+03  0.34848156693E+04  0.34743620352E+04 0.  0.
        1    1    3    3  502    0  0.61186992928E+03 -0.14554985803E+04 -0.86156511298E+03  0.17986537664E+04  0.50400001928E-02 0. -1.
       -1    1    3    3    0  502 -0.61186992928E+03  0.14554985803E+04  0.59184544878E+03  0.16861619029E+04  0.50400001928E-02 0.  1.
</event>
<event>
 5   0  0.1908190E-07  0.3463933E+04  0.7818609E-02  0.8122391E-01
        1   -1    0    0  501    0  0.00000000000E+00  0.00000000000E+00  0.14793559460E+04  0.14793559460E+04  0.50400001928E-02 0.  1.
       -1   -1    0    0    0  501  0.00000000000E+00  0.00000000000E+00 -0.20277120697E+04  0.20277120697E+04  0.50400001928E-02 0. -1.
    10030    2    1    2    0    0  0.00000000000E+00  0.00000000000E+00 -0.54835612368E+03  0.35070680156E+04  0.34639329711E+04 0.  0.
        5    1    3    3  502    0 -0.68079005164E+03  0.99163962934E+03  0.98747829396E+03  0.15562646690E+04  0.46999998093E+01 0.  1.
       -5    1    3    3    0  502  0.68079005164E+03 -0.99163962934E+03 -0.15358344176E+04  0.19508033467E+04  0.46999998093E+01 0. -1.
</event>
<event>
 5   0  0.5573334E-07  0.3520468E+04  0.7818609E-02  0.8108956E-01
        2   -1    0    0  501    0  0.00000000000E+00  0.00000000000E+00  0.18912546961E+04  0.18912546961E+04  0.25500000920E-02 0. -1.
       -2   -1    0    0    0  501  0.00000000000E+00  0.00000000000E+00 -0.16382903852E+04  0.16382903852E+04  0.25500000920E-02 0.  1.
    10030    2    1    2    0    0  0.00000000000E+00  0.00000000000E+00  0.25296431089E+03  0.35295450813E+04  0.35204683691E+04 0.  0.
        4    1    3    3  502    0  0.10017714332E+04  0.40002100321E+03 -0.12680966349E+04  0.16648223616E+04  0.12699999809E+01 0.  1.
       -4    1    3    3    0  502 -0.10017714332E+04 -0.40002100321E+03  0.15210609458E+04  0.18647227196E+04  0.12699999809E+01 0. -1.
</event>
<event>
 5   0  0.1873457E-07  0.3509950E+04  0.7818609E-02  0.8111436E-01
        1   -1    0    0  501    0  0.00000000000E+00  0.00000000000E+00  0.87981140151E+03  0.87981140153E+03  0.50400001928E-02 0. -1.
       -1   -1    0    0    0  501  0.00000000000E+00  0.00000000000E+00 -0.35006795983E+04  0.35006795983E+04  0.50400001928E-02 0.  1.
    10030    2    1    2    0    0  0.00000000000E+00  0.00000000000E+00 -0.26208681967E+04  0.43804909998E+04  0.35099503265E+04 0.  0.
        3    1    3    3  502    0 -0.10344467833E+04  0.25664045278E+03  0.42964587554E+03  0.11491475354E+04  0.10100000352E+00 0. -1.
       -3    1    3    3    0  502  0.10344467833E+04 -0.25664045278E+03 -0.30505140723E+04  0.32313434644E+04  0.10100000352E+00 0.  1.
</event>
<event>
 5   0  0.1866421E-07  0.3482946E+04  0.7818609E-02  0.8117843E-01
       -1   -1    0    0    0  501  0.00000000000E+00  0.00000000000E+00  0.99293114101E+03  0.99293114102E+03  0.50400001928E-02 0.  1.
        1   -1    0    0  501    0  0.00000000000E+00  0.00000000000E+00 -0.30543194625E+04  0.30543194625E+04  0.50400001928E-02 0. -1.
    10030    2    1    2    0    0  0.00000000000E+00  0.00000000000E+00 -0.20613883215E+04  0.40472506036E+04  0.34829464015E+04 0.  0.
        1    1    3    3  502    0 -0.93207441380E+03  0.49378953442E+03  0.57950478107E+03  0.12035018108E+04  0.50400001928E-02 0.  1.
       -1    1    3    3    0  502  0.93207441380E+03 -0.49378953442E+03 -0.26408931026E+04  0.28437487928E+04  0.50400001928E-02 0. -1.
</event>
<event>
 5   0  0.1897049E-07  0.3481384E+04  0.7818609E-02  0.8118216E-01
       -1   -1    0    0    0  501  0.00000000000E+00  0.00000000000E+00  0.12866367858E+04  0.12866367858E+04  0.50400001928E-02 0.  1.
        1   -1    0    0  501    0  0.00000000000E+00  0.00000000000E+00 -0.23549841955E+04  0.23549841955E+04  0.50400001928E-02 0. -1.
    10030    2    1    2    0    0  0.00000000000E+00  0.00000000000E+00 -0.10683474097E+04  0.36416209813E+04  0.34813843775E+04 0.  0.
        2    1    3    3  502    0  0.50704261149E+03  0.25391323822E+03 -0.22556569066E+04  0.23258444107E+04  0.25500000920E-02 0. -1.
       -2    1    3    3    0  502 -0.50704261149E+03 -0.25391323822E+03  0.11873094969E+04  0.13157765706E+04  0.25500000920E-02 0.  1.
</event>
<event>
 5   0  0.1933647E-07  0.3516504E+04  0.7818609E-02  0.8109890E-01
        1   -1    0    0  501    0  0.00000000000E+00  0.00000000000E+00  0.19147882986E+04  0.19147882986E+04  0.50400001928E-02 0.  1.
       -1   -1    0    0    0  501  0.00000000000E+00  0.00000000000E+00 -0.16145131111E+04  0.16145131111E+04  0.50400001928E-02 0. -1.
    10030    2    1    2    0    0  0.00000000000E+00  0.00000000000E+00  0.30027518748E+03  0.35293014098E+04  0.35165044082E+04 0.  0.
        4    1    3    3  502    0 -0.37290713829E+03  0.28656924329E+02 -0.15741273486E+04  0.16179491573E+04  0.12699999809E+01 0. -1.
       -4    1    3    3    0  502  0.37290713829E+03 -0.28656924329E+02  0.18744025361E+04  0.19113522525E+04  0.12699999809E+01 0.  1.
</event>
<event>
 5   0  0.1823000E-07  0.3436707E+04  0.7818609E-02  0.8128956E-01
       -3   -1    0    0    0  501  0.00000000000E+00  0.00000000000E+00  0.15263121640E+04  0.15263121673E+04  0.10100000352E+00 0. -1.
        3   -1    0    0  501    0  0.00000000000E+00  0.00000000000E+00 -0.19345571977E+04  0.19345572004E+04  0.10100000352E+00 0.  1.
    10030    2    1    2    0    0  0.00000000000E+00  0.00000000000E+00 -0.40824503374E+03  0.34608693677E+04  0.34367066754E+04 0.  0.
        1    1    3    3  502    0 -0.11574441119E+04  0.12688791565E+04 -0.14890079163E+03  0.17239207150E+04  0.50400001928E-02 0. -1.
       -1    1    3    3    0  502  0.11574441119E+04 -0.12688791565E+04 -0.25934424211E+03  0.17369486526E+04  0.50400001928E-02 0.  1.
</event>
<event>
 5   0  0.5707187E-07  0.3499531E+04  0.7818609E-02  0.8113901E-01
       -2   -1    0    0    0  501  0.00000000000E+00  0.00000000000E+00  0.14668782457E+04  0.14668782457E+04  0.25500000920E-02 0. -1.
        2   -1    0    0  501    0  0.00000000000E+00  0.00000000000E+00 -0.20872073881E+04  0.20872073881E+04  0.25500000920E-02 0.  1.
    10030    2    1    2    0    0  0.00000000000E+00  0.00000000000E+00 -0.62032914239E+03  0.35540856339E+04  0.34995308897E+04 0.  0.
        1    1    3    3  502    0 -0.56504075608E+03 -0.13523885553E+04  0.66048221162E+03  0.16076263908E+04  0.50400001928E-02 0. -1.
       -1    1    3    3    0  502  0.56504075608E+03  0.13523885553E+04 -0.12808113540E+04  0.19464592431E+04  0.50400001928E-02 0.  1.
</event>
<event>
 5   0  0.1897049E-07  0.3569638E+04  0.7818609E-02  0.8097482E-01
       -1   -1    0    0    0  501  0.00000000000E+00  0.00000000000E+00  0.18092059035E+04  0.18092059035E+04  0.50400001928E-02 0. -1.
        1   -1    0    0  501    0  0.00000000000E+00  0.00000000000E+00 -0.17607608146E+04  0.17607608146E+04  0.50400001928E-02 0.  1.
    10030    2    1    2    0    0  0.00000000000E+00  0.00000000000E+00  0.48445088950E+02  0.35699667181E+04  0.35696379987E+04 0.  0.
        2    1    3    3  502    0  0.14945018717E+04  0.95114155988E+03 -0.19345031616E+03  0.17820294993E+04  0.25500000920E-02 0. -1.
       -2    1    3    3    0  502 -0.14945018717E+04 -0.95114155988E+03  0.24189540511E+03  0.17879372189E+04  0.25500000920E-02 0.  1.
</event>
<event>
 5   0  0.5677193E-07  0.3499721E+04  0.7818609E-02  0.8113856E-01
       -2   -1    0    0    0  501  0.00000000000E+00  0.00000000000E+00  0.14004537276E+04  0.14004537276E+04  0.25500000920E-02 0.  1.
        2   -1    0    0  501    0  0.00000000000E+00  0.00000000000E+00 -0.21864432558E+04  0.21864432558E+04  0.25500000920E-02 0. -1.
    10030    2    1    2    0    0  0.00000000000E+00  0.00000000000E+00 -0.78598952815E+03  0.35868969834E+04  0.34997214790E+04 0.  0.
        3    1    3    3  502    0 -0.91439657311E+02  0.61598888016E+03 -0.20690298308E+04  0.21607146879E+04  0.10100000352E+00 0. -1.
       -3    1    3    3    0  502  0.91439657311E+02 -0.61598888016E+03  0.12830403027E+04  0.14261822955E+04  0.10100000352E+00 0.  1.
</event>
<event>
 5   0  0.1933647E-07  0.3474510E+04  0.7818609E-02  0.8119857E-01
       -1   -1    0    0    0  501  0.00000000000E+00  0.00000000000E+00  0.17939860901E+04  0.17939860901E+04  0.50400001928E-02 0. -1.
        1   -1    0    0  501    0  0.00000000000E+00  0.00000000000E+00 -0.16823177262E+04  0.16823177262E+04  0.50400001928E-02 0.  1.
    10030    2    1    2    0    0  0.00000000000E+00  0.00000000000E+00  0.11166836390E+03  0.34763038163E+04  0.34745098071E+04 0.  0.
        4    1    3    3  502    0  0.50308965667E+03  0.19846741380E+03  0.17076149793E+04  0.17912116144E+04  0.12699999809E+01 0. -1.
       -4    1    3    3    0  502 -0.50308965667E+03 -0.19846741380E+03 -0.15959466154E+04  0.16850922019E+04  0.12699999809E+01 0.  1.
</event>
<event>
 5   0  0.5707187E-07  0.3465206E+04  0.7818609E-02  0.8122085E-01
        2   -1    0    0  501    0  0.00000000000E+00  0.00000000000E+00  0.22306090335E+04  0.22306090335E+04  0.25500000920E-02 0. -1.
       -2   -1    0    0    0  501  0.00000000000E+00  0.00000000000E+00 -0.13457819778E+04  0.13457819778E+04  0.25500000920E-02 0.  1.
    10030    2    1    2    0    0  0.00000000000E+00  0.00000000000E+00  0.88482705568E+03  0.35763910113E+04  0.34652061623E+04 0.  0.
        1    1    3    3  502    0 -0.10788133264E+04  0.97343299474E+03  0.14163569290E+04  0.20291567063E+04  0.50400001928E-02 0. -1.
       -1    1    3    3    0  502  0.10788133264E+04 -0.97343299474E+03 -0.53152987329E+03  0.15472343050E+04  0.50400001928E-02 0.  1.
</event>
<event>
 5   0  0.1873457E-07  0.3490608E+04  0.7818609E-02  0.8116019E-01
        1   -1    0    0  501    0  0.00000000000E+00  0.00000000000E+00  0.22692770681E+04  0.22692770682E+04  0.50400001928E-02 0. -1.
       -1   -1    0    0    0  501  0.00000000000E+00  0.00000000000E+00 -0.13423154447E+04  0.13423154447E+04  0.50400001928E-02 0.  1.
    10030    2    1    2    0    0  0.00000000000E+00  0.00000000000E+00  0.92696162348E+03  0.36115925128E+04  0.34906077733E+04 0.  0.
        3    1    3    3  502    0 -0.58247715868E+03 -0.93707779894E+03  0.18626424220E+04  0.21649090614E+04  0.10100000352E+00 0. -1.
       -3    1    3    3    0  502  0.58247715868E+03  0.93707779894E+03 -0.93568079854E+03  0.14466834514E+04  0.10100000352E+00 0.  1.
</event>
<event>
 5   0  0.5573334E-07  0.3486133E+04  0.7818609E-02  0.8117084E-01
        2   -1    0    0  501    0  0.00000000000E+00  0.00000000000E+00  0.16654631394E+04  0.16654631394E+04  0.25500000920E-02 0.  1.
       -2   -1    0    0    0  501  0.00000000000E+00  0.00000000000E+00 -0.18242854389E+04  0.18242854389E+04  0.25500000920E-02 0. -1.
    10030    2    1    2    0    0  0.00000000000E+00  0.00000000000E+00 -0.15882229949E+03  0.34897485783E+04  0.34861326161E+04 0.  0.
        4    1    3    3  502    0  0.46623627713E+03  0.16558290701E+04  0.20218538772E+03  0.17320585207E+04  0.12699999809E+01 0.  1.
       -4    1    3    3    0  502 -0.46623627713E+03 -0.16558290701E+04 -0.36100768721E+03  0.17576900576E+04  0.12699999809E+01 0. -1.
</event>
<event>
 5   0  0.5573334E-07  0.3495175E+04  0.7818609E-02  0.8114934E-01
        2   -1    0    0  501    0  0.00000000000E+00  0.00000000000E+00  0.18154809851E+04  0.18154809851E+04  0.25500000920E-02 0. -1.
       -2   -1    0    0    0  501  0.00000000000E+00  0.00000000000E+00 -0.16822334342E+04  0.16822334342E+04  0.25500000920E-02 0.  1.
    10030    2    1    2    0    0  0.00000000000E+00  0.00000000000E+00  0.13324755089E+03  0.34977144193E+04  0.34951754247E+04 0.  0.
        4    1    3    3  502    0 -0.19441201597E+03 -0.16803797146E+04 -0.37254485759E+03  0.17321268144E+04  0.12699999809E+01 0.  1.
       -4    1    3    3    0  502  0.19441201597E+03  0.16803797146E+04  0.50579240848E+03  0.17655876049E+04  0.12699999809E+01 0. -1.
</event>
<event>
 5   0  0.5554745E-07  0.3498727E+04  0.7818609E-02  0.8114092E-01
       -2   -1    0    0    0  501  0.00000000000E+00  0.00000000000E+00  0.17853755477E+04  0.17853755477E+04  0.25500000920E-02 0.  1.
        2   -1    0    0  501    0  0.00000000000E+00  0.00000000000E+00 -0.17140777791E+04  0.17140777791E+04  0.25500000920E-02 0. -1.
    10030    2    1    2    0    0  0.00000000000E+00  0.00000000000E+00  0.71297768550E+02  0.34994533268E+04  0.34987269420E+04 0.  0.
        5    1    3    3  502    0 -0.14945576929E+04 -0.50489192257E+03 -0.72057151683E+03  0.17343194492E+04  0.46999998093E+01 0. -1.
       -5    1    3    3    0  502  0.14945576929E+04  0.50489192257E+03  0.79186928538E+03  0.17651338776E+04  0.46999998093E+01 0.  1.
</event>
<event>
 5   0  0.5740827E-07  0.3507176E+04  0.7818609E-02  0.8112091E-01
        2   -1    0    0  501    0  0.00000000000E+00  0.00000000000E+00  0.17865727911E+04  0.17865727911E+04  0.25500000920E-02 0.  1.
       -2   -1    0    0    0  501  0.00000000000E+00  0.00000000000E+00 -0.17212123643E+04  0.17212123643E+04  0.25500000920E-02 0. -1.
    10030    2    1    2    0    0  0.00000000000E+00  0.00000000000E+00  0.65360426813E+02  0.35077851554E+04  0.35071761734E+04 0.  0.
        2    1    3    3  502    0  0.12600763623E+04 -0.12190301516E+04 -0.25995351203E+01  0.17532352115E+04  0.25500000920E-02 0. -1.
       -2    1    3    3    0  502 -0.12600763623E+04  0.12190301516E+04  0.67959961933E+02  0.17545499439E+04  0.25500000920E-02 0.  1.
</event>
<event>
 5   0  0.5677193E-07  0.3510823E+04  0.7818609E-02  0.8111230E-01
        2   -1    0    0  501    0  0.00000000000E+00  0.00000000000E+00  0.20071128037E+04  0.20071128037E+04  0.25500000920E-02 0.  1.
       -2   -1    0    0    0  501  0.00000000000E+00  0.00000000000E+00 -0.15352743337E+04  0.15352743337E+04  0.25500000920E-02 0. -1.
    10030    2    1    2    0    0  0.00000000000E+00  0.00000000000E+00  0.47183846998E+03  0.35423871374E+04  0.35108225659E+04 0.  0.
        3    1    3    3  502    0  0.24971025250E+03 -0.16499499855E+03  0.19811785590E+04  0.20036584172E+04  0.10100000352E+00 0.  1.
       -3    1    3    3    0  502 -0.24971025250E+03  0.16499499855E+03 -0.15093400891E+04  0.15387287202E+04  0.10100000352E+00 0. -1.
</event>
<event>
 5   0  0.5677193E-07  0.3575362E+04  0.7818609E-02  0.8096159E-01
       -2   -1    0    0    0  501  0.00000000000E+00  0.00000000000E+00  0.23142348367E+04  0.23142348367E+04  0.25500000920E-02 0. -1.
        2   -1    0    0  501    0  0.00000000000E+00  0.00000000000E+00 -0.13809329164E+04  0.13809329164E+04  0.25500000920E-02 0.  1.
    10030    2    1    2    0    0  0.00000000000E+00  0.00000000000E+00  0.93330192030E+03  0.36951677531E+04  0.35753618347E+04 0.  0.
        3    1    3    3  502    0  0.65393867112E+03 -0.10082338252E+04 -0.90118989836E+03  0.15021033503E+04  0.10100000352E+00 0.  1.
       -3    1    3    3    0  502 -0.65393867112E+03  0.10082338252E+04  0.18344918187E+04  0.21930644028E+04  0.10100000352E+00 0. -1.
</event>
<event>
 5   0  0.5740827E-07  0.3531840E+04  0.7818609E-02  0.8106285E-01
        2   -1    0    0  501    0  0.00000000000E+00  0.00000000000E+00  0.16607753392E+04  0.16607753392E+04  0.25500000920E-02 0.  1.
       -2   -1    0    0    0  501  0.00000000000E+00  0.00000000000E+00 -0.18777218020E+04  0.18777218021E+04  0.25500000920E-02 0. -1.
    10030    2    1    2    0    0  0.00000000000E+00  0.00000000000E+00 -0.21694646286E+03  0.35384971412E+04  0.35318403490E+04 0.  0.
        2    1    3    3  502    0  0.16746641651E+04  0.55817951423E+03 -0.59292761045E+02  0.17662332993E+04  0.25500000920E-02 0.  1.
       -2    1    3    3    0  502 -0.16746641651E+04 -0.55817951423E+03 -0.15765370182E+03  0.17722638420E+04  0.25500000920E-02 0. -1.
</event>
<event>
 5   0  0.5554745E-07  0.3492941E+04  0.7818609E-02  0.8115465E-01
        2   -1    0    0  501    0  0.00000000000E+00  0.00000000000E+00  0.11069793987E+04  0.11069793987E+04  0.25500000920E-02 0.  1.
       -2   -1    0    0    0  501  0.00000000000E+00  0.00000000000E+00 -0.27553892532E+04  0.27553892532E+04  0.25500000920E-02 0. -1.
    10030    2    1    2    0    0  0.00000000000E+00  0.00000000000E+00 -0.16484098544E+04  0.38623686519E+04  0.34929409607E+04 0.  0.
        5    1    3    3  502    0  0.93250906799E+03  0.10757454319E+03 -0.24527186181E+04  0.26262132727E+04  0.46999998093E+01 0. -1.
       -5    1    3    3    0  502 -0.93250906799E+03 -0.10757454319E+03  0.80430876364E+03  0.12361553792E+04  0.46999998093E+01 0.  1.
</event>
<event>
 5   0  0.5677193E-07  0.3507272E+04  0.7818609E-02  0.8112069E-01
       -2   -1    0    0    0  501  0.00000000000E+00  0.00000000000E+00  0.13275178773E+04  0.13275178773E+04  0.25500000920E-02 0.  1.
        2   -1    0    0  501    0  0.00000000000E+00  0.00000000000E+00 -0.23165329288E+04  0.23165329288E+04  0.25500000920E-02 0. -1.
    10030    2    1    2    0    0  0.00000000000E+00  0.00000000000E+00 -0.98901505153E+03  0.36440508061E+04  0.35072718038E+04 0.  0.
        3    1    3    3  502    0 -0.54760666951E+03 -0.35234324867E+03 -0.21862641521E+04  0.22811772799E+04  0.10100000352E+00 0. -1.
       -3    1    3    3    0  502  0.54760666951E+03  0.35234324867E+03  0.11972491006E+04  0.13628735262E+04  0.10100000352E+00 0.  1.
</event>
<event>
 5   0  0.1866421E-07  0.3485222E+04  0.7818609E-02  0.8117301E-01
       -1   -1    0    0    0  501  0.00000000000E+00  0.00000000000E+00  0.17383862135E+04  0.17383862135E+04  0.50400001928E-02 0.  1.
        1   -1    0    0  501    0  0.00000000000E+00  0.00000000000E+00 -0.17468460849E+04  0.17468460849E+04  0.50400001928E-02 0. -1.
    10030    2    1    2    0    0  0.00000000000E+00  0.00000000000E+00 -0.84598714172E+01  0.34852322984E+04  0.34852220308E+04 0.  0.
        1    1    3    3  502    0  0.21255556416E+03 -0.18315788837E+03 -0.17241089720E+04  0.17467908940E+04  0.50400001928E-02 0. -1.
       -1    1    3    3    0  502 -0.21255556416E+03  0.18315788837E+03  0.17156491006E+04  0.17384414044E+04  0.50400001928E-02 0.  1.
</event>
<event>
 5   0  0.5707187E-07  0.3511328E+04  0.7818609E-02  0.8111110E-01
       -2   -1    0    0    0  501  0.00000000000E+00  0.00000000000E+00  0.18187527796E+04  0.18187527796E+04  0.25500000920E-02 0. -1.
        2   -1    0    0  501    0  0.00000000000E+00  0.00000000000E+00 -0.16947640815E+04  0.16947640815E+04  0.25500000920E-02 0.  1.
    10030    2    1    2    0    0  0.00000000000E+00  0.00000000000E+00  0.12398869810E+03  0.35135168610E+04  0.35113284574E+04 0.  0.
        1    1    3    3  502    0  0.10096821108E+04  0.13284241570E+04 -0.48441207474E+03  0.17374762629E+04  0.50400001928E-02 0.  1.
       -1    1    3    3    0  502 -0.10096821108E+04 -0.13284241570E+04  0.60840077285E+03  0.17760405982E+04  0.50400001928E-02 0. -1.
</event>
<event>
 5   0  0.5740827E-07  0.3496658E+04  0.7818609E-02  0.8114582E-01
        2   -1    0    0  501    0  0.00000000000E+00  0.00000000000E+00  0.15412386135E+04  0.15412386135E+04  0.25500000920E-02 0.  1.
       -2   -1    0    0    0  501  0.00000000000E+00  0.00000000000E+00 -0.19832456889E+04  0.19832456889E+04  0.25500000920E-02 0. -1.
    10030    2    1    2    0    0  0.00000000000E+00  0.00000000000E+00 -0.44200707548E+03  0.35244843024E+04  0.34966583109E+04 0.  0.
        2    1    3    3  502    0 -0.10249931794E+04 -0.67253776063E+03  0.10354056627E+04  0.16046753390E+04  0.25500000920E-02 0.  1.
       -2    1    3    3    0  502  0.10249931794E+04  0.67253776063E+03 -0.14774127382E+04  0.19198089634E+04  0.25500000920E-02 0. -1.
</event>
<event>
 5   0  0.1897049E-07  0.3593857E+04  0.7818609E-02  0.8091900E-01
        1   -1    0    0  501    0  0.00000000000E+00  0.00000000000E+00  0.16312445403E+04  0.16312445403E+04  0.50400001928E-02 0.  1.
       -1   -1    0    0    0  501  0.00000000000E+00  0.00000000000E+00 -0.19794406254E+04  0.19794406255E+04  0.50400001928E-02 0. -1.
    10030    2    1    2    0    0  0.00000000000E+00  0.00000000000E+00 -0.34819608517E+03  0.36106851657E+04  0.35938568213E+04 0.  0.
        2    1    3    3  502    0  0.73386549895E+03 -0.10958346776E+04 -0.14002798359E+04  0.19235893091E+04  0.25500000920E-02 0. -1.
       -2    1    3    3    0  502 -0.73386549895E+03  0.10958346776E+04  0.10520837507E+04  0.16870958567E+04  0.25500000920E-02 0.  1.
</event>
<event>
 5   0  0.5554745E-07  0.3500409E+04  0.7818609E-02  0.8113693E-01
       -2   -1    0    0    0  501  0.00000000000E+00  0.00000000000E+00  0.17609695681E+04  0.17609695681E+04  0.25500000920E-02 0.  1.
        2   -1    0    0  501    0  0.00000000000E+00  0.00000000000E+00 -0.17395051227E+04  0.17395051227E+04  0.25500000920E-02 0. -1.
    10030    2    1    2    0    0  0.00000000000E+00  0.00000000000E+00  0.21464445464E+02  0.35004746908E+04  0.35004088816E+04 0.  0.
        5    1    3    3  502    0 -0.11284792339E+04  0.82943608775E+03  0.10604013692E+04  0.17566737771E+04  0.46999998093E+01 0.  1.
       -5    1    3    3    0  502  0.11284792339E+04 -0.82943608775E+03 -0.10389369238E+04  0.17438009137E+04  0.46999998093E+01 0. -1.
</event>
<event>
 5   0  0.1873457E-07  0.3455021E+04  0.7818609E-02  0.8124533E-01
        1   -1    0    0  501    0  0.00000000000E+00  0.00000000000E+00  0.31832628709E+04  0.31832628709E+04  0.50400001928E-02 0. -1.
       -1   -1    0    0    0  501  0.00000000000E+00  0.00000000000E+00 -0.93749483813E+03  0.93749483814E+03  0.50400001928E-02 0.  1.
    10030    2    1    2    0    0  0.00000000000E+00  0.00000000000E+00  0.22457680328E+04  0.41207577091E+04  0.34550209898E+04 0.  0.
        3    1    3    3  502    0  0.21357601368E+03  0.49270115518E+03  0.30811882392E+04  0.31276333093E+04  0.10100000352E+00 0. -1.
       -3    1    3    3    0  502 -0.21357601368E+03 -0.49270115518E+03 -0.83542020640E+03  0.99312439976E+03  0.10100000352E+00 0.  1.
</event>
<event>
 5   0  0.1873457E-07  0.3529005E+04  0.7818609E-02  0.8106950E-01
       -1   -1    0    0    0  501  0.00000000000E+00  0.00000000000E+00  0.17661067615E+04  0.17661067615E+04  0.50400001928E-02 0. -1.
        1   -1    0    0  501    0  0.00000000000E+00  0.00000000000E+00 -0.17629001760E+04  0.17629001760E+04  0.50400001928E-02 0.  1.
    10030    2    1    2    0    0  0.00000000000E+00  0.00000000000E+00  0.32065854937E+01  0.35290069376E+04  0.35290054808E+04 0.  0.
        3    1    3    3  502    0 -0.44547597624E+03 -0.25151499241E+03  0.16903198552E+04  0.17660378988E+04  0.10100000352E+00 0. -1.
       -3    1    3    3    0  502  0.44547597624E+03  0.25151499241E+03 -0.16871132697E+04  0.17629690388E+04  0.10100000352E+00 0.  1.
</event>
<event>
 5   0  0.1933647E-07  0.3541300E+04  0.7818609E-02  0.8104072E-01
        1   -1    0    0  501    0  0.00000000000E+00  0.00000000000E+00  0.21974246395E+04  0.21974246395E+04  0.50400001928E-02 0.  1.
       -1   -1    0    0    0  501  0.00000000000E+00  0.00000000000E+00 -0.14267617000E+04  0.14267617000E+04  0.50400001928E-02 0. -1.
    10030    2    1    2    0    0  0.00000000000E+00  0.00000000000E+00  0.77066293944E+03  0.36241863395E+04  0.35412999389E+04 0.  0.
        4    1    3    3  502    0  0.24860580608E+02  0.15924868044E+04  0.11771111430E+04  0.19804606855E+04  0.12699999809E+01 0.  1.
       -4    1    3    3    0  502 -0.24860580608E+02 -0.15924868044E+04 -0.40644820358E+03  0.16437256541E+04  0.12699999809E+01 0. -1.
</event>
<event>
 5   0  0.5573334E-07  0.3444496E+04  0.7818609E-02  0.8127071E-01
       -2   -1    0    0    0  501  0.00000000000E+00  0.00000000000E+00  0.11321392149E+04  0.11321392149E+04  0.25500000920E-02 0. -1.
        2   -1    0    0  501    0  0.00000000000E+00  0.00000000000E+00 -0.26199405301E+04  0.26199405301E+04  0.25500000920E-02 0.  1.
    10030    2    1    2    0    0  0.00000000000E+00  0.00000000000E+00 -0.14878013152E+04  0.37520797450E+04  0.34444955594E+04 0.  0.
        4    1    3    3  502    0 -0.12755082251E+03  0.16960588907E+04 -0.44908353573E+03  0.17591368929E+04  0.12699999809E+01 0. -1.
       -4    1    3    3    0  502  0.12755082251E+03 -0.16960588907E+04 -0.10387177795E+04  0.19929428520E+04  0.12699999809E+01 0.  1.
</event>
<event>
 5   0  0.5740827E-07  0.3477810E+04  0.7818609E-02  0.8119069E-01
        2   -1    0    0  501    0  0.00000000000E+00  0.00000000000E+00  0.22864199772E+04  0.22864199772E+04  0.25500000920E-02 0. -1.
       -2   -1    0    0    0  501  0.00000000000E+00  0.00000000000E+00 -0.13225002880E+04  0.13225002880E+04  0.25500000920E-02 0.  1.
    10030    2    1    2    0    0  0.00000000000E+00  0.00000000000E+00  0.96391968911E+03  0.36089202652E+04  0.34778102757E+04 0.  0.
        2    1    3    3  502    0 -0.16923525128E+04 -0.90596151369E+02  0.88589861216E+03  0.19123496127E+04  0.25500000920E-02 0. -1.
       -2    1    3    3    0  502  0.16923525128E+04  0.90596151369E+02  0.78021076951E+02  0.16965706525E+04  0.25500000920E-02 0.  1.
</event>
<event>
 5   0  0.5573334E-07  0.3487679E+04  0.7818609E-02  0.8116716E-01
       -2   -1    0    0    0  501  0.00000000000E+00  0.00000000000E+00  0.12100272177E+04  0.12100272177E+04  0.25500000920E-02 0. -1.
        2   -1    0    0  501    0  0.00000000000E+00  0.00000000000E+00 -0.25131473416E+04  0.25131473416E+04  0.25500000920E-02 0.  1.
    10030    2    1    2    0    0  0.00000000000E+00  0.00000000000E+00 -0.13031201239E+04  0.37231745593E+04  0.34876792774E+04 0.  0.
        4    1    3    3  502    0 -0.87081246817E+03  0.15063761937E+04 -0.52756435015E+03  0.18181884799E+04  0.12699999809E+01 0.  1.
       -4    1    3    3    0  502  0.87081246817E+03 -0.15063761937E+04 -0.77555577378E+03  0.19049860795E+04  0.12699999809E+01 0. -1.
</event>
<event>
 5   0  0.5707187E-07  0.3458943E+04  0.7818609E-02  0.8123590E-01
        2   -1    0    0  501    0  0.00000000000E+00  0.00000000000E+00  0.14835279647E+04  0.14835279647E+04  0.25500000920E-02 0.  1.
       -2   -1    0    0    0  501  0.00000000000E+00  0.00000000000E+00 -0.20161878384E+04  0.20161878384E+04  0.25500000920E-02 0. -1.
    10030    2    1    2    0    0  0.00000000000E+00  0.00000000000E+00 -0.53265987363E+03  0.34997158031E+04  0.34589426363E+04 0.  0.
        1    1    3    3  502    0  0.82626077630E+03  0.99403138100E+03  0.89624271635E+03  0.15729133045E+04  0.50400001928E-02 0.  1.
       -1    1    3    3    0  502 -0.82626077630E+03 -0.99403138100E+03 -0.14289025900E+04  0.19268024986E+04  0.50400001928E-02 0. -1.
</event>
<event>
 5   0  0.5677193E-07  0.3502942E+04  0.7818609E-02  0.8113093E-01
       -2   -1    0    0    0  501  0.00000000000E+00  0.00000000000E+00  0.13077207091E+04  0.13077207091E+04  0.25500000920E-02 0.  1.
        2   -1    0    0  501    0  0.00000000000E+00  0.00000000000E+00 -0.23457996824E+04  0.23457996824E+04  0.25500000920E-02 0. -1.
    10030    2    1    2    0    0  0.00000000000E+00  0.00000000000E+00 -0.10380789734E+04  0.36535203915E+04  0.35029420915E+04 0.  0.
        3    1    3    3  502    0  0.92483314782E+03 -0.26770603311E+03  0.10069559342E+04  0.13931773523E+04  0.10100000352E+00 0.  1.
       -3    1    3    3    0  502 -0.92483314782E+03  0.26770603311E+03 -0.20450349075E+04  0.22603430392E+04  0.10100000352E+00 0. -1.
</event>
<event>
 5   0  0.1866421E-07  0.3506350E+04  0.7818609E-02  0.8112287E-01
        1   -1    0    0  501    0  0.00000000000E+00  0.00000000000E+00  0.14917898001E+04  0.14917898002E+04  0.50400001928E-02 0. -1.
       -1   -1    0    0    0  501  0.00000000000E+00  0.00000000000E+00 -0.20603585210E+04  0.20603585210E+04  0.50400001928E-02 0.  1.
    10030    2    1    2    0    0  0.00000000000E+00  0.00000000000E+00 -0.56856872086E+03  0.35521483212E+04  0.35063495697E+04 0.  0.
        1    1    3    3  502    0 -0.79296377608E+03 -0.53138689645E+03  0.12054531226E+04  0.15376218048E+04  0.50400001928E-02 0. -1.
       -1    1    3    3    0  502  0.79296377608E+03  0.53138689645E+03 -0.17740218435E+04  0.20145265163E+04  0.50400001928E-02 0.  1.
</event>
<event>
 5   0  0.5740827E-07  0.3622677E+04  0.7818609E-02  0.8085317E-01
        2   -1    0    0  501    0  0.00000000000E+00  0.00000000000E+00  0.18962421613E+04  0.18962421613E+04  0.25500000920E-02 0.  1.
       -2   -1    0    0    0  501  0.00000000000E+00  0.00000000000E+00 -0.17302361450E+04  0.17302361450E+04  0.25500000920E-02 0. -1.
    10030    2    1    2    0    0  0.00000000000E+00  0.00000000000E+00  0.16600601626E+03  0.36264783063E+04  0.36226767601E+04 0.  0.
        2    1    3    3  502    0  0.61112950041E+03 -0.12767240712E+04  0.12144293412E+04  0.18650314327E+04  0.25500000920E-02 0.  1.
       -2    1    3    3    0  502 -0.61112950041E+03  0.12767240712E+04 -0.10484233249E+04  0.17614468736E+04  0.25500000920E-02 0. -1.
</event>
<event>
 5   0  0.1897049E-07  0.3412480E+04  0.7818609E-02  0.8134850E-01
       -1   -1    0    0    0  501  0.00000000000E+00  0.00000000000E+00  0.14952094639E+04  0.14952094639E+04  0.50400001928E-02 0.  1.
        1   -1    0    0  501    0  0.00000000000E+00  0.00000000000E+00 -0.19470544401E+04  0.19470544401E+04  0.50400001928E-02 0. -1.
    10030    2    1    2    0    0  0.00000000000E+00  0.00000000000E+00 -0.45184497628E+03  0.34422639040E+04  0.34124795827E+04 0.  0.
        2    1    3    3  502    0 -0.15684670413E+04  0.61504900866E+03 -0.49824185598E+03  0.17568776536E+04  0.25500000920E-02 0. -1.
       -2    1    3    3    0  502  0.15684670413E+04 -0.61504900866E+03  0.46396879701E+02  0.16853862504E+04  0.25500000920E-02 0.  1.
</event>
<event>
 5   0  0.5573334E-07  0.3513344E+04  0.7818609E-02  0.8110635E-01
        2   -1    0    0  501    0  0.00000000000E+00  0.00000000000E+00  0.27026026025E+04  0.27026026025E+04  0.25500000920E-02 0. -1.
       -2   -1    0    0    0  501  0.00000000000E+00  0.00000000000E+00 -0.11418238016E+04  0.11418238016E+04  0.25500000920E-02 0.  1.
    10030    2    1    2    0    0  0.00000000000E+00  0.00000000000E+00  0.15607788009E+04  0.38444264041E+04  0.35133436939E+04 0.  0.
        4    1    3    3  502    0  0.10090198607E+04 -0.50439389530E+03  0.22538989012E+04  0.25204357065E+04  0.12699999809E+01 0. -1.
       -4    1    3    3    0  502 -0.10090198607E+04  0.50439389530E+03 -0.69312010028E+03  0.13239906976E+04  0.12699999809E+01 0.  1.
</event>
<event>
 5   0  0.5573334E-07  0.3493924E+04  0.7818609E-02  0.8115231E-01
       -2   -1    0    0    0  501  0.00000000000E+00  0.00000000000E+00  0.14834955804E+04  0.14834955804E+04  0.25500000920E-02 0. -1.
        2   -1    0    0  501    0  0.00000000000E+00  0.00000000000E+00 -0.20572192912E+04  0.20572192912E+04  0.25500000920E-02 0.  1.
    10030    2    1    2    0    0  0.00000000000E+00  0.00000000000E+00 -0.57372371071E+03  0.35407148716E+04  0.34939237121E+04 0.  0.
        4    1    3    3  502    0 -0.51342461095E+02 -0.15111233836E+04  0.59992529318E+03  0.16266658843E+04  0.12699999809E+01 0. -1.
       -4    1    3    3    0  502  0.51342461095E+02  0.15111233836E+04 -0.11736490039E+04  0.19140489873E+04  0.12699999809E+01 0.  1.
</event>
<event>
 5   0  0.1866421E-07  0.3461650E+04  0.7818609E-02  0.8122939E-01
        1   -1    0    0  501    0  0.00000000000E+00  0.00000000000E+00  0.16803443590E+04  0.16803443590E+04  0.50400001928E-02 0.  1.
       -1   -1    0    0    0  501  0.00000000000E+00  0.00000000000E+00 -0.17828223821E+04  0.17828223821E+04  0.50400001928E-02 0. -1.
    10030    2    1    2    0    0  0.00000000000E+00  0.00000000000E+00 -0.10247802304E+03  0.34631667411E+04  0.34616502035E+04 0.  0.
        1    1    3    3  502    0  0.91524227971E+03  0.29861922444E+02 -0.15206218419E+04  0.17750636471E+04  0.50400001928E-02 0. -1.
       -1    1    3    3    0  502 -0.91524227971E+03 -0.29861922444E+02  0.14181438189E+04  0.16881030940E+04  0.50400001928E-02 0.  1.
</event>
<event>
 5   0  0.1873457E-07  0.3492255E+04  0.7818609E-02  0.8115628E-01
       -1   -1    0    0    0  501  0.00000000000E+00  0.00000000000E+00  0.13643288410E+04  0.13643288410E+04  0.50400001928E-02 0. -1.
        1   -1    0    0  501    0  0.00000000000E+00  0.00000000000E+00 -0.22347702933E+04  0.22347702933E+04  0.50400001928E-02 0.  1.
    10030    2    1    2    0    0  0.00000000000E+00  0.00000000000E+00 -0.87044145233E+03  0.35990991343E+04  0.34922551820E+04 0.  0.
        3    1    3    3  502    0  0.56925313921E+02 -0.61269905661E+03  0.12488858373E+04  0.13922487098E+04  0.10100000352E+00 0. -1.
       -3    1    3    3    0  502 -0.56925313921E+02  0.61269905661E+03 -0.21193272896E+04  0.22068504245E+04  0.10100000352E+00 0.  1.
</event>
<event>
 5   0  0.5677193E-07  0.3516075E+04  0.7818609E-02  0.8109991E-01
       -2   -1    0    0    0  501  0.00000000000E+00  0.00000000000E+00  0.10008471341E+04  0.10008471341E+04  0.25500000920E-02 0.  1.
        2   -1    0    0  501    0  0.00000000000E+00  0.00000000000E+00 -0.30880793151E+04  0.30880793151E+04  0.25500000920E-02 0. -1.
    10030    2    1    2    0    0  0.00000000000E+00  0.00000000000E+00 -0.20872321810E+04  0.40889264492E+04  0.35160747048E+04 0.  0.
        3    1    3    3  502    0  0.14195362165E+04  0.98027279063E+03 -0.64980283603E+03  0.18434374277E+04  0.10100000352E+00 0. -1.
       -3    1    3    3    0  502 -0.14195362165E+04 -0.98027279063E+03 -0.14374293449E+04  0.22454890215E+04  0.10100000352E+00 0.  1.
</event>
<event>
 5   0  0.1908190E-07  0.3494082E+04  0.7818609E-02  0.8115194E-01
       -1   -1    0    0    0  501  0.00000000000E+00  0.00000000000E+00  0.13974892809E+04  0.13974892809E+04  0.50400001928E-02 0. -1.
        1   -1    0    0  501    0  0.00000000000E+00  0.00000000000E+00 -0.21840259295E+04  0.21840259295E+04  0.50400001928E-02 0.  1.
    10030    2    1    2    0    0  0.00000000000E+00  0.00000000000E+00 -0.78653664863E+03  0.35815152104E+04  0.34940823262E+04 0.  0.
        5    1    3    3  502    0 -0.16202408035E+04 -0.31509182363E+03  0.19347806768E+03  0.16619022148E+04  0.46999998093E+01 0. -1.
       -5    1    3    3    0  502  0.16202408035E+04  0.31509182363E+03 -0.98001471631E+03  0.19196129956E+04  0.46999998093E+01 0.  1.
</event>
<event>
 5   0  0.1933647E-07  0.3507382E+04  0.7818609E-02  0.8112043E-01
        1   -1    0    0  501    0  0.00000000000E+00  0.00000000000E+00  0.25075336272E+04  0.25075336272E+04  0.50400001928E-02 0. -1.
       -1   -1    0    0    0  501  0.00000000000E+00  0.00000000000E+00 -0.12264767157E+04  0.12264767157E+04  0.50400001928E-02 0.  1.
    10030    2    1    2    0    0  0.00000000000E+00  0.00000000000E+00  0.12810569115E+04  0.37340103429E+04  0.35073817058E+04 0.  0.
        4    1    3    3  502    0  0.10246956652E+04 -0.12648424657E+04 -0.54007094355E+02  0.16287252833E+04  0.12699999809E+01 0.  1.
       -4    1    3    3    0  502 -0.10246956652E+04  0.12648424657E+04  0.13350640058E+04  0.21052850595E+04  0.12699999809E+01 0. -1.
</event>
<event>
 5   0  0.5573334E-07  0.3495335E+04  0.7818609E-02  0.8114896E-01
        2   -1    0    0  501    0  0.00000000000E+00  0.00000000000E+00  0.27463293576E+04  0.27463293576E+04  0.25500000920E-02 0.  1.
       -2   -1    0    0    0  501  0.00000000000E+00  0.00000000000E+00 -0.11121544483E+04  0.11121544483E+04  0.25500000920E-02 0. -1.
    10030    2    1    2    0    0  0.00000000000E+00  0.00000000000E+00  0.16341749093E+04  0.38584838059E+04  0.34953354125E+04 0.  0.
        4    1    3    3  502    0  0.78622516811E+02  0.16084653609E+04  0.67577212037E+02  0.16118035271E+04  0.12699999809E+01 0. -1.
       -4    1    3    3    0  502 -0.78622516811E+02 -0.16084653609E+04  0.15665976972E+04  0.22466802788E+04  0.12699999809E+01 0.  1.
</event>
<event>
 5   0  0.5707187E-07  0.3489528E+04  0.7818609E-02  0.8116276E-01
       -2   -1    0    0    0  501  0.00000000000E+00  0.00000000000E+00  0.15979139003E+04  0.15979139003E+04  0.25500000920E-02 0.  1.
        2   -1    0    0  501    0  0.00000000000E+00  0.00000000000E+00 -0.19051096955E+04  0.19051096955E+04  0.25500000920E-02 0. -1.
    10030    2    1    2    0    0  0.00000000000E+00  0.00000000000E+00 -0.30719579516E+03  0.35030235958E+04  0.34895279131E+04 0.  0.
        1    1    3    3  502    0  0.16440320005E+04  0.37791407357E+03 -0.60090056355E+03  0.17907377678E+04  0.50400001928E-02 0. -1.
       -1    1    3    3    0  502 -0.16440320005E+04 -0.37791407357E+03  0.29370476839E+03  0.17122858280E+04  0.50400001928E-02 0.  1.
</event>
<event>
 5   0  0.1897049E-07  0.3477487E+04  0.7818609E-02  0.8119146E-01
        1   -1    0    0  501    0  0.00000000000E+00  0.00000000000E+00  0.20916891792E+04  0.20916891792E+04  0.50400001928E-02 0. -1.
       -1   -1    0    0    0  501  0.00000000000E+00  0.00000000000E+00 -0.14453528550E+04  0.14453528550E+04  0.50400001928E-02 0.  1.
    10030    2    1    2    0    0  0.00000000000E+00  0.00000000000E+00  0.64633632415E+03  0.35370420342E+04  0.34774869817E+04 0.  0.
        2    1    3    3  502    0  0.41861136231E+03 -0.46382022370E+03  0.19735671258E+04  0.20701043145E+04  0.25500000920E-02 0. -1.
       -2    1    3    3    0  502 -0.41861136231E+03  0.46382022370E+03 -0.13272308017E+04  0.14669377197E+04  0.25500000920E-02 0.  1.
</event>
<event>
 5   0  0.5740827E-07  0.3501721E+04  0.7818609E-02  0.8113382E-01
       -2   -1    0    0    0  501  0.00000000000E+00  0.00000000000E+00  0.12040386687E+04  0.12040386687E+04  0.25500000920E-02 0.  1.
        2   -1    0    0  501    0  0.00000000000E+00  0.00000000000E+00 -0.25460245281E+04  0.25460245281E+04  0.25500000920E-02 0. -1.
    10030    2    1    2    0    0  0.00000000000E+00  0.00000000000E+00 -0.13419858594E+04  0.37500631968E+04  0.35017207103E+04 0.  0.
        2    1    3    3  502    0  0.64211279296E+03 -0.13729537241E+04 -0.16096232456E+04  0.22109269007E+04  0.25500000920E-02 0. -1.
       -2    1    3    3    0  502 -0.64211279296E+03  0.13729537241E+04  0.26763738619E+03  0.15391362961E+04  0.25500000920E-02 0.  1.
</event>
<event>
 5   0  0.5707187E-07  0.3504082E+04  0.7818609E-02  0.8112823E-01
        2   -1    0    0  501    0  0.00000000000E+00  0.00000000000E+00  0.25161236141E+04  0.25161236141E+04  0.25500000920E-02 0.  1.
       -2   -1    0    0    0  501  0.00000000000E+00  0.00000000000E+00 -0.12199911300E+04  0.12199911300E+04  0.25500000920E-02 0. -1.
    10030    2    1    2    0    0  0.00000000000E+00  0.00000000000E+00  0.12961324841E+04  0.37361147442E+04  0.35040824712E+04 0.  0.
        1    1    3    3  502    0  0.43006866361E+03 -0.13381706675E+04 -0.46713258754E+03  0.14811727263E+04  0.50400001928E-02 0. -1.
       -1    1    3    3    0  502 -0.43006866361E+03  0.13381706675E+04  0.17632650716E+04  0.22549420178E+04  0.50400001928E-02 0.  1.
</event>
<event>
 5   0  0.5677193E-07  0.3450928E+04  0.7818609E-02  0.8125519E-01
       -2   -1    0    0    0  501  0.00000000000E+00  0.00000000000E+00  0.15190065987E+04  0.15190065987E+04  0.25500000920E-02 0.  1.
        2   -1    0    0  501    0  0.00000000000E+00  0.00000000000E+00 -0.19599821155E+04  0.19599821155E+04  0.25500000920E-02 0. -1.
    10030    2    1    2    0    0  0.00000000000E+00  0.00000000000E+00 -0.44097551682E+03  0.34789887142E+04  0.34509278560E+04 0.  0.
        3    1    3    3  502    0  0.10433537842E+04  0.11811622942E+04 -0.92869146924E+03  0.18292619658E+04  0.10100000352E+00 0. -1.
       -3    1    3    3    0  502 -0.10433537842E+04 -0.11811622942E+04  0.48771595242E+03  0.16497267484E+04  0.10100000352E+00 0.  1.
</event>
<event>
 5   0  0.5740827E-07  0.3497709E+04  0.7818609E-02  0.8114333E-01
        2   -1    0    0  501    0  0.00000000000E+00  0.00000000000E+00  0.26726560595E+04  0.26726560595E+04  0.25500000920E-02 0. -1.
       -2   -1    0    0    0  501  0.00000000000E+00  0.00000000000E+00 -0.11443643555E+04  0.11443643555E+04  0.25500000920E-02 0.  1.
    10030    2    1    2    0    0  0.00000000000E+00  0.00000000000E+00  0.15282917040E+04  0.38170204151E+04  0.34977091526E+04 0.  0.
        2    1    3    3  502    0  0.10526557734E+04 -0.24455278181E+02 -0.75968564545E+03  0.12983853503E+04  0.25500000920E-02 0.  1.
       -2    1    3    3    0  502 -0.10526557734E+04  0.24455278181E+02  0.22879773495E+04  0.25186350648E+04  0.25500000920E-02 0. -1.
</event>
<event>
 5   0  0.1908190E-07  0.3495283E+04  0.7818609E-02  0.8114909E-01
       -1   -1    0    0    0  501  0.00000000000E+00  0.00000000000E+00  0.17390961501E+04  0.17390961501E+04  0.50400001928E-02 0.  1.
        1   -1    0    0  501    0  0.00000000000E+00  0.00000000000E+00 -0.17562288883E+04  0.17562288883E+04  0.50400001928E-02 0. -1.
    10030    2    1    2    0    0  0.00000000000E+00  0.00000000000E+00 -0.17132738186E+02  0.34953250384E+04  0.34952830491E+04 0.  0.
        5    1    3    3  502    0  0.15309896841E+04 -0.55727509754E+03 -0.64082696866E+03  0.17507616174E+04  0.46999998093E+01 0. -1.
       -5    1    3    3    0  502 -0.15309896841E+04  0.55727509754E+03  0.62369423048E+03  0.17445634211E+04  0.46999998093E+01 0.  1.
</event>
<event>
 5   0  0.5573334E-07  0.3432707E+04  0.7818609E-02  0.8129925E-01
       -2   -1    0    0    0  501  0.00000000000E+00  0.00000000000E+00  0.34689623605E+04  0.34689623605E+04  0.25500000920E-02 0.  1.
        2   -1    0    0  501    0  0.00000000000E+00  0.00000000000E+00 -0.84920754928E+03  0.84920754929E+03  0.25500000920E-02 0. -1.
    10030    2    1    2    0    0  0.00000000000E+00  0.00000000000E+00  0.26197548112E+04  0.43181699098E+04  0.34327068181E+04 0.  0.
        4    1    3    3  502    0 -0.17104116165E+03 -0.12483106291E+04 -0.15623113960E+03  0.12696236796E+04  0.12699999809E+01 0. -1.
       -4    1    3    3    0  502  0.17104116165E+03  0.12483106291E+04  0.27759859508E+04  0.30485462302E+04  0.12699999809E+01 0.  1.
</event>
<event>
 5   0  0.1873457E-07  0.3529633E+04  0.7818609E-02  0.8106803E-01
       -1   -1    0    0    0  501  0.00000000000E+00  0.00000000000E+00  0.16712143501E+04  0.16712143501E+04  0.50400001928E-02 0.  1.
        1   -1    0    0  501    0  0.00000000000E+00  0.00000000000E+00 -0.18636612725E+04  0.18636612725E+04  0.50400001928E-02 0. -1.
    10030    2    1    2    0    0  0.00000000000E+00  0.00000000000E+00 -0.19244692243E+03  0.35348756226E+04  0.35296331041E+04 0.  0.
        3    1    3    3  502    0  0.42700033222E+03 -0.26375679588E+03  0.15982353436E+04  0.16751874984E+04  0.10100000352E+00 0.  1.
       -3    1    3    3    0  502 -0.42700033222E+03  0.26375679588E+03 -0.17906822661E+04  0.18596881242E+04  0.10100000352E+00 0. -1.
</event>
<event>
 5   0  0.1873457E-07  0.3486821E+04  0.7818609E-02  0.8116920E-01
        1   -1    0    0  501    0  0.00000000000E+00  0.00000000000E+00  0.18741192302E+04  0.18741192302E+04  0.50400001928E-02 0. -1.
       -1   -1    0    0    0  501  0.00000000000E+00  0.00000000000E+00 -0.16218181769E+04  0.16218181769E+04  0.50400001928E-02 0.  1.
    10030    2    1    2    0    0  0.00000000000E+00  0.00000000000E+00  0.25230105330E+03  0.34959374072E+04  0.34868212649E+04 0.  0.
        3    1    3    3  502    0 -0.67814594224E+03 -0.35306767410E+03 -0.14447712981E+04  0.16345956122E+04  0.10100000352E+00 0.  1.
       -3    1    3    3    0  502  0.67814594224E+03  0.35306767410E+03  0.16970723514E+04  0.18613417949E+04  0.10100000352E+00 0. -1.
</event>
<event>
 5   0  0.5677193E-07  0.3524933E+04  0.7818609E-02  0.8107906E-01
       -2   -1    0    0    0  501  0.00000000000E+00  0.00000000000E+00  0.16942210789E+04  0.16942210789E+04  0.25500000920E-02 0.  1.
        2   -1    0    0  501    0  0.00000000000E+00  0.00000000000E+00 -0.18334613311E+04  0.18334613311E+04  0.25500000920E-02 0. -1.
    10030    2    1    2    0    0  0.00000000000E+00  0.00000000000E+00 -0.13924025226E+03  0.35276824100E+04  0.35249333807E+04 0.  0.
        3    1    3    3  502    0 -0.85283783909E+03  0.42361324485E+03  0.14146104191E+04  0.17052575199E+04  0.10100000352E+00 0.  1.
       -3    1    3    3    0  502  0.85283783909E+03 -0.42361324485E+03 -0.15538506714E+04  0.18224248901E+04  0.10100000352E+00 0. -1.
</event>
<event>
 5   0  0.1873457E-07  0.3509999E+04  0.7818609E-02  0.8111424E-01
        1   -1    0    0  501    0  0.00000000000E+00  0.00000000000E+00  0.15920976946E+04  0.15920976947E+04  0.50400001928E-02 0.  1.
       -1   -1    0    0    0  501  0.00000000000E+00  0.00000000000E+00 -0.19345691904E+04  0.19345691905E+04  0.50400001928E-02 0. -1.
    10030    2    1    2    0    0  0.00000000000E+00  0.00000000000E+00 -0.34247149580E+03  0.35266668851E+04  0.35099989449E+04 0.  0.
        3    1    3    3  502    0  0.15345898846E+04 -0.80965559977E+03  0.93672938393E+02  0.17376083948E+04  0.10100000352E+00 0.  1.
       -3    1    3    3    0  502 -0.15345898846E+04  0.80965559977E+03 -0.43614443419E+03  0.17890584903E+04  0.10100000352E+00 0. -1.
</event>
<event>
 5   0  0.1933647E-07  0.3513329E+04  0.7818609E-02  0.8110638E-01
       -1   -1    0    0    0  501  0.00000000000E+00  0.00000000000E+00  0.24740453083E+04  0.24740453083E+04  0.50400001928E-02 0. -1.
        1   -1    0    0  501    0  0.00000000000E+00  0.00000000000E+00 -0.12472974016E+04  0.12472974016E+04  0.50400001928E-02 0.  1.
    10030    2    1    2    0    0  0.00000000000E+00  0.00000000000E+00  0.12267479066E+04  0.37213427099E+04  0.35133290677E+04 0.  0.
        4    1    3    3  502    0  0.10014048500E+03  0.15485636294E+04  0.14853987096E+04  0.21481360223E+04  0.12699999809E+01 0. -1.
       -4    1    3    3    0  502 -0.10014048500E+03 -0.15485636294E+04 -0.25865080297E+03  0.15732066876E+04  0.12699999809E+01 0.  1.
</event>
<event>
 5   0  0.1908190E-07  0.3512104E+04  0.7818609E-02  0.8110927E-01
        1   -1    0    0  501    0  0.00000000000E+00  0.00000000000E+00  0.15956163268E+04  0.15956163268E+04  0.50400001928E-02 0.  1.
       -1   -1    0    0    0  501  0.00000000000E+00  0.00000000000E+00 -0.19326196711E+04  0.19326196711E+04  0.50400001928E-02 0. -1.
    10030    2    1    2    0    0  0.00000000000E+00  0.00000000000E+00 -0.33700334424E+03  0.35282359979E+04  0.35121044977E+04 0.  0.
        5    1    3    3  502    0 -0.10676179954E+04  0.46614596832E+03 -0.14885374699E+04  0.18902026709E+04  0.46999998093E+01 0. -1.
       -5    1    3    3    0  502  0.10676179954E+04 -0.46614596832E+03  0.11515341257E+04  0.16380333270E+04  0.46999998093E+01 0.  1.
</event>
<event>
 5   0  0.1933647E-07  0.3514111E+04  0.7818609E-02  0.8110454E-01
       -1   -1    0    0    0  501  0.00000000000E+00  0.00000000000E+00  0.15966463517E+04  0.15966463517E+04  0.50400001928E-02 0. -1.
        1   -1    0    0  501    0  0.00000000000E+00  0.00000000000E+00 -0.19335802737E+04  0.19335802737E+04  0.50400001928E-02 0.  1.
    10030    2    1    2    0    0  0.00000000000E+00  0.00000000000E+00 -0.33693392203E+03  0.35302266253E+04  0.35141109201E+04 0.  0.
        4    1    3    3  502    0 -0.14873999432E+04 -0.54705911159E+03  0.59370205747E+03  0.16923699384E+04  0.12699999809E+01 0. -1.
       -4    1    3    3    0  502  0.14873999432E+04  0.54705911159E+03 -0.93063597950E+03  0.18378566869E+04  0.12699999809E+01 0.  1.
</event>
<event>
 5   0  0.5707187E-07  0.3636029E+04  0.7818609E-02  0.8082288E-01
        2   -1    0    0  501    0  0.00000000000E+00  0.00000000000E+00  0.14070818795E+04  0.14070818795E+04  0.25500000920E-02 0. -1.
       -2   -1    0    0    0  501  0.00000000000E+00  0.00000000000E+00 -0.23489579426E+04  0.23489579426E+04  0.25500000920E-02 0.  1.
    10030    2    1    2    0    0  0.00000000000E+00  0.00000000000E+00 -0.94187606307E+03  0.37560398221E+04  0.36360286890E+04 0.  0.
        1    1    3    3  502    0  0.77521988198E+03 -0.74708725518E+02  0.12260331620E+04  0.14524822111E+04  0.50400001928E-02 0. -1.
       -1    1    3    3    0  502 -0.77521988198E+03  0.74708725518E+02 -0.21679092251E+04  0.23035576110E+04  0.50400001928E-02 0.  1.
</event>
<event>
 5   0  0.1866421E-07  0.3532220E+04  0.7818609E-02  0.8106196E-01
        1   -1    0    0  501    0  0.00000000000E+00  0.00000000000E+00  0.30635950293E+04  0.30635950293E+04  0.50400001928E-02 0. -1.
       -1   -1    0    0    0  501  0.00000000000E+00  0.00000000000E+00 -0.10181322889E+04  0.10181322889E+04  0.50400001928E-02 0.  1.
    10030    2    1    2    0    0  0.00000000000E+00  0.00000000000E+00  0.20454627404E+04  0.40817273182E+04  0.35322202760E+04 0.  0.
        1    1    3    3  502    0 -0.46517783109E+03 -0.16568703210E+04  0.56407734216E+03  0.18110198572E+04  0.50400001928E-02 0. -1.
       -1    1    3    3    0  502  0.46517783109E+03  0.16568703210E+04  0.14813853982E+04  0.22707074610E+04  0.50400001928E-02 0.  1.
</event>
<event>
 5   0  0.5677193E-07  0.3498703E+04  0.7818609E-02  0.8114097E-01
        2   -1    0    0  501    0  0.00000000000E+00  0.00000000000E+00  0.16843409311E+04  0.16843409312E+04  0.25500000920E-02 0. -1.
       -2   -1    0    0    0  501  0.00000000000E+00  0.00000000000E+00 -0.18168716257E+04  0.18168716257E+04  0.25500000920E-02 0.  1.
    10030    2    1    2    0    0  0.00000000000E+00  0.00000000000E+00 -0.13253069451E+03  0.35012125568E+04  0.34987033288E+04 0.  0.
        3    1    3    3  502    0 -0.87883561491E+03  0.35468449996E+03  0.14051898671E+04  0.16949075802E+04  0.10100000352E+00 0. -1.
       -3    1    3    3    0  502  0.87883561491E+03 -0.35468449996E+03 -0.15377205616E+04  0.18063049766E+04  0.10100000352E+00 0.  1.
</event>
<event>
 5   0  0.5573334E-07  0.3594164E+04  0.7818609E-02  0.8091830E-01
        2   -1    0    0  501    0  0.00000000000E+00  0.00000000000E+00  0.18746141237E+04  0.18746141237E+04  0.25500000920E-02 0.  1.
       -2   -1    0    0    0  501  0.00000000000E+00  0.00000000000E+00 -0.17227566997E+04  0.17227566997E+04  0.25500000920E-02 0. -1.
    10030    2    1    2    0    0  0.00000000000E+00  0.00000000000E+00  0.15185742402E+03  0.35973708234E+04  0.35941641815E+04 0.  0.
        4    1    3    3  502    0  0.24699512781E+03 -0.10052077196E+04  0.15462707598E+04  0.18607536184E+04  0.12699999809E+01 0.  1.
       -4    1    3    3    0  502 -0.24699512781E+03  0.10052077196E+04 -0.13944133358E+04  0.17366172050E+04  0.12699999809E+01 0. -1.
</event>
<event>
 5   0  0.1933647E-07  0.3513013E+04  0.7818609E-02  0.8110713E-01
        1   -1    0    0  501    0  0.00000000000E+00  0.00000000000E+00  0.23289326499E+04  0.23289326499E+04  0.50400001928E-02 0. -1.
       -1   -1    0    0    0  501  0.00000000000E+00  0.00000000000E+00 -0.13247761174E+04  0.13247761174E+04  0.50400001928E-02 0.  1.
    10030    2    1    2    0    0  0.00000000000E+00  0.00000000000E+00  0.10041565325E+04  0.36537087673E+04  0.35130125839E+04 0.  0.
        4    1    3    3  502    0 -0.13748807965E+04 -0.27460664444E+03 -0.59841394059E+03  0.15244037755E+04  0.12699999809E+01 0.  1.
       -4    1    3    3    0  502  0.13748807965E+04  0.27460664444E+03  0.16025704731E+04  0.21293049918E+04  0.12699999809E+01 0. -1.
</event>
<event>
 5   0  0.1866421E-07  0.3520189E+04  0.7818609E-02  0.8109022E-01
       -1   -1    0    0    0  501  0.00000000000E+00  0.00000000000E+00  0.19061860035E+04  0.19061860035E+04  0.50400001928E-02 0. -1.
        1   -1    0    0  501    0  0.00000000000E+00  0.00000000000E+00 -0.16251995502E+04  0.16251995502E+04  0.50400001928E-02 0.  1.
    10030    2    1    2    0    0  0.00000000000E+00  0.00000000000E+00  0.28098645324E+03  0.35313855537E+04  0.35201889924E+04 0.  0.
        1    1    3    3  502    0  0.39459815662E+03  0.43745656188E+03  0.18043392693E+04  0.18980822288E+04  0.50400001928E-02 0. -1.
       -1    1    3    3    0  502 -0.39459815662E+03 -0.43745656188E+03 -0.15233528161E+04  0.16333033248E+04  0.50400001928E-02 0.  1.
</event>
<event>
 5   0  0.5740827E-07  0.3498906E+04  0.7818609E-02  0.8114049E-01
       -2   -1    0    0    0  501  0.00000000000E+00  0.00000000000E+00  0.15802822351E+04  0.15802822351E+04  0.25500000920E-02 0.  1.
        2   -1    0    0  501    0  0.00000000000E+00  0.00000000000E+00 -0.19367331775E+04  0.19367331775E+04  0.25500000920E-02 0. -1.
    10030    2    1    2    0    0  0.00000000000E+00  0.00000000000E+00 -0.35645094233E+03  0.35170154126E+04  0.34989055629E+04 0.  0.
        2    1    3    3  502    0  0.53280013247E+03  0.37977646043E+03 -0.18091148320E+04  0.19237990062E+04  0.25500000920E-02 0. -1.
       -2    1    3    3    0  502 -0.53280013247E+03 -0.37977646043E+03  0.14526638897E+04  0.15932164063E+04  0.25500000920E-02 0.  1.
</event>
<event>
 5   0  0.5677193E-07  0.3472823E+04  0.7818609E-02  0.8120261E-01
       -2   -1    0    0    0  501  0.00000000000E+00  0.00000000000E+00  0.15440515009E+04  0.15440515009E+04  0.25500000920E-02 0. -1.
        2   -1    0    0  501    0  0.00000000000E+00  0.00000000000E+00 -0.19527357776E+04  0.19527357776E+04  0.25500000920E-02 0.  1.
    10030    2    1    2    0    0  0.00000000000E+00  0.00000000000E+00 -0.40868427670E+03  0.34967872784E+04  0.34728228335E+04 0.  0.
        3    1    3    3  502    0 -0.33607390335E+03 -0.14895317297E+04 -0.10367719666E+04  0.18456832240E+04  0.10100000352E+00 0.  1.
       -3    1    3    3    0  502  0.33607390335E+03  0.14895317297E+04  0.62808768990E+03  0.16511040545E+04  0.10100000352E+00 0. -1.
</event>
<event>
 5   0  0.1933647E-07  0.3507014E+04  0.7818609E-02  0.8112130E-01
        1   -1    0    0  501    0  0.00000000000E+00  0.00000000000E+00  0.12611212546E+04  0.12611212546E+04  0.50400001928E-02 0.  1.
       -1   -1    0    0    0  501  0.00000000000E+00  0.00000000000E+00 -0.24381370941E+04  0.24381370941E+04  0.50400001928E-02 0. -1.
    10030    2    1    2    0    0  0.00000000000E+00  0.00000000000E+00 -0.11770158395E+04  0.36992583487E+04  0.35070138357E+04 0.  0.
        4    1    3    3  502    0  0.21493295496E+03  0.78742433550E+03 -0.22255323638E+04  0.23704913361E+04  0.12699999809E+01 0. -1.
       -4    1    3    3    0  502 -0.21493295496E+03 -0.78742433550E+03  0.10485165243E+04  0.13287670126E+04  0.12699999809E+01 0.  1.
</event>
<event>
 5   0  0.1897049E-07  0.3656498E+04  0.7818609E-02  0.8077671E-01
        1   -1    0    0  501    0  0.00000000000E+00  0.00000000000E+00  0.16230359916E+04  0.16230359916E+04  0.50400001928E-02 0. -1.
       -1   -1    0    0    0  501  0.00000000000E+00  0.00000000000E+00 -0.20594089175E+04  0.20594089175E+04  0.50400001928E-02 0.  1.
    10030    2    1    2    0    0  0.00000000000E+00  0.00000000000E+00 -0.43637292591E+03  0.36824449092E+04  0.36564982126E+04 0.  0.
        2    1    3    3  502    0 -0.12517993494E+02  0.43329820070E+03 -0.20069066428E+04  0.20531873523E+04  0.25500000920E-02 0.  1.
       -2    1    3    3    0  502  0.12517993494E+02 -0.43329820070E+03  0.15705337168E+04  0.16292575569E+04  0.25500000920E-02 0. -1.
</event>
<event>
 5   0  0.1866421E-07  0.3501001E+04  0.7818609E-02  0.8113553E-01
       -1   -1    0    0    0  501  0.00000000000E+00  0.00000000000E+00  0.19150420495E+04  0.19150420495E+04  0.50400001928E-02 0.  1.
        1   -1    0    0  501    0  0.00000000000E+00  0.00000000000E+00 -0.16000962082E+04  0.16000962082E+04  0.50400001928E-02 0. -1.
    10030    2    1    2    0    0  0.00000000000E+00  0.00000000000E+00  0.31494584129E+03  0.35151382578E+04  0.35010007267E+04 0.  0.
        1    1    3    3  502    0 -0.57406505347E+02 -0.15746266740E+04 -0.60817239372E+03  0.16889696059E+04  0.50400001928E-02 0. -1.
       -1    1    3    3    0  502  0.57406505347E+02  0.15746266740E+04  0.92311823501E+03  0.18261686519E+04  0.50400001928E-02 0.  1.
</event>
<event>
 5   0  0.5740827E-07  0.3501628E+04  0.7818609E-02  0.8113404E-01
       -2   -1    0    0    0  501  0.00000000000E+00  0.00000000000E+00  0.18508332018E+04  0.18508332018E+04  0.25500000920E-02 0. -1.
        2   -1    0    0  501    0  0.00000000000E+00  0.00000000000E+00 -0.16561995558E+04  0.16561995558E+04  0.25500000920E-02 0.  1.
    10030    2    1    2    0    0  0.00000000000E+00  0.00000000000E+00  0.19463364599E+03  0.35070327576E+04  0.35016276939E+04 0.  0.
        2    1    3    3  502    0  0.11481718174E+04  0.10677081622E+04  0.87765354430E+03  0.17968235822E+04  0.25500000920E-02 0. -1.
       -2    1    3    3    0  502 -0.11481718174E+04 -0.10677081622E+04 -0.68301989831E+03  0.17102091753E+04  0.25500000920E-02 0.  1.
</event>
<event>
 5   0  0.1908190E-07  0.3770092E+04  0.7818609E-02  0.8052604E-01
       -1   -1    0    0    0  501  0.00000000000E+00  0.00000000000E+00  0.18976955837E+04  0.18976955837E+04  0.50400001928E-02 0.  1.
        1   -1    0    0  501    0  0.00000000000E+00  0.00000000000E+00 -0.18724810263E+04  0.18724810263E+04  0.50400001928E-02 0. -1.
    10030    2    1    2    0    0  0.00000000000E+00  0.00000000000E+00  0.25214557405E+02  0.37701766101E+04  0.37700922929E+04 0.  0.
        5    1    3    3  502    0  0.15223644425E+04  0.88990359621E+03  0.67884659877E+03  0.18895440458E+04  0.46999998093E+01 0.  1.
       -5    1    3    3    0  502 -0.15223644425E+04 -0.88990359621E+03 -0.65363204137E+03  0.18806325643E+04  0.46999998093E+01 0. -1.
</event>
<event>
 5   0  0.1873457E-07  0.3517500E+04  0.7818609E-02  0.8109655E-01
       -1   -1    0    0    0  501  0.00000000000E+00  0.00000000000E+00  0.16208206891E+04  0.16208206891E+04  0.50400001928E-02 0.  1.
        1   -1    0    0  501    0  0.00000000000E+00  0.00000000000E+00 -0.19084172732E+04  0.19084172732E+04  0.50400001928E-02 0. -1.
    10030    2    1    2    0    0  0.00000000000E+00  0.00000000000E+00 -0.28759658416E+03  0.35292379623E+04  0.35175003624E+04 0.  0.
        3    1    3    3  502    0 -0.12300961859E+04 -0.68074490962E+03  0.91644541122E+03  0.16782200274E+04  0.10100000352E+00 0.  1.
       -3    1    3    3    0  502  0.12300961859E+04  0.68074490962E+03 -0.12040419954E+04  0.18510179349E+04  0.10100000352E+00 0. -1.
</event>
<event>
 5   0  0.5677193E-07  0.3495624E+04  0.7818609E-02  0.8114828E-01
        2   -1    0    0  501    0  0.00000000000E+00  0.00000000000E+00  0.16089020309E+04  0.16089020309E+04  0.25500000920E-02 0.  1.
       -2   -1    0    0    0  501  0.00000000000E+00  0.00000000000E+00 -0.18987157395E+04  0.18987157395E+04  0.25500000920E-02 0. -1.
    10030    2    1    2    0    0  0.00000000000E+00  0.00000000000E+00 -0.28981370865E+03  0.35076177704E+04  0.34956244703E+04 0.  0.
        3    1    3    3  502    0  0.15719628393E+04  0.31673525444E+03 -0.84260474443E+03  0.18114555349E+04  0.10100000352E+00 0. -1.
       -3    1    3    3    0  502 -0.15719628393E+04 -0.31673525444E+03  0.55279103578E+03  0.16961622355E+04  0.10100000352E+00 0.  1.
</event>
<event>
 5   0  0.5677193E-07  0.3510539E+04  0.7818609E-02  0.8111297E-01
       -2   -1    0    0    0  501  0.00000000000E+00  0.00000000000E+00  0.18739539781E+04  0.18739539781E+04  0.25500000920E-02 0. -1.
        2   -1    0    0  501    0  0.00000000000E+00  0.00000000000E+00 -0.16441020962E+04  0.16441020962E+04  0.25500000920E-02 0.  1.
    10030    2    1    2    0    0  0.00000000000E+00  0.00000000000E+00  0.22985188190E+03  0.35180560743E+04  0.35105393681E+04 0.  0.
        3    1    3    3  502    0 -0.16174091449E+04 -0.37019845773E+03 -0.45893654906E+03  0.17215347822E+04  0.10100000352E+00 0.  1.
       -3    1    3    3    0  502  0.16174091449E+04  0.37019845773E+03  0.68878843096E+03  0.17965212921E+04  0.10100000352E+00 0. -1.
</event>
<event>
 5   0  0.1866421E-07  0.3502271E+04  0.7818609E-02  0.8113252E-01
       -1   -1    0    0    0  501  0.00000000000E+00  0.00000000000E+00  0.23688381135E+04  0.23688381135E+04  0.50400001928E-02 0.  1.
        1   -1    0    0  501    0  0.00000000000E+00  0.00000000000E+00 -0.12945060541E+04  0.12945060541E+04  0.50400001928E-02 0. -1.
    10030    2    1    2    0    0  0.00000000000E+00  0.00000000000E+00  0.10743320594E+04  0.36633441676E+04  0.35022708514E+04 0.  0.
        1    1    3    3  502    0  0.75115497962E+03 -0.80556006948E+03  0.19611416323E+04  0.22492748456E+04  0.50400001928E-02 0.  1.
       -1    1    3    3    0  502 -0.75115497962E+03  0.80556006948E+03 -0.88680957292E+03  0.14140693221E+04  0.50400001928E-02 0. -1.
</event>
<event>
 5   0  0.5707187E-07  0.3437343E+04  0.7818609E-02  0.8128801E-01
        2   -1    0    0  501    0  0.00000000000E+00  0.00000000000E+00  0.23132910392E+04  0.23132910392E+04  0.25500000920E-02 0. -1.
       -2   -1    0    0    0  501  0.00000000000E+00  0.00000000000E+00 -0.12768959641E+04  0.12768959641E+04  0.25500000920E-02 0.  1.
    10030    2    1    2    0    0  0.00000000000E+00  0.00000000000E+00  0.10363950751E+04  0.35901870033E+04  0.34373431552E+04 0.  0.
        1    1    3    3  502    0  0.96823088962E+03  0.13783382250E+04  0.16163115537E+03  0.16921619156E+04  0.50400001928E-02 0. -1.
       -1    1    3    3    0  502 -0.96823088962E+03 -0.13783382250E+04  0.87476391973E+03  0.18980250877E+04  0.50400001928E-02 0.  1.
</event>
<event>
 5   0  0.1897049E-07  0.3494258E+04  0.7818609E-02  0.8115152E-01
        1   -1    0    0  501    0  0.00000000000E+00  0.00000000000E+00  0.19407579861E+04  0.19407579861E+04  0.50400001928E-02 0. -1.
       -1   -1    0    0    0  501  0.00000000000E+00  0.00000000000E+00 -0.15728180409E+04  0.15728180409E+04  0.50400001928E-02 0.  1.
    10030    2    1    2    0    0  0.00000000000E+00  0.00000000000E+00  0.36793994522E+03  0.35135760271E+04  0.34942576743E+04 0.  0.
        2    1    3    3  502    0 -0.53920182430E+02 -0.29692948313E+03 -0.15464114327E+04  0.15755833279E+04  0.25500000920E-02 0.  1.
       -2    1    3    3    0  502  0.53920182430E+02  0.29692948313E+03  0.19143513779E+04  0.19379926992E+04  0.25500000920E-02 0. -1.
</event>
<event>
 5   0  0.1866421E-07  0.3451264E+04  0.7818609E-02  0.8125438E-01
       -1   -1    0    0    0  501  0.00000000000E+00  0.00000000000E+00  0.20833747707E+04  0.20833747707E+04  0.50400001928E-02 0.  1.
        1   -1    0    0  501    0  0.00000000000E+00  0.00000000000E+00 -0.14293182924E+04  0.14293182924E+04  0.50400001928E-02 0. -1.
    10030    2    1    2    0    0  0.00000000000E+00  0.00000000000E+00  0.65405647834E+03  0.35126930631E+04  0.34512639248E+04 0.  0.
        1    1    3    3  502    0  0.11873026889E+04 -0.12343348769E+04  0.11223790125E+03  0.17163529968E+04  0.50400001928E-02 0. -1.
       -1    1    3    3    0  502 -0.11873026889E+04  0.12343348769E+04  0.54181857709E+03  0.17963400663E+04  0.50400001928E-02 0.  1.
</event>
<event>
 5   0  0.5554745E-07  0.3474063E+04  0.7818609E-02  0.8119964E-01
       -2   -1    0    0    0  501  0.00000000000E+00  0.00000000000E+00  0.14948906445E+04  0.14948906445E+04  0.25500000920E-02 0. -1.
        2   -1    0    0  501    0  0.00000000000E+00  0.00000000000E+00 -0.20183937041E+04  0.20183937041E+04  0.25500000920E-02 0.  1.
    10030    2    1    2    0    0  0.00000000000E+00  0.00000000000E+00 -0.52350305958E+03  0.35132843485E+04  0.34740626736E+04 0.  0.
        5    1    3    3  502    0 -0.55746613330E+03  0.49380222031E+03 -0.18487507127E+04  0.19931157544E+04  0.46999998093E+01 0.  1.
       -5    1    3    3    0  502  0.55746613330E+03 -0.49380222031E+03  0.13252476531E+04  0.15201685942E+04  0.46999998093E+01 0. -1.
</event>
<event>
 5   0  0.5707187E-07  0.3437443E+04  0.7818609E-02  0.8128777E-01
        2   -1    0    0  501    0  0.00000000000E+00  0.00000000000E+00  0.17328108027E+04  0.17328108027E+04  0.25500000920E-02 0.  1.
       -2   -1    0    0    0  501  0.00000000000E+00  0.00000000000E+00 -0.17047468848E+04  0.17047468848E+04  0.25500000920E-02 0. -1.
    10030    2    1    2    0    0  0.00000000000E+00  0.00000000000E+00  0.28063917818E+02  0.34375576875E+04  0.34374431299E+04 0.  0.
        1    1    3    3  502    0  0.14169758776E+03  0.18399212704E+03  0.17170486382E+04  0.17326821217E+04  0.50400001928E-02 0.  1.
       -1    1    3    3    0  502 -0.14169758776E+03 -0.18399212704E+03 -0.16889847203E+04  0.17048755658E+04  0.50400001928E-02 0. -1.
</event>
<event>
 5   0  0.1933647E-07  0.3475487E+04  0.7818609E-02  0.8119624E-01
        1   -1    0    0  501    0  0.00000000000E+00  0.00000000000E+00  0.15197791880E+04  0.15197791880E+04  0.50400001928E-02 0.  1.
       -1   -1    0    0    0  501  0.00000000000E+00  0.00000000000E+00 -0.19869675864E+04  0.19869675864E+04  0.50400001928E-02 0. -1.
    10030    2    1    2    0    0  0.00000000000E+00  0.00000000000E+00 -0.46718839837E+03  0.35067467744E+04  0.34754867199E+04 0.  0.
        4    1    3    3  502    0  0.10779999778E+04  0.30036495471E+03 -0.15750056557E+04  0.19320837162E+04  0.12699999809E+01 0. -1.
       -4    1    3    3    0  502 -0.10779999778E+04 -0.30036495471E+03  0.11078172573E+04  0.15746630581E+04  0.12699999809E+01 0.  1.
</event>
<event>
 5   0  0.1897049E-07  0.3498111E+04  0.7818609E-02  0.8114238E-01
       -1   -1    0    0    0  501  0.00000000000E+00  0.00000000000E+00  0.18224643622E+04  0.18224643622E+04  0.50400001928E-02 0.  1.
        1   -1    0    0  501    0  0.00000000000E+00  0.00000000000E+00 -0.16786035524E+04  0.16786035524E+04  0.50400001928E-02 0. -1.
    10030    2    1    2    0    0  0.00000000000E+00  0.00000000000E+00  0.14386080985E+03  0.35010679146E+04  0.34981110060E+04 0.  0.
        2    1    3    3  502    0  0.12840935942E+04  0.41182554924E+03 -0.10428776012E+04  0.17047258820E+04  0.25500000920E-02 0. -1.
       -2    1    3    3    0  502 -0.12840935942E+04 -0.41182554924E+03  0.11867384111E+04  0.17963420326E+04  0.25500000920E-02 0.  1.
</event>
<event>
 5   0  0.5740827E-07  0.3533224E+04  0.7818609E-02  0.8105961E-01
        2   -1    0    0  501    0  0.00000000000E+00  0.00000000000E+00  0.14497660660E+04  0.14497660660E+04  0.25500000920E-02 0. -1.
       -2   -1    0    0    0  501  0.00000000000E+00  0.00000000000E+00 -0.21527043969E+04  0.21527043969E+04  0.25500000920E-02 0.  1.
    10030    2    1    2    0    0  0.00000000000E+00  0.00000000000E+00 -0.70293833098E+03  0.36024704629E+04  0.35332239016E+04 0.  0.
        2    1    3    3  502    0 -0.64935761742E+03  0.22609048291E+03 -0.20106715982E+04  0.21249899994E+04  0.25500000920E-02 0.  1.
       -2    1    3    3    0  502  0.64935761742E+03 -0.22609048291E+03  0.13077332672E+04  0.14774804635E+04  0.25500000920E-02 0. -1.
</event>
<event>
 5   0  0.1873457E-07  0.3497979E+04  0.7818609E-02  0.8114269E-01
        1   -1    0    0  501    0  0.00000000000E+00  0.00000000000E+00  0.13899894464E+04  0.13899894464E+04  0.50400001928E-02 0. -1.
       -1   -1    0    0    0  501  0.00000000000E+00  0.00000000000E+00 -0.22007106973E+04  0.22007106973E+04  0.50400001928E-02 0.  1.
    10030    2    1    2    0    0  0.00000000000E+00  0.00000000000E+00 -0.81072125084E+03  0.35907001437E+04  0.34979792131E+04 0.  0.
        3    1    3    3  502    0 -0.70828317070E+03  0.93195780890E+03 -0.17393277887E+04  0.20965379973E+04  0.10100000352E+00 0.  1.
       -3    1    3    3    0  502  0.70828317070E+03 -0.93195780890E+03  0.92860653783E+03  0.14941621464E+04  0.10100000352E+00 0. -1.
</event>
<event>
 5   0  0.5554745E-07  0.3456553E+04  0.7818609E-02  0.8124164E-01
       -2   -1    0    0    0  501  0.00000000000E+00  0.00000000000E+00  0.17033788401E+04  0.17033788401E+04  0.25500000920E-02 0. -1.
        2   -1    0    0  501    0  0.00000000000E+00  0.00000000000E+00 -0.17535376366E+04  0.17535376366E+04  0.25500000920E-02 0.  1.
    10030    2    1    2    0    0  0.00000000000E+00  0.00000000000E+00 -0.50158796498E+02  0.34569164766E+04  0.34565525631E+04 0.  0.
        5    1    3    3  502    0  0.14116068252E+04  0.26206828265E+03  0.93710463350E+03  0.17144972435E+04  0.46999998093E+01 0. -1.
       -5    1    3    3    0  502 -0.14116068252E+04 -0.26206828265E+03 -0.98726343000E+03  0.17424192331E+04  0.46999998093E+01 0.  1.
</event>
<event>
 5   0  0.1873457E-07  0.3500767E+04  0.7818609E-02  0.8113608E-01
       -1   -1    0    0    0  501  0.00000000000E+00  0.00000000000E+00  0.19594616562E+04  0.19594616562E+04  0.50400001928E-02 0. -1.
        1   -1    0    0  501    0  0.00000000000E+00  0.00000000000E+00 -0.15636147890E+04  0.15636147890E+04  0.50400001928E-02 0.  1.
    10030    2    1    2    0    0  0.00000000000E+00  0.00000000000E+00  0.39584686723E+03  0.35230764452E+04  0.35007674725E+04 0.  0.
        3    1    3    3  502    0  0.42052797456E+03  0.14677453348E+04 -0.66352390606E+03  0.16647474671E+04  0.10100000352E+00 0.  1.
       -3    1    3    3    0  502 -0.42052797456E+03 -0.14677453348E+04  0.10593707733E+04  0.18583289780E+04  0.10100000352E+00 0. -1.
</event>
<event>
 5   0  0.5740827E-07  0.3546790E+04  0.7818609E-02  0.8102790E-01
        2   -1    0    0  501    0  0.00000000000E+00  0.00000000000E+00  0.34936578232E+04  0.34936578232E+04  0.25500000920E-02 0.  1.
       -2   -1    0    0    0  501  0.00000000000E+00  0.00000000000E+00 -0.90018270225E+03  0.90018270225E+03  0.25500000920E-02 0. -1.
    10030    2    1    2    0    0  0.00000000000E+00  0.00000000000E+00  0.25934751209E+04  0.43938405254E+04  0.35467902898E+04 0.  0.
        2    1    3    3  502    0  0.17524000186E+04  0.11029730985E+03  0.16048507510E+04  0.23787848273E+04  0.25500000920E-02 0. -1.
       -2    1    3    3    0  502 -0.17524000186E+04 -0.11029730985E+03  0.98862436993E+03  0.20150556981E+04  0.25500000920E-02 0.  1.
</event>
<event>
 5   0  0.5740827E-07  0.3395523E+04  0.7818609E-02  0.8139006E-01
        2   -1    0    0  501    0  0.00000000000E+00  0.00000000000E+00  0.14147243014E+04  0.14147243014E+04  0.25500000920E-02 0. -1.
       -2   -1    0    0    0  501  0.00000000000E+00  0.00000000000E+00 -0.20374242876E+04  0.20374242876E+04  0.25500000920E-02 0.  1.
    10030    2    1    2    0    0  0.00000000000E+00  0.00000000000E+00 -0.62269998616E+03  0.34521485890E+04  0.33955227297E+04 0.  0.
        2    1    3    3  502    0 -0.10364844351E+04  0.13031767175E+04  0.25573803464E+02  0.16652998411E+04  0.25500000920E-02 0. -1.
       -2    1    3    3    0  502  0.10364844351E+04 -0.13031767175E+04 -0.64827378963E+03  0.17868487479E+04  0.25500000920E-02 0.  1.
</event>
<event>
 5   0  0.1866421E-07  0.3483454E+04  0.7818609E-02  0.8117722E-01
        1   -1    0    0  501    0  0.00000000000E+00  0.00000000000E+00  0.25290878531E+04  0.25290878531E+04  0.50400001928E-02 0.  1.
       -1   -1    0    0    0  501  0.00000000000E+00  0.00000000000E+00 -0.11994892391E+04  0.11994892392E+04  0.50400001928E-02 0. -1.
    10030    2    1    2    0    0  0.00000000000E+00  0.00000000000E+00  0.13295986139E+04  0.37285770922E+04  0.34834544146E+04 0.  0.
        1    1    3    3  502    0  0.17094173693E+03 -0.94749507446E+03  0.22183618547E+04  0.24182839602E+04  0.50400001928E-02 0.  1.
       -1    1    3    3    0  502 -0.17094173693E+03  0.94749507446E+03 -0.88876324082E+03  0.13102931320E+04  0.50400001928E-02 0. -1.
</event>
<event>
 5   0  0.5677193E-07  0.3515136E+04  0.7818609E-02  0.8110212E-01
       -2   -1    0    0    0  501  0.00000000000E+00  0.00000000000E+00  0.11246104160E+04  0.11246104160E+04  0.25500000920E-02 0. -1.
        2   -1    0    0  501    0  0.00000000000E+00  0.00000000000E+00 -0.27467686543E+04  0.27467686543E+04  0.25500000920E-02 0.  1.
    10030    2    1    2    0    0  0.00000000000E+00  0.00000000000E+00 -0.16221582382E+04  0.38713790703E+04  0.35151356384E+04 0.  0.
        3    1    3    3  502    0 -0.91324347108E+03  0.86054881322E+03  0.54428613026E+03  0.13677738480E+04  0.10100000352E+00 0. -1.
       -3    1    3    3    0  502  0.91324347108E+03 -0.86054881322E+03 -0.21664443685E+04  0.25036052223E+04  0.10100000352E+00 0.  1.
</event>
<event>
 5   0  0.5740827E-07  0.3544072E+04  0.7818609E-02  0.8103424E-01
        2   -1    0    0  501    0  0.00000000000E+00  0.00000000000E+00  0.24727658840E+04  0.24727658840E+04  0.25500000920E-02 0.  1.
       -2   -1    0    0    0  501  0.00000000000E+00  0.00000000000E+00 -0.12698778940E+04  0.12698778940E+04  0.25500000920E-02 0. -1.
    10030    2    1    2    0    0  0.00000000000E+00  0.00000000000E+00  0.12028879899E+04  0.37426437780E+04  0.35440715192E+04 0.  0.
        2    1    3    3  502    0  0.99140615322E+03 -0.11081025941E+04  0.16194767352E+04  0.21985182318E+04  0.25500000920E-02 0.  1.
       -2    1    3    3    0  502 -0.99140615322E+03  0.11081025941E+04 -0.41658874527E+03  0.15441255462E+04  0.25500000920E-02 0. -1.
</event>
<event>
 5   0  0.1873457E-07  0.3514993E+04  0.7818609E-02  0.8110246E-01
       -1   -1    0    0    0  501  0.00000000000E+00  0.00000000000E+00  0.14772262533E+04  0.14772262533E+04  0.50400001928E-02 0.  1.
        1   -1    0    0  501    0  0.00000000000E+00  0.00000000000E+00 -0.20909419800E+04  0.20909419800E+04  0.50400001928E-02 0. -1.
    10030    2    1    2    0    0  0.00000000000E+00  0.00000000000E+00 -0.61371572670E+03  0.35681682333E+04  0.35149932500E+04 0.  0.
        3    1    3    3  502    0  0.14635151987E+04  0.77828895565E+03 -0.89980382833E+03  0.18860692922E+04  0.10100000352E+00 0.  1.
       -3    1    3    3    0  502 -0.14635151987E+04 -0.77828895565E+03  0.28608810164E+03  0.16820989410E+04  0.10100000352E+00 0. -1.
</event>
<event>
 5   0  0.1873457E-07  0.3483183E+04  0.7818609E-02  0.8117787E-01
        1   -1    0    0  501    0  0.00000000000E+00  0.00000000000E+00  0.24334440283E+04  0.24334440283E+04  0.50400001928E-02 0. -1.
       -1   -1    0    0    0  501  0.00000000000E+00  0.00000000000E+00 -0.12464392685E+04  0.12464392685E+04  0.50400001928E-02 0.  1.
    10030    2    1    2    0    0  0.00000000000E+00  0.00000000000E+00  0.11870047598E+04  0.36798832968E+04  0.34831825646E+04 0.  0.
        3    1    3    3  502    0 -0.11494876671E+04  0.49225952977E+03 -0.68718294233E+03  0.14268362723E+04  0.10100000352E+00 0.  1.
       -3    1    3    3    0  502  0.11494876671E+04 -0.49225952977E+03  0.18741877022E+04  0.22530470245E+04  0.10100000352E+00 0. -1.
</event>
<event>
 5   0  0.1933647E-07  0.3508752E+04  0.7818609E-02  0.8111719E-01
       -1   -1    0    0    0  501  0.00000000000E+00  0.00000000000E+00  0.17070743562E+04  0.17070743562E+04  0.50400001928E-02 0. -1.
        1   -1    0    0  501    0  0.00000000000E+00  0.00000000000E+00 -0.18029886990E+04  0.18029886991E+04  0.50400001928E-02 0.  1.
    10030    2    1    2    0    0  0.00000000000E+00  0.00000000000E+00 -0.95914342829E+02  0.35100630553E+04  0.35087523553E+04 0.  0.
        4    1    3    3  502    0  0.15627689588E+04 -0.30083154998E+03  0.69061918393E+03  0.17348495353E+04  0.12699999809E+01 0. -1.
       -4    1    3    3    0  502 -0.15627689588E+04  0.30083154998E+03 -0.78653352676E+03  0.17752135200E+04  0.12699999809E+01 0.  1.
</event>
<event>
 5   0  0.5677193E-07  0.3492407E+04  0.7818609E-02  0.8115592E-01
        2   -1    0    0  501    0  0.00000000000E+00  0.00000000000E+00  0.20756416407E+04  0.20756416407E+04  0.25500000920E-02 0.  1.
       -2   -1    0    0    0  501  0.00000000000E+00  0.00000000000E+00 -0.14690523204E+04  0.14690523204E+04  0.25500000920E-02 0. -1.
    10030    2    1    2    0    0  0.00000000000E+00  0.00000000000E+00  0.60658932027E+03  0.35446939611E+04  0.34924067166E+04 0.  0.
        3    1    3    3  502    0  0.66722948663E+03 -0.38384454017E+03 -0.12875562955E+04  0.15001110103E+04  0.10100000352E+00 0. -1.
       -3    1    3    3    0  502 -0.66722948663E+03  0.38384454017E+03  0.18941456158E+04  0.20445829508E+04  0.10100000352E+00 0.  1.
</event>
<event>
 5   0  0.5740827E-07  0.3499149E+04  0.7818609E-02  0.8113992E-01
       -2   -1    0    0    0  501  0.00000000000E+00  0.00000000000E+00  0.11906290312E+04  0.11906290312E+04  0.25500000920E-02 0.  1.
        2   -1    0    0  501    0  0.00000000000E+00  0.00000000000E+00 -0.25709193053E+04  0.25709193053E+04  0.25500000920E-02 0. -1.
    10030    2    1    2    0    0  0.00000000000E+00  0.00000000000E+00 -0.13802902741E+04  0.37615483366E+04  0.34991491320E+04 0.  0.
        2    1    3    3  502    0  0.13777842753E+04  0.20138327856E+03  0.44861650632E+03  0.14629085767E+04  0.25500000920E-02 0.  1.
       -2    1    3    3    0  502 -0.13777842753E+04 -0.20138327856E+03 -0.18289067804E+04  0.22986397599E+04  0.25500000920E-02 0. -1.
</event>
<event>
 5   0  0.5573334E-07  0.3828871E+04  0.7818609E-02  0.8039988E-01
        2   -1    0    0  501    0  0.00000000000E+00  0.00000000000E+00  0.11262370471E+04  0.11262370471E+04  0.25500000920E-02 0.  1.
       -2   -1    0    0    0  501  0.00000000000E+00  0.00000000000E+00 -0.32542548542E+04  0.32542548542E+04  0.25500000920E-02 0. -1.
    10030    2    1    2    0    0  0.00000000000E+00  0.00000000000E+00 -0.21280178071E+04  0.43804919013E+04  0.38288705267E+04 0.  0.
        4    1    3    3  502    0  0.96933327633E+03  0.47750471142E+03 -0.28720154330E+04  0.30685651387E+04  0.12699999809E+01 0. -1.
       -4    1    3    3    0  502 -0.96933327633E+03 -0.47750471142E+03  0.74399762595E+03  0.13119267626E+04  0.12699999809E+01 0.  1.
</event>
<event>
 5   0  0.1897049E-07  0.3502464E+04  0.7818609E-02  0.8113206E-01
       -1   -1    0    0    0  501  0.00000000000E+00  0.00000000000E+00  0.11441184751E+04  0.11441184751E+04  0.50400001928E-02 0. -1.
        1   -1    0    0  501    0  0.00000000000E+00  0.00000000000E+00 -0.26805034003E+04  0.26805034003E+04  0.50400001928E-02 0.  1.
    10030    2    1    2    0    0  0.00000000000E+00  0.00000000000E+00 -0.15363849252E+04  0.38246218754E+04  0.35024639687E+04 0.  0.
        2    1    3    3  502    0 -0.36107292224E+03  0.16475841670E+04 -0.12825908125E+04  0.21189493705E+04  0.25500000920E-02 0.  1.
       -2    1    3    3    0  502  0.36107292224E+03 -0.16475841670E+04 -0.25379411266E+03  0.17056725049E+04  0.25500000920E-02 0. -1.
</event>
<event>
 5   0  0.5707187E-07  0.3523649E+04  0.7818609E-02  0.8108208E-01
        2   -1    0    0  501    0  0.00000000000E+00  0.00000000000E+00  0.11179211990E+04  0.11179211990E+04  0.25500000920E-02 0. -1.
       -2   -1    0    0    0  501  0.00000000000E+00  0.00000000000E+00 -0.27766046148E+04  0.27766046148E+04  0.25500000920E-02 0.  1.
    10030    2    1    2    0    0  0.00000000000E+00  0.00000000000E+00 -0.16586834158E+04  0.38945258138E+04  0.35236487681E+04 0.  0.
        1    1    3    3  502    0  0.13980097850E+04 -0.65284674878E+03 -0.17693825034E+04  0.23476274576E+04  0.50400001928E-02 0.  1.
       -1    1    3    3    0  502 -0.13980097850E+04  0.65284674878E+03  0.11069908757E+03  0.15468983562E+04  0.50400001928E-02 0. -1.
</event>
<event>
 5   0  0.5740827E-07  0.3491544E+04  0.7818609E-02  0.8115797E-01
       -2   -1    0    0    0  501  0.00000000000E+00  0.00000000000E+00  0.22053330870E+04  0.22053330870E+04  0.25500000920E-02 0.  1.
        2   -1    0    0  501    0  0.00000000000E+00  0.00000000000E+00 -0.13819773982E+04  0.13819773982E+04  0.25500000920E-02 0. -1.
    10030    2    1    2    0    0  0.00000000000E+00  0.00000000000E+00  0.82335568877E+03  0.35873104852E+04  0.34915443470E+04 0.  0.
        2    1    3    3  502    0  0.13436551191E+04 -0.72768924623E+03 -0.45574146371E+03  0.15945660852E+04  0.25500000920E-02 0. -1.
       -2    1    3    3    0  502 -0.13436551191E+04  0.72768924623E+03  0.12790971525E+04  0.19927444000E+04  0.25500000920E-02 0.  1.
</event>
<event>
 5   0  0.1866421E-07  0.3476038E+04  0.7818609E-02  0.8119492E-01
       -1   -1    0    0    0  501  0.00000000000E+00  0.00000000000E+00  0.15353818953E+04  0.15353818953E+04  0.50400001928E-02 0.  1.
        1   -1    0    0  501    0  0.00000000000E+00  0.00000000000E+00 -0.19673994924E+04  0.19673994925E+04  0.50400001928E-02 0. -1.
    10030    2    1    2    0    0  0.00000000000E+00  0.00000000000E+00 -0.43201759713E+03  0.35027813878E+04  0.34760377222E+04 0.  0.
        1    1    3    3  502    0  0.50869838057E+02 -0.10203427244E+03  0.15316095358E+04  0.15358471615E+04  0.50400001928E-02 0.  1.
       -1    1    3    3    0  502 -0.50869838057E+02  0.10203427244E+03 -0.19636271330E+04  0.19669342263E+04  0.50400001928E-02 0. -1.
</event>
<event>
 5   0  0.1908190E-07  0.3576198E+04  0.7818609E-02  0.8095966E-01
        1   -1    0    0  501    0  0.00000000000E+00  0.00000000000E+00  0.10503594894E+04  0.10503594894E+04  0.50400001928E-02 0.  1.
       -1   -1    0    0    0  501  0.00000000000E+00  0.00000000000E+00 -0.30440032175E+04  0.30440032175E+04  0.50400001928E-02 0. -1.
    10030    2    1    2    0    0  0.00000000000E+00  0.00000000000E+00 -0.19936437282E+04  0.40943627069E+04  0.35761977939E+04 0.  0.
        5    1    3    3  502    0 -0.30774342409E+03  0.11253936213E+04  0.55452199024E+03  0.12917946995E+04  0.46999998093E+01 0.  1.
       -5    1    3    3    0  502  0.30774342409E+03 -0.11253936213E+04 -0.25481657184E+04  0.28025680075E+04  0.46999998093E+01 0. -1.
</event>
<event>
 5   0  0.1933647E-07  0.3506445E+04  0.7818609E-02  0.8112264E-01
       -1   -1    0    0    0  501  0.00000000000E+00  0.00000000000E+00  0.11786627481E+04  0.11786627481E+04  0.50400001928E-02 0. -1.
        1   -1    0    0  501    0  0.00000000000E+00  0.00000000000E+00 -0.26078618038E+04  0.26078618038E+04  0.50400001928E-02 0.  1.
    10030    2    1    2    0    0  0.00000000000E+00  0.00000000000E+00 -0.14291990558E+04  0.37865245519E+04  0.35064452429E+04 0.  0.
        4    1    3    3  502    0 -0.69679566302E+03 -0.13680464372E+04 -0.16288101544E+04  0.22383251288E+04  0.12699999809E+01 0.  1.
       -4    1    3    3    0  502  0.69679566302E+03  0.13680464372E+04  0.19961109863E+03  0.15481994232E+04  0.12699999809E+01 0. -1.
</event>
<event>
 5   0  0.1873457E-07  0.3502622E+04  0.7818609E-02  0.8113169E-01
        1   -1    0    0  501    0  0.00000000000E+00  0.00000000000E+00  0.19191366325E+04  0.19191366325E+04  0.50400001928E-02 0. -1.
       -1   -1    0    0    0  501  0.00000000000E+00  0.00000000000E+00 -0.15981616509E+04  0.15981616509E+04  0.50400001928E-02 0.  1.
    10030    2    1    2    0    0  0.00000000000E+00  0.00000000000E+00  0.32097498163E+03  0.35172982835E+04  0.35026222000E+04 0.  0.
        3    1    3    3  502    0 -0.12897255501E+03 -0.43086281472E+02 -0.15928525136E+04  0.15986461422E+04  0.10100000352E+00 0.  1.
       -3    1    3    3    0  502  0.12897255501E+03  0.43086281472E+02  0.19138274952E+04  0.19186521413E+04  0.10100000352E+00 0. -1.
</event>
<event>
 5   0  0.5677193E-07  0.3477232E+04  0.7818609E-02  0.8119207E-01
       -2   -1    0    0    0  501  0.00000000000E+00  0.00000000000E+00  0.20184691905E+04  0.20184691905E+04  0.25500000920E-02 0. -1.
        2   -1    0    0  501    0  0.00000000000E+00  0.00000000000E+00 -0.14975633815E+04  0.14975633815E+04  0.25500000920E-02 0.  1.
    10030    2    1    2    0    0  0.00000000000E+00  0.00000000000E+00  0.52090580897E+03  0.35160325720E+04  0.34772319718E+04 0.  0.
        3    1    3    3  502    0  0.12628587658E+03 -0.17113410921E+04 -0.22218033726E+02  0.17161381376E+04  0.10100000352E+00 0. -1.
       -3    1    3    3    0  502 -0.12628587658E+03  0.17113410921E+04  0.54312384270E+03  0.17998944344E+04  0.10100000352E+00 0.  1.
</event>
<event>
 5   0  0.1897049E-07  0.3514221E+04  0.7818609E-02  0.8110428E-01
        1   -1    0    0  501    0  0.00000000000E+00  0.00000000000E+00  0.17497688371E+04  0.17497688371E+04  0.50400001928E-02 0.  1.
       -1   -1    0    0    0  501  0.00000000000E+00  0.00000000000E+00 -0.17644825456E+04  0.17644825456E+04  0.50400001928E-02 0. -1.
    10030    2    1    2    0    0  0.00000000000E+00  0.00000000000E+00 -0.14713708519E+02  0.35142513827E+04  0.35142205804E+04 0.  0.
        2    1    3    3  502    0 -0.78280753411E+02  0.15277987440E+04 -0.87173685797E+03  0.17607447368E+04  0.25500000920E-02 0. -1.
       -2    1    3    3    0  502  0.78280753411E+02 -0.15277987440E+04  0.85702314945E+03  0.17535066459E+04  0.25500000920E-02 0.  1.
</event>
<event>
 5   0  0.5707187E-07  0.3507738E+04  0.7818609E-02  0.8111959E-01
       -2   -1    0    0    0  501  0.00000000000E+00  0.00000000000E+00  0.15552367035E+04  0.15552367035E+04  0.25500000920E-02 0.  1.
        2   -1    0    0  501    0  0.00000000000E+00  0.00000000000E+00 -0.19778698882E+04  0.19778698882E+04  0.25500000920E-02 0. -1.
    10030    2    1    2    0    0  0.00000000000E+00  0.00000000000E+00 -0.42263318470E+03  0.35331065918E+04  0.35077376441E+04 0.  0.
        1    1    3    3  502    0  0.85533130047E+03 -0.15017318484E+04 -0.51225101213E+03  0.18025513245E+04  0.50400001928E-02 0. -1.
       -1    1    3    3    0  502 -0.85533130047E+03  0.15017318484E+04  0.89617827431E+02  0.17305552673E+04  0.50400001928E-02 0.  1.
</event>
<event>
 5   0  0.1897049E-07  0.3490315E+04  0.7818609E-02  0.8116089E-01
        1   -1    0    0  501    0  0.00000000000E+00  0.00000000000E+00  0.17676709500E+04  0.17676709501E+04  0.50400001928E-02 0.  1.
       -1   -1    0    0    0  501  0.00000000000E+00  0.00000000000E+00 -0.17229308991E+04  0.17229308991E+04  0.50400001928E-02 0. -1.
    10030    2    1    2    0    0  0.00000000000E+00  0.00000000000E+00  0.44740050908E+02  0.34906018492E+04  0.34903151144E+04 0.  0.
        2    1    3    3  502    0  0.10336308737E+04  0.98297082546E+03 -0.98317290342E+03  0.17324125908E+04  0.25500000920E-02 0. -1.
       -2    1    3    3    0  502 -0.10336308737E+04 -0.98297082546E+03  0.10279129543E+04  0.17581892584E+04  0.25500000920E-02 0.  1.
</event>
<event>
 5   0  0.1873457E-07  0.3495723E+04  0.7818609E-02  0.8114804E-01
        1   -1    0    0  501    0  0.00000000000E+00  0.00000000000E+00  0.20075197711E+04  0.20075197711E+04  0.50400001928E-02 0.  1.
       -1   -1    0    0    0  501  0.00000000000E+00  0.00000000000E+00 -0.15217881420E+04  0.15217881420E+04  0.50400001928E-02 0. -1.
    10030    2    1    2    0    0  0.00000000000E+00  0.00000000000E+00  0.48573162913E+03  0.35293079132E+04  0.34957229768E+04 0.  0.
        3    1    3    3  502    0 -0.30187864521E+03 -0.16011835658E+04 -0.39574600055E+03  0.16767630825E+04  0.10100000352E+00 0. -1.
       -3    1    3    3    0  502  0.30187864521E+03  0.16011835658E+04  0.88147762968E+03  0.18525448306E+04  0.10100000352E+00 0.  1.
</event>
<event>
 5   0  0.5573334E-07  0.3400638E+04  0.7818609E-02  0.8137750E-01
        2   -1    0    0  501    0  0.00000000000E+00  0.00000000000E+00  0.23405754023E+04  0.23405754023E+04  0.25500000920E-02 0. -1.
       -2   -1    0    0    0  501  0.00000000000E+00  0.00000000000E+00 -0.12352023124E+04  0.12352023124E+04  0.25500000920E-02 0.  1.
    10030    2    1    2    0    0  0.00000000000E+00  0.00000000000E+00  0.11053730899E+04  0.35757777147E+04  0.34006376750E+04 0.  0.
        4    1    3    3  502    0  0.32098366609E+03  0.15135322185E+04 -0.18880680739E+03  0.15586724844E+04  0.12699999809E+01 0.  1.
       -4    1    3    3    0  502 -0.32098366609E+03 -0.15135322185E+04  0.12941798973E+04  0.20171052302E+04  0.12699999809E+01 0. -1.
</event>
<event>
 5   0  0.1933647E-07  0.3515901E+04  0.7818609E-02  0.8110032E-01
       -1   -1    0    0    0  501  0.00000000000E+00  0.00000000000E+00  0.89318330767E+03  0.89318330768E+03  0.50400001928E-02 0.  1.
        1   -1    0    0  501    0  0.00000000000E+00  0.00000000000E+00 -0.34599722769E+04  0.34599722769E+04  0.50400001928E-02 0. -1.
    10030    2    1    2    0    0  0.00000000000E+00  0.00000000000E+00 -0.25667889692E+04  0.43531555845E+04  0.35159007282E+04 0.  0.
        4    1    3    3  502    0  0.12521751374E+04 -0.66454550028E+03 -0.25705919923E+04  0.29355592483E+04  0.12699999809E+01 0. -1.
       -4    1    3    3    0  502 -0.12521751374E+04  0.66454550028E+03  0.38030230834E+01  0.14175963362E+04  0.12699999809E+01 0.  1.
</event>
<event>
 5   0  0.5740827E-07  0.3496798E+04  0.7818609E-02  0.8114549E-01
       -2   -1    0    0    0  501  0.00000000000E+00  0.00000000000E+00  0.17730431694E+04  0.17730431694E+04  0.25500000920E-02 0.  1.
        2   -1    0    0  501    0  0.00000000000E+00  0.00000000000E+00 -0.17240975551E+04  0.17240975551E+04  0.25500000920E-02 0. -1.
    10030    2    1    2    0    0  0.00000000000E+00  0.00000000000E+00  0.48945614366E+02  0.34971407245E+04  0.34967981889E+04 0.  0.
        2    1    3    3  502    0 -0.41496589734E+03 -0.23277405208E+03  0.17070522268E+04  0.17721195671E+04  0.25500000920E-02 0.  1.
       -2    1    3    3    0  502  0.41496589734E+03  0.23277405208E+03 -0.16581066124E+04  0.17250211574E+04  0.25500000920E-02 0. -1.
</event>
<event>
 5   0  0.1908190E-07  0.3509961E+04  0.7818609E-02  0.8111433E-01
        1   -1    0    0  501    0  0.00000000000E+00  0.00000000000E+00  0.18251568039E+04  0.18251568039E+04  0.50400001928E-02 0.  1.
       -1   -1    0    0    0  501  0.00000000000E+00  0.00000000000E+00 -0.16875022323E+04  0.16875022323E+04  0.50400001928E-02 0. -1.
    10030    2    1    2    0    0  0.00000000000E+00  0.00000000000E+00  0.13765457154E+03  0.35126590362E+04  0.35099607866E+04 0.  0.
        5    1    3    3  502    0  0.76645418611E+02  0.73934830974E+03 -0.15221821447E+04  0.16939808190E+04  0.46999998093E+01 0. -1.
       -5    1    3    3    0  502 -0.76645418611E+02 -0.73934830974E+03  0.16598367163E+04  0.18186782173E+04  0.46999998093E+01 0.  1.
</event>
<event>
 5   0  0.5677193E-07  0.3507820E+04  0.7818609E-02  0.8111939E-01
       -2   -1    0    0    0  501  0.00000000000E+00  0.00000000000E+00  0.13449116298E+04  0.13449116298E+04  0.25500000920E-02 0.  1.
        2   -1    0    0  501    0  0.00000000000E+00  0.00000000000E+00 -0.22872876324E+04  0.22872876324E+04  0.25500000920E-02 0. -1.
    10030    2    1    2    0    0  0.00000000000E+00  0.00000000000E+00 -0.94237600260E+03  0.36321992622E+04  0.35078196861E+04 0.  0.
        3    1    3    3  502    0  0.26022841583E+03  0.80254278154E+03  0.11209966376E+04  0.14030064919E+04  0.10100000352E+00 0.  1.
       -3    1    3    3    0  502 -0.26022841583E+03 -0.80254278154E+03 -0.20633726402E+04  0.22291927703E+04  0.10100000352E+00 0. -1.
</event>
<event>
 5   0  0.1897049E-07  0.3479563E+04  0.7818609E-02  0.8118650E-01
        1   -1    0    0  501    0  0.00000000000E+00  0.00000000000E+00  0.18721303341E+04  0.18721303341E+04  0.50400001928E-02 0.  1.
       -1   -1    0    0    0  501  0.00000000000E+00  0.00000000000E+00 -0.16167892772E+04  0.16167892772E+04  0.50400001928E-02 0. -1.
    10030    2    1    2    0    0  0.00000000000E+00  0.00000000000E+00  0.25534105692E+03  0.34889196112E+04  0.34795633344E+04 0.  0.
        2    1    3    3  502    0 -0.38449126957E+03  0.38003656191E+02 -0.15732287416E+04  0.16199773108E+04  0.25500000920E-02 0. -1.
       -2    1    3    3    0  502  0.38449126957E+03 -0.38003656191E+02  0.18285697985E+04  0.18689423004E+04  0.25500000920E-02 0.  1.
</event>
<event>
 5   0  0.5740827E-07  0.3488820E+04  0.7818609E-02  0.8116445E-01
        2   -1    0    0  501    0  0.00000000000E+00  0.00000000000E+00  0.20052039995E+04  0.20052039995E+04  0.25500000920E-02 0. -1.
       -2   -1    0    0    0  501  0.00000000000E+00  0.00000000000E+00 -0.15175342654E+04  0.15175342654E+04  0.25500000920E-02 0.  1.
    10030    2    1    2    0    0  0.00000000000E+00  0.00000000000E+00  0.48766973406E+03  0.35227382649E+04  0.34888197307E+04 0.  0.
        2    1    3    3  502    0 -0.13545080147E+04  0.49514156555E+03 -0.74708717272E+03  0.16241909911E+04  0.25500000920E-02 0.  1.
       -2    1    3    3    0  502  0.13545080147E+04 -0.49514156555E+03  0.12347569068E+04  0.18985472738E+04  0.25500000920E-02 0. -1.
</event>
<event>
 5   0  0.5707187E-07  0.3490312E+04  0.7818609E-02  0.8116090E-01
        2   -1    0    0  501    0  0.00000000000E+00  0.00000000000E+00  0.32166943830E+04  0.32166943830E+04  0.25500000920E-02 0. -1.
       -2   -1    0    0    0  501  0.00000000000E+00  0.00000000000E+00 -0.94680124359E+03  0.94680124359E+03  0.25500000920E-02 0.  1.
    10030    2    1    2    0    0  0.00000000000E+00  0.00000000000E+00  0.22698931394E+04  0.41634956266E+04  0.34903124457E+04 0.  0.
        1    1    3    3  502    0 -0.31443957690E+03  0.10177510183E+04  0.27839084351E+04  0.29807441282E+04  0.50400001928E-02 0. -1.
       -1    1    3    3    0  502  0.31443957690E+03 -0.10177510183E+04 -0.51401529563E+03  0.11827514984E+04  0.50400001928E-02 0.  1.
</event>
<event>
 5   0  0.1873457E-07  0.3299038E+04  0.7818609E-02  0.8163140E-01
       -1   -1    0    0    0  501  0.00000000000E+00  0.00000000000E+00  0.14156166365E+04  0.14156166365E+04  0.50400001928E-02 0. -1.
        1   -1    0    0  501    0  0.00000000000E+00  0.00000000000E+00 -0.19220690833E+04  0.19220690833E+04  0.50400001928E-02 0.  1.
    10030    2    1    2    0    0  0.00000000000E+00  0.00000000000E+00 -0.50645244683E+03  0.33376857198E+04  0.32990380239E+04 0.  0.
        3    1    3    3  502    0  0.57795618479E+03  0.12278847332E+04  0.69540342977E+03  0.15249000656E+04  0.10100000352E+00 0. -1.
       -3    1    3    3    0  502 -0.57795618479E+03 -0.12278847332E+04 -0.12018558766E+04  0.18127856542E+04  0.10100000352E+00 0.  1.
</event>
<event>
 5   0  0.1933647E-07  0.3456873E+04  0.7818609E-02  0.8124087E-01
       -1   -1    0    0    0  501  0.00000000000E+00  0.00000000000E+00  0.20151206955E+04  0.20151206955E+04  0.50400001928E-02 0. -1.
        1   -1    0    0  501    0  0.00000000000E+00  0.00000000000E+00 -0.14825380937E+04  0.14825380937E+04  0.50400001928E-02 0.  1.
    10030    2    1    2    0    0  0.00000000000E+00  0.00000000000E+00  0.53258260180E+03  0.34976587893E+04  0.34568732662E+04 0.  0.
        4    1    3    3  502    0  0.13384872382E+04  0.53584239919E+03 -0.69827495384E+03  0.16019565187E+04  0.12699999809E+01 0.  1.
       -4    1    3    3    0  502 -0.13384872382E+04 -0.53584239919E+03  0.12308575556E+04  0.18957022706E+04  0.12699999809E+01 0. -1.
</event>
<event>
 5   0  0.5740827E-07  0.3458595E+04  0.7818609E-02  0.8123673E-01
       -2   -1    0    0    0  501  0.00000000000E+00  0.00000000000E+00  0.19320791137E+04  0.19320791137E+04  0.25500000920E-02 0.  1.
        2   -1    0    0  501    0  0.00000000000E+00  0.00000000000E+00 -0.15477990359E+04  0.15477990359E+04  0.25500000920E-02 0. -1.
    10030    2    1    2    0    0  0.00000000000E+00  0.00000000000E+00  0.38428007774E+03  0.34798781496E+04  0.34585952001E+04 0.  0.
        2    1    3    3  502    0  0.17195974340E+04  0.17644434706E+03  0.24062627583E+03  0.17452933700E+04  0.25500000920E-02 0.  1.
       -2    1    3    3    0  502 -0.17195974340E+04 -0.17644434706E+03  0.14365380192E+03  0.17345847796E+04  0.25500000920E-02 0. -1.
</event>
<event>
 5   0  0.5573334E-07  0.3485296E+04  0.7818609E-02  0.8117283E-01
       -2   -1    0    0    0  501  0.00000000000E+00  0.00000000000E+00  0.20383258927E+04  0.20383258927E+04  0.25500000920E-02 0.  1.
        2   -1    0    0  501    0  0.00000000000E+00  0.00000000000E+00 -0.14898611378E+04  0.14898611378E+04  0.25500000920E-02 0. -1.
    10030    2    1    2    0    0  0.00000000000E+00  0.00000000000E+00  0.54846475491E+03  0.35281870305E+04  0.34852962765E+04 0.  0.
        4    1    3    3  502    0 -0.13616150849E+04 -0.48461984064E+03 -0.71138633407E+03  0.16108768291E+04  0.12699999809E+01 0. -1.
       -4    1    3    3    0  502  0.13616150849E+04  0.48461984064E+03  0.12598510890E+04  0.19173102014E+04  0.12699999809E+01 0.  1.
</event>
<event>
 5   0  0.5677193E-07  0.3477090E+04  0.7818609E-02  0.8119241E-01
       -2   -1    0    0    0  501  0.00000000000E+00  0.00000000000E+00  0.11847376974E+04  0.11847376974E+04  0.25500000920E-02 0. -1.
        2   -1    0    0  501    0  0.00000000000E+00  0.00000000000E+00 -0.25512300067E+04  0.25512300067E+04  0.25500000920E-02 0.  1.
    10030    2    1    2    0    0  0.00000000000E+00  0.00000000000E+00 -0.13664923093E+04  0.37359677041E+04  0.34770897967E+04 0.  0.
        3    1    3    3  502    0 -0.22190162205E+03  0.84928188949E+03 -0.22956475448E+04  0.24577464715E+04  0.10100000352E+00 0.  1.
       -3    1    3    3    0  502  0.22190162205E+03 -0.84928188949E+03  0.92915523549E+03  0.12782212326E+04  0.10100000352E+00 0. -1.
</event>
<event>
 5   0  0.5554745E-07  0.3480204E+04  0.7818609E-02  0.8118497E-01
        2   -1    0    0  501    0  0.00000000000E+00  0.00000000000E+00  0.19299874950E+04  0.19299874950E+04  0.25500000920E-02 0. -1.
       -2   -1    0    0    0  501  0.00000000000E+00  0.00000000000E+00 -0.15688989503E+04  0.15688989503E+04  0.25500000920E-02 0.  1.
    10030    2    1    2    0    0  0.00000000000E+00  0.00000000000E+00  0.36108854468E+03  0.34988864453E+04  0.34802042211E+04 0.  0.
        5    1    3    3  502    0  0.48733911715E+03 -0.25854580157E+03  0.18397331126E+04  0.19206731534E+04  0.46999998093E+01 0. -1.
       -5    1    3    3    0  502 -0.48733911715E+03  0.25854580157E+03 -0.14786445679E+04  0.15782132919E+04  0.46999998093E+01 0.  1.
</event>
<event>
 5   0  0.1933647E-07  0.3174042E+04  0.7818609E-02  0.8195706E-01
       -1   -1    0    0    0  501  0.00000000000E+00  0.00000000000E+00  0.25108188971E+04  0.25108188971E+04  0.50400001928E-02 0. -1.
        1   -1    0    0  501    0  0.00000000000E+00  0.00000000000E+00 -0.10031131181E+04  0.10031131181E+04  0.50400001928E-02 0.  1.
    10030    2    1    2    0    0  0.00000000000E+00  0.00000000000E+00  0.15077057789E+04  0.35139320152E+04  0.31740418226E+04 0.  0.
        4    1    3    3  502    0  0.72957409774E+03 -0.49872811140E+02  0.23131795593E+04  0.24260187443E+04  0.12699999809E+01 0. -1.
       -4    1    3    3    0  502 -0.72957409774E+03  0.49872811140E+02 -0.80547378032E+03  0.10879132709E+04  0.12699999809E+01 0.  1.
</event>
<event>
 5   0  0.1908190E-07  0.3490780E+04  0.7818609E-02  0.8115978E-01
       -1   -1    0    0    0  501  0.00000000000E+00  0.00000000000E+00  0.13951126029E+04  0.13951126029E+04  0.50400001928E-02 0.  1.
        1   -1    0    0  501    0  0.00000000000E+00  0.00000000000E+00 -0.21836134549E+04  0.21836134549E+04  0.50400001928E-02 0. -1.
    10030    2    1    2    0    0  0.00000000000E+00  0.00000000000E+00 -0.78850085205E+03  0.35787260578E+04  0.34907802284E+04 0.  0.
        5    1    3    3  502    0  0.13552817464E+04 -0.10127311785E+04 -0.83395160009E+03  0.18862424057E+04  0.46999998093E+01 0. -1.
       -5    1    3    3    0  502 -0.13552817464E+04  0.10127311785E+04  0.45450748046E+02  0.16924836520E+04  0.46999998093E+01 0.  1.
</event>
<event>
 5   0  0.1866421E-07  0.3470622E+04  0.7818609E-02  0.8120788E-01
        1   -1    0    0  501    0  0.00000000000E+00  0.00000000000E+00  0.20313734691E+04  0.20313734691E+04  0.50400001928E-02 0.  1.
       -1   -1    0    0    0  501  0.00000000000E+00  0.00000000000E+00 -0.14823979620E+04  0.14823979620E+04  0.50400001928E-02 0. -1.
    10030    2    1    2    0    0  0.00000000000E+00  0.00000000000E+00  0.54897550709E+03  0.35137714311E+04  0.34706217833E+04 0.  0.
        1    1    3    3  502    0 -0.92670126157E+03 -0.65397697612E+03 -0.10551733862E+04  0.15491455672E+04  0.50400001928E-02 0. -1.
       -1    1    3    3    0  502  0.92670126157E+03  0.65397697612E+03  0.16041488932E+04  0.19646258639E+04  0.50400001928E-02 0.  1.
</event>
<event>
 5   0  0.5573334E-07  0.3521066E+04  0.7818609E-02  0.8108816E-01
       -2   -1    0    0    0  501  0.00000000000E+00  0.00000000000E+00  0.16412135671E+04  0.16412135671E+04  0.25500000920E-02 0.  1.
        2   -1    0    0  501    0  0.00000000000E+00  0.00000000000E+00 -0.18885276596E+04  0.18885276596E+04  0.25500000920E-02 0. -1.
    10030    2    1    2    0    0  0.00000000000E+00  0.00000000000E+00 -0.24731409243E+03  0.35297412267E+04  0.35210664389E+04 0.  0.
        4    1    3    3  502    0  0.13539181971E+04  0.47035451543E+03 -0.11485004080E+04  0.18366770687E+04  0.12699999809E+01 0. -1.
       -4    1    3    3    0  502 -0.13539181971E+04 -0.47035451543E+03  0.90118631560E+03  0.16930641580E+04  0.12699999809E+01 0.  1.
</event>
<event>
 5   0  0.5573334E-07  0.3500977E+04  0.7818609E-02  0.8113559E-01
        2   -1    0    0  501    0  0.00000000000E+00  0.00000000000E+00  0.22074294613E+04  0.22074294613E+04  0.25500000920E-02 0. -1.
       -2   -1    0    0    0  501  0.00000000000E+00  0.00000000000E+00 -0.13881347266E+04  0.13881347266E+04  0.25500000920E-02 0.  1.
    10030    2    1    2    0    0  0.00000000000E+00  0.00000000000E+00  0.81929473470E+03  0.35955641879E+04  0.35009767162E+04 0.  0.
        4    1    3    3  502    0 -0.14565909971E+04  0.96253304737E+03  0.27941167877E+03  0.17681062466E+04  0.12699999809E+01 0. -1.
       -4    1    3    3    0  502  0.14565909971E+04 -0.96253304737E+03  0.53988305593E+03  0.18274579413E+04  0.12699999809E+01 0.  1.
</event>
<event>
 5   0  0.1823000E-07  0.3561451E+04  0.7818609E-02  0.8099379E-01
       -3   -1    0    0    0  501  0.00000000000E+00  0.00000000000E+00  0.15630168261E+04  0.15630168294E+04  0.10100000352E+00 0. -1.
        3   -1    0    0  501    0  0.00000000000E+00  0.00000000000E+00 -0.20287585508E+04  0.20287585533E+04  0.10100000352E+00 0.  1.
    10030    2    1    2    0    0  0.00000000000E+00  0.00000000000E+00 -0.46574172470E+03  0.35917753827E+04  0.35614512556E+04 0.  0.
        5    1    3    3  502    0  0.53782317447E+03  0.14290323680E+04 -0.11569555153E+04  0.19157127734E+04  0.46999998093E+01 0.  1.
       -5    1    3    3    0  502 -0.53782317447E+03 -0.14290323680E+04  0.69121379063E+03  0.16760626093E+04  0.46999998093E+01 0. -1.
</event>
<event>
 5   0  0.5740827E-07  0.3633303E+04  0.7818609E-02  0.8082905E-01
        2   -1    0    0  501    0  0.00000000000E+00  0.00000000000E+00  0.22875159774E+04  0.22875159774E+04  0.25500000920E-02 0.  1.
       -2   -1    0    0    0  501  0.00000000000E+00  0.00000000000E+00 -0.14427104825E+04  0.14427104825E+04  0.25500000920E-02 0. -1.
    10030    2    1    2    0    0  0.00000000000E+00  0.00000000000E+00  0.84480549490E+03  0.37302264598E+04  0.36333033341E+04 0.  0.
        2    1    3    3  502    0 -0.26467498164E+01  0.22937478006E+03  0.22725872560E+04  0.22841349854E+04  0.25500000920E-02 0.  1.
       -2    1    3    3    0  502  0.26467498164E+01 -0.22937478006E+03 -0.14277817611E+04  0.14460914744E+04  0.25500000920E-02 0. -1.
</event>
<event>
 5   0  0.1897049E-07  0.3521467E+04  0.7818609E-02  0.8108721E-01
       -1   -1    0    0    0  501  0.00000000000E+00  0.00000000000E+00  0.11746347242E+04  0.11746347242E+04  0.50400001928E-02 0. -1.
        1   -1    0    0  501    0  0.00000000000E+00  0.00000000000E+00 -0.26392730956E+04  0.26392730956E+04  0.50400001928E-02 0.  1.
    10030    2    1    2    0    0  0.00000000000E+00  0.00000000000E+00 -0.14646383714E+04  0.38139078198E+04  0.35214666403E+04 0.  0.
        2    1    3    3  502    0  0.31640100288E+03 -0.10494602652E+04  0.76004701414E+03  0.13338470327E+04  0.25500000920E-02 0. -1.
       -2    1    3    3    0  502 -0.31640100288E+03  0.10494602652E+04 -0.22246853856E+04  0.24800607871E+04  0.25500000920E-02 0.  1.
</event>
<event>
 5   0  0.1873457E-07  0.3225569E+04  0.7818609E-02  0.8182097E-01
       -1   -1    0    0    0  501  0.00000000000E+00  0.00000000000E+00  0.13825242144E+04  0.13825242144E+04  0.50400001928E-02 0. -1.
        1   -1    0    0  501    0  0.00000000000E+00  0.00000000000E+00 -0.18813943279E+04  0.18813943279E+04  0.50400001928E-02 0.  1.
    10030    2    1    2    0    0  0.00000000000E+00  0.00000000000E+00 -0.49887011357E+03  0.32639185423E+04  0.32255686104E+04 0.  0.
        3    1    3    3  502    0 -0.17499726798E+03  0.16026650863E+04 -0.20516813758E+03  0.16251933416E+04  0.10100000352E+00 0.  1.
       -3    1    3    3    0  502  0.17499726798E+03 -0.16026650863E+04 -0.29370197598E+03  0.16387252007E+04  0.10100000352E+00 0. -1.
</event>
<event>
 5   0  0.5554745E-07  0.3514941E+04  0.7818609E-02  0.8110258E-01
       -2   -1    0    0    0  501  0.00000000000E+00  0.00000000000E+00  0.13390364178E+04  0.13390364178E+04  0.25500000920E-02 0. -1.
        2   -1    0    0  501    0  0.00000000000E+00  0.00000000000E+00 -0.23066601305E+04  0.23066601305E+04  0.25500000920E-02 0.  1.
    10030    2    1    2    0    0  0.00000000000E+00  0.00000000000E+00 -0.96762371272E+03  0.36456965482E+04  0.35149406357E+04 0.  0.
        5    1    3    3  502    0  0.90753656414E+03 -0.13796582355E+04 -0.11075135929E+04  0.19883882695E+04  0.46999998093E+01 0.  1.
       -5    1    3    3    0  502 -0.90753656414E+03  0.13796582355E+04  0.13988988017E+03  0.16573082787E+04  0.46999998093E+01 0. -1.
</event>
<event>
 5   0  0.5707187E-07  0.3488658E+04  0.7818609E-02  0.8116483E-01
       -2   -1    0    0    0  501  0.00000000000E+00  0.00000000000E+00  0.14554605475E+04  0.14554605475E+04  0.25500000920E-02 0. -1.
        2   -1    0    0  501    0  0.00000000000E+00  0.00000000000E+00 -0.20905299990E+04  0.20905299990E+04  0.25500000920E-02 0.  1.
    10030    2    1    2    0    0  0.00000000000E+00  0.00000000000E+00 -0.63506945152E+03  0.35459905465E+04  0.34886581586E+04 0.  0.
        1    1    3    3  502    0  0.13798860188E+04 -0.15463352191E+03 -0.13906728461E+04  0.19651890280E+04  0.50400001928E-02 0.  1.
       -1    1    3    3    0  502 -0.13798860188E+04  0.15463352191E+03  0.75560339454E+03  0.15808015185E+04  0.50400001928E-02 0. -1.
</event>
<event>
 5   0  0.1933647E-07  0.3319829E+04  0.7818609E-02  0.8157868E-01
       -1   -1    0    0    0  501  0.00000000000E+00  0.00000000000E+00  0.13189015097E+04  0.13189015097E+04  0.50400001928E-02 0.  1.
        1   -1    0    0  501    0  0.00000000000E+00  0.00000000000E+00 -0.20890986700E+04  0.20890986700E+04  0.50400001928E-02 0. -1.
    10030    2    1    2    0    0  0.00000000000E+00  0.00000000000E+00 -0.77019716030E+03  0.34080001797E+04  0.33198285436E+04 0.  0.
        4    1    3    3  502    0  0.13960925074E+04  0.24371311978E+03 -0.12722519957E+04  0.19044939295E+04  0.12699999809E+01 0. -1.
       -4    1    3    3    0  502 -0.13960925074E+04 -0.24371311978E+03  0.50205483541E+03  0.15035062502E+04  0.12699999809E+01 0.  1.
</event>
<event>
 5   0  0.1933647E-07  0.3450436E+04  0.7818609E-02  0.8125637E-01
        1   -1    0    0  501    0  0.00000000000E+00  0.00000000000E+00  0.15226780246E+04  0.15226780246E+04  0.50400001928E-02 0.  1.
       -1   -1    0    0    0  501  0.00000000000E+00  0.00000000000E+00 -0.19546987354E+04  0.19546987354E+04  0.50400001928E-02 0. -1.
    10030    2    1    2    0    0  0.00000000000E+00  0.00000000000E+00 -0.43202071082E+03  0.34773767600E+04  0.34504358038E+04 0.  0.
        4    1    3    3  502    0  0.16367744203E+04  0.23494718614E+03  0.27991362816E+03  0.16770760076E+04  0.12699999809E+01 0.  1.
       -4    1    3    3    0  502 -0.16367744203E+04 -0.23494718614E+03 -0.71193433899E+03  0.18003007524E+04  0.12699999809E+01 0. -1.
</event>
<event>
 5   0  0.1908190E-07  0.3500154E+04  0.7818609E-02  0.8113753E-01
       -1   -1    0    0    0  501  0.00000000000E+00  0.00000000000E+00  0.11770220589E+04  0.11770220589E+04  0.50400001928E-02 0. -1.
        1   -1    0    0  501    0  0.00000000000E+00  0.00000000000E+00 -0.26021343364E+04  0.26021343364E+04  0.50400001928E-02 0.  1.
    10030    2    1    2    0    0  0.00000000000E+00  0.00000000000E+00 -0.14251122775E+04  0.37791563953E+04  0.35001540047E+04 0.  0.
        5    1    3    3  502    0  0.17012497936E+04 -0.19889089348E+03 -0.32485255010E+03  0.17433759540E+04  0.46999998093E+01 0.  1.
       -5    1    3    3    0  502 -0.17012497936E+04  0.19889089348E+03 -0.11002597274E+04  0.20357804413E+04  0.46999998093E+01 0. -1.
</event>
<event>
 5   0  0.5573334E-07  0.3492389E+04  0.7818609E-02  0.8115596E-01
       -2   -1    0    0    0  501  0.00000000000E+00  0.00000000000E+00  0.13934251616E+04  0.13934251616E+04  0.25500000920E-02 0.  1.
        2   -1    0    0  501    0  0.00000000000E+00  0.00000000000E+00 -0.21882728551E+04  0.21882728551E+04  0.25500000920E-02 0. -1.
    10030    2    1    2    0    0  0.00000000000E+00  0.00000000000E+00 -0.79484769353E+03  0.35816980167E+04  0.34923885561E+04 0.  0.
        4    1    3    3  502    0  0.45001585549E+03  0.10070512100E+04  0.99090239927E+03  0.14827527062E+04  0.12699999809E+01 0.  1.
       -4    1    3    3    0  502 -0.45001585549E+03 -0.10070512100E+04 -0.17857500928E+04  0.20989453105E+04  0.12699999809E+01 0. -1.
</event>
<event>
 5   0  0.1908190E-07  0.3458889E+04  0.7818609E-02  0.8123602E-01
       -1   -1    0    0    0  501  0.00000000000E+00  0.00000000000E+00  0.10391887159E+04  0.10391887160E+04  0.50400001928E-02 0.  1.
        1   -1    0    0  501    0  0.00000000000E+00  0.00000000000E+00 -0.28781865502E+04  0.28781865502E+04  0.50400001928E-02 0. -1.
    10030    2    1    2    0    0  0.00000000000E+00  0.00000000000E+00 -0.18389978342E+04  0.39173752661E+04  0.34588894087E+04 0.  0.
        5    1    3    3  502    0  0.14357432938E+04  0.48839167780E+03  0.22000470161E+02  0.15167041067E+04  0.46999998093E+01 0.  1.
       -5    1    3    3    0  502 -0.14357432938E+04 -0.48839167780E+03 -0.18609983044E+04  0.24006711594E+04  0.46999998093E+01 0. -1.
</event>
<event>
 5   0  0.5677193E-07  0.3439563E+04  0.7818609E-02  0.8128264E-01
       -2   -1    0    0    0  501  0.00000000000E+00  0.00000000000E+00  0.11758112202E+04  0.11758112202E+04  0.25500000920E-02 0. -1.
        2   -1    0    0  501    0  0.00000000000E+00  0.00000000000E+00 -0.25154107060E+04  0.25154107060E+04  0.25500000920E-02 0.  1.
    10030    2    1    2    0    0  0.00000000000E+00  0.00000000000E+00 -0.13395994857E+04  0.36912219262E+04  0.34395628394E+04 0.  0.
        3    1    3    3  502    0  0.14787846640E+02  0.45148558520E+03 -0.24506055489E+04  0.24918919480E+04  0.10100000352E+00 0.  1.
       -3    1    3    3    0  502 -0.14787846640E+02 -0.45148558520E+03  0.11110060631E+04  0.11993299782E+04  0.10100000352E+00 0. -1.
</event>
<event>
 5   0  0.5677193E-07  0.3330982E+04  0.7818609E-02  0.8155056E-01
       -2   -1    0    0    0  501  0.00000000000E+00  0.00000000000E+00  0.15276381088E+04  0.15276381088E+04  0.25500000920E-02 0. -1.
        2   -1    0    0  501    0  0.00000000000E+00  0.00000000000E+00 -0.18157836928E+04  0.18157836928E+04  0.25500000920E-02 0.  1.
    10030    2    1    2    0    0  0.00000000000E+00  0.00000000000E+00 -0.28814558392E+03  0.33434218016E+04  0.33309820573E+04 0.  0.
        3    1    3    3  502    0 -0.15535028736E+04  0.11079657634E+03 -0.73637254571E+03  0.17227569753E+04  0.10100000352E+00 0. -1.
       -3    1    3    3    0  502  0.15535028736E+04 -0.11079657634E+03  0.44822696179E+03  0.16206648263E+04  0.10100000352E+00 0.  1.
</event>
<event>
 5   0  0.1908190E-07  0.3518380E+04  0.7818609E-02  0.8109448E-01
        1   -1    0    0  501    0  0.00000000000E+00  0.00000000000E+00  0.32836535185E+04  0.32836535185E+04  0.50400001928E-02 0. -1.
       -1   -1    0    0    0  501  0.00000000000E+00  0.00000000000E+00 -0.94247123429E+03  0.94247123430E+03  0.50400001928E-02 0.  1.
    10030    2    1    2    0    0  0.00000000000E+00  0.00000000000E+00  0.23411822842E+04  0.42261247528E+04  0.35183797320E+04 0.  0.
        5    1    3    3  502    0  0.11211647106E+04 -0.98412879586E+03  0.50737581350E+02  0.14926875719E+04  0.46999998093E+01 0.  1.
       -5    1    3    3    0  502 -0.11211647106E+04  0.98412879586E+03  0.22904447029E+04  0.27334371809E+04  0.46999998093E+01 0. -1.
</event>
<event>
 5   0  0.5677193E-07  0.3500552E+04  0.7818609E-02  0.8113659E-01
        2   -1    0    0  501    0  0.00000000000E+00  0.00000000000E+00  0.22613208673E+04  0.22613208673E+04  0.25500000920E-02 0. -1.
       -2   -1    0    0    0  501  0.00000000000E+00  0.00000000000E+00 -0.13547243747E+04  0.13547243747E+04  0.25500000920E-02 0.  1.
    10030    2    1    2    0    0  0.00000000000E+00  0.00000000000E+00  0.90659649263E+03  0.36160452420E+04  0.35005522409E+04 0.  0.
        3    1    3    3  502    0  0.12259495559E+02 -0.69284594208E+03 -0.12069884626E+04  0.13917639720E+04  0.10100000352E+00 0.  1.
       -3    1    3    3    0  502 -0.12259495559E+02  0.69284594208E+03  0.21135849552E+04  0.22242812700E+04  0.10100000352E+00 0. -1.
</event>
<event>
 5   0  0.5740827E-07  0.3518187E+04  0.7818609E-02  0.8109493E-01
        2   -1    0    0  501    0  0.00000000000E+00  0.00000000000E+00  0.21035881359E+04  0.21035881359E+04  0.25500000920E-02 0. -1.
       -2   -1    0    0    0  501  0.00000000000E+00  0.00000000000E+00 -0.14710153841E+04  0.14710153841E+04  0.25500000920E-02 0.  1.
    10030    2    1    2    0    0  0.00000000000E+00  0.00000000000E+00  0.63257275182E+03  0.35746035199E+04  0.35181873228E+04 0.  0.
        2    1    3    3  502    0  0.16684957555E+04 -0.75050825400E+02 -0.24474543525E+03  0.16880198579E+04  0.25500000920E-02 0.  1.
       -2    1    3    3    0  502 -0.16684957555E+04  0.75050825400E+02  0.87731818707E+03  0.18865836620E+04  0.25500000920E-02 0. -1.
</event>
<event>
 5   0  0.5707187E-07  0.3504357E+04  0.7818609E-02  0.8112758E-01
        2   -1    0    0  501    0  0.00000000000E+00  0.00000000000E+00  0.24626139600E+04  0.24626139600E+04  0.25500000920E-02 0.  1.
       -2   -1    0    0    0  501  0.00000000000E+00  0.00000000000E+00 -0.12466957121E+04  0.12466957121E+04  0.25500000920E-02 0. -1.
    10030    2    1    2    0    0  0.00000000000E+00  0.00000000000E+00  0.12159182480E+04  0.37093096721E+04  0.35043574386E+04 0.  0.
        1    1    3    3  502    0 -0.14380799303E+04 -0.97238038827E+03  0.85963105737E+03  0.19371533394E+04  0.50400001928E-02 0.  1.
       -1    1    3    3    0  502  0.14380799303E+04  0.97238038827E+03  0.35628719060E+03  0.17721563327E+04  0.50400001928E-02 0. -1.
</event>
<event>
 5   0  0.1866421E-07  0.3500187E+04  0.7818609E-02  0.8113746E-01
        1   -1    0    0  501    0  0.00000000000E+00  0.00000000000E+00  0.15767307137E+04  0.15767307137E+04  0.50400001928E-02 0. -1.
       -1   -1    0    0    0  501  0.00000000000E+00  0.00000000000E+00 -0.19425176419E+04  0.19425176419E+04  0.50400001928E-02 0.  1.
    10030    2    1    2    0    0  0.00000000000E+00  0.00000000000E+00 -0.36578692816E+03  0.35192483556E+04  0.35001869823E+04 0.  0.
        1    1    3    3  502    0  0.15467408473E+04 -0.75364783840E+03  0.13890404385E+03  0.17261768873E+04  0.50400001928E-02 0. -1.
       -1    1    3    3    0  502 -0.15467408473E+04  0.75364783840E+03 -0.50469097201E+03  0.17930714682E+04  0.50400001928E-02 0.  1.
</event>
<event>
 5   0  0.5573334E-07  0.3492991E+04  0.7818609E-02  0.8115453E-01
        2   -1    0    0  501    0  0.00000000000E+00  0.00000000000E+00  0.19840599750E+04  0.19840599750E+04  0.25500000920E-02 0.  1.
       -2   -1    0    0    0  501  0.00000000000E+00  0.00000000000E+00 -0.15373758381E+04  0.15373758381E+04  0.25500000920E-02 0. -1.
    10030    2    1    2    0    0  0.00000000000E+00  0.00000000000E+00  0.44668413688E+03  0.35214358131E+04  0.34929906195E+04 0.  0.
        4    1    3    3  502    0  0.67679921345E+03 -0.24727396145E+02 -0.13996047970E+04  0.15548517036E+04  0.12699999809E+01 0. -1.
       -4    1    3    3    0  502 -0.67679921345E+03  0.24727396145E+02  0.18462889339E+04  0.19665841095E+04  0.12699999809E+01 0.  1.
</event>
<event>
 5   0  0.5573334E-07  0.3494216E+04  0.7818609E-02  0.8115162E-01
       -2   -1    0    0    0  501  0.00000000000E+00  0.00000000000E+00  0.10267304679E+04  0.10267304679E+04  0.25500000920E-02 0. -1.
        2   -1    0    0  501    0  0.00000000000E+00  0.00000000000E+00 -0.29729189037E+04  0.29729189037E+04  0.25500000920E-02 0.  1.
    10030    2    1    2    0    0  0.00000000000E+00  0.00000000000E+00 -0.19461884358E+04  0.39996493716E+04  0.34942160305E+04 0.  0.
        4    1    3    3  502    0 -0.52772634578E+03  0.16378025496E+04 -0.62686401090E+03  0.18313526118E+04  0.12699999809E+01 0.  1.
       -4    1    3    3    0  502  0.52772634578E+03 -0.16378025496E+04 -0.13193244249E+04  0.21682967598E+04  0.12699999809E+01 0. -1.
</event>
<event>
 5   0  0.5677193E-07  0.3498687E+04  0.7818609E-02  0.8114101E-01
        2   -1    0    0  501    0  0.00000000000E+00  0.00000000000E+00  0.17822270521E+04  0.17822270521E+04  0.25500000920E-02 0. -1.
       -2   -1    0    0    0  501  0.00000000000E+00  0.00000000000E+00 -0.17170670178E+04  0.17170670178E+04  0.25500000920E-02 0.  1.
    10030    2    1    2    0    0  0.00000000000E+00  0.00000000000E+00  0.65160034284E+02  0.34992940699E+04  0.34986873478E+04 0.  0.
        3    1    3    3  502    0 -0.14858616538E+04 -0.75275143863E+03 -0.50210009589E+03  0.17396908056E+04  0.10100000352E+00 0.  1.
       -3    1    3    3    0  502  0.14858616538E+04  0.75275143863E+03  0.56726013018E+03  0.17596032644E+04  0.10100000352E+00 0. -1.
</event>
<event>
 5   0  0.1933647E-07  0.3536695E+04  0.7818609E-02  0.8105148E-01
       -1   -1    0    0    0  501  0.00000000000E+00  0.00000000000E+00  0.18874037214E+04  0.18874037214E+04  0.50400001928E-02 0. -1.
        1   -1    0    0  501    0  0.00000000000E+00  0.00000000000E+00 -0.16568016838E+04  0.16568016838E+04  0.50400001928E-02 0.  1.
    10030    2    1    2    0    0  0.00000000000E+00  0.00000000000E+00  0.23060203757E+03  0.35442054053E+04  0.35366954428E+04 0.  0.
        4    1    3    3  502    0 -0.16308355021E+04  0.50427220090E+02 -0.56797134102E+03  0.17276459118E+04  0.12699999809E+01 0. -1.
       -4    1    3    3    0  502  0.16308355021E+04 -0.50427220090E+02  0.79857337859E+03  0.18165594935E+04  0.12699999809E+01 0.  1.
</event>
<event>
 5   0  0.1897049E-07  0.3501511E+04  0.7818609E-02  0.8113432E-01
        1   -1    0    0  501    0  0.00000000000E+00  0.00000000000E+00  0.28072642856E+04  0.28072642856E+04  0.50400001928E-02 0.  1.
       -1   -1    0    0    0  501  0.00000000000E+00  0.00000000000E+00 -0.10918619724E+04  0.10918619724E+04  0.50400001928E-02 0. -1.
    10030    2    1    2    0    0  0.00000000000E+00  0.00000000000E+00  0.17154023131E+04  0.38991262580E+04  0.35015111709E+04 0.  0.
        2    1    3    3  502    0  0.74960697634E+03 -0.13875855555E+04  0.11222730496E+02  0.15771589148E+04  0.25500000920E-02 0. -1.
       -2    1    3    3    0  502 -0.74960697634E+03  0.13875855555E+04  0.17041795826E+04  0.23219673432E+04  0.25500000920E-02 0.  1.
</event>
<event>
 5   0  0.5677193E-07  0.3496298E+04  0.7818609E-02  0.8114668E-01
       -2   -1    0    0    0  501  0.00000000000E+00  0.00000000000E+00  0.19803285395E+04  0.19803285395E+04  0.25500000920E-02 0. -1.
        2   -1    0    0  501    0  0.00000000000E+00  0.00000000000E+00 -0.15431905916E+04  0.15431905916E+04  0.25500000920E-02 0.  1.
    10030    2    1    2    0    0  0.00000000000E+00  0.00000000000E+00  0.43713794793E+03  0.35235191310E+04  0.34962976820E+04 0.  0.
        3    1    3    3  502    0  0.81786398781E+03 -0.59524905464E+03  0.16554331245E+04  0.19400210771E+04  0.10100000352E+00 0. -1.
       -3    1    3    3    0  502 -0.81786398781E+03  0.59524905464E+03 -0.12182951765E+04  0.15834980540E+04  0.10100000352E+00 0.  1.
</event>
<event>
 5   0  0.5573334E-07  0.3513143E+04  0.7818609E-02  0.8110682E-01
       -2   -1    0    0    0  501  0.00000000000E+00  0.00000000000E+00  0.15058401454E+04  0.15058401454E+04  0.25500000920E-02 0.  1.
        2   -1    0    0  501    0  0.00000000000E+00  0.00000000000E+00 -0.20490506347E+04  0.20490506347E+04  0.25500000920E-02 0. -1.
    10030    2    1    2    0    0  0.00000000000E+00  0.00000000000E+00 -0.54321048925E+03  0.35548907801E+04  0.35131425851E+04 0.  0.
        4    1    3    3  502    0  0.72745756825E+02  0.16829294730E+04 -0.77551662778E+03  0.18544463349E+04  0.12699999809E+01 0.  1.
       -4    1    3    3    0  502 -0.72745756825E+02 -0.16829294730E+04  0.23230613853E+03  0.17004444452E+04  0.12699999809E+01 0. -1.
</event>
<event>
 5   0  0.5573334E-07  0.3495390E+04  0.7818609E-02  0.8114883E-01
       -2   -1    0    0    0  501  0.00000000000E+00  0.00000000000E+00  0.12413556585E+04  0.12413556585E+04  0.25500000920E-02 0. -1.
        2   -1    0    0  501    0  0.00000000000E+00  0.00000000000E+00 -0.24605662972E+04  0.24605662972E+04  0.25500000920E-02 0.  1.
    10030    2    1    2    0    0  0.00000000000E+00  0.00000000000E+00 -0.12192106387E+04  0.37019219558E+04  0.34953900476E+04 0.  0.
        4    1    3    3  502    0  0.15099088923E+04  0.72583968010E+03 -0.11367797988E+04  0.20245834209E+04  0.12699999809E+01 0.  1.
       -4    1    3    3    0  502 -0.15099088923E+04 -0.72583968010E+03 -0.82430839900E+02  0.16773385349E+04  0.12699999809E+01 0. -1.
</event>
<event>
 5   0  0.1873457E-07  0.3498292E+04  0.7818609E-02  0.8114195E-01
       -1   -1    0    0    0  501  0.00000000000E+00  0.00000000000E+00  0.21701176457E+04  0.21701176457E+04  0.50400001928E-02 0. -1.
        1   -1    0    0  501    0  0.00000000000E+00  0.00000000000E+00 -0.14098366873E+04  0.14098366873E+04  0.50400001928E-02 0.  1.
    10030    2    1    2    0    0  0.00000000000E+00  0.00000000000E+00  0.76028095834E+03  0.35799543330E+04  0.34982918533E+04 0.  0.
        3    1    3    3  502    0 -0.12192148207E+04  0.44326056819E+03 -0.82051091927E+03  0.15349927977E+04  0.10100000352E+00 0.  1.
       -3    1    3    3    0  502  0.12192148207E+04 -0.44326056819E+03  0.15807918776E+04  0.20449615353E+04  0.10100000352E+00 0. -1.
</event>
<event>
 5   0  0.1866421E-07  0.3401085E+04  0.7818609E-02  0.8137640E-01
       -1   -1    0    0    0  501  0.00000000000E+00  0.00000000000E+00  0.17168259649E+04  0.17168259649E+04  0.50400001928E-02 0.  1.
        1   -1    0    0  501    0  0.00000000000E+00  0.00000000000E+00 -0.16844130777E+04  0.16844130777E+04  0.50400001928E-02 0. -1.
    10030    2    1    2    0    0  0.00000000000E+00  0.00000000000E+00  0.32412887229E+02  0.34012390426E+04  0.34010845961E+04 0.  0.
        1    1    3    3  502    0 -0.61235832642E+03 -0.95683098887E+03  0.12817029019E+04  0.17126793599E+04  0.50400001928E-02 0.  1.
       -1    1    3    3    0  502  0.61235832642E+03  0.95683098887E+03 -0.12492900147E+04  0.16885596827E+04  0.50400001928E-02 0. -1.
</event>
<event>
 5   0  0.1933647E-07  0.3499678E+04  0.7818609E-02  0.8113866E-01
       -1   -1    0    0    0  501  0.00000000000E+00  0.00000000000E+00  0.17591286972E+04  0.17591286972E+04  0.50400001928E-02 0. -1.
        1   -1    0    0  501    0  0.00000000000E+00  0.00000000000E+00 -0.17405986087E+04  0.17405986087E+04  0.50400001928E-02 0.  1.
    10030    2    1    2    0    0  0.00000000000E+00  0.00000000000E+00  0.18530088513E+02  0.34997273059E+04  0.34996782497E+04 0.  0.
        4    1    3    3  502    0 -0.45280121518E+03 -0.44374518356E+03 -0.16217074246E+04  0.17412281046E+04  0.12699999809E+01 0.  1.
       -4    1    3    3    0  502  0.45280121518E+03  0.44374518356E+03  0.16402375131E+04  0.17584992012E+04  0.12699999809E+01 0. -1.
</event>
<event>
 5   0  0.5707187E-07  0.3594490E+04  0.7818609E-02  0.8091755E-01
       -2   -1    0    0    0  501  0.00000000000E+00  0.00000000000E+00  0.14179346748E+04  0.14179346748E+04  0.25500000920E-02 0. -1.
        2   -1    0    0  501    0  0.00000000000E+00  0.00000000000E+00 -0.22780245818E+04  0.22780245818E+04  0.25500000920E-02 0.  1.
    10030    2    1    2    0    0  0.00000000000E+00  0.00000000000E+00 -0.86008990694E+03  0.36959592566E+04  0.35944902529E+04 0.  0.
        1    1    3    3  502    0  0.41856156330E+03 -0.13734002391E+04 -0.15416114528E+04  0.21066532393E+04  0.50400001928E-02 0.  1.
       -1    1    3    3    0  502 -0.41856156330E+03  0.13734002391E+04  0.68152154587E+03  0.15893060173E+04  0.50400001928E-02 0. -1.
</event>
<event>
 5   0  0.5573334E-07  0.3497074E+04  0.7818609E-02  0.8114484E-01
       -2   -1    0    0    0  501  0.00000000000E+00  0.00000000000E+00  0.16693592599E+04  0.16693592599E+04  0.25500000920E-02 0. -1.
        2   -1    0    0  501    0  0.00000000000E+00  0.00000000000E+00 -0.18314701904E+04  0.18314701904E+04  0.25500000920E-02 0.  1.
    10030    2    1    2    0    0  0.00000000000E+00  0.00000000000E+00 -0.16211093053E+03  0.35008294503E+04  0.34970740464E+04 0.  0.
        4    1    3    3  502    0 -0.25346877271E+03  0.17038723193E+04 -0.38129888053E+03  0.17643179273E+04  0.12699999809E+01 0. -1.
       -4    1    3    3    0  502  0.25346877271E+03 -0.17038723193E+04  0.21918795000E+03  0.17365115230E+04  0.12699999809E+01 0.  1.
</event>
<event>
 5   0  0.1908190E-07  0.3500600E+04  0.7818609E-02  0.8113648E-01
        1   -1    0    0  501    0  0.00000000000E+00  0.00000000000E+00  0.18557997092E+04  0.18557997092E+04  0.50400001928E-02 0. -1.
       -1   -1    0    0    0  501  0.00000000000E+00  0.00000000000E+00 -0.16507976298E+04  0.16507976298E+04  0.50400001928E-02 0.  1.
    10030    2    1    2    0    0  0.00000000000E+00  0.00000000000E+00  0.20500207944E+03  0.35065973390E+04  0.35005998122E+04 0.  0.
        5    1    3    3  502    0  0.21657479208E+03 -0.19861879877E+03 -0.16259039589E+04  0.16522529592E+04  0.46999998093E+01 0.  1.
       -5    1    3    3    0  502 -0.21657479208E+03  0.19861879877E+03  0.18309060383E+04  0.18543443798E+04  0.46999998093E+01 0. -1.
</event>
<event>
 5   0  0.5707187E-07  0.3492100E+04  0.7818609E-02  0.8115665E-01
        2   -1    0    0  501    0  0.00000000000E+00  0.00000000000E+00  0.15404385223E+04  0.15404385223E+04  0.25500000920E-02 0.  1.
       -2   -1    0    0    0  501  0.00000000000E+00  0.00000000000E+00 -0.19791052633E+04  0.19791052633E+04  0.25500000920E-02 0. -1.
    10030    2    1    2    0    0  0.00000000000E+00  0.00000000000E+00 -0.43866674097E+03  0.35195437856E+04  0.34920996477E+04 0.  0.
        1    1    3    3  502    0  0.78475905608E+03 -0.18358055965E+03  0.13417556390E+04  0.15652018378E+04  0.50400001928E-02 0.  1.
       -1    1    3    3    0  502 -0.78475905608E+03  0.18358055965E+03 -0.17804223800E+04  0.19543419479E+04  0.50400001928E-02 0. -1.
</event>
<event>
 5   0  0.1873457E-07  0.3548304E+04  0.7818609E-02  0.8102437E-01
        1   -1    0    0  501    0  0.00000000000E+00  0.00000000000E+00  0.13931646535E+04  0.13931646535E+04  0.50400001928E-02 0. -1.
       -1   -1    0    0    0  501  0.00000000000E+00  0.00000000000E+00 -0.22593271880E+04  0.22593271880E+04  0.50400001928E-02 0.  1.
    10030    2    1    2    0    0  0.00000000000E+00  0.00000000000E+00 -0.86616253446E+03  0.36524918415E+04  0.35483036956E+04 0.  0.
        3    1    3    3  502    0  0.10732913340E+04 -0.48553331787E+03 -0.17986534849E+04  0.21500816867E+04  0.10100000352E+00 0.  1.
       -3    1    3    3    0  502 -0.10732913340E+04  0.48553331787E+03  0.93249095045E+03  0.15024101548E+04  0.10100000352E+00 0. -1.
</event>
<event>
 5   0  0.1823000E-07  0.3515144E+04  0.7818609E-02  0.8110210E-01
        3   -1    0    0  501    0  0.00000000000E+00  0.00000000000E+00  0.19147754791E+04  0.19147754818E+04  0.10100000352E+00 0. -1.
       -3   -1    0    0    0  501  0.00000000000E+00  0.00000000000E+00 -0.16132750616E+04  0.16132750648E+04  0.10100000352E+00 0.  1.
    10030    2    1    2    0    0  0.00000000000E+00  0.00000000000E+00  0.30150041745E+03  0.35280505466E+04  0.35151441162E+04 0.  0.
        1    1    3    3  502    0  0.12414702258E+04  0.98467533493E+03 -0.61245330237E+03  0.16988033684E+04  0.50400001928E-02 0.  1.
       -1    1    3    3    0  502 -0.12414702258E+04 -0.98467533493E+03  0.91395371982E+03  0.18292471782E+04  0.50400001928E-02 0. -1.
</event>
<event>
 5   0  0.1908190E-07  0.3584750E+04  0.7818609E-02  0.8093994E-01
       -1   -1    0    0    0  501  0.00000000000E+00  0.00000000000E+00  0.28474279724E+04  0.28474279725E+04  0.50400001928E-02 0.  1.
        1   -1    0    0  501    0  0.00000000000E+00  0.00000000000E+00 -0.11282492822E+04  0.11282492822E+04  0.50400001928E-02 0. -1.
    10030    2    1    2    0    0  0.00000000000E+00  0.00000000000E+00  0.17191786902E+04  0.39756772547E+04  0.35847502374E+04 0.  0.
        5    1    3    3  502    0 -0.17771743905E+04  0.22723223959E+03  0.91617463925E+03  0.20123074727E+04  0.46999998093E+01 0. -1.
       -5    1    3    3    0  502  0.17771743905E+04 -0.22723223959E+03  0.80300405097E+03  0.19633697820E+04  0.46999998093E+01 0.  1.
</event>
<event>
 5   0  0.5554745E-07  0.3461376E+04  0.7818609E-02  0.8123005E-01
       -2   -1    0    0    0  501  0.00000000000E+00  0.00000000000E+00  0.19305713291E+04  0.19305713291E+04  0.25500000920E-02 0.  1.
        2   -1    0    0  501    0  0.00000000000E+00  0.00000000000E+00 -0.15514993811E+04  0.15514993811E+04  0.25500000920E-02 0. -1.
    10030    2    1    2    0    0  0.00000000000E+00  0.00000000000E+00  0.37907194792E+03  0.34820707102E+04  0.34613755776E+04 0.  0.
        5    1    3    3  502    0 -0.11793793323E+04  0.42341876522E+03 -0.10113513124E+04  0.16103020298E+04  0.46999998093E+01 0. -1.
       -5    1    3    3    0  502  0.11793793323E+04 -0.42341876522E+03  0.13904232603E+04  0.18717686804E+04  0.46999998093E+01 0.  1.
</event>
<event>
 5   0  0.5554745E-07  0.3460416E+04  0.7818609E-02  0.8123235E-01
        2   -1    0    0  501    0  0.00000000000E+00  0.00000000000E+00  0.23174715575E+04  0.23174715575E+04  0.25500000920E-02 0.  1.
       -2   -1    0    0    0  501  0.00000000000E+00  0.00000000000E+00 -0.12917610302E+04  0.12917610302E+04  0.25500000920E-02 0. -1.
    10030    2    1    2    0    0  0.00000000000E+00  0.00000000000E+00  0.10257105273E+04  0.36092325877E+04  0.34604158400E+04 0.  0.
        5    1    3    3  502    0  0.98581443683E+03  0.45263656694E+03  0.19187428107E+04  0.22041565346E+04  0.46999998093E+01 0.  1.
       -5    1    3    3    0  502 -0.98581443683E+03 -0.45263656694E+03 -0.89303228337E+03  0.14050760530E+04  0.46999998093E+01 0. -1.
</event>
<event>
 5   0  0.5573334E-07  0.3489706E+04  0.7818609E-02  0.8116234E-01
       -2   -1    0    0    0  501  0.00000000000E+00  0.00000000000E+00  0.15745824869E+04  0.15745824869E+04  0.25500000920E-02 0. -1.
        2   -1    0    0  501    0  0.00000000000E+00  0.00000000000E+00 -0.19335357817E+04  0.19335357817E+04  0.25500000920E-02 0.  1.
    10030    2    1    2    0    0  0.00000000000E+00  0.00000000000E+00 -0.35895329484E+03  0.35081182686E+04  0.34897057639E+04 0.  0.
        4    1    3    3  502    0  0.10229661435E+04  0.13192129776E+04 -0.68982377474E+03  0.18062782355E+04  0.12699999809E+01 0.  1.
       -4    1    3    3    0  502 -0.10229661435E+04 -0.13192129776E+04  0.33087047990E+03  0.17018400331E+04  0.12699999809E+01 0. -1.
</event>
<event>
 5   0  0.1866421E-07  0.3569747E+04  0.7818609E-02  0.8097457E-01
       -1   -1    0    0    0  501  0.00000000000E+00  0.00000000000E+00  0.23371190710E+04  0.23371190710E+04  0.50400001928E-02 0.  1.
        1   -1    0    0  501    0  0.00000000000E+00  0.00000000000E+00 -0.13631197213E+04  0.13631197213E+04  0.50400001928E-02 0. -1.
    10030    2    1    2    0    0  0.00000000000E+00  0.00000000000E+00  0.97399934965E+03  0.37002387923E+04  0.35697468240E+04 0.  0.
        1    1    3    3  502    0 -0.37816153938E+03  0.14806931869E+04  0.14428329875E+04  0.21017196515E+04  0.50400001928E-02 0.  1.
       -1    1    3    3    0  502  0.37816153938E+03 -0.14806931869E+04 -0.46883363783E+03  0.15985191408E+04  0.50400001928E-02 0. -1.
</event>
<event>
 5   0  0.5554745E-07  0.3498147E+04  0.7818609E-02  0.8114229E-01
        2   -1    0    0  501    0  0.00000000000E+00  0.00000000000E+00  0.12888927332E+04  0.12888927332E+04  0.25500000920E-02 0.  1.
       -2   -1    0    0    0  501  0.00000000000E+00  0.00000000000E+00 -0.23735546842E+04  0.23735546842E+04  0.25500000920E-02 0. -1.
    10030    2    1    2    0    0  0.00000000000E+00  0.00000000000E+00 -0.10846619510E+04  0.36624474175E+04  0.34981465861E+04 0.  0.
        5    1    3    3  502    0 -0.11838575369E+03  0.17447804341E+04 -0.50986914973E+03  0.18216098895E+04  0.46999998093E+01 0. -1.
       -5    1    3    3    0  502  0.11838575369E+03 -0.17447804341E+04 -0.57479280124E+03  0.18408375279E+04  0.46999998093E+01 0.  1.
</event>
<event>
 5   0  0.1908190E-07  0.3503578E+04  0.7818609E-02  0.8112942E-01
       -1   -1    0    0    0  501  0.00000000000E+00  0.00000000000E+00  0.20254455948E+04  0.20254455948E+04  0.50400001928E-02 0.  1.
        1   -1    0    0  501    0  0.00000000000E+00  0.00000000000E+00 -0.15151062533E+04  0.15151062533E+04  0.50400001928E-02 0. -1.
    10030    2    1    2    0    0  0.00000000000E+00  0.00000000000E+00  0.51033934152E+03  0.35405518481E+04  0.35035783344E+04 0.  0.
        5    1    3    3  502    0 -0.28574378961E+03  0.17089778617E+04  0.51574416775E+03  0.18078354410E+04  0.46999998093E+01 0. -1.
       -5    1    3    3    0  502  0.28574378961E+03 -0.17089778617E+04 -0.54048262343E+01  0.17327164071E+04  0.46999998093E+01 0.  1.
</event>
<event>
 5   0  0.5677193E-07  0.3512542E+04  0.7818609E-02  0.8110824E-01
        2   -1    0    0  501    0  0.00000000000E+00  0.00000000000E+00  0.20710178069E+04  0.20710178069E+04  0.25500000920E-02 0. -1.
       -2   -1    0    0    0  501  0.00000000000E+00  0.00000000000E+00 -0.14893586959E+04  0.14893586959E+04  0.25500000920E-02 0.  1.
    10030    2    1    2    0    0  0.00000000000E+00  0.00000000000E+00  0.58165911099E+03  0.35603765028E+04  0.35125423158E+04 0.  0.
        3    1    3    3  502    0 -0.11056289495E+04 -0.13644324094E+04  0.31103074153E+03  0.17834885214E+04  0.10100000352E+00 0.  1.
       -3    1    3    3    0  502  0.11056289495E+04  0.13644324094E+04  0.27062836946E+03  0.17768879813E+04  0.10100000352E+00 0. -1.
</event>
<event>
 5   0  0.5554745E-07  0.3507157E+04  0.7818609E-02  0.8112096E-01
       -2   -1    0    0    0  501  0.00000000000E+00  0.00000000000E+00  0.15503962355E+04  0.15503962355E+04  0.25500000920E-02 0.  1.
        2   -1    0    0  501    0  0.00000000000E+00  0.00000000000E+00 -0.19833879481E+04  0.19833879481E+04  0.25500000920E-02 0. -1.
    10030    2    1    2    0    0  0.00000000000E+00  0.00000000000E+00 -0.43299171258E+03  0.35337841835E+04  0.35071568018E+04 0.  0.
        5    1    3    3  502    0  0.87651983520E+03 -0.15164992326E+04 -0.30054484370E+03  0.17771905461E+04  0.46999998093E+01 0.  1.
       -5    1    3    3    0  502 -0.87651983520E+03  0.15164992326E+04 -0.13244686888E+03  0.17565936374E+04  0.46999998093E+01 0. -1.
</event>
<event>
 5   0  0.1933647E-07  0.3456075E+04  0.7818609E-02  0.8124279E-01
        1   -1    0    0  501    0  0.00000000000E+00  0.00000000000E+00  0.24269026363E+04  0.24269026363E+04  0.50400001928E-02 0.  1.
       -1   -1    0    0    0  501  0.00000000000E+00  0.00000000000E+00 -0.12304214439E+04  0.12304214439E+04  0.50400001928E-02 0. -1.
    10030    2    1    2    0    0  0.00000000000E+00  0.00000000000E+00  0.11964811925E+04  0.36573240802E+04  0.34560746786E+04 0.  0.
        4    1    3    3  502    0 -0.15193797470E+04 -0.17576837207E+03 -0.25276508976E+03  0.15502584107E+04  0.12699999809E+01 0. -1.
       -4    1    3    3    0  502  0.15193797470E+04  0.17576837207E+03  0.14492462822E+04  0.21070656696E+04  0.12699999809E+01 0.  1.
</event>
<event>
 5   0  0.5677193E-07  0.3507858E+04  0.7818609E-02  0.8111930E-01
       -2   -1    0    0    0  501  0.00000000000E+00  0.00000000000E+00  0.20369957482E+04  0.20369957482E+04  0.25500000920E-02 0.  1.
        2   -1    0    0  501    0  0.00000000000E+00  0.00000000000E+00 -0.15101979127E+04  0.15101979127E+04  0.25500000920E-02 0. -1.
    10030    2    1    2    0    0  0.00000000000E+00  0.00000000000E+00  0.52679783553E+03  0.35471936609E+04  0.35078578803E+04 0.  0.
        3    1    3    3  502    0  0.80134220873E+03 -0.87359684106E+03 -0.10437471167E+04  0.15794710602E+04  0.10100000352E+00 0. -1.
       -3    1    3    3    0  502 -0.80134220873E+03  0.87359684106E+03  0.15705449522E+04  0.19677226007E+04  0.10100000352E+00 0.  1.
</event>
<event>
 5   0  0.5740827E-07  0.3507058E+04  0.7818609E-02  0.8112119E-01
       -2   -1    0    0    0  501  0.00000000000E+00  0.00000000000E+00  0.27167229730E+04  0.27167229730E+04  0.25500000920E-02 0.  1.
        2   -1    0    0  501    0  0.00000000000E+00  0.00000000000E+00 -0.11318282564E+04  0.11318282564E+04  0.25500000920E-02 0. -1.
    10030    2    1    2    0    0  0.00000000000E+00  0.00000000000E+00  0.15848947166E+04  0.38485512294E+04  0.35070579269E+04 0.  0.
        2    1    3    3  502    0  0.16078805564E+04  0.63061089426E+03  0.45975349298E+03  0.17872669801E+04  0.25500000920E-02 0. -1.
       -2    1    3    3    0  502 -0.16078805564E+04 -0.63061089426E+03  0.11251412236E+04  0.20612842494E+04  0.25500000920E-02 0.  1.
</event>
<event>
 5   0  0.5573334E-07  0.3505656E+04  0.7818609E-02  0.8112451E-01
        2   -1    0    0  501    0  0.00000000000E+00  0.00000000000E+00  0.13831701622E+04  0.13831701622E+04  0.25500000920E-02 0.  1.
       -2   -1    0    0    0  501  0.00000000000E+00  0.00000000000E+00 -0.22212788112E+04  0.22212788112E+04  0.25500000920E-02 0. -1.
    10030    2    1    2    0    0  0.00000000000E+00  0.00000000000E+00 -0.83810864895E+03  0.36044489734E+04  0.35056563287E+04 0.  0.
        4    1    3    3  502    0 -0.80171968269E+02  0.10022754019E+04  0.10571719714E+04  0.14589714582E+04  0.12699999809E+01 0.  1.
       -4    1    3    3    0  502  0.80171968269E+02 -0.10022754019E+04 -0.18952806204E+04  0.21454775153E+04  0.12699999809E+01 0. -1.
</event>
<event>
 5   0  0.5677193E-07  0.3512765E+04  0.7818609E-02  0.8110771E-01
        2   -1    0    0  501    0  0.00000000000E+00  0.00000000000E+00  0.22121604769E+04  0.22121604769E+04  0.25500000920E-02 0.  1.
       -2   -1    0    0    0  501  0.00000000000E+00  0.00000000000E+00 -0.13945100599E+04  0.13945100599E+04  0.25500000920E-02 0. -1.
    10030    2    1    2    0    0  0.00000000000E+00  0.00000000000E+00  0.81765041700E+03  0.36066705367E+04  0.35127653147E+04 0.  0.
        3    1    3    3  502    0 -0.71283028798E+03  0.15710324098E+04  0.74719578914E+03  0.18800455871E+04  0.10100000352E+00 0.  1.
       -3    1    3    3    0  502  0.71283028798E+03 -0.15710324098E+04  0.70454627864E+02  0.17266249496E+04  0.10100000352E+00 0. -1.
</event>
<event>
 5   0  0.5707187E-07  0.3514268E+04  0.7818609E-02  0.8110417E-01
       -2   -1    0    0    0  501  0.00000000000E+00  0.00000000000E+00  0.13267241653E+04  0.13267241653E+04  0.25500000920E-02 0.  1.
        2   -1    0    0  501    0  0.00000000000E+00  0.00000000000E+00 -0.23271753833E+04  0.23271753833E+04  0.25500000920E-02 0. -1.
    10030    2    1    2    0    0  0.00000000000E+00  0.00000000000E+00 -0.10004512179E+04  0.36538995486E+04  0.35142679567E+04 0.  0.
        1    1    3    3  502    0 -0.16050240934E+04 -0.64667607509E+03 -0.18276209202E+03  0.17400270886E+04  0.50400001928E-02 0. -1.
       -1    1    3    3    0  502  0.16050240934E+04  0.64667607509E+03 -0.81768912591E+03  0.19138724600E+04  0.50400001928E-02 0.  1.
</event>
<event>
 5   0  0.5707187E-07  0.3445225E+04  0.7818609E-02  0.8126895E-01
        2   -1    0    0  501    0  0.00000000000E+00  0.00000000000E+00  0.21874678795E+04  0.21874678795E+04  0.25500000920E-02 0.  1.
       -2   -1    0    0    0  501  0.00000000000E+00  0.00000000000E+00 -0.13565427251E+04  0.13565427251E+04  0.25500000920E-02 0. -1.
    10030    2    1    2    0    0  0.00000000000E+00  0.00000000000E+00  0.83092515443E+03  0.35440106046E+04  0.34452248915E+04 0.  0.
        1    1    3    3  502    0  0.43424654749E+03  0.44441563290E+00  0.21302405980E+04  0.21740504287E+04  0.50400001928E-02 0.  1.
       -1    1    3    3    0  502 -0.43424654749E+03 -0.44441563290E+00 -0.12993154435E+04  0.13699601758E+04  0.50400001928E-02 0. -1.
</event>
<event>
 5   0  0.1866421E-07  0.3538760E+04  0.7818609E-02  0.8104665E-01
       -1   -1    0    0    0  501  0.00000000000E+00  0.00000000000E+00  0.18794234326E+04  0.18794234327E+04  0.50400001928E-02 0.  1.
        1   -1    0    0  501    0  0.00000000000E+00  0.00000000000E+00 -0.16657796552E+04  0.16657796552E+04  0.50400001928E-02 0. -1.
    10030    2    1    2    0    0  0.00000000000E+00  0.00000000000E+00  0.21364377745E+03  0.35452030879E+04  0.35387598492E+04 0.  0.
        1    1    3    3  502    0  0.43913309158E+03  0.15108087704E+04  0.91781686787E+03  0.18214743522E+04  0.50400001928E-02 0.  1.
       -1    1    3    3    0  502 -0.43913309158E+03 -0.15108087704E+04 -0.70417309042E+03  0.17237287356E+04  0.50400001928E-02 0. -1.
</event>
<event>
 5   0  0.1897049E-07  0.3271006E+04  0.7818609E-02  0.8170312E-01
       -1   -1    0    0    0  501  0.00000000000E+00  0.00000000000E+00  0.13778754081E+04  0.13778754081E+04  0.50400001928E-02 0.  1.
        1   -1    0    0  501    0  0.00000000000E+00  0.00000000000E+00 -0.19413008134E+04  0.19413008134E+04  0.50400001928E-02 0. -1.
    10030    2    1    2    0    0  0.00000000000E+00  0.00000000000E+00 -0.56342540534E+03  0.33191762216E+04  0.32710063593E+04 0.  0.
        2    1    3    3  502    0 -0.80143629706E+03  0.43826022389E+03 -0.16583408802E+04  0.18932687704E+04  0.25500000920E-02 0. -1.
       -2    1    3    3    0  502  0.80143629706E+03 -0.43826022389E+03  0.10949154749E+04  0.14259074511E+04  0.25500000920E-02 0.  1.
</event>
<event>
 5   0  0.5707187E-07  0.3517298E+04  0.7818609E-02  0.8109703E-01
        2   -1    0    0  501    0  0.00000000000E+00  0.00000000000E+00  0.18935977227E+04  0.18935977227E+04  0.25500000920E-02 0. -1.
       -2   -1    0    0    0  501  0.00000000000E+00  0.00000000000E+00 -0.16333177886E+04  0.16333177886E+04  0.25500000920E-02 0.  1.
    10030    2    1    2    0    0  0.00000000000E+00  0.00000000000E+00  0.26027993408E+03  0.35269155113E+04  0.35172983069E+04 0.  0.
        1    1    3    3  502    0 -0.11129219403E+04  0.12241279259E+04 -0.46794913472E+03  0.17193198704E+04  0.50400001928E-02 0.  1.
       -1    1    3    3    0  502  0.11129219403E+04 -0.12241279259E+04  0.72822906880E+03  0.18075956409E+04  0.50400001928E-02 0. -1.
</event>
<event>
 5   0  0.1908190E-07  0.3495110E+04  0.7818609E-02  0.8114950E-01
        1   -1    0    0  501    0  0.00000000000E+00  0.00000000000E+00  0.15701659269E+04  0.15701659269E+04  0.50400001928E-02 0. -1.
       -1   -1    0    0    0  501  0.00000000000E+00  0.00000000000E+00 -0.19449840866E+04  0.19449840866E+04  0.50400001928E-02 0.  1.
    10030    2    1    2    0    0  0.00000000000E+00  0.00000000000E+00 -0.37481815974E+03  0.35151500135E+04  0.34951095783E+04 0.  0.
        5    1    3    3  502    0  0.29399578983E+02 -0.95662859519E+03 -0.16579567319E+04  0.19143785465E+04  0.46999998093E+01 0.  1.
       -5    1    3    3    0  502 -0.29399578983E+02  0.95662859519E+03  0.12831385721E+04  0.16007714670E+04  0.46999998093E+01 0. -1.
</event>
<event>
 5   0  0.5554745E-07  0.3475603E+04  0.7818609E-02  0.8119596E-01
        2   -1    0    0  501    0  0.00000000000E+00  0.00000000000E+00  0.21354500061E+04  0.21354500061E+04  0.25500000920E-02 0.  1.
       -2   -1    0    0    0  501  0.00000000000E+00  0.00000000000E+00 -0.14142005860E+04  0.14142005860E+04  0.25500000920E-02 0. -1.
    10030    2    1    2    0    0  0.00000000000E+00  0.00000000000E+00  0.72124942010E+03  0.35496505922E+04  0.34756033434E+04 0.  0.
        5    1    3    3  502    0  0.13339246774E+04  0.24255489266E+03 -0.74961618371E+03  0.15492367262E+04  0.46999998093E+01 0. -1.
       -5    1    3    3    0  502 -0.13339246774E+04 -0.24255489266E+03  0.14708656038E+04  0.20004138660E+04  0.46999998093E+01 0.  1.
</event>
<event>
 5   0  0.1873457E-07  0.3474605E+04  0.7818609E-02  0.8119835E-01
       -1   -1    0    0    0  501  0.00000000000E+00  0.00000000000E+00  0.19816533233E+04  0.19816533233E+04  0.50400001928E-02 0.  1.
        1   -1    0    0  501    0  0.00000000000E+00  0.00000000000E+00 -0.15230816497E+04  0.15230816497E+04  0.50400001928E-02 0. -1.
    10030    2    1    2    0    0  0.00000000000E+00  0.00000000000E+00  0.45857167361E+03  0.35047349730E+04  0.34746049058E+04 0.  0.
        3    1    3    3  502    0 -0.10609840395E+04 -0.13731143449E+04  0.14435553784E+03  0.17412549118E+04  0.10100000352E+00 0.  1.
       -3    1    3    3    0  502  0.10609840395E+04  0.13731143449E+04  0.31421613577E+03  0.17634800612E+04  0.10100000352E+00 0. -1.
</event>
<event>
 5   0  0.5740827E-07  0.3502583E+04  0.7818609E-02  0.8113178E-01
        2   -1    0    0  501    0  0.00000000000E+00  0.00000000000E+00  0.28702804593E+04  0.28702804593E+04  0.25500000920E-02 0. -1.
       -2   -1    0    0    0  501  0.00000000000E+00  0.00000000000E+00 -0.10685440418E+04  0.10685440418E+04  0.25500000920E-02 0.  1.
    10030    2    1    2    0    0  0.00000000000E+00  0.00000000000E+00  0.18017364175E+04  0.39388245011E+04  0.35025825233E+04 0.  0.
        2    1    3    3  502    0  0.61950117235E+03 -0.27385971653E+03  0.27170196075E+04  0.28001743508E+04  0.25500000920E-02 0. -1.
       -2    1    3    3    0  502 -0.61950117235E+03  0.27385971653E+03 -0.91528319009E+03  0.11386501504E+04  0.25500000920E-02 0.  1.
</event>
<event>
 5   0  0.1933647E-07  0.3498989E+04  0.7818609E-02  0.8114029E-01
        1   -1    0    0  501    0  0.00000000000E+00  0.00000000000E+00  0.16962488545E+04  0.16962488545E+04  0.50400001928E-02 0. -1.
       -1   -1    0    0    0  501  0.00000000000E+00  0.00000000000E+00 -0.18044118953E+04  0.18044118953E+04  0.50400001928E-02 0.  1.
    10030    2    1    2    0    0  0.00000000000E+00  0.00000000000E+00 -0.10816304074E+03  0.35006607498E+04  0.34989893458E+04 0.  0.
        4    1    3    3  502    0  0.10027355593E+04 -0.13958812047E+04 -0.38098989269E+03  0.17604311548E+04  0.12699999809E+01 0.  1.
       -4    1    3    3    0  502 -0.10027355593E+04  0.13958812047E+04  0.27282685195E+03  0.17402295951E+04  0.12699999809E+01 0. -1.
</event>
<event>
 5   0  0.1908190E-07  0.3521939E+04  0.7818609E-02  0.8108610E-01
       -1   -1    0    0    0  501  0.00000000000E+00  0.00000000000E+00  0.18410124312E+04  0.18410124312E+04  0.50400001928E-02 0.  1.
        1   -1    0    0  501    0  0.00000000000E+00  0.00000000000E+00 -0.16844064566E+04  0.16844064566E+04  0.50400001928E-02 0. -1.
    10030    2    1    2    0    0  0.00000000000E+00  0.00000000000E+00  0.15660597464E+03  0.35254188878E+04  0.35219387989E+04 0.  0.
        5    1    3    3  502    0 -0.15875854247E+04  0.44056031447E+03 -0.54397861900E+03  0.17350664827E+04  0.46999998093E+01 0. -1.
       -5    1    3    3    0  502  0.15875854247E+04 -0.44056031447E+03  0.70058459364E+03  0.17903524051E+04  0.46999998093E+01 0.  1.
</event>
<event>
 5   0  0.1866421E-07  0.3517137E+04  0.7818609E-02  0.8109741E-01
        1   -1    0    0  501    0  0.00000000000E+00  0.00000000000E+00  0.27877889542E+04  0.27877889542E+04  0.50400001928E-02 0.  1.
       -1   -1    0    0    0  501  0.00000000000E+00  0.00000000000E+00 -0.11093247684E+04  0.11093247684E+04  0.50400001928E-02 0. -1.
    10030    2    1    2    0    0  0.00000000000E+00  0.00000000000E+00  0.16784641858E+04  0.38971137226E+04  0.35171370948E+04 0.  0.
        1    1    3    3  502    0 -0.90391077119E+03  0.18207645593E+03  0.24984603791E+04  0.26631768218E+04  0.50400001928E-02 0.  1.
       -1    1    3    3    0  502  0.90391077119E+03 -0.18207645593E+03 -0.81999619332E+03  0.12339369008E+04  0.50400001928E-02 0. -1.
</event>
<event>
 5   0  0.1897049E-07  0.3493090E+04  0.7818609E-02  0.8115430E-01
       -1   -1    0    0    0  501  0.00000000000E+00  0.00000000000E+00  0.13105080722E+04  0.13105080722E+04  0.50400001928E-02 0. -1.
        1   -1    0    0  501    0  0.00000000000E+00  0.00000000000E+00 -0.23276615248E+04  0.23276615248E+04  0.50400001928E-02 0.  1.
    10030    2    1    2    0    0  0.00000000000E+00  0.00000000000E+00 -0.10171534526E+04  0.36381695970E+04  0.34930898743E+04 0.  0.
        2    1    3    3  502    0  0.17130809658E+04 -0.45314103794E+02 -0.85980588495E+03  0.19172808671E+04  0.25500000920E-02 0.  1.
       -2    1    3    3    0  502 -0.17130809658E+04  0.45314103794E+02 -0.15734756766E+03  0.17208887299E+04  0.25500000920E-02 0. -1.
</event>
<event>
 5   0  0.5677193E-07  0.3479782E+04  0.7818609E-02  0.8118598E-01
       -2   -1    0    0    0  501  0.00000000000E+00  0.00000000000E+00  0.14597506087E+04  0.14597506087E+04  0.25500000920E-02 0.  1.
        2   -1    0    0  501    0  0.00000000000E+00  0.00000000000E+00 -0.20737929328E+04  0.20737929328E+04  0.25500000920E-02 0. -1.
    10030    2    1    2    0    0  0.00000000000E+00  0.00000000000E+00 -0.61404232412E+03  0.35335435415E+04  0.34797818874E+04 0.  0.
        3    1    3    3  502    0  0.10084825035E+04  0.82264331667E+03  0.86556673573E+03  0.15630050449E+04  0.10100000352E+00 0.  1.
       -3    1    3    3    0  502 -0.10084825035E+04 -0.82264331667E+03 -0.14796090599E+04  0.19705384966E+04  0.10100000352E+00 0. -1.
</event>
<event>
 5   0  0.5707187E-07  0.3539552E+04  0.7818609E-02  0.8104480E-01
        2   -1    0    0  501    0  0.00000000000E+00  0.00000000000E+00  0.15036521920E+04  0.15036521920E+04  0.25500000920E-02 0. -1.
       -2   -1    0    0    0  501  0.00000000000E+00  0.00000000000E+00 -0.20829997805E+04  0.20829997805E+04  0.25500000920E-02 0.  1.
    10030    2    1    2    0    0  0.00000000000E+00  0.00000000000E+00 -0.57934758852E+03  0.35866519725E+04  0.35395520540E+04 0.  0.
        1    1    3    3  502    0  0.69448874465E+03  0.15347986062E+03 -0.19318049856E+04  0.20585774667E+04  0.50400001928E-02 0.  1.
       -1    1    3    3    0  502 -0.69448874465E+03 -0.15347986062E+03  0.13524573971E+04  0.15280745057E+04  0.50400001928E-02 0. -1.
</event>
<event>
 5   0  0.1897049E-07  0.3512319E+04  0.7818609E-02  0.8110877E-01
       -1   -1    0    0    0  501  0.00000000000E+00  0.00000000000E+00  0.12168674925E+04  0.12168674925E+04  0.50400001928E-02 0. -1.
        1   -1    0    0  501    0  0.00000000000E+00  0.00000000000E+00 -0.25344558926E+04  0.25344558926E+04  0.50400001928E-02 0.  1.
    10030    2    1    2    0    0  0.00000000000E+00  0.00000000000E+00 -0.13175884001E+04  0.37513233850E+04  0.35123194540E+04 0.  0.
        2    1    3    3  502    0  0.10791543387E+04  0.12735686630E+04 -0.76198360908E+02  0.16710348340E+04  0.25500000920E-02 0.  1.
       -2    1    3    3    0  502 -0.10791543387E+04 -0.12735686630E+04 -0.12413900392E+04  0.20802885510E+04  0.25500000920E-02 0. -1.
</event>
<event>
 5   0  0.1933647E-07  0.3503261E+04  0.7818609E-02  0.8113018E-01
        1   -1    0    0  501    0  0.00000000000E+00  0.00000000000E+00  0.16175768581E+04  0.16175768581E+04  0.50400001928E-02 0.  1.
       -1   -1    0    0    0  501  0.00000000000E+00  0.00000000000E+00 -0.18967933004E+04  0.18967933004E+04  0.50400001928E-02 0. -1.
    10030    2    1    2    0    0  0.00000000000E+00  0.00000000000E+00 -0.27921644223E+03  0.35143701585E+04  0.35032607367E+04 0.  0.
        4    1    3    3  502    0  0.72255701153E+03  0.12709310080E+04  0.82825861519E+03  0.16802881326E+04  0.12699999809E+01 0.  1.
       -4    1    3    3    0  502 -0.72255701153E+03 -0.12709310080E+04 -0.11074750574E+04  0.18340820259E+04  0.12699999809E+01 0. -1.
</event>
<event>
 5   0  0.1873457E-07  0.3517015E+04  0.7818609E-02  0.8109769E-01
        1   -1    0    0  501    0  0.00000000000E+00  0.00000000000E+00  0.17315011984E+04  0.17315011984E+04  0.50400001928E-02 0.  1.
       -1   -1    0    0    0  501  0.00000000000E+00  0.00000000000E+00 -0.17859349114E+04  0.17859349114E+04  0.50400001928E-02 0. -1.
    10030    2    1    2    0    0  0.00000000000E+00  0.00000000000E+00 -0.54433713047E+02  0.35174361098E+04  0.35170148930E+04 0.  0.
        3    1    3    3  502    0  0.80345596694E+03  0.69602536553E+03 -0.14282256723E+04  0.17803992197E+04  0.10100000352E+00 0. -1.
       -3    1    3    3    0  502 -0.80345596694E+03 -0.69602536553E+03  0.13737919592E+04  0.17370368902E+04  0.10100000352E+00 0.  1.
</event>
<event>
 5   0  0.1933647E-07  0.3498237E+04  0.7818609E-02  0.8114208E-01
        1   -1    0    0  501    0  0.00000000000E+00  0.00000000000E+00  0.14020101279E+04  0.14020101279E+04  0.50400001928E-02 0.  1.
       -1   -1    0    0    0  501  0.00000000000E+00  0.00000000000E+00 -0.21821636313E+04  0.21821636313E+04  0.50400001928E-02 0. -1.
    10030    2    1    2    0    0  0.00000000000E+00  0.00000000000E+00 -0.78015350343E+03  0.35841737592E+04  0.34982369913E+04 0.  0.
        4    1    3    3  502    0  0.86292822952E+03 -0.10310708371E+04  0.75618370232E+03  0.15425847156E+04  0.12699999809E+01 0.  1.
       -4    1    3    3    0  502 -0.86292822952E+03  0.10310708371E+04 -0.15363372057E+04  0.20415890436E+04  0.12699999809E+01 0. -1.
</event>
<event>
 5   0  0.5740827E-07  0.3511621E+04  0.7818609E-02  0.8111042E-01
       -2   -1    0    0    0  501  0.00000000000E+00  0.00000000000E+00  0.20528266421E+04  0.20528266421E+04  0.25500000920E-02 0.  1.
        2   -1    0    0  501    0  0.00000000000E+00  0.00000000000E+00 -0.15017682664E+04  0.15017682664E+04  0.25500000920E-02 0. -1.
    10030    2    1    2    0    0  0.00000000000E+00  0.00000000000E+00  0.55105837570E+03  0.35545949085E+04  0.35116206558E+04 0.  0.
        2    1    3    3  502    0 -0.13188515275E+04  0.17332015763E+03  0.14356175164E+04  0.19571425299E+04  0.25500000920E-02 0.  1.
       -2    1    3    3    0  502  0.13188515275E+04 -0.17332015763E+03 -0.88455914074E+03  0.15974523787E+04  0.25500000920E-02 0. -1.
</event>
<event>
 5   0  0.5707187E-07  0.3511896E+04  0.7818609E-02  0.8110977E-01
        2   -1    0    0  501    0  0.00000000000E+00  0.00000000000E+00  0.13281750288E+04  0.13281750288E+04  0.25500000920E-02 0.  1.
       -2   -1    0    0    0  501  0.00000000000E+00  0.00000000000E+00 -0.23214961290E+04  0.23214961290E+04  0.25500000920E-02 0. -1.
    10030    2    1    2    0    0  0.00000000000E+00  0.00000000000E+00 -0.99332110024E+03  0.36496711578E+04  0.35118958914E+04 0.  0.
        1    1    3    3  502    0  0.11826849422E+04 -0.11744157251E+04  0.77609542302E+02  0.16685380454E+04  0.50400001928E-02 0. -1.
       -1    1    3    3    0  502 -0.11826849422E+04  0.11744157251E+04 -0.10709306425E+04  0.19811331124E+04  0.50400001928E-02 0.  1.
</event>
<event>
 5   0  0.1866421E-07  0.3495741E+04  0.7818609E-02  0.8114800E-01
       -1   -1    0    0    0  501  0.00000000000E+00  0.00000000000E+00  0.17075753094E+04  0.17075753094E+04  0.50400001928E-02 0. -1.
        1   -1    0    0  501    0  0.00000000000E+00  0.00000000000E+00 -0.17891169159E+04  0.17891169159E+04  0.50400001928E-02 0.  1.
    10030    2    1    2    0    0  0.00000000000E+00  0.00000000000E+00 -0.81541606505E+02  0.34966922254E+04  0.34957413356E+04 0.  0.
        1    1    3    3  502    0 -0.16376295613E+04  0.60651389992E+03 -0.11401763347E+03  0.17500542025E+04  0.50400001928E-02 0. -1.
       -1    1    3    3    0  502  0.16376295613E+04 -0.60651389992E+03  0.32476026964E+02  0.17466380229E+04  0.50400001928E-02 0.  1.
</event>
<event>
 5   0  0.5740827E-07  0.3503140E+04  0.7818609E-02  0.8113046E-01
       -2   -1    0    0    0  501  0.00000000000E+00  0.00000000000E+00  0.13690597539E+04  0.13690597539E+04  0.25500000920E-02 0. -1.
        2   -1    0    0  501    0  0.00000000000E+00  0.00000000000E+00 -0.22409526399E+04  0.22409526399E+04  0.25500000920E-02 0.  1.
    10030    2    1    2    0    0  0.00000000000E+00  0.00000000000E+00 -0.87189288600E+03  0.36100123938E+04  0.35031403453E+04 0.  0.
        2    1    3    3  502    0 -0.44155384018E+03 -0.15206514314E+04  0.33566045444E+03  0.16186471235E+04  0.25500000920E-02 0. -1.
       -2    1    3    3    0  502  0.44155384018E+03  0.15206514314E+04 -0.12075533404E+04  0.19913652703E+04  0.25500000920E-02 0.  1.
</event>
<event>
 5   0  0.1873457E-07  0.3491386E+04  0.7818609E-02  0.8115834E-01
        1   -1    0    0  501    0  0.00000000000E+00  0.00000000000E+00  0.21785012305E+04  0.21785012305E+04  0.50400001928E-02 0. -1.
       -1   -1    0    0    0  501  0.00000000000E+00  0.00000000000E+00 -0.13988720852E+04  0.13988720852E+04  0.50400001928E-02 0.  1.
    10030    2    1    2    0    0  0.00000000000E+00  0.00000000000E+00  0.77962914530E+03  0.35773733157E+04  0.34913862914E+04 0.  0.
        3    1    3    3  502    0 -0.13715525931E+04  0.10110342151E+04  0.86337785203E+00  0.17039211998E+04  0.10100000352E+00 0.  1.
       -3    1    3    3    0  502  0.13715525931E+04 -0.10110342151E+04  0.77876576745E+03  0.18734521159E+04  0.10100000352E+00 0. -1.
</event>
<event>
 5   0  0.5707187E-07  0.3502411E+04  0.7818609E-02  0.8113219E-01
        2   -1    0    0  501    0  0.00000000000E+00  0.00000000000E+00  0.12501818021E+04  0.12501818021E+04  0.25500000920E-02 0. -1.
       -2   -1    0    0    0  501  0.00000000000E+00  0.00000000000E+00 -0.24530197873E+04  0.24530197873E+04  0.25500000920E-02 0.  1.
    10030    2    1    2    0    0  0.00000000000E+00  0.00000000000E+00 -0.12028379852E+04  0.37032015895E+04  0.35024109972E+04 0.  0.
        1    1    3    3  502    0  0.17182191637E+03  0.17295332491E+04 -0.82797548407E+03  0.19251886746E+04  0.50400001928E-02 0.  1.
       -1    1    3    3    0  502 -0.17182191637E+03 -0.17295332491E+04 -0.37486250111E+03  0.17780129149E+04  0.50400001928E-02 0. -1.
</event>
<event>
 5   0  0.1873457E-07  0.3448617E+04  0.7818609E-02  0.8126076E-01
       -1   -1    0    0    0  501  0.00000000000E+00  0.00000000000E+00  0.22978285134E+04  0.22978285134E+04  0.50400001928E-02 0. -1.
        1   -1    0    0  501    0  0.00000000000E+00  0.00000000000E+00 -0.12939346565E+04  0.12939346565E+04  0.50400001928E-02 0.  1.
    10030    2    1    2    0    0  0.00000000000E+00  0.00000000000E+00  0.10038938569E+04  0.35917631699E+04  0.34486170841E+04 0.  0.
        3    1    3    3  502    0 -0.86021099178E+03  0.28570705051E+03  0.20296831549E+04  0.22228821805E+04  0.10100000352E+00 0. -1.
       -3    1    3    3    0  502  0.86021099178E+03 -0.28570705051E+03 -0.10257892980E+04  0.13688809894E+04  0.10100000352E+00 0.  1.
</event>
<event>
 5   0  0.5554745E-07  0.3444292E+04  0.7818609E-02  0.8127120E-01
        2   -1    0    0  501    0  0.00000000000E+00  0.00000000000E+00  0.18862523334E+04  0.18862523334E+04  0.25500000920E-02 0.  1.
       -2   -1    0    0    0  501  0.00000000000E+00  0.00000000000E+00 -0.15723171093E+04  0.15723171093E+04  0.25500000920E-02 0. -1.
    10030    2    1    2    0    0  0.00000000000E+00  0.00000000000E+00  0.31393522411E+03  0.34585694428E+04  0.34442919832E+04 0.  0.
        5    1    3    3  502    0  0.77749888211E+03  0.87774747869E+03  0.14234728868E+04  0.18442457259E+04  0.46999998093E+01 0.  1.
       -5    1    3    3    0  502 -0.77749888211E+03 -0.87774747869E+03 -0.11095376627E+04  0.16143237169E+04  0.46999998093E+01 0. -1.
</event>
<event>
 5   0  0.5707187E-07  0.3486255E+04  0.7818609E-02  0.8117055E-01
        2   -1    0    0  501    0  0.00000000000E+00  0.00000000000E+00  0.17520803822E+04  0.17520803822E+04  0.25500000920E-02 0.  1.
       -2   -1    0    0    0  501  0.00000000000E+00  0.00000000000E+00 -0.17342204454E+04  0.17342204454E+04  0.25500000920E-02 0. -1.
    10030    2    1    2    0    0  0.00000000000E+00  0.00000000000E+00  0.17859936765E+02  0.34863008276E+04  0.34862550801E+04 0.  0.
        1    1    3    3  502    0 -0.10741480343E+04  0.13668896494E+04  0.13665128895E+03  0.17438047161E+04  0.50400001928E-02 0.  1.
       -1    1    3    3    0  502  0.10741480343E+04 -0.13668896494E+04 -0.11879135218E+03  0.17424961115E+04  0.50400001928E-02 0. -1.
</event>
<event>
 5   0  0.1897049E-07  0.3416893E+04  0.7818609E-02  0.8133773E-01
        1   -1    0    0  501    0  0.00000000000E+00  0.00000000000E+00  0.14618161539E+04  0.14618161539E+04  0.50400001928E-02 0.  1.
       -1   -1    0    0    0  501  0.00000000000E+00  0.00000000000E+00 -0.19966868903E+04  0.19966868903E+04  0.50400001928E-02 0. -1.
    10030    2    1    2    0    0  0.00000000000E+00  0.00000000000E+00 -0.53487073639E+03  0.34585030441E+04  0.34168928285E+04 0.  0.
        2    1    3    3  502    0  0.14464617925E+04 -0.61750985451E+02 -0.11855226136E+04  0.18712372294E+04  0.25500000920E-02 0. -1.
       -2    1    3    3    0  502 -0.14464617925E+04  0.61750985451E+02  0.65065187723E+03  0.15872658147E+04  0.25500000920E-02 0.  1.
</event>
<event>
 5   0  0.5740827E-07  0.3488296E+04  0.7818609E-02  0.8116569E-01
        2   -1    0    0  501    0  0.00000000000E+00  0.00000000000E+00  0.17267522077E+04  0.17267522077E+04  0.25500000920E-02 0. -1.
       -2   -1    0    0    0  501  0.00000000000E+00  0.00000000000E+00 -0.17617191948E+04  0.17617191948E+04  0.25500000920E-02 0.  1.
    10030    2    1    2    0    0  0.00000000000E+00  0.00000000000E+00 -0.34966987106E+02  0.34884714025E+04  0.34882961508E+04 0.  0.
        2    1    3    3  502    0  0.14735920797E+04 -0.65965224197E+03  0.64242677694E+03  0.17376210350E+04  0.25500000920E-02 0.  1.
       -2    1    3    3    0  502 -0.14735920797E+04  0.65965224197E+03 -0.67739376404E+03  0.17508503674E+04  0.25500000920E-02 0. -1.
</event>
<event>
 5   0  0.5707187E-07  0.3496930E+04  0.7818609E-02  0.8114518E-01
       -2   -1    0    0    0  501  0.00000000000E+00  0.00000000000E+00  0.12100265679E+04  0.12100265679E+04  0.25500000920E-02 0.  1.
        2   -1    0    0  501    0  0.00000000000E+00  0.00000000000E+00 -0.25264986915E+04  0.25264986915E+04  0.25500000920E-02 0. -1.
    10030    2    1    2    0    0  0.00000000000E+00  0.00000000000E+00 -0.13164721237E+04  0.37365252594E+04  0.34969303913E+04 0.  0.
        1    1    3    3  502    0 -0.87410275432E+03 -0.55803772573E+03  0.84593237815E+03  0.13383061372E+04  0.50400001928E-02 0.  1.
       -1    1    3    3    0  502  0.87410275432E+03  0.55803772573E+03 -0.21624045018E+04  0.23982191222E+04  0.50400001928E-02 0. -1.
</event>
<event>
 5   0  0.1897049E-07  0.3522748E+04  0.7818609E-02  0.8108420E-01
       -1   -1    0    0    0  501  0.00000000000E+00  0.00000000000E+00  0.13809580601E+04  0.13809580601E+04  0.50400001928E-02 0. -1.
        1   -1    0    0  501    0  0.00000000000E+00  0.00000000000E+00 -0.22465844265E+04  0.22465844265E+04  0.50400001928E-02 0.  1.
    10030    2    1    2    0    0  0.00000000000E+00  0.00000000000E+00 -0.86562636644E+03  0.36275424866E+04  0.35227482859E+04 0.  0.
        2    1    3    3  502    0 -0.11972224252E+04  0.11659268768E+04  0.14025963471E+03  0.16770211038E+04  0.25500000920E-02 0. -1.
       -2    1    3    3    0  502  0.11972224252E+04 -0.11659268768E+04 -0.10058860011E+04  0.19505213828E+04  0.25500000920E-02 0.  1.
</event>
<event>
 5   0  0.1933647E-07  0.3502723E+04  0.7818609E-02  0.8113145E-01
        1   -1    0    0  501    0  0.00000000000E+00  0.00000000000E+00  0.27581801066E+04  0.27581801066E+04  0.50400001928E-02 0. -1.
       -1   -1    0    0    0  501  0.00000000000E+00  0.00000000000E+00 -0.11120619311E+04  0.11120619311E+04  0.50400001928E-02 0.  1.
    10030    2    1    2    0    0  0.00000000000E+00  0.00000000000E+00  0.16461181755E+04  0.38702420377E+04  0.35027229955E+04 0.  0.
        4    1    3    3  502    0 -0.21701386933E+03 -0.17117047505E+03  0.27339292662E+04  0.27478655711E+04  0.12699999809E+01 0. -1.
       -4    1    3    3    0  502  0.21701386933E+03  0.17117047505E+03 -0.10878110907E+04  0.11223764667E+04  0.12699999809E+01 0.  1.
</event>
<event>
 5   0  0.5554745E-07  0.3467931E+04  0.7818609E-02  0.8121432E-01
        2   -1    0    0  501    0  0.00000000000E+00  0.00000000000E+00  0.22224288732E+04  0.22224288732E+04  0.25500000920E-02 0. -1.
       -2   -1    0    0    0  501  0.00000000000E+00  0.00000000000E+00 -0.13528603557E+04  0.13528603557E+04  0.25500000920E-02 0.  1.
    10030    2    1    2    0    0  0.00000000000E+00  0.00000000000E+00  0.86956851752E+03  0.35752892288E+04  0.34679307466E+04 0.  0.
        5    1    3    3  502    0  0.71175746996E+03  0.12208915276E+04 -0.60102742594E+03  0.15357183580E+04  0.46999998093E+01 0.  1.
       -5    1    3    3    0  502 -0.71175746996E+03 -0.12208915276E+04  0.14705959435E+04  0.20395708709E+04  0.46999998093E+01 0. -1.
</event>
<event>
 5   0  0.1908190E-07  0.3306939E+04  0.7818609E-02  0.8161132E-01
       -1   -1    0    0    0  501  0.00000000000E+00  0.00000000000E+00  0.11365992459E+04  0.11365992459E+04  0.50400001928E-02 0. -1.
        1   -1    0    0  501    0  0.00000000000E+00  0.00000000000E+00 -0.24053867131E+04  0.24053867131E+04  0.50400001928E-02 0.  1.
    10030    2    1    2    0    0  0.00000000000E+00  0.00000000000E+00 -0.12687874671E+04  0.35419859590E+04  0.33069385989E+04 0.  0.
        5    1    3    3  502    0 -0.15954683750E+04  0.17656278167E+03 -0.10591198478E+04  0.19231356410E+04  0.46999998093E+01 0.  1.
       -5    1    3    3    0  502  0.15954683750E+04 -0.17656278167E+03 -0.20966761931E+03  0.16188503180E+04  0.46999998093E+01 0. -1.
</event>
<event>
 5   0  0.1873457E-07  0.3483868E+04  0.7818609E-02  0.8117624E-01
       -1   -1    0    0    0  501  0.00000000000E+00  0.00000000000E+00  0.16768124045E+04  0.16768124045E+04  0.50400001928E-02 0.  1.
        1   -1    0    0  501    0  0.00000000000E+00  0.00000000000E+00 -0.18095844015E+04  0.18095844015E+04  0.50400001928E-02 0. -1.
    10030    2    1    2    0    0  0.00000000000E+00  0.00000000000E+00 -0.13277199701E+03  0.34863968060E+04  0.34838677193E+04 0.  0.
        3    1    3    3  502    0 -0.54162550690E+03 -0.73332770482E+03 -0.15517835245E+04  0.17997666042E+04  0.10100000352E+00 0. -1.
       -3    1    3    3    0  502  0.54162550690E+03  0.73332770482E+03  0.14190115275E+04  0.16866302018E+04  0.10100000352E+00 0.  1.
</event>
<event>
 5   0  0.5677193E-07  0.3498218E+04  0.7818609E-02  0.8114212E-01
       -2   -1    0    0    0  501  0.00000000000E+00  0.00000000000E+00  0.16474992897E+04  0.16474992897E+04  0.25500000920E-02 0.  1.
        2   -1    0    0  501    0  0.00000000000E+00  0.00000000000E+00 -0.18569851644E+04  0.18569851644E+04  0.25500000920E-02 0. -1.
    10030    2    1    2    0    0  0.00000000000E+00  0.00000000000E+00 -0.20948587467E+03  0.35044844540E+04  0.34982176829E+04 0.  0.
        3    1    3    3  502    0 -0.16728173130E+04  0.23490111862E+03  0.34981590959E+03  0.17250702824E+04  0.10100000352E+00 0. -1.
       -3    1    3    3    0  502  0.16728173130E+04 -0.23490111862E+03 -0.55930178425E+03  0.17794141717E+04  0.10100000352E+00 0.  1.
</event>
<event>
 5   0  0.5554745E-07  0.3506707E+04  0.7818609E-02  0.8112202E-01
       -2   -1    0    0    0  501  0.00000000000E+00  0.00000000000E+00  0.95365877313E+03  0.95365877313E+03  0.25500000920E-02 0.  1.
        2   -1    0    0  501    0  0.00000000000E+00  0.00000000000E+00 -0.32236362680E+04  0.32236362680E+04  0.25500000920E-02 0. -1.
    10030    2    1    2    0    0  0.00000000000E+00  0.00000000000E+00 -0.22699774949E+04  0.41772950411E+04  0.35067072922E+04 0.  0.
        5    1    3    3  502    0 -0.44534312704E+03 -0.25724004502E+03  0.86177858423E+03  0.10035872457E+04  0.46999998093E+01 0.  1.
       -5    1    3    3    0  502  0.44534312704E+03  0.25724004502E+03 -0.31317560791E+04  0.31737077954E+04  0.46999998093E+01 0. -1.
</event>
<event>
 5   0  0.1908190E-07  0.3501048E+04  0.7818609E-02  0.8113542E-01
       -1   -1    0    0    0  501  0.00000000000E+00  0.00000000000E+00  0.10726136299E+04  0.10726136299E+04  0.50400001928E-02 0.  1.
        1   -1    0    0  501    0  0.00000000000E+00  0.00000000000E+00 -0.28568850106E+04  0.28568850106E+04  0.50400001928E-02 0. -1.
    10030    2    1    2    0    0  0.00000000000E+00  0.00000000000E+00 -0.17842713807E+04  0.39294986405E+04  0.35010477297E+04 0.  0.
        5    1    3    3  502    0 -0.17163737171E+04  0.31394248263E+03 -0.10501204670E+04  0.20364856259E+04  0.46999998093E+01 0. -1.
       -5    1    3    3    0  502  0.17163737171E+04 -0.31394248263E+03 -0.73415091371E+03  0.18930130146E+04  0.46999998093E+01 0.  1.
</event>
<event>
 5   0  0.1897049E-07  0.3509743E+04  0.7818609E-02  0.8111485E-01
        1   -1    0    0  501    0  0.00000000000E+00  0.00000000000E+00  0.18100586076E+04  0.18100586076E+04  0.50400001928E-02 0.  1.
       -1   -1    0    0    0  501  0.00000000000E+00  0.00000000000E+00 -0.17013668830E+04  0.17013668830E+04  0.50400001928E-02 0. -1.
    10030    2    1    2    0    0  0.00000000000E+00  0.00000000000E+00  0.10869172461E+03  0.35114254906E+04  0.35097428802E+04 0.  0.
        2    1    3    3  502    0  0.66446130406E+03  0.95156609937E+03  0.13712545710E+04  0.17964759849E+04  0.25500000920E-02 0.  1.
       -2    1    3    3    0  502 -0.66446130406E+03 -0.95156609937E+03 -0.12625628463E+04  0.17149495057E+04  0.25500000920E-02 0. -1.
</event>
<event>
 5   0  0.5573334E-07  0.3512661E+04  0.7818609E-02  0.8110796E-01
       -2   -1    0    0    0  501  0.00000000000E+00  0.00000000000E+00  0.15790341151E+04  0.15790341151E+04  0.25500000920E-02 0. -1.
        2   -1    0    0  501    0  0.00000000000E+00  0.00000000000E+00 -0.19535337228E+04  0.19535337228E+04  0.25500000920E-02 0.  1.
    10030    2    1    2    0    0  0.00000000000E+00  0.00000000000E+00 -0.37449960769E+03  0.35325678379E+04  0.35126607541E+04 0.  0.
        4    1    3    3  502    0  0.35733070700E+03 -0.13059216582E+04 -0.13123295116E+04  0.18855574697E+04  0.12699999809E+01 0.  1.
       -4    1    3    3    0  502 -0.35733070700E+03  0.13059216582E+04  0.93782990393E+03  0.16470103682E+04  0.12699999809E+01 0. -1.
</event>
<event>
 5   0  0.5554745E-07  0.3496133E+04  0.7818609E-02  0.8114707E-01
       -2   -1    0    0    0  501  0.00000000000E+00  0.00000000000E+00  0.20169038368E+04  0.20169038368E+04  0.25500000920E-02 0.  1.
        2   -1    0    0  501    0  0.00000000000E+00  0.00000000000E+00 -0.15150633319E+04  0.15150633319E+04  0.25500000920E-02 0. -1.
    10030    2    1    2    0    0  0.00000000000E+00  0.00000000000E+00  0.50184050483E+03  0.35319671687E+04  0.34961333196E+04 0.  0.
        5    1    3    3  502    0 -0.70065536285E+02  0.10807728522E+04  0.16371121792E+04  0.19629410370E+04  0.46999998093E+01 0.  1.
       -5    1    3    3    0  502  0.70065536285E+02 -0.10807728522E+04 -0.11352716743E+04  0.15690261317E+04  0.46999998093E+01 0. -1.
</event>
<event>
 5   0  0.1866421E-07  0.3510752E+04  0.7818609E-02  0.8111247E-01
       -1   -1    0    0    0  501  0.00000000000E+00  0.00000000000E+00  0.12498234151E+04  0.12498234151E+04  0.50400001928E-02 0.  1.
        1   -1    0    0  501    0  0.00000000000E+00  0.00000000000E+00 -0.24654245894E+04  0.24654245894E+04  0.50400001928E-02 0. -1.
    10030    2    1    2    0    0  0.00000000000E+00  0.00000000000E+00 -0.12156011743E+04  0.37152480045E+04  0.35107522726E+04 0.  0.
        1    1    3    3  502    0 -0.28603472735E+03  0.37838289222E+03  0.11807193416E+04  0.12724337476E+04  0.50400001928E-02 0.  1.
       -1    1    3    3    0  502  0.28603472735E+03 -0.37838289222E+03 -0.23963205159E+04  0.24428142568E+04  0.50400001928E-02 0. -1.
</event>
<event>
 5   0  0.5740827E-07  0.3504595E+04  0.7818609E-02  0.8112702E-01
        2   -1    0    0  501    0  0.00000000000E+00  0.00000000000E+00  0.11127912380E+04  0.11127912380E+04  0.25500000920E-02 0.  1.
       -2   -1    0    0    0  501  0.00000000000E+00  0.00000000000E+00 -0.27593200335E+04  0.27593200335E+04  0.25500000920E-02 0. -1.
    10030    2    1    2    0    0  0.00000000000E+00  0.00000000000E+00 -0.16465287955E+04  0.38721112715E+04  0.35045953581E+04 0.  0.
        2    1    3    3  502    0 -0.10904306383E+04 -0.11893492207E+04 -0.15782665881E+04  0.22571034466E+04  0.25500000920E-02 0. -1.
       -2    1    3    3    0  502  0.10904306383E+04  0.11893492207E+04 -0.68262207443E+02  0.16150078249E+04  0.25500000920E-02 0.  1.
</event>
<event>
 5   0  0.1897049E-07  0.3482260E+04  0.7818609E-02  0.8118007E-01
        1   -1    0    0  501    0  0.00000000000E+00  0.00000000000E+00  0.15921241871E+04  0.15921241871E+04  0.50400001928E-02 0.  1.
       -1   -1    0    0    0  501  0.00000000000E+00  0.00000000000E+00 -0.19040809725E+04  0.19040809725E+04  0.50400001928E-02 0. -1.
    10030    2    1    2    0    0  0.00000000000E+00  0.00000000000E+00 -0.31195678538E+03  0.34962051595E+04  0.34822598240E+04 0.  0.
        2    1    3    3  502    0  0.27901323880E+03 -0.16080106676E+04 -0.76502676113E+03  0.18024462932E+04  0.25500000920E-02 0. -1.
       -2    1    3    3    0  502 -0.27901323880E+03  0.16080106676E+04  0.45306997575E+03  0.16937588664E+04  0.25500000920E-02 0.  1.
</event>
<event>
 5   0  0.5707187E-07  0.3521127E+04  0.7818609E-02  0.8108801E-01
       -2   -1    0    0    0  501  0.00000000000E+00  0.00000000000E+00  0.11756351556E+04  0.11756351556E+04  0.25500000920E-02 0. -1.
        2   -1    0    0  501    0  0.00000000000E+00  0.00000000000E+00 -0.26365183909E+04  0.26365183909E+04  0.25500000920E-02 0.  1.
    10030    2    1    2    0    0  0.00000000000E+00  0.00000000000E+00 -0.14608832354E+04  0.38121535465E+04  0.35211269268E+04 0.  0.
        1    1    3    3  502    0  0.21894941997E+03  0.17116168668E+04 -0.11086150162E+04  0.20509993665E+04  0.50400001928E-02 0.  1.
       -1    1    3    3    0  502 -0.21894941997E+03 -0.17116168668E+04 -0.35226821918E+03  0.17611541800E+04  0.50400001928E-02 0. -1.
</event>
<event>
 5   0  0.1873457E-07  0.3496767E+04  0.7818609E-02  0.8114556E-01
       -1   -1    0    0    0  501  0.00000000000E+00  0.00000000000E+00  0.21134917527E+04  0.21134917527E+04  0.50400001928E-02 0. -1.
        1   -1    0    0  501    0  0.00000000000E+00  0.00000000000E+00 -0.14463484955E+04  0.14463484955E+04  0.50400001928E-02 0.  1.
    10030    2    1    2    0    0  0.00000000000E+00  0.00000000000E+00  0.66714325715E+03  0.35598402482E+04  0.34967674311E+04 0.  0.
        3    1    3    3  502    0 -0.14490847157E+04  0.31803564804E+03  0.12753814216E+04  0.19564230032E+04  0.10100000352E+00 0. -1.
       -3    1    3    3    0  502  0.14490847157E+04 -0.31803564804E+03 -0.60823816450E+03  0.16034172450E+04  0.10100000352E+00 0.  1.
</event>
<event>
 5   0  0.1873457E-07  0.3460767E+04  0.7818609E-02  0.8123151E-01
       -1   -1    0    0    0  501  0.00000000000E+00  0.00000000000E+00  0.14760357709E+04  0.14760357709E+04  0.50400001928E-02 0. -1.
        1   -1    0    0  501    0  0.00000000000E+00  0.00000000000E+00 -0.20285599034E+04  0.20285599034E+04  0.50400001928E-02 0.  1.
    10030    2    1    2    0    0  0.00000000000E+00  0.00000000000E+00 -0.55252413252E+03  0.35045956744E+04  0.34607669560E+04 0.  0.
        3    1    3    3  502    0  0.62893546257E+03 -0.14980278103E+04 -0.87926938263E+03  0.18473661775E+04  0.10100000352E+00 0.  1.
       -3    1    3    3    0  502 -0.62893546257E+03  0.14980278103E+04  0.32674525012E+03  0.16572294968E+04  0.10100000352E+00 0. -1.
</event>
<event>
 5   0  0.5573334E-07  0.3479322E+04  0.7818609E-02  0.8118708E-01
        2   -1    0    0  501    0  0.00000000000E+00  0.00000000000E+00  0.18587405456E+04  0.18587405456E+04  0.25500000920E-02 0.  1.
       -2   -1    0    0    0  501  0.00000000000E+00  0.00000000000E+00 -0.16282105803E+04  0.16282105803E+04  0.25500000920E-02 0. -1.
    10030    2    1    2    0    0  0.00000000000E+00  0.00000000000E+00  0.23052996536E+03  0.34869511259E+04  0.34793223606E+04 0.  0.
        4    1    3    3  502    0 -0.50829224501E+03 -0.12919149896E+04 -0.93537232140E+03  0.16740156329E+04  0.12699999809E+01 0.  1.
       -4    1    3    3    0  502  0.50829224501E+03  0.12919149896E+04  0.11659022868E+04  0.18129354930E+04  0.12699999809E+01 0. -1.
</event>
<event>
 5   0  0.5707187E-07  0.3494063E+04  0.7818609E-02  0.8115198E-01
       -2   -1    0    0    0  501  0.00000000000E+00  0.00000000000E+00  0.12039531452E+04  0.12039531452E+04  0.25500000920E-02 0. -1.
        2   -1    0    0  501    0  0.00000000000E+00  0.00000000000E+00 -0.25350808560E+04  0.25350808560E+04  0.25500000920E-02 0.  1.
    10030    2    1    2    0    0  0.00000000000E+00  0.00000000000E+00 -0.13311277109E+04  0.37390340012E+04  0.34940627183E+04 0.  0.
        1    1    3    3  502    0  0.43178082457E+03  0.14853504118E+04 -0.15345425556E+04  0.21788807634E+04  0.50400001928E-02 0.  1.
       -1    1    3    3    0  502 -0.43178082457E+03 -0.14853504118E+04  0.20341484478E+03  0.15601532378E+04  0.50400001928E-02 0. -1.
</event>
<event>
 5   0  0.5554745E-07  0.3503952E+04  0.7818609E-02  0.8112854E-01
       -2   -1    0    0    0  501  0.00000000000E+00  0.00000000000E+00  0.11058255584E+04  0.11058255584E+04  0.25500000920E-02 0. -1.
        2   -1    0    0  501    0  0.00000000000E+00  0.00000000000E+00 -0.27756821905E+04  0.27756821905E+04  0.25500000920E-02 0.  1.
    10030    2    1    2    0    0  0.00000000000E+00  0.00000000000E+00 -0.16698566321E+04  0.38815077489E+04  0.35039522304E+04 0.  0.
        5    1    3    3  502    0  0.10302233092E+04 -0.19629948703E+03 -0.23895359193E+04  0.26095588813E+04  0.46999998093E+01 0.  1.
       -5    1    3    3    0  502 -0.10302233092E+04  0.19629948703E+03  0.71967928716E+03  0.12719488676E+04  0.46999998093E+01 0. -1.
</event>
<event>
 5   0  0.1933647E-07  0.3499168E+04  0.7818609E-02  0.8113987E-01
        1   -1    0    0  501    0  0.00000000000E+00  0.00000000000E+00  0.17414983839E+04  0.17414983840E+04  0.50400001928E-02 0.  1.
       -1   -1    0    0    0  501  0.00000000000E+00  0.00000000000E+00 -0.17577069164E+04  0.17577069165E+04  0.50400001928E-02 0. -1.
    10030    2    1    2    0    0  0.00000000000E+00  0.00000000000E+00 -0.16208532496E+02  0.34992053004E+04  0.34991677608E+04 0.  0.
        4    1    3    3  502    0  0.93287492498E+03 -0.12500622923E+04 -0.80065979027E+03  0.17532738158E+04  0.12699999809E+01 0. -1.
       -4    1    3    3    0  502 -0.93287492498E+03  0.12500622923E+04  0.78445125777E+03  0.17459314846E+04  0.12699999809E+01 0.  1.
</event>
<event>
 5   0  0.1908190E-07  0.3500964E+04  0.7818609E-02  0.8113562E-01
        1   -1    0    0  501    0  0.00000000000E+00  0.00000000000E+00  0.21870516554E+04  0.21870516554E+04  0.50400001928E-02 0. -1.
       -1   -1    0    0    0  501  0.00000000000E+00  0.00000000000E+00 -0.14010584631E+04  0.14010584631E+04  0.50400001928E-02 0.  1.
    10030    2    1    2    0    0  0.00000000000E+00  0.00000000000E+00  0.78599319229E+03  0.35881101184E+04  0.35009639992E+04 0.  0.
        5    1    3    3  502    0  0.72029739354E+03 -0.15742840478E+04  0.12777611619E+03  0.17359572069E+04  0.46999998093E+01 0.  1.
       -5    1    3    3    0  502 -0.72029739354E+03  0.15742840478E+04  0.65821707610E+03  0.18521529115E+04  0.46999998093E+01 0. -1.
</event>
<event>
 5   0  0.5740827E-07  0.3409744E+04  0.7818609E-02  0.8135519E-01
        2   -1    0    0  501    0  0.00000000000E+00  0.00000000000E+00  0.25745614527E+04  0.25745614527E+04  0.25500000920E-02 0. -1.
       -2   -1    0    0    0  501  0.00000000000E+00  0.00000000000E+00 -0.11289645019E+04  0.11289645019E+04  0.25500000920E-02 0.  1.
    10030    2    1    2    0    0  0.00000000000E+00  0.00000000000E+00  0.14455969508E+04  0.37035259546E+04  0.34097439717E+04 0.  0.
        2    1    3    3  502    0  0.19595014594E+03  0.75364301860E+03 -0.92452074305E+03  0.12087650158E+04  0.25500000920E-02 0.  1.
       -2    1    3    3    0  502 -0.19595014594E+03 -0.75364301860E+03  0.23701176938E+04  0.24947609388E+04  0.25500000920E-02 0. -1.
</event>
<event>
 5   0  0.1933647E-07  0.3497617E+04  0.7818609E-02  0.8114355E-01
        1   -1    0    0  501    0  0.00000000000E+00  0.00000000000E+00  0.30894728175E+04  0.30894728175E+04  0.50400001928E-02 0.  1.
       -1   -1    0    0    0  501  0.00000000000E+00  0.00000000000E+00 -0.98991983209E+03  0.98991983210E+03  0.50400001928E-02 0. -1.
    10030    2    1    2    0    0  0.00000000000E+00  0.00000000000E+00  0.20995529854E+04  0.40793926496E+04  0.34976165672E+04 0.  0.
        4    1    3    3  502    0  0.13371588669E+04  0.35872637572E+03 -0.19642959671E+03  0.13983077799E+04  0.12699999809E+01 0. -1.
       -4    1    3    3    0  502 -0.13371588669E+04 -0.35872637572E+03  0.22959825821E+04  0.26810848697E+04  0.12699999809E+01 0.  1.
</event>
<event>
 5   0  0.5554745E-07  0.3496591E+04  0.7818609E-02  0.8114598E-01
        2   -1    0    0  501    0  0.00000000000E+00  0.00000000000E+00  0.20279458004E+04  0.20279458004E+04  0.25500000920E-02 0.  1.
       -2   -1    0    0    0  501  0.00000000000E+00  0.00000000000E+00 -0.15072085389E+04  0.15072085389E+04  0.25500000920E-02 0. -1.
    10030    2    1    2    0    0  0.00000000000E+00  0.00000000000E+00  0.52073726150E+03  0.35351543393E+04  0.34965910409E+04 0.  0.
        5    1    3    3  502    0 -0.32859454832E+03 -0.48461634441E+02  0.19957465953E+04  0.20232027753E+04  0.46999998093E+01 0.  1.
       -5    1    3    3    0  502  0.32859454832E+03  0.48461634441E+02 -0.14750093338E+04  0.15119515640E+04  0.46999998093E+01 0. -1.
</event>
<event>
 5   0  0.1908190E-07  0.3508711E+04  0.7818609E-02  0.8111729E-01
        1   -1    0    0  501    0  0.00000000000E+00  0.00000000000E+00  0.22629487639E+04  0.22629487640E+04  0.50400001928E-02 0.  1.
       -1   -1    0    0    0  501  0.00000000000E+00  0.00000000000E+00 -0.13600676279E+04  0.13600676279E+04  0.50400001928E-02 0. -1.
    10030    2    1    2    0    0  0.00000000000E+00  0.00000000000E+00  0.90288113609E+03  0.36230163918E+04  0.35087110781E+04 0.  0.
        5    1    3    3  502    0 -0.10912633986E+04 -0.87761423015E+03  0.15425964848E+04  0.20834319156E+04  0.46999998093E+01 0.  1.
       -5    1    3    3    0  502  0.10912633986E+04  0.87761423015E+03 -0.63971534871E+03  0.15395844762E+04  0.46999998093E+01 0. -1.
</event>
<event>
 5   0  0.1866421E-07  0.3468178E+04  0.7818609E-02  0.8121373E-01
       -1   -1    0    0    0  501  0.00000000000E+00  0.00000000000E+00  0.15584479545E+04  0.15584479545E+04  0.50400001928E-02 0.  1.
        1   -1    0    0  501    0  0.00000000000E+00  0.00000000000E+00 -0.19295250841E+04  0.19295250841E+04  0.50400001928E-02 0. -1.
    10030    2    1    2    0    0  0.00000000000E+00  0.00000000000E+00 -0.37107712957E+03  0.34879730386E+04  0.34681778619E+04 0.  0.
        1    1    3    3  502    0 -0.49167723811E+03 -0.21425941437E+03 -0.18440144760E+04  0.19204278145E+04  0.50400001928E-02 0. -1.
       -1    1    3    3    0  502  0.49167723811E+03  0.21425941437E+03  0.14729373464E+04  0.15675452241E+04  0.50400001928E-02 0.  1.
</event>
<event>
 5   0  0.5740827E-07  0.3520398E+04  0.7818609E-02  0.8108973E-01
        2   -1    0    0  501    0  0.00000000000E+00  0.00000000000E+00  0.23454782692E+04  0.23454782692E+04  0.25500000920E-02 0. -1.
       -2   -1    0    0    0  501  0.00000000000E+00  0.00000000000E+00 -0.13209678066E+04  0.13209678066E+04  0.25500000920E-02 0.  1.
    10030    2    1    2    0    0  0.00000000000E+00  0.00000000000E+00  0.10245104626E+04  0.36664460758E+04  0.35203984347E+04 0.  0.
        2    1    3    3  502    0 -0.16949534589E+04  0.46824590469E+02  0.10043411788E+04  0.19707260016E+04  0.25500000920E-02 0.  1.
       -2    1    3    3    0  502  0.16949534589E+04 -0.46824590469E+02  0.20169283853E+02  0.16957200742E+04  0.25500000920E-02 0. -1.
</event>
<event>
 5   0  0.1908190E-07  0.3542776E+04  0.7818609E-02  0.8103727E-01
        1   -1    0    0  501    0  0.00000000000E+00  0.00000000000E+00  0.10628836532E+04  0.10628836532E+04  0.50400001928E-02 0.  1.
       -1   -1    0    0    0  501  0.00000000000E+00  0.00000000000E+00 -0.29521727283E+04  0.29521727283E+04  0.50400001928E-02 0. -1.
    10030    2    1    2    0    0  0.00000000000E+00  0.00000000000E+00 -0.18892890751E+04  0.40150563814E+04  0.35427763882E+04 0.  0.
        5    1    3    3  502    0  0.68944388181E+03 -0.10046149205E+04  0.51253117387E+03  0.13218526010E+04  0.46999998093E+01 0.  1.
       -5    1    3    3    0  502 -0.68944388181E+03  0.10046149205E+04 -0.24018202490E+04  0.26932037804E+04  0.46999998093E+01 0. -1.
</event>
<event>
 5   0  0.5707187E-07  0.3492740E+04  0.7818609E-02  0.8115513E-01
        2   -1    0    0  501    0  0.00000000000E+00  0.00000000000E+00  0.16846464735E+04  0.16846464735E+04  0.25500000920E-02 0. -1.
       -2   -1    0    0    0  501  0.00000000000E+00  0.00000000000E+00 -0.18103547350E+04  0.18103547350E+04  0.25500000920E-02 0.  1.
    10030    2    1    2    0    0  0.00000000000E+00  0.00000000000E+00 -0.12570826149E+03  0.34950012086E+04  0.34927397385E+04 0.  0.
        1    1    3    3  502    0 -0.33152059828E+03  0.14385944544E+04  0.87067424857E+03  0.17139234400E+04  0.50400001928E-02 0. -1.
       -1    1    3    3    0  502  0.33152059828E+03 -0.14385944544E+04 -0.99638251006E+03  0.17810777685E+04  0.50400001928E-02 0.  1.
</event>
<event>
 5   0  0.1866421E-07  0.3466314E+04  0.7818609E-02  0.8121820E-01
        1   -1    0    0  501    0  0.00000000000E+00  0.00000000000E+00  0.21555111403E+04  0.21555111403E+04  0.50400001928E-02 0.  1.
       -1   -1    0    0    0  501  0.00000000000E+00  0.00000000000E+00 -0.13935596547E+04  0.13935596547E+04  0.50400001928E-02 0. -1.
    10030    2    1    2    0    0  0.00000000000E+00  0.00000000000E+00  0.76195148557E+03  0.35490707951E+04  0.34663141003E+04 0.  0.
        1    1    3    3  502    0 -0.80278126416E+03 -0.52956563127E+03 -0.10952993495E+04  0.14575932838E+04  0.50400001928E-02 0. -1.
       -1    1    3    3    0  502  0.80278126416E+03  0.52956563127E+03  0.18572508350E+04  0.20914775113E+04  0.50400001928E-02 0.  1.
</event>
<event>
 5   0  0.1897049E-07  0.3490631E+04  0.7818609E-02  0.8116014E-01
       -1   -1    0    0    0  501  0.00000000000E+00  0.00000000000E+00  0.18386100772E+04  0.18386100772E+04  0.50400001928E-02 0.  1.
        1   -1    0    0  501    0  0.00000000000E+00  0.00000000000E+00 -0.16567549839E+04  0.16567549839E+04  0.50400001928E-02 0. -1.
    10030    2    1    2    0    0  0.00000000000E+00  0.00000000000E+00  0.18185509324E+03  0.34953650611E+04  0.34906311228E+04 0.  0.
        2    1    3    3  502    0  0.45912029539E+03 -0.89913157894E+03  0.15165497921E+04  0.18218540869E+04  0.25500000920E-02 0.  1.
       -2    1    3    3    0  502 -0.45912029539E+03  0.89913157894E+03 -0.13346946989E+04  0.16735109743E+04  0.25500000920E-02 0. -1.
</event>
<event>
 5   0  0.5573334E-07  0.3515420E+04  0.7818609E-02  0.8110145E-01
        2   -1    0    0  501    0  0.00000000000E+00  0.00000000000E+00  0.14937641522E+04  0.14937641522E+04  0.25500000920E-02 0.  1.
       -2   -1    0    0    0  501  0.00000000000E+00  0.00000000000E+00 -0.20682946254E+04  0.20682946254E+04  0.25500000920E-02 0. -1.
    10030    2    1    2    0    0  0.00000000000E+00  0.00000000000E+00 -0.57453047320E+03  0.35620587777E+04  0.35154199566E+04 0.  0.
        4    1    3    3  502    0  0.25751328833E+02 -0.13007509864E+04  0.91033161332E+03  0.15878669713E+04  0.12699999809E+01 0.  1.
       -4    1    3    3    0  502 -0.25751328833E+02  0.13007509864E+04 -0.14848620865E+04  0.19741918064E+04  0.12699999809E+01 0. -1.
</event>
<event>
 5   0  0.5740827E-07  0.3498128E+04  0.7818609E-02  0.8114234E-01
       -2   -1    0    0    0  501  0.00000000000E+00  0.00000000000E+00  0.20159341667E+04  0.20159341667E+04  0.25500000920E-02 0.  1.
        2   -1    0    0  501    0  0.00000000000E+00  0.00000000000E+00 -0.15175223746E+04  0.15175223746E+04  0.25500000920E-02 0. -1.
    10030    2    1    2    0    0  0.00000000000E+00  0.00000000000E+00  0.49841179208E+03  0.35334565412E+04  0.34981281872E+04 0.  0.
        2    1    3    3  502    0 -0.15425870940E+04  0.67539964033E+03  0.72672284845E+03  0.18340844351E+04  0.25500000920E-02 0. -1.
       -2    1    3    3    0  502  0.15425870940E+04 -0.67539964033E+03 -0.22831105637E+03  0.16993721061E+04  0.25500000920E-02 0.  1.
</event>
<event>
 5   0  0.5573334E-07  0.3489405E+04  0.7818609E-02  0.8116305E-01
        2   -1    0    0  501    0  0.00000000000E+00  0.00000000000E+00  0.17984931818E+04  0.17984931818E+04  0.25500000920E-02 0. -1.
       -2   -1    0    0    0  501  0.00000000000E+00  0.00000000000E+00 -0.16925207558E+04  0.16925207558E+04  0.25500000920E-02 0.  1.
    10030    2    1    2    0    0  0.00000000000E+00  0.00000000000E+00  0.10597242593E+03  0.34910139376E+04  0.34894051294E+04 0.  0.
        4    1    3    3  502    0  0.47934154082E+03  0.13558185654E+03  0.17258320923E+04  0.17962874982E+04  0.12699999809E+01 0. -1.
       -4    1    3    3    0  502 -0.47934154082E+03 -0.13558185654E+03 -0.16198596664E+04  0.16947264393E+04  0.12699999809E+01 0.  1.
</event>
<event>
 5   0  0.1897049E-07  0.3509050E+04  0.7818609E-02  0.8111649E-01
       -1   -1    0    0    0  501  0.00000000000E+00  0.00000000000E+00  0.13499226972E+04  0.13499226972E+04  0.50400001928E-02 0.  1.
        1   -1    0    0  501    0  0.00000000000E+00  0.00000000000E+00 -0.22803953149E+04  0.22803953149E+04  0.50400001928E-02 0. -1.
    10030    2    1    2    0    0  0.00000000000E+00  0.00000000000E+00 -0.93047261766E+03  0.36303180121E+04  0.35090496686E+04 0.  0.
        2    1    3    3  502    0 -0.53079342309E+03  0.12243987364E+04  0.71319080025E+03  0.15131209605E+04  0.25500000920E-02 0.  1.
       -2    1    3    3    0  502  0.53079342309E+03 -0.12243987364E+04 -0.16436634179E+04  0.21171970515E+04  0.25500000920E-02 0. -1.
</event>
<event>
 5   0  0.5707187E-07  0.3461156E+04  0.7818609E-02  0.8123058E-01
       -2   -1    0    0    0  501  0.00000000000E+00  0.00000000000E+00  0.18203767512E+04  0.18203767512E+04  0.25500000920E-02 0. -1.
        2   -1    0    0  501    0  0.00000000000E+00  0.00000000000E+00 -0.16452086133E+04  0.16452086133E+04  0.25500000920E-02 0.  1.
    10030    2    1    2    0    0  0.00000000000E+00  0.00000000000E+00  0.17516813796E+03  0.34655853645E+04  0.34611555934E+04 0.  0.
        1    1    3    3  502    0 -0.77023008790E+03 -0.34125352944E+03 -0.14260355373E+04  0.16562867243E+04  0.50400001928E-02 0.  1.
       -1    1    3    3    0  502  0.77023008790E+03  0.34125352944E+03  0.16012036752E+04  0.18092986401E+04  0.50400001928E-02 0. -1.
</event>
<event>
 5   0  0.1933647E-07  0.3510452E+04  0.7818609E-02  0.8111317E-01
        1   -1    0    0  501    0  0.00000000000E+00  0.00000000000E+00  0.12749688086E+04  0.12749688086E+04  0.50400001928E-02 0. -1.
       -1   -1    0    0    0  501  0.00000000000E+00  0.00000000000E+00 -0.24163874451E+04  0.24163874451E+04  0.50400001928E-02 0.  1.
    10030    2    1    2    0    0  0.00000000000E+00  0.00000000000E+00 -0.11414186366E+04  0.36913562538E+04  0.35104521772E+04 0.  0.
        4    1    3    3  502    0  0.11661091451E+04 -0.52565612045E+03 -0.18346030243E+04  0.22364916197E+04  0.12699999809E+01 0.  1.
       -4    1    3    3    0  502 -0.11661091451E+04  0.52565612045E+03  0.69318438775E+03  0.14548646341E+04  0.12699999809E+01 0. -1.
</event>
<event>
 5   0  0.1897049E-07  0.3489376E+04  0.7818609E-02  0.8116312E-01
       -1   -1    0    0    0  501  0.00000000000E+00  0.00000000000E+00  0.18476696188E+04  0.18476696188E+04  0.50400001928E-02 0.  1.
        1   -1    0    0  501    0  0.00000000000E+00  0.00000000000E+00 -0.16474465393E+04  0.16474465393E+04  0.50400001928E-02 0. -1.
    10030    2    1    2    0    0  0.00000000000E+00  0.00000000000E+00  0.20022307951E+03  0.34951161582E+04  0.34893764024E+04 0.  0.
        2    1    3    3  502    0 -0.95897527624E+03 -0.14348320449E+04 -0.15635717710E+03  0.17328658760E+04  0.25500000920E-02 0.  1.
       -2    1    3    3    0  502  0.95897527624E+03  0.14348320449E+04  0.35658025661E+03  0.17622502821E+04  0.25500000920E-02 0. -1.
</event>
<event>
 5   0  0.1866421E-07  0.3498625E+04  0.7818609E-02  0.8114116E-01
       -1   -1    0    0    0  501  0.00000000000E+00  0.00000000000E+00  0.25755213665E+04  0.25755213665E+04  0.50400001928E-02 0.  1.
        1   -1    0    0  501    0  0.00000000000E+00  0.00000000000E+00 -0.11881454615E+04  0.11881454616E+04  0.50400001928E-02 0. -1.
    10030    2    1    2    0    0  0.00000000000E+00  0.00000000000E+00  0.13873759049E+04  0.37636668280E+04  0.34986248857E+04 0.  0.
        1    1    3    3  502    0 -0.14871041538E+04  0.38198547408E+03 -0.20808975515E+03  0.15494169913E+04  0.50400001928E-02 0. -1.
       -1    1    3    3    0  502  0.14871041538E+04 -0.38198547408E+03  0.15954656601E+04  0.22142498367E+04  0.50400001928E-02 0.  1.
</event>
<event>
 5   0  0.5707187E-07  0.3489521E+04  0.7818609E-02  0.8116278E-01
       -2   -1    0    0    0  501  0.00000000000E+00  0.00000000000E+00  0.10812351663E+04  0.10812351663E+04  0.25500000920E-02 0.  1.
        2   -1    0    0  501    0  0.00000000000E+00  0.00000000000E+00 -0.28154733724E+04  0.28154733724E+04  0.25500000920E-02 0. -1.
    10030    2    1    2    0    0  0.00000000000E+00  0.00000000000E+00 -0.17342382060E+04  0.38967085387E+04  0.34895207809E+04 0.  0.
        1    1    3    3  502    0  0.32051901964E+03 -0.87995978176E+03 -0.25110150767E+04  0.26799735773E+04  0.50400001928E-02 0. -1.
       -1    1    3    3    0  502 -0.32051901964E+03  0.87995978176E+03  0.77677687069E+03  0.12167349614E+04  0.50400001928E-02 0.  1.
</event>
<event>
 5   0  0.1873457E-07  0.3489609E+04  0.7818609E-02  0.8116257E-01
        1   -1    0    0  501    0  0.00000000000E+00  0.00000000000E+00  0.18051016615E+04  0.18051016615E+04  0.50400001928E-02 0.  1.
       -1   -1    0    0    0  501  0.00000000000E+00  0.00000000000E+00 -0.16865215990E+04  0.16865215990E+04  0.50400001928E-02 0. -1.
    10030    2    1    2    0    0  0.00000000000E+00  0.00000000000E+00  0.11858006252E+03  0.34916232605E+04  0.34896091131E+04 0.  0.
        3    1    3    3  502    0  0.26153388378E+03  0.16469650447E+04 -0.45427915058E+03  0.17283701536E+04  0.10100000352E+00 0.  1.
       -3    1    3    3    0  502 -0.26153388378E+03 -0.16469650447E+04  0.57285921310E+03  0.17632531069E+04  0.10100000352E+00 0. -1.
</event>
<event>
 5   0  0.1908190E-07  0.3409299E+04  0.7818609E-02  0.8135628E-01
       -1   -1    0    0    0  501  0.00000000000E+00  0.00000000000E+00  0.16667699439E+04  0.16667699439E+04  0.50400001928E-02 0. -1.
        1   -1    0    0  501    0  0.00000000000E+00  0.00000000000E+00 -0.17433902581E+04  0.17433902581E+04  0.50400001928E-02 0.  1.
    10030    2    1    2    0    0  0.00000000000E+00  0.00000000000E+00 -0.76620314205E+02  0.34101602019E+04  0.34092993313E+04 0.  0.
        5    1    3    3  502    0  0.19305637048E+03  0.12801578374E+04  0.10709033714E+04  0.16801580199E+04  0.46999998093E+01 0. -1.
       -5    1    3    3    0  502 -0.19305637048E+03 -0.12801578374E+04 -0.11475236856E+04  0.17300021821E+04  0.46999998093E+01 0.  1.
</event>
<event>
 5   0  0.1873457E-07  0.3621931E+04  0.7818609E-02  0.8085487E-01
       -1   -1    0    0    0  501  0.00000000000E+00  0.00000000000E+00  0.12277942286E+04  0.12277942286E+04  0.50400001928E-02 0. -1.
        1   -1    0    0  501    0  0.00000000000E+00  0.00000000000E+00 -0.26711277469E+04  0.26711277469E+04  0.50400001928E-02 0.  1.
    10030    2    1    2    0    0  0.00000000000E+00  0.00000000000E+00 -0.14433335183E+04  0.38989219755E+04  0.36219305523E+04 0.  0.
        3    1    3    3  502    0  0.12101614386E+03  0.72116453268E+03  0.10618018776E+04  0.12892425791E+04  0.10100000352E+00 0. -1.
       -3    1    3    3    0  502 -0.12101614386E+03 -0.72116453268E+03 -0.25051353959E+04  0.26096793964E+04  0.10100000352E+00 0.  1.
</event>
<event>
 5   0  0.5740827E-07  0.3420551E+04  0.7818609E-02  0.8132881E-01
       -2   -1    0    0    0  501  0.00000000000E+00  0.00000000000E+00  0.13571744510E+04  0.13571744510E+04  0.25500000920E-02 0. -1.
        2   -1    0    0  501    0  0.00000000000E+00  0.00000000000E+00 -0.21552439229E+04  0.21552439229E+04  0.25500000920E-02 0.  1.
    10030    2    1    2    0    0  0.00000000000E+00  0.00000000000E+00 -0.79806947188E+03  0.35124183739E+04  0.34205508258E+04 0.  0.
        2    1    3    3  502    0 -0.69632704907E+03  0.94317272280E+03 -0.16777077514E+04  0.20467411765E+04  0.25500000920E-02 0.  1.
       -2    1    3    3    0  502  0.69632704907E+03 -0.94317272280E+03  0.87963827955E+03  0.14656771975E+04  0.25500000920E-02 0. -1.
</event>
<event>
 5   0  0.5740827E-07  0.3555314E+04  0.7818609E-02  0.8100805E-01
       -2   -1    0    0    0  501  0.00000000000E+00  0.00000000000E+00  0.10408496017E+04  0.10408496017E+04  0.25500000920E-02 0. -1.
        2   -1    0    0  501    0  0.00000000000E+00  0.00000000000E+00 -0.30360432704E+04  0.30360432704E+04  0.25500000920E-02 0.  1.
    10030    2    1    2    0    0  0.00000000000E+00  0.00000000000E+00 -0.19951936687E+04  0.40768928721E+04  0.35553140107E+04 0.  0.
        2    1    3    3  502    0  0.16873189255E+03  0.10805704147E+04  0.60941038044E+03  0.12519919667E+04  0.25500000920E-02 0. -1.
       -2    1    3    3    0  502 -0.16873189255E+03 -0.10805704147E+04 -0.26046040491E+04  0.28249009054E+04  0.25500000920E-02 0.  1.
</event>
<event>
 5   0  0.5573334E-07  0.3467925E+04  0.7818609E-02  0.8121434E-01
       -2   -1    0    0    0  501  0.00000000000E+00  0.00000000000E+00  0.24443278735E+04  0.24443278735E+04  0.25500000920E-02 0. -1.
        2   -1    0    0  501    0  0.00000000000E+00  0.00000000000E+00 -0.12300423458E+04  0.12300423458E+04  0.25500000920E-02 0.  1.
    10030    2    1    2    0    0  0.00000000000E+00  0.00000000000E+00  0.12142855278E+04  0.36743702193E+04  0.34679254844E+04 0.  0.
        4    1    3    3  502    0 -0.16994197953E+04  0.30825650212E+03  0.44445933950E+03  0.17834223922E+04  0.12699999809E+01 0. -1.
       -4    1    3    3    0  502  0.16994197953E+04 -0.30825650212E+03  0.76982618827E+03  0.18909478271E+04  0.12699999809E+01 0.  1.
</event>
<event>
 5   0  0.1873457E-07  0.3532330E+04  0.7818609E-02  0.8106171E-01
        1   -1    0    0  501    0  0.00000000000E+00  0.00000000000E+00  0.17486475909E+04  0.17486475909E+04  0.50400001928E-02 0.  1.
       -1   -1    0    0    0  501  0.00000000000E+00  0.00000000000E+00 -0.17838576492E+04  0.17838576492E+04  0.50400001928E-02 0. -1.
    10030    2    1    2    0    0  0.00000000000E+00  0.00000000000E+00 -0.35210058346E+02  0.35325052401E+04  0.35323297585E+04 0.  0.
        3    1    3    3  502    0 -0.11691907431E+04  0.12766832316E+04 -0.36749567733E+03  0.17697401365E+04  0.10100000352E+00 0.  1.
       -3    1    3    3    0  502  0.11691907431E+04 -0.12766832316E+04  0.33228561898E+03  0.17627651036E+04  0.10100000352E+00 0. -1.
</event>
<event>
 5   0  0.1933647E-07  0.3471567E+04  0.7818609E-02  0.8120561E-01
       -1   -1    0    0    0  501  0.00000000000E+00  0.00000000000E+00  0.17462067577E+04  0.17462067577E+04  0.50400001928E-02 0. -1.
        1   -1    0    0  501    0  0.00000000000E+00  0.00000000000E+00 -0.17254222710E+04  0.17254222710E+04  0.50400001928E-02 0.  1.
    10030    2    1    2    0    0  0.00000000000E+00  0.00000000000E+00  0.20784486761E+02  0.34716290287E+04  0.34715668103E+04 0.  0.
        4    1    3    3  502    0  0.15246529529E+04 -0.33273486758E+03  0.77044750717E+03  0.17403649310E+04  0.12699999809E+01 0. -1.
       -4    1    3    3    0  502 -0.15246529529E+04  0.33273486758E+03 -0.74966302041E+03  0.17312640977E+04  0.12699999809E+01 0.  1.
</event>
<event>
 5   0  0.5554745E-07  0.3563435E+04  0.7818609E-02  0.8098919E-01
       -2   -1    0    0    0  501  0.00000000000E+00  0.00000000000E+00  0.11768359647E+04  0.11768359647E+04  0.25500000920E-02 0.  1.
        2   -1    0    0  501    0  0.00000000000E+00  0.00000000000E+00 -0.26975018551E+04  0.26975018551E+04  0.25500000920E-02 0. -1.
    10030    2    1    2    0    0  0.00000000000E+00  0.00000000000E+00 -0.15206658904E+04  0.38743378198E+04  0.35634349709E+04 0.  0.
        5    1    3    3  502    0  0.47245506440E+03 -0.16854217951E+04 -0.11219711588E+04  0.20791108163E+04  0.46999998093E+01 0. -1.
       -5    1    3    3    0  502 -0.47245506440E+03  0.16854217951E+04 -0.39869473157E+03  0.17952270035E+04  0.46999998093E+01 0.  1.
</event>
<event>
 5   0  0.1908190E-07  0.3432009E+04  0.7818609E-02  0.8130095E-01
        1   -1    0    0  501    0  0.00000000000E+00  0.00000000000E+00  0.10694635081E+04  0.10694635081E+04  0.50400001928E-02 0.  1.
       -1   -1    0    0    0  501  0.00000000000E+00  0.00000000000E+00 -0.27534091602E+04  0.27534091602E+04  0.50400001928E-02 0. -1.
    10030    2    1    2    0    0  0.00000000000E+00  0.00000000000E+00 -0.16839456521E+04  0.38228726683E+04  0.34320085196E+04 0.  0.
        5    1    3    3  502    0  0.11174234733E+04 -0.43713133429E+03 -0.22084411047E+04  0.25133549739E+04  0.46999998093E+01 0. -1.
       -5    1    3    3    0  502 -0.11174234733E+04  0.43713133429E+03  0.52449545263E+03  0.13095176943E+04  0.46999998093E+01 0.  1.
</event>
<event>
 5   0  0.1897049E-07  0.3574480E+04  0.7818609E-02  0.8096362E-01
       -1   -1    0    0    0  501  0.00000000000E+00  0.00000000000E+00  0.18510037867E+04  0.18510037867E+04  0.50400001928E-02 0.  1.
        1   -1    0    0  501    0  0.00000000000E+00  0.00000000000E+00 -0.17256731488E+04  0.17256731488E+04  0.50400001928E-02 0. -1.
    10030    2    1    2    0    0  0.00000000000E+00  0.00000000000E+00  0.12533063786E+03  0.35766769355E+04  0.35744804003E+04 0.  0.
        2    1    3    3  502    0 -0.75614015233E+03 -0.20655823296E+03  0.16698320461E+04  0.18446553325E+04  0.25500000920E-02 0.  1.
       -2    1    3    3    0  502  0.75614015233E+03  0.20655823296E+03 -0.15445014082E+04  0.17320216031E+04  0.25500000920E-02 0. -1.
</event>
<event>
 5   0  0.5677193E-07  0.3527591E+04  0.7818609E-02  0.8107282E-01
        2   -1    0    0  501    0  0.00000000000E+00  0.00000000000E+00  0.28075063899E+04  0.28075063899E+04  0.25500000920E-02 0. -1.
       -2   -1    0    0    0  501  0.00000000000E+00  0.00000000000E+00 -0.11080919614E+04  0.11080919614E+04  0.25500000920E-02 0.  1.
    10030    2    1    2    0    0  0.00000000000E+00  0.00000000000E+00  0.16994144285E+04  0.39155983513E+04  0.35275913948E+04 0.  0.
        3    1    3    3  502    0  0.16521169224E+04 -0.34563400922E+02  0.16520085775E+03  0.16607155950E+04  0.10100000352E+00 0.  1.
       -3    1    3    3    0  502 -0.16521169224E+04  0.34563400922E+02  0.15342135707E+04  0.22548827563E+04  0.10100000352E+00 0. -1.
</event>
<event>
 5   0  0.1873457E-07  0.3496580E+04  0.7818609E-02  0.8114601E-01
       -1   -1    0    0    0  501  0.00000000000E+00  0.00000000000E+00  0.20601256777E+04  0.20601256777E+04  0.50400001928E-02 0. -1.
        1   -1    0    0  501    0  0.00000000000E+00  0.00000000000E+00 -0.14836560044E+04  0.14836560044E+04  0.50400001928E-02 0.  1.
    10030    2    1    2    0    0  0.00000000000E+00  0.00000000000E+00  0.57646967330E+03  0.35437816821E+04  0.34965799471E+04 0.  0.
        3    1    3    3  502    0 -0.44559406056E+03  0.74572961767E+03  0.18259011819E+04  0.20220242000E+04  0.10100000352E+00 0. -1.
       -3    1    3    3    0  502  0.44559406056E+03 -0.74572961767E+03 -0.12494315086E+04  0.15217574821E+04  0.10100000352E+00 0.  1.
</event>
<event>
 5   0  0.1873457E-07  0.3392468E+04  0.7818609E-02  0.8139757E-01
       -1   -1    0    0    0  501  0.00000000000E+00  0.00000000000E+00  0.13498759317E+04  0.13498759317E+04  0.50400001928E-02 0.  1.
        1   -1    0    0  501    0  0.00000000000E+00  0.00000000000E+00 -0.21314627116E+04  0.21314627116E+04  0.50400001928E-02 0. -1.
    10030    2    1    2    0    0  0.00000000000E+00  0.00000000000E+00 -0.78158677989E+03  0.34813386433E+04  0.33924682541E+04 0.  0.
        3    1    3    3  502    0  0.14416586415E+03 -0.39137722994E+03  0.12964339578E+04  0.13618740579E+04  0.10100000352E+00 0.  1.
       -3    1    3    3    0  502 -0.14416586415E+03  0.39137722994E+03 -0.20780207377E+04  0.21194645854E+04  0.10100000352E+00 0. -1.
</event>
<event>
 5   0  0.1873457E-07  0.3478993E+04  0.7818609E-02  0.8118786E-01
        1   -1    0    0  501    0  0.00000000000E+00  0.00000000000E+00  0.19234378355E+04  0.19234378355E+04  0.50400001928E-02 0. -1.
       -1   -1    0    0    0  501  0.00000000000E+00  0.00000000000E+00 -0.15731461184E+04  0.15731461184E+04  0.50400001928E-02 0.  1.
    10030    2    1    2    0    0  0.00000000000E+00  0.00000000000E+00  0.35029171716E+03  0.34965839539E+04  0.34789933975E+04 0.  0.
        3    1    3    3  502    0  0.32208906093E+03  0.14945992118E+04  0.10089674104E+04  0.18318251588E+04  0.10100000352E+00 0. -1.
       -3    1    3    3    0  502 -0.32208906093E+03 -0.14945992118E+04 -0.65867569322E+03  0.16647587951E+04  0.10100000352E+00 0.  1.
</event>
<event>
 5   0  0.1823000E-07  0.3492996E+04  0.7818609E-02  0.8115452E-01
        4   -1    0    0  501    0  0.00000000000E+00  0.00000000000E+00  0.19877368402E+04  0.19877372459E+04  0.12699999809E+01 0.  1.
       -4   -1    0    0    0  501  0.00000000000E+00  0.00000000000E+00 -0.15345358468E+04  0.15345363723E+04  0.12699999809E+01 0. -1.
    10030    2    1    2    0    0  0.00000000000E+00  0.00000000000E+00  0.45320099336E+03  0.35222736182E+04  0.34929958920E+04 0.  0.
        2    1    3    3  502    0 -0.77204776110E+03  0.12204482191E+04  0.12170262771E+04  0.18885720956E+04  0.25500000920E-02 0.  1.
       -2    1    3    3    0  502  0.77204776110E+03 -0.12204482191E+04 -0.76382528379E+03  0.16337015227E+04  0.25500000920E-02 0. -1.
</event>
<event>
 5   0  0.1933647E-07  0.3239217E+04  0.7818609E-02  0.8178536E-01
       -1   -1    0    0    0  501  0.00000000000E+00  0.00000000000E+00  0.14447851507E+04  0.14447851507E+04  0.50400001928E-02 0.  1.
        1   -1    0    0  501    0  0.00000000000E+00  0.00000000000E+00 -0.18155857079E+04  0.18155857079E+04  0.50400001928E-02 0. -1.
    10030    2    1    2    0    0  0.00000000000E+00  0.00000000000E+00 -0.37080055726E+03  0.32603708586E+04  0.32392167391E+04 0.  0.
        4    1    3    3  502    0  0.12212427120E+04  0.83974139955E+03  0.47195768350E+03  0.15554243947E+04  0.12699999809E+01 0. -1.
       -4    1    3    3    0  502 -0.12212427120E+04 -0.83974139955E+03 -0.84275824076E+03  0.17049464639E+04  0.12699999809E+01 0.  1.
</event>
<event>
 5   0  0.1933647E-07  0.3513479E+04  0.7818609E-02  0.8110603E-01
       -1   -1    0    0    0  501  0.00000000000E+00  0.00000000000E+00  0.13279754134E+04  0.13279754134E+04  0.50400001928E-02 0. -1.
        1   -1    0    0  501    0  0.00000000000E+00  0.00000000000E+00 -0.23239382934E+04  0.23239382934E+04  0.50400001928E-02 0.  1.
    10030    2    1    2    0    0  0.00000000000E+00  0.00000000000E+00 -0.99596288002E+03  0.36519137067E+04  0.35134785702E+04 0.  0.
        4    1    3    3  502    0  0.42360926735E+03  0.12490564810E+02  0.12740467986E+04  0.13426830168E+04  0.12699999809E+01 0. -1.
       -4    1    3    3    0  502 -0.42360926735E+03 -0.12490564810E+02 -0.22700096786E+04  0.23092306900E+04  0.12699999809E+01 0.  1.
</event>
<event>
 5   0  0.5677193E-07  0.3495110E+04  0.7818609E-02  0.8114950E-01
       -2   -1    0    0    0  501  0.00000000000E+00  0.00000000000E+00  0.14813326660E+04  0.14813326660E+04  0.25500000920E-02 0. -1.
        2   -1    0    0  501    0  0.00000000000E+00  0.00000000000E+00 -0.20616220205E+04  0.20616220205E+04  0.25500000920E-02 0.  1.
    10030    2    1    2    0    0  0.00000000000E+00  0.00000000000E+00 -0.58028935452E+03  0.35429546864E+04  0.34951097515E+04 0.  0.
        3    1    3    3  502    0 -0.37097704942E+03  0.51909428362E+03  0.13590453162E+04  0.15013617246E+04  0.10100000352E+00 0. -1.
       -3    1    3    3    0  502  0.37097704942E+03 -0.51909428362E+03 -0.19393346707E+04  0.20415929618E+04  0.10100000352E+00 0.  1.
</event>
<event>
 5   0  0.5573334E-07  0.3491456E+04  0.7818609E-02  0.8115818E-01
        2   -1    0    0  501    0  0.00000000000E+00  0.00000000000E+00  0.91920514668E+03  0.91920514668E+03  0.25500000920E-02 0.  1.
       -2   -1    0    0    0  501  0.00000000000E+00  0.00000000000E+00 -0.33154369403E+04  0.33154369403E+04  0.25500000920E-02 0. -1.
    10030    2    1    2    0    0  0.00000000000E+00  0.00000000000E+00 -0.23962317936E+04  0.42346420870E+04  0.34914562572E+04 0.  0.
        4    1    3    3  502    0  0.37749591309E+03  0.10341993956E+04  0.44506937425E+03  0.11875015432E+04  0.12699999809E+01 0.  1.
       -4    1    3    3    0  502 -0.37749591309E+03 -0.10341993956E+04 -0.28413011679E+04  0.30471405438E+04  0.12699999809E+01 0. -1.
</event>
<event>
 5   0  0.5573334E-07  0.3471271E+04  0.7818609E-02  0.8120632E-01
       -2   -1    0    0    0  501  0.00000000000E+00  0.00000000000E+00  0.22599475940E+04  0.22599475940E+04  0.25500000920E-02 0. -1.
        2   -1    0    0  501    0  0.00000000000E+00  0.00000000000E+00 -0.13329647670E+04  0.13329647670E+04  0.25500000920E-02 0.  1.
    10030    2    1    2    0    0  0.00000000000E+00  0.00000000000E+00  0.92698282697E+03  0.35929123611E+04  0.34712709593E+04 0.  0.
        4    1    3    3  502    0 -0.56008471096E+03 -0.42642609806E+03  0.21055575354E+04  0.22201144674E+04  0.12699999809E+01 0. -1.
       -4    1    3    3    0  502  0.56008471096E+03  0.42642609806E+03 -0.11785747084E+04  0.13727978937E+04  0.12699999809E+01 0.  1.
</event>
<event>
 5   0  0.1908190E-07  0.3521592E+04  0.7818609E-02  0.8108692E-01
       -1   -1    0    0    0  501  0.00000000000E+00  0.00000000000E+00  0.17495387699E+04  0.17495387699E+04  0.50400001928E-02 0.  1.
        1   -1    0    0  501    0  0.00000000000E+00  0.00000000000E+00 -0.17721256683E+04  0.17721256683E+04  0.50400001928E-02 0. -1.
    10030    2    1    2    0    0  0.00000000000E+00  0.00000000000E+00 -0.22586898413E+02  0.35216644382E+04  0.35215920046E+04 0.  0.
        5    1    3    3  502    0 -0.11355830480E+04 -0.11381123380E+03  0.13295840902E+04  0.17522322331E+04  0.46999998093E+01 0.  1.
       -5    1    3    3    0  502  0.11355830480E+04  0.11381123380E+03 -0.13521709886E+04  0.17694322051E+04  0.46999998093E+01 0. -1.
</event>
<event>
 5   0  0.1873457E-07  0.3504380E+04  0.7818609E-02  0.8112753E-01
        1   -1    0    0  501    0  0.00000000000E+00  0.00000000000E+00  0.15634077761E+04  0.15634077761E+04  0.50400001928E-02 0.  1.
       -1   -1    0    0    0  501  0.00000000000E+00  0.00000000000E+00 -0.19637672671E+04  0.19637672671E+04  0.50400001928E-02 0. -1.
    10030    2    1    2    0    0  0.00000000000E+00  0.00000000000E+00 -0.40035949097E+03  0.35271750433E+04  0.35043795548E+04 0.  0.
        3    1    3    3  502    0 -0.10412814702E+04 -0.41551178511E+03 -0.15555094010E+04  0.19174270914E+04  0.10100000352E+00 0. -1.
       -3    1    3    3    0  502  0.10412814702E+04  0.41551178511E+03  0.11551499101E+04  0.16097479519E+04  0.10100000352E+00 0.  1.
</event>
<event>
 5   0  0.5573334E-07  0.3489789E+04  0.7818609E-02  0.8116214E-01
       -2   -1    0    0    0  501  0.00000000000E+00  0.00000000000E+00  0.24224731720E+04  0.24224731720E+04  0.25500000920E-02 0.  1.
        2   -1    0    0  501    0  0.00000000000E+00  0.00000000000E+00 -0.12568384795E+04  0.12568384795E+04  0.25500000920E-02 0. -1.
    10030    2    1    2    0    0  0.00000000000E+00  0.00000000000E+00  0.11656346925E+04  0.36793116515E+04  0.34897893908E+04 0.  0.
        4    1    3    3  502    0 -0.46679649857E+03 -0.94289692148E+03  0.20504281028E+04  0.23046063858E+04  0.12699999809E+01 0.  1.
       -4    1    3    3    0  502  0.46679649857E+03  0.94289692148E+03 -0.88479341035E+03  0.13747052657E+04  0.12699999809E+01 0. -1.
</event>
<event>
 5   0  0.5554745E-07  0.3436840E+04  0.7818609E-02  0.8128923E-01
        2   -1    0    0  501    0  0.00000000000E+00  0.00000000000E+00  0.16373937346E+04  0.16373937346E+04  0.25500000920E-02 0.  1.
       -2   -1    0    0    0  501  0.00000000000E+00  0.00000000000E+00 -0.18034557655E+04  0.18034557655E+04  0.25500000920E-02 0. -1.
    10030    2    1    2    0    0  0.00000000000E+00  0.00000000000E+00 -0.16606203094E+03  0.34408495001E+04  0.34368399271E+04 0.  0.
        5    1    3    3  502    0  0.74058194978E+03 -0.10468477113E+04 -0.12283032257E+04  0.17756977951E+04  0.46999998093E+01 0. -1.
       -5    1    3    3    0  502 -0.74058194978E+03  0.10468477113E+04  0.10622411948E+04  0.16651517051E+04  0.46999998093E+01 0.  1.
</event>
<event>
 5   0  0.1908190E-07  0.3508323E+04  0.7818609E-02  0.8111820E-01
       -1   -1    0    0    0  501  0.00000000000E+00  0.00000000000E+00  0.23917477978E+04  0.23917477978E+04  0.50400001928E-02 0. -1.
        1   -1    0    0  501    0  0.00000000000E+00  0.00000000000E+00 -0.12865412434E+04  0.12865412434E+04  0.50400001928E-02 0.  1.
    10030    2    1    2    0    0  0.00000000000E+00  0.00000000000E+00  0.11052065544E+04  0.36782890413E+04  0.35083227821E+04 0.  0.
        5    1    3    3  502    0 -0.16499886740E+03  0.13706707761E+04 -0.58199667539E+03  0.14982340348E+04  0.46999998093E+01 0.  1.
       -5    1    3    3    0  502  0.16499886740E+03 -0.13706707761E+04  0.16872032298E+04  0.21800550065E+04  0.46999998093E+01 0. -1.
</event>
<event>
 5   0  0.1873457E-07  0.3459121E+04  0.7818609E-02  0.8123547E-01
        1   -1    0    0  501    0  0.00000000000E+00  0.00000000000E+00  0.26164940492E+04  0.26164940492E+04  0.50400001928E-02 0.  1.
       -1   -1    0    0    0  501  0.00000000000E+00  0.00000000000E+00 -0.11432779959E+04  0.11432779959E+04  0.50400001928E-02 0. -1.
    10030    2    1    2    0    0  0.00000000000E+00  0.00000000000E+00  0.14732160532E+04  0.37597720451E+04  0.34591213179E+04 0.  0.
        3    1    3    3  502    0  0.48621993018E+03 -0.10379851426E+04 -0.67117062351E+03  0.13282669132E+04  0.10100000352E+00 0. -1.
       -3    1    3    3    0  502 -0.48621993018E+03  0.10379851426E+04  0.21443866767E+04  0.24315051319E+04  0.10100000352E+00 0.  1.
</event>
<event>
 5   0  0.5740827E-07  0.3492551E+04  0.7818609E-02  0.8115557E-01
        2   -1    0    0  501    0  0.00000000000E+00  0.00000000000E+00  0.12244992106E+04  0.12244992106E+04  0.25500000920E-02 0. -1.
       -2   -1    0    0    0  501  0.00000000000E+00  0.00000000000E+00 -0.24903885679E+04  0.24903885679E+04  0.25500000920E-02 0.  1.
    10030    2    1    2    0    0  0.00000000000E+00  0.00000000000E+00 -0.12658893572E+04  0.37148877785E+04  0.34925514087E+04 0.  0.
        2    1    3    3  502    0  0.13139068549E+03 -0.17413083489E+04 -0.64122193464E+03  0.18602644564E+04  0.25500000920E-02 0. -1.
       -2    1    3    3    0  502 -0.13139068549E+03  0.17413083489E+04 -0.62466742261E+03  0.18546233221E+04  0.25500000920E-02 0.  1.
</event>
<event>
 5   0  0.5554745E-07  0.3444612E+04  0.7818609E-02  0.8127043E-01
        2   -1    0    0  501    0  0.00000000000E+00  0.00000000000E+00  0.28855747607E+04  0.28855747607E+04  0.25500000920E-02 0. -1.
       -2   -1    0    0    0  501  0.00000000000E+00  0.00000000000E+00 -0.10279888279E+04  0.10279888279E+04  0.25500000920E-02 0.  1.
    10030    2    1    2    0    0  0.00000000000E+00  0.00000000000E+00  0.18575859327E+04  0.39135635886E+04  0.34446123823E+04 0.  0.
        5    1    3    3  502    0  0.12499253711E+04  0.98836313733E+03  0.16713295756E+04  0.23092292578E+04  0.46999998093E+01 0. -1.
       -5    1    3    3    0  502 -0.12499253711E+04 -0.98836313733E+03  0.18625635712E+03  0.16043343309E+04  0.46999998093E+01 0.  1.
</event>
<event>
 5   0  0.5707187E-07  0.3483483E+04  0.7818609E-02  0.8117715E-01
       -2   -1    0    0    0  501  0.00000000000E+00  0.00000000000E+00  0.14159639859E+04  0.14159639859E+04  0.25500000920E-02 0.  1.
        2   -1    0    0  501    0  0.00000000000E+00  0.00000000000E+00 -0.21424726298E+04  0.21424726298E+04  0.25500000920E-02 0. -1.
    10030    2    1    2    0    0  0.00000000000E+00  0.00000000000E+00 -0.72650864386E+03  0.35584366157E+04  0.34834833627E+04 0.  0.
        1    1    3    3  502    0  0.68425988475E+03  0.46855371847E+03  0.12013378696E+04  0.14597831530E+04  0.50400001928E-02 0.  1.
       -1    1    3    3    0  502 -0.68425988475E+03 -0.46855371847E+03 -0.19278465134E+04  0.20986534626E+04  0.50400001928E-02 0. -1.
</event>
<event>
 5   0  0.5573334E-07  0.3504452E+04  0.7818609E-02  0.8112736E-01
       -2   -1    0    0    0  501  0.00000000000E+00  0.00000000000E+00  0.13194757983E+04  0.13194757983E+04  0.25500000920E-02 0.  1.
        2   -1    0    0  501    0  0.00000000000E+00  0.00000000000E+00 -0.23269059733E+04  0.23269059733E+04  0.25500000920E-02 0. -1.
    10030    2    1    2    0    0  0.00000000000E+00  0.00000000000E+00 -0.10074301751E+04  0.36463817716E+04  0.35044520922E+04 0.  0.
        4    1    3    3  502    0 -0.31241044709E+03  0.13381134942E+04 -0.16350147527E+04  0.21357487832E+04  0.12699999809E+01 0. -1.
       -4    1    3    3    0  502  0.31241044709E+03 -0.13381134942E+04  0.62758457758E+03  0.15106329884E+04  0.12699999809E+01 0.  1.
</event>
<event>
 5   0  0.5554745E-07  0.3489304E+04  0.7818609E-02  0.8116329E-01
       -2   -1    0    0    0  501  0.00000000000E+00  0.00000000000E+00  0.24761550224E+04  0.24761550224E+04  0.25500000920E-02 0. -1.
        2   -1    0    0  501    0  0.00000000000E+00  0.00000000000E+00 -0.12292491412E+04  0.12292491412E+04  0.25500000920E-02 0.  1.
    10030    2    1    2    0    0  0.00000000000E+00  0.00000000000E+00  0.12469058812E+04  0.37054041636E+04  0.34893044778E+04 0.  0.
        5    1    3    3  502    0 -0.12234855212E+04  0.88133287690E+03 -0.30846419120E+03  0.15391025657E+04  0.46999998093E+01 0. -1.
       -5    1    3    3    0  502  0.12234855212E+04 -0.88133287690E+03  0.15553700724E+04  0.21663015978E+04  0.46999998093E+01 0.  1.
</event>
<event>
 5   0  0.5677193E-07  0.3555115E+04  0.7818609E-02  0.8100851E-01
        2   -1    0    0  501    0  0.00000000000E+00  0.00000000000E+00  0.13190834726E+04  0.13190834726E+04  0.25500000920E-02 0.  1.
       -2   -1    0    0    0  501  0.00000000000E+00  0.00000000000E+00 -0.23953834473E+04  0.23953834473E+04  0.25500000920E-02 0. -1.
    10030    2    1    2    0    0  0.00000000000E+00  0.00000000000E+00 -0.10762999747E+04  0.37144669199E+04  0.35551150281E+04 0.  0.
        3    1    3    3  502    0 -0.16029320276E+04  0.47873344526E+03 -0.11660304537E+04  0.20391674345E+04  0.10100000352E+00 0. -1.
       -3    1    3    3    0  502  0.16029320276E+04 -0.47873344526E+03  0.89730478943E+02  0.16752994854E+04  0.10100000352E+00 0.  1.
</event>
<event>
 5   0  0.1933647E-07  0.3471700E+04  0.7818609E-02  0.8120530E-01
       -1   -1    0    0    0  501  0.00000000000E+00  0.00000000000E+00  0.12997829064E+04  0.12997829064E+04  0.50400001928E-02 0.  1.
        1   -1    0    0  501    0  0.00000000000E+00  0.00000000000E+00 -0.23182140875E+04  0.23182140876E+04  0.50400001928E-02 0. -1.
    10030    2    1    2    0    0  0.00000000000E+00  0.00000000000E+00 -0.10184311812E+04  0.36179969939E+04  0.34716998973E+04 0.  0.
        4    1    3    3  502    0 -0.10488922660E+04  0.81325013344E+03  0.65668825503E+03  0.14808078344E+04  0.12699999809E+01 0.  1.
       -4    1    3    3    0  502  0.10488922660E+04 -0.81325013344E+03 -0.16751194362E+04  0.21371891595E+04  0.12699999809E+01 0. -1.
</event>
<event>
 5   0  0.5554745E-07  0.3428770E+04  0.7818609E-02  0.8130881E-01
        2   -1    0    0  501    0  0.00000000000E+00  0.00000000000E+00  0.26546372819E+04  0.26546372819E+04  0.25500000920E-02 0.  1.
       -2   -1    0    0    0  501  0.00000000000E+00  0.00000000000E+00 -0.11071628623E+04  0.11071628623E+04  0.25500000920E-02 0. -1.
    10030    2    1    2    0    0  0.00000000000E+00  0.00000000000E+00  0.15474744196E+04  0.37618001442E+04  0.34287699319E+04 0.  0.
        5    1    3    3  502    0  0.12716219715E+04  0.10816126219E+04  0.12017373348E+04  0.20569645146E+04  0.46999998093E+01 0. -1.
       -5    1    3    3    0  502 -0.12716219715E+04 -0.10816126219E+04  0.34573708481E+03  0.17048356296E+04  0.46999998093E+01 0.  1.
</event>
<event>
 5   0  0.1908190E-07  0.3502657E+04  0.7818609E-02  0.8113161E-01
       -1   -1    0    0    0  501  0.00000000000E+00  0.00000000000E+00  0.16420647255E+04  0.16420647255E+04  0.50400001928E-02 0.  1.
        1   -1    0    0  501    0  0.00000000000E+00  0.00000000000E+00 -0.18678629575E+04  0.18678629575E+04  0.50400001928E-02 0. -1.
    10030    2    1    2    0    0  0.00000000000E+00  0.00000000000E+00 -0.22579823207E+03  0.35099276830E+04  0.35026572054E+04 0.  0.
        5    1    3    3  502    0 -0.49384547626E+03  0.27392729340E+03  0.15483146113E+04  0.16480957928E+04  0.46999998093E+01 0.  1.
       -5    1    3    3    0  502  0.49384547626E+03 -0.27392729340E+03 -0.17741128434E+04  0.18618318902E+04  0.46999998093E+01 0. -1.
</event>
<event>
 5   0  0.1908190E-07  0.3657116E+04  0.7818609E-02  0.8077532E-01
        1   -1    0    0  501    0  0.00000000000E+00  0.00000000000E+00  0.25815231325E+04  0.25815231325E+04  0.50400001928E-02 0. -1.
       -1   -1    0    0    0  501  0.00000000000E+00  0.00000000000E+00 -0.12952139589E+04  0.12952139589E+04  0.50400001928E-02 0.  1.
    10030    2    1    2    0    0  0.00000000000E+00  0.00000000000E+00  0.12863091735E+04  0.38767370914E+04  0.36571162391E+04 0.  0.
        5    1    3    3  502    0  0.35388317212E+03 -0.17301656663E+04  0.11458658537E+04  0.21051691564E+04  0.46999998093E+01 0. -1.
       -5    1    3    3    0  502 -0.35388317212E+03  0.17301656663E+04  0.14044331984E+03  0.17715679350E+04  0.46999998093E+01 0.  1.
</event>
<event>
 5   0  0.1908190E-07  0.3516862E+04  0.7818609E-02  0.8109806E-01
       -1   -1    0    0    0  501  0.00000000000E+00  0.00000000000E+00  0.20564097845E+04  0.20564097845E+04  0.50400001928E-02 0. -1.
        1   -1    0    0  501    0  0.00000000000E+00  0.00000000000E+00 -0.15036297337E+04  0.15036297337E+04  0.50400001928E-02 0.  1.
    10030    2    1    2    0    0  0.00000000000E+00  0.00000000000E+00  0.55278005080E+03  0.35600395182E+04  0.35168616104E+04 0.  0.
        5    1    3    3  502    0 -0.43774232372E+03 -0.76895288238E+03  0.18146353572E+04  0.20188686057E+04  0.46999998093E+01 0. -1.
       -5    1    3    3    0  502  0.43774232372E+03  0.76895288238E+03 -0.12618553064E+04  0.15411709125E+04  0.46999998093E+01 0.  1.
</event>
<event>
 5   0  0.1866421E-07  0.3495190E+04  0.7818609E-02  0.8114931E-01
        1   -1    0    0  501    0  0.00000000000E+00  0.00000000000E+00  0.26134549900E+04  0.26134549900E+04  0.50400001928E-02 0. -1.
       -1   -1    0    0    0  501  0.00000000000E+00  0.00000000000E+00 -0.11686019395E+04  0.11686019395E+04  0.50400001928E-02 0.  1.
    10030    2    1    2    0    0  0.00000000000E+00  0.00000000000E+00  0.14448530505E+04  0.37820569294E+04  0.34951901637E+04 0.  0.
        1    1    3    3  502    0 -0.74370382612E+03 -0.15086428523E+04  0.12356881514E+04  0.20871089680E+04  0.50400001928E-02 0. -1.
       -1    1    3    3    0  502  0.74370382612E+03  0.15086428523E+04  0.20916489912E+03  0.16949479614E+04  0.50400001928E-02 0.  1.
</event>
<event>
 5   0  0.5677193E-07  0.3503803E+04  0.7818609E-02  0.8112889E-01
       -2   -1    0    0    0  501  0.00000000000E+00  0.00000000000E+00  0.17270972306E+04  0.17270972306E+04  0.25500000920E-02 0.  1.
        2   -1    0    0  501    0  0.00000000000E+00  0.00000000000E+00 -0.17770619310E+04  0.17770619310E+04  0.25500000920E-02 0. -1.
    10030    2    1    2    0    0  0.00000000000E+00  0.00000000000E+00 -0.49964700430E+02  0.35041591615E+04  0.35038029280E+04 0.  0.
        3    1    3    3  502    0 -0.13270506123E+04  0.75869998813E+03 -0.88091381859E+03  0.17642840377E+04  0.10100000352E+00 0. -1.
       -3    1    3    3    0  502  0.13270506123E+04 -0.75869998813E+03  0.83094911816E+03  0.17398751239E+04  0.10100000352E+00 0.  1.
</event>
<event>
 5   0  0.5554745E-07  0.3520952E+04  0.7818609E-02  0.8108843E-01
       -2   -1    0    0    0  501  0.00000000000E+00  0.00000000000E+00  0.33326378291E+04  0.33326378291E+04  0.25500000920E-02 0.  1.
        2   -1    0    0  501    0  0.00000000000E+00  0.00000000000E+00 -0.92997655636E+03  0.92997655636E+03  0.25500000920E-02 0. -1.
    10030    2    1    2    0    0  0.00000000000E+00  0.00000000000E+00  0.24026612728E+04  0.42626143855E+04  0.35209516054E+04 0.  0.
        5    1    3    3  502    0  0.13026662892E+04 -0.39157244172E+03  0.25543204252E+04  0.28939321628E+04  0.46999998093E+01 0.  1.
       -5    1    3    3    0  502 -0.13026662892E+04  0.39157244172E+03 -0.15165915243E+03  0.13686822227E+04  0.46999998093E+01 0. -1.
</event>
<event>
 5   0  0.1933647E-07  0.3542695E+04  0.7818609E-02  0.8103746E-01
        1   -1    0    0  501    0  0.00000000000E+00  0.00000000000E+00  0.22495864186E+04  0.22495864186E+04  0.50400001928E-02 0. -1.
       -1   -1    0    0    0  501  0.00000000000E+00  0.00000000000E+00 -0.13947770011E+04  0.13947770011E+04  0.50400001928E-02 0.  1.
    10030    2    1    2    0    0  0.00000000000E+00  0.00000000000E+00  0.85480941754E+03  0.36443634197E+04  0.35426946799E+04 0.  0.
        4    1    3    3  502    0 -0.67923617136E+03  0.29516313206E+02  0.21100218216E+04  0.22168506242E+04  0.12699999809E+01 0. -1.
       -4    1    3    3    0  502  0.67923617136E+03 -0.29516313206E+02 -0.12552124041E+04  0.14275127956E+04  0.12699999809E+01 0.  1.
</event>
<event>
 5   0  0.5740827E-07  0.3524538E+04  0.7818609E-02  0.8107999E-01
        2   -1    0    0  501    0  0.00000000000E+00  0.00000000000E+00  0.16753791246E+04  0.16753791246E+04  0.25500000920E-02 0. -1.
       -2   -1    0    0    0  501  0.00000000000E+00  0.00000000000E+00 -0.18536657259E+04  0.18536657259E+04  0.25500000920E-02 0.  1.
    10030    2    1    2    0    0  0.00000000000E+00  0.00000000000E+00 -0.17828660134E+03  0.35290448505E+04  0.35245384726E+04 0.  0.
        2    1    3    3  502    0 -0.59520580576E+03 -0.13292181230E+04 -0.10826327146E+04  0.18147133009E+04  0.25500000920E-02 0.  1.
       -2    1    3    3    0  502  0.59520580576E+03  0.13292181230E+04  0.90434611324E+03  0.17143315497E+04  0.25500000920E-02 0. -1.
</event>
<event>
 5   0  0.5740827E-07  0.3540221E+04  0.7818609E-02  0.8104324E-01
        2   -1    0    0  501    0  0.00000000000E+00  0.00000000000E+00  0.11420306729E+04  0.11420306729E+04  0.25500000920E-02 0. -1.
       -2   -1    0    0    0  501  0.00000000000E+00  0.00000000000E+00 -0.27436145067E+04  0.27436145067E+04  0.25500000920E-02 0.  1.
    10030    2    1    2    0    0  0.00000000000E+00  0.00000000000E+00 -0.16015838337E+04  0.38856451796E+04  0.35402214176E+04 0.  0.
        2    1    3    3  502    0  0.16311436498E+03  0.58905258835E+03  0.10225321404E+04  0.11912855351E+04  0.25500000920E-02 0. -1.
       -2    1    3    3    0  502 -0.16311436498E+03 -0.58905258835E+03 -0.26241159742E+04  0.26943596445E+04  0.25500000920E-02 0.  1.
</event>
<event>
 5   0  0.1866421E-07  0.3515377E+04  0.7818609E-02  0.8110155E-01
        1   -1    0    0  501    0  0.00000000000E+00  0.00000000000E+00  0.20352469244E+04  0.20352469244E+04  0.50400001928E-02 0. -1.
       -1   -1    0    0    0  501  0.00000000000E+00  0.00000000000E+00 -0.15179824684E+04  0.15179824684E+04  0.50400001928E-02 0.  1.
    10030    2    1    2    0    0  0.00000000000E+00  0.00000000000E+00  0.51726445596E+03  0.35532293928E+04  0.35153771633E+04 0.  0.
        1    1    3    3  502    0 -0.14979088538E+04  0.58381034941E+03  0.97684908136E+03  0.18811697388E+04  0.50400001928E-02 0. -1.
       -1    1    3    3    0  502  0.14979088538E+04 -0.58381034941E+03 -0.45958462539E+03  0.16720596539E+04  0.50400001928E-02 0.  1.
</event>
<event>
 5   0  0.5554745E-07  0.3451043E+04  0.7818609E-02  0.8125491E-01
       -2   -1    0    0    0  501  0.00000000000E+00  0.00000000000E+00  0.15051828123E+04  0.15051828123E+04  0.25500000920E-02 0. -1.
        2   -1    0    0  501    0  0.00000000000E+00  0.00000000000E+00 -0.19781144851E+04  0.19781144851E+04  0.25500000920E-02 0.  1.
    10030    2    1    2    0    0  0.00000000000E+00  0.00000000000E+00 -0.47293167282E+03  0.34832972975E+04  0.34510426968E+04 0.  0.
        5    1    3    3  502    0 -0.16605860367E+03 -0.14674596099E+04 -0.11372126739E+04  0.18639441843E+04  0.46999998093E+01 0.  1.
       -5    1    3    3    0  502  0.16605860367E+03  0.14674596099E+04  0.66428100108E+03  0.16193531131E+04  0.46999998093E+01 0. -1.
</event>
<event>
 5   0  0.1873457E-07  0.3493529E+04  0.7818609E-02  0.8115325E-01
        1   -1    0    0  501    0  0.00000000000E+00  0.00000000000E+00  0.18126300840E+04  0.18126300840E+04  0.50400001928E-02 0.  1.
       -1   -1    0    0    0  501  0.00000000000E+00  0.00000000000E+00 -0.16832918809E+04  0.16832918809E+04  0.50400001928E-02 0. -1.
    10030    2    1    2    0    0  0.00000000000E+00  0.00000000000E+00  0.12933820310E+03  0.34959219648E+04  0.34935285906E+04 0.  0.
        3    1    3    3  502    0 -0.11443322942E+03  0.12763977259E+04  0.12524529521E+04  0.17919052782E+04  0.10100000352E+00 0.  1.
       -3    1    3    3    0  502  0.11443322942E+03 -0.12763977259E+04 -0.11231147490E+04  0.17040166866E+04  0.10100000352E+00 0. -1.
</event>
<event>
 5   0  0.5573334E-07  0.3325590E+04  0.7818609E-02  0.8156414E-01
       -2   -1    0    0    0  501  0.00000000000E+00  0.00000000000E+00  0.10563584966E+04  0.10563584966E+04  0.25500000920E-02 0.  1.
        2   -1    0    0  501    0  0.00000000000E+00  0.00000000000E+00 -0.26173764113E+04  0.26173764113E+04  0.25500000920E-02 0. -1.
    10030    2    1    2    0    0  0.00000000000E+00  0.00000000000E+00 -0.15610179147E+04  0.36737349078E+04  0.33255903601E+04 0.  0.
        4    1    3    3  502    0 -0.14644983720E+04  0.47360454648E+02 -0.16488570179E+04  0.22058398792E+04  0.12699999809E+01 0. -1.
       -4    1    3    3    0  502  0.14644983720E+04 -0.47360454648E+02  0.87839103236E+02  0.14678950287E+04  0.12699999809E+01 0.  1.
</event>
<event>
 5   0  0.5554745E-07  0.3500472E+04  0.7818609E-02  0.8113678E-01
        2   -1    0    0  501    0  0.00000000000E+00  0.00000000000E+00  0.24295052441E+04  0.24295052441E+04  0.25500000920E-02 0.  1.
       -2   -1    0    0    0  501  0.00000000000E+00  0.00000000000E+00 -0.12608846065E+04  0.12608846065E+04  0.25500000920E-02 0. -1.
    10030    2    1    2    0    0  0.00000000000E+00  0.00000000000E+00  0.11686206376E+04  0.36903898507E+04  0.35004718333E+04 0.  0.
        5    1    3    3  502    0  0.34445203876E+03  0.17034318619E+04  0.36575545881E+03  0.17759860531E+04  0.46999998093E+01 0.  1.
       -5    1    3    3    0  502 -0.34445203876E+03 -0.17034318619E+04  0.80286517878E+03  0.19144037976E+04  0.46999998093E+01 0. -1.
</event>
<event>
 5   0  0.1866421E-07  0.3441834E+04  0.7818609E-02  0.8127714E-01
       -1   -1    0    0    0  501  0.00000000000E+00  0.00000000000E+00  0.14982292141E+04  0.14982292141E+04  0.50400001928E-02 0.  1.
        1   -1    0    0  501    0  0.00000000000E+00  0.00000000000E+00 -0.19767042534E+04  0.19767042534E+04  0.50400001928E-02 0. -1.
    10030    2    1    2    0    0  0.00000000000E+00  0.00000000000E+00 -0.47847503928E+03  0.34749334675E+04  0.34418344296E+04 0.  0.
        1    1    3    3  502    0  0.65677557880E+02 -0.97833731149E+03  0.11886112928E+04  0.15408615259E+04  0.50400001928E-02 0.  1.
       -1    1    3    3    0  502 -0.65677557880E+02  0.97833731149E+03 -0.16670863321E+04  0.19340719416E+04  0.50400001928E-02 0. -1.
</event>
<event>
 5   0  0.1866421E-07  0.3396673E+04  0.7818609E-02  0.8138723E-01
       -1   -1    0    0    0  501  0.00000000000E+00  0.00000000000E+00  0.16209622655E+04  0.16209622655E+04  0.50400001928E-02 0. -1.
        1   -1    0    0  501    0  0.00000000000E+00  0.00000000000E+00 -0.17794045936E+04  0.17794045936E+04  0.50400001928E-02 0.  1.
    10030    2    1    2    0    0  0.00000000000E+00  0.00000000000E+00 -0.15844232813E+03  0.34003668591E+04  0.33966734910E+04 0.  0.
        1    1    3    3  502    0 -0.12513973269E+04  0.51670580051E+03 -0.11056982443E+04  0.17480128036E+04  0.50400001928E-02 0.  1.
       -1    1    3    3    0  502  0.12513973269E+04 -0.51670580051E+03  0.94725591617E+03  0.16523540555E+04  0.50400001928E-02 0. -1.
</event>
<event>
 5   0  0.1873457E-07  0.3511585E+04  0.7818609E-02  0.8111050E-01
        1   -1    0    0  501    0  0.00000000000E+00  0.00000000000E+00  0.20813351952E+04  0.20813351952E+04  0.50400001928E-02 0.  1.
       -1   -1    0    0    0  501  0.00000000000E+00  0.00000000000E+00 -0.14811684394E+04  0.14811684394E+04  0.50400001928E-02 0. -1.
    10030    2    1    2    0    0  0.00000000000E+00  0.00000000000E+00  0.60016675573E+03  0.35625036346E+04  0.35115853986E+04 0.  0.
        3    1    3    3  502    0  0.16271152947E+04 -0.60326871855E+03  0.29056757657E+02  0.17355925888E+04  0.10100000352E+00 0. -1.
       -3    1    3    3    0  502 -0.16271152947E+04  0.60326871855E+03  0.57110999807E+03  0.18269110458E+04  0.10100000352E+00 0.  1.
</event>
<event>
 5   0  0.5573334E-07  0.3472441E+04  0.7818609E-02  0.8120352E-01
        2   -1    0    0  501    0  0.00000000000E+00  0.00000000000E+00  0.24626670202E+04  0.24626670202E+04  0.25500000920E-02 0.  1.
       -2   -1    0    0    0  501  0.00000000000E+00  0.00000000000E+00 -0.12240639147E+04  0.12240639147E+04  0.25500000920E-02 0. -1.
    10030    2    1    2    0    0  0.00000000000E+00  0.00000000000E+00  0.12386031056E+04  0.36867309349E+04  0.34724411202E+04 0.  0.
        4    1    3    3  502    0  0.14335559398E+04  0.94514247708E+03  0.89223223934E+03  0.19350599257E+04  0.12699999809E+01 0. -1.
       -4    1    3    3    0  502 -0.14335559398E+04 -0.94514247708E+03  0.34637086622E+03  0.17516710091E+04  0.12699999809E+01 0.  1.
</event>
<event>
 5   0  0.5707187E-07  0.3504376E+04  0.7818609E-02  0.8112754E-01
       -2   -1    0    0    0  501  0.00000000000E+00  0.00000000000E+00  0.15880699484E+04  0.15880699484E+04  0.25500000920E-02 0. -1.
        2   -1    0    0  501    0  0.00000000000E+00  0.00000000000E+00 -0.19332671370E+04  0.19332671370E+04  0.25500000920E-02 0.  1.
    10030    2    1    2    0    0  0.00000000000E+00  0.00000000000E+00 -0.34519718861E+03  0.35213370854E+04  0.35043763740E+04 0.  0.
        1    1    3    3  502    0  0.14927049667E+03  0.17410484203E+04 -0.43008687704E+02  0.17479648253E+04  0.50400001928E-02 0. -1.
       -1    1    3    3    0  502 -0.14927049667E+03 -0.17410484203E+04 -0.30218850091E+03  0.17733722602E+04  0.50400001928E-02 0.  1.
</event>
<event>
 5   0  0.5554745E-07  0.3504166E+04  0.7818609E-02  0.8112803E-01
       -2   -1    0    0    0  501  0.00000000000E+00  0.00000000000E+00  0.22056331600E+04  0.22056331600E+04  0.25500000920E-02 0. -1.
        2   -1    0    0  501    0  0.00000000000E+00  0.00000000000E+00 -0.13917979133E+04  0.13917979133E+04  0.25500000920E-02 0.  1.
    10030    2    1    2    0    0  0.00000000000E+00  0.00000000000E+00  0.81383524675E+03  0.35974310733E+04  0.35041664513E+04 0.  0.
        5    1    3    3  502    0 -0.15356316472E+04 -0.48193481747E+03 -0.30385899113E+03  0.16379188321E+04  0.46999998093E+01 0.  1.
       -5    1    3    3    0  502  0.15356316472E+04  0.48193481747E+03  0.11176942379E+04  0.19595122412E+04  0.46999998093E+01 0. -1.
</event>
<event>
 5   0  0.1897049E-07  0.3474189E+04  0.7818609E-02  0.8119934E-01
        1   -1    0    0  501    0  0.00000000000E+00  0.00000000000E+00  0.22869369193E+04  0.22869369193E+04  0.50400001928E-02 0.  1.
       -1   -1    0    0    0  501  0.00000000000E+00  0.00000000000E+00 -0.13194496373E+04  0.13194496373E+04  0.50400001928E-02 0. -1.
    10030    2    1    2    0    0  0.00000000000E+00  0.00000000000E+00  0.96748728205E+03  0.36063865566E+04  0.34741894529E+04 0.  0.
        2    1    3    3  502    0  0.74511337093E+03  0.40900365549E+03 -0.10888337614E+04  0.13813170837E+04  0.25500000920E-02 0. -1.
       -2    1    3    3    0  502 -0.74511337093E+03 -0.40900365549E+03  0.20563210434E+04  0.22250694729E+04  0.25500000920E-02 0.  1.
</event>
<event>
 5   0  0.1823000E-07  0.3432860E+04  0.7818609E-02  0.8129888E-01
       -3   -1    0    0    0  501  0.00000000000E+00  0.00000000000E+00  0.18202423827E+04  0.18202423855E+04  0.10100000352E+00 0.  1.
        3   -1    0    0  501    0  0.00000000000E+00  0.00000000000E+00 -0.16185380617E+04  0.16185380648E+04  0.10100000352E+00 0. -1.
    10030    2    1    2    0    0  0.00000000000E+00  0.00000000000E+00  0.20170432099E+03  0.34387804503E+04  0.34328597921E+04 0.  0.
        1    1    3    3  502    0 -0.46163630255E+03  0.11782754180E+04 -0.10607557471E+04  0.16512552169E+04  0.50400001928E-02 0. -1.
       -1    1    3    3    0  502  0.46163630255E+03 -0.11782754180E+04  0.12624600681E+04  0.17875252334E+04  0.50400001928E-02 0.  1.
</event>
<event>
 5   0  0.5573334E-07  0.3482973E+04  0.7818609E-02  0.8117837E-01
       -2   -1    0    0    0  501  0.00000000000E+00  0.00000000000E+00  0.15126242697E+04  0.15126242697E+04  0.25500000920E-02 0.  1.
        2   -1    0    0  501    0  0.00000000000E+00  0.00000000000E+00 -0.20049759457E+04  0.20049759457E+04  0.25500000920E-02 0. -1.
    10030    2    1    2    0    0  0.00000000000E+00  0.00000000000E+00 -0.49235167598E+03  0.35176002154E+04  0.34829730264E+04 0.  0.
        4    1    3    3  502    0 -0.12656475066E+03 -0.35336310342E+03  0.14712864855E+04  0.15184102391E+04  0.12699999809E+01 0.  1.
       -4    1    3    3    0  502  0.12656475066E+03  0.35336310342E+03 -0.19636381615E+04  0.19991899762E+04  0.12699999809E+01 0. -1.
</event>
<event>
 5   0  0.1873457E-07  0.3506367E+04  0.7818609E-02  0.8112283E-01
        1   -1    0    0  501    0  0.00000000000E+00  0.00000000000E+00  0.21978570291E+04  0.21978570291E+04  0.50400001928E-02 0. -1.
       -1   -1    0    0    0  501  0.00000000000E+00  0.00000000000E+00 -0.13984769564E+04  0.13984769564E+04  0.50400001928E-02 0.  1.
    10030    2    1    2    0    0  0.00000000000E+00  0.00000000000E+00  0.79938007278E+03  0.35963339855E+04  0.35063670137E+04 0.  0.
        3    1    3    3  502    0  0.13989290838E+03  0.14083077623E+04  0.14610116657E+04  0.20340737146E+04  0.10100000352E+00 0. -1.
       -3    1    3    3    0  502 -0.13989290838E+03 -0.14083077623E+04 -0.66163159290E+03  0.15622602709E+04  0.10100000352E+00 0.  1.
</event>
<event>
 5   0  0.5573334E-07  0.3486500E+04  0.7818609E-02  0.8116997E-01
        2   -1    0    0  501    0  0.00000000000E+00  0.00000000000E+00  0.12549939543E+04  0.12549939543E+04  0.25500000920E-02 0.  1.
       -2   -1    0    0    0  501  0.00000000000E+00  0.00000000000E+00 -0.24214621031E+04  0.24214621031E+04  0.25500000920E-02 0. -1.
    10030    2    1    2    0    0  0.00000000000E+00  0.00000000000E+00 -0.11664681489E+04  0.36764560574E+04  0.34864998494E+04 0.  0.
        4    1    3    3  502    0  0.92789463810E+03 -0.13462989014E+04  0.54191733585E+02  0.16359851919E+04  0.12699999809E+01 0.  1.
       -4    1    3    3    0  502 -0.92789463810E+03  0.13462989014E+04 -0.12206598824E+04  0.20404708655E+04  0.12699999809E+01 0. -1.
</event>
<event>
 5   0  0.1873457E-07  0.3479587E+04  0.7818609E-02  0.8118645E-01
       -1   -1    0    0    0  501  0.00000000000E+00  0.00000000000E+00  0.10360459947E+04  0.10360459948E+04  0.50400001928E-02 0. -1.
        1   -1    0    0  501    0  0.00000000000E+00  0.00000000000E+00 -0.29215700156E+04  0.29215700156E+04  0.50400001928E-02 0.  1.
    10030    2    1    2    0    0  0.00000000000E+00  0.00000000000E+00 -0.18855240209E+04  0.39576160104E+04  0.34795867071E+04 0.  0.
        3    1    3    3  502    0  0.53503926270E+03  0.96793158327E+03 -0.24702958269E+04  0.27065697931E+04  0.10100000352E+00 0.  1.
       -3    1    3    3    0  502 -0.53503926270E+03 -0.96793158327E+03  0.58477180598E+03  0.12510462173E+04  0.10100000352E+00 0. -1.
</event>
<event>
 5   0  0.1873457E-07  0.3282961E+04  0.7818609E-02  0.8167245E-01
        1   -1    0    0  501    0  0.00000000000E+00  0.00000000000E+00  0.23388427417E+04  0.23388427417E+04  0.50400001928E-02 0.  1.
       -1   -1    0    0    0  501  0.00000000000E+00  0.00000000000E+00 -0.11520477134E+04  0.11520477135E+04  0.50400001928E-02 0. -1.
    10030    2    1    2    0    0  0.00000000000E+00  0.00000000000E+00  0.11867950283E+04  0.34908904552E+04  0.32829611224E+04 0.  0.
        3    1    3    3  502    0 -0.72899579414E+02 -0.14769222923E+04 -0.16436986848E+03  0.14878277017E+04  0.10100000352E+00 0. -1.
       -3    1    3    3    0  502  0.72899579414E+02  0.14769222923E+04  0.13511648967E+04  0.20030627535E+04  0.10100000352E+00 0.  1.
</event>
<event>
 5   0  0.5573334E-07  0.3470040E+04  0.7818609E-02  0.8120927E-01
        2   -1    0    0  501    0  0.00000000000E+00  0.00000000000E+00  0.11487871053E+04  0.11487871054E+04  0.25500000920E-02 0.  1.
       -2   -1    0    0    0  501  0.00000000000E+00  0.00000000000E+00 -0.26204113616E+04  0.26204113616E+04  0.25500000920E-02 0. -1.
    10030    2    1    2    0    0  0.00000000000E+00  0.00000000000E+00 -0.14716242562E+04  0.37691984669E+04  0.34700402205E+04 0.  0.
        4    1    3    3  502    0  0.13073964449E+04  0.65134478018E+03  0.28126593506E+03  0.14874971012E+04  0.12699999809E+01 0.  1.
       -4    1    3    3    0  502 -0.13073964449E+04 -0.65134478018E+03 -0.17528901913E+04  0.22817013658E+04  0.12699999809E+01 0. -1.
</event>
<event>
 5   0  0.5707187E-07  0.3503705E+04  0.7818609E-02  0.8112912E-01
        2   -1    0    0  501    0  0.00000000000E+00  0.00000000000E+00  0.13131777900E+04  0.13131777900E+04  0.25500000920E-02 0. -1.
       -2   -1    0    0    0  501  0.00000000000E+00  0.00000000000E+00 -0.23370695034E+04  0.23370695034E+04  0.25500000920E-02 0.  1.
    10030    2    1    2    0    0  0.00000000000E+00  0.00000000000E+00 -0.10238917134E+04  0.36502472935E+04  0.35037053333E+04 0.  0.
        1    1    3    3  502    0 -0.16765489839E+04  0.50765910090E+03 -0.53413226619E+03  0.18313469185E+04  0.50400001928E-02 0.  1.
       -1    1    3    3    0  502  0.16765489839E+04 -0.50765910090E+03 -0.48975944723E+03  0.18189003750E+04  0.50400001928E-02 0. -1.
</event>
<event>
 5   0  0.5740827E-07  0.3536740E+04  0.7818609E-02  0.8105138E-01
        2   -1    0    0  501    0  0.00000000000E+00  0.00000000000E+00  0.15073527555E+04  0.15073527555E+04  0.25500000920E-02 0.  1.
       -2   -1    0    0    0  501  0.00000000000E+00  0.00000000000E+00 -0.20745852870E+04  0.20745852870E+04  0.25500000920E-02 0. -1.
    10030    2    1    2    0    0  0.00000000000E+00  0.00000000000E+00 -0.56723253151E+03  0.35819380426E+04  0.35367396563E+04 0.  0.
        2    1    3    3  502    0  0.17047381246E+04 -0.29081928923E+03  0.90460068812E+02  0.17317306247E+04  0.25500000920E-02 0.  1.
       -2    1    3    3    0  502 -0.17047381246E+04  0.29081928923E+03 -0.65769260032E+03  0.18502074179E+04  0.25500000920E-02 0. -1.
</event>
<event>
 5   0  0.5573334E-07  0.3505166E+04  0.7818609E-02  0.8112567E-01
       -2   -1    0    0    0  501  0.00000000000E+00  0.00000000000E+00  0.12866296965E+04  0.12866296965E+04  0.25500000920E-02 0. -1.
        2   -1    0    0  501    0  0.00000000000E+00  0.00000000000E+00 -0.23872820803E+04  0.23872820803E+04  0.25500000920E-02 0.  1.
    10030    2    1    2    0    0  0.00000000000E+00  0.00000000000E+00 -0.11006523838E+04  0.36739117768E+04  0.35051664830E+04 0.  0.
        4    1    3    3  502    0 -0.13752977229E+04 -0.22557246739E+03  0.56347911956E+03  0.15032754557E+04  0.12699999809E+01 0. -1.
       -4    1    3    3    0  502  0.13752977229E+04  0.22557246739E+03 -0.16641315034E+04  0.21706363210E+04  0.12699999809E+01 0.  1.
</event>
<event>
 5   0  0.1866421E-07  0.3561385E+04  0.7818609E-02  0.8099395E-01
        1   -1    0    0  501    0  0.00000000000E+00  0.00000000000E+00  0.14485793731E+04  0.14485793731E+04  0.50400001928E-02 0.  1.
       -1   -1    0    0    0  501  0.00000000000E+00  0.00000000000E+00 -0.21889480714E+04  0.21889480714E+04  0.50400001928E-02 0. -1.
    10030    2    1    2    0    0  0.00000000000E+00  0.00000000000E+00 -0.74036869837E+03  0.36375274445E+04  0.35613845763E+04 0.  0.
        1    1    3    3  502    0  0.74207932829E+03  0.13279883299E+04  0.57514712746E+03  0.16263544977E+04  0.50400001928E-02 0.  1.
       -1    1    3    3    0  502 -0.74207932829E+03 -0.13279883299E+04 -0.13155158258E+04  0.20111729468E+04  0.50400001928E-02 0. -1.
</event>
<event>
 5   0  0.1873457E-07  0.3507738E+04  0.7818609E-02  0.8111959E-01
       -1   -1    0    0    0  501  0.00000000000E+00  0.00000000000E+00  0.11057294981E+04  0.11057294982E+04  0.50400001928E-02 0.  1.
        1   -1    0    0  501    0  0.00000000000E+00  0.00000000000E+00 -0.27819241545E+04  0.27819241545E+04  0.50400001928E-02 0. -1.
    10030    2    1    2    0    0  0.00000000000E+00  0.00000000000E+00 -0.16761946563E+04  0.38876536526E+04  0.35077375040E+04 0.  0.
        3    1    3    3  502    0 -0.10143617545E+04  0.13721710821E+04 -0.12873003870E+04  0.21375045132E+04  0.10100000352E+00 0. -1.
       -3    1    3    3    0  502  0.10143617545E+04 -0.13721710821E+04 -0.38889426931E+03  0.17501491394E+04  0.10100000352E+00 0.  1.
</event>
<event>
 5   0  0.5740827E-07  0.3529119E+04  0.7818609E-02  0.8106924E-01
        2   -1    0    0  501    0  0.00000000000E+00  0.00000000000E+00  0.25788276125E+04  0.25788276125E+04  0.25500000920E-02 0.  1.
       -2   -1    0    0    0  501  0.00000000000E+00  0.00000000000E+00 -0.12073973585E+04  0.12073973585E+04  0.25500000920E-02 0. -1.
    10030    2    1    2    0    0  0.00000000000E+00  0.00000000000E+00  0.13714302541E+04  0.37862249710E+04  0.35291186704E+04 0.  0.
        2    1    3    3  502    0  0.23827292570E+02  0.17532620303E+04  0.47337112309E+03  0.18161981464E+04  0.25500000920E-02 0.  1.
       -2    1    3    3    0  502 -0.23827292570E+02 -0.17532620303E+04  0.89805913098E+03  0.19700268246E+04  0.25500000920E-02 0. -1.
</event>
<event>
 5   0  0.1897049E-07  0.3573889E+04  0.7818609E-02  0.8096499E-01
       -1   -1    0    0    0  501  0.00000000000E+00  0.00000000000E+00  0.23311479327E+04  0.23311479327E+04  0.50400001928E-02 0.  1.
        1   -1    0    0  501    0  0.00000000000E+00  0.00000000000E+00 -0.13697845047E+04  0.13697845047E+04  0.50400001928E-02 0. -1.
    10030    2    1    2    0    0  0.00000000000E+00  0.00000000000E+00  0.96136342807E+03  0.37009324374E+04  0.35738888155E+04 0.  0.
        2    1    3    3  502    0 -0.10722345514E+04 -0.11267398323E+04  0.13916934503E+04  0.20871128964E+04  0.25500000920E-02 0.  1.
       -2    1    3    3    0  502  0.10722345514E+04  0.11267398323E+04 -0.43033002220E+03  0.16138195410E+04  0.25500000920E-02 0. -1.
</event>
<event>
 5   0  0.1933647E-07  0.3230716E+04  0.7818609E-02  0.8180752E-01
        1   -1    0    0  501    0  0.00000000000E+00  0.00000000000E+00  0.20945886165E+04  0.20945886165E+04  0.50400001928E-02 0. -1.
       -1   -1    0    0    0  501  0.00000000000E+00  0.00000000000E+00 -0.12457724017E+04  0.12457724017E+04  0.50400001928E-02 0.  1.
    10030    2    1    2    0    0  0.00000000000E+00  0.00000000000E+00  0.84881621483E+03  0.33403610182E+04  0.32307155191E+04 0.  0.
        4    1    3    3  502    0  0.59926753880E+03 -0.14989587091E+04  0.48452150369E+03  0.16854558716E+04  0.12699999809E+01 0.  1.
       -4    1    3    3    0  502 -0.59926753880E+03  0.14989587091E+04  0.36429471114E+03  0.16549051466E+04  0.12699999809E+01 0. -1.
</event>
<event>
 5   0  0.1933647E-07  0.3501531E+04  0.7818609E-02  0.8113427E-01
        1   -1    0    0  501    0  0.00000000000E+00  0.00000000000E+00  0.23601906759E+04  0.23601906759E+04  0.50400001928E-02 0. -1.
       -1   -1    0    0    0  501  0.00000000000E+00  0.00000000000E+00 -0.12986999586E+04  0.12986999586E+04  0.50400001928E-02 0.  1.
    10030    2    1    2    0    0  0.00000000000E+00  0.00000000000E+00  0.10614907173E+04  0.36588906345E+04  0.35015308270E+04 0.  0.
        4    1    3    3  502    0 -0.13559681687E+04  0.10303009901E+04  0.95521254889E+03  0.19525886487E+04  0.12699999809E+01 0. -1.
       -4    1    3    3    0  502  0.13559681687E+04 -0.10303009901E+04  0.10627816845E+03  0.17063019858E+04  0.12699999809E+01 0.  1.
</event>
<event>
 5   0  0.5740827E-07  0.3508410E+04  0.7818609E-02  0.8111800E-01
       -2   -1    0    0    0  501  0.00000000000E+00  0.00000000000E+00  0.22336884634E+04  0.22336884634E+04  0.25500000920E-02 0. -1.
        2   -1    0    0  501    0  0.00000000000E+00  0.00000000000E+00 -0.13776470585E+04  0.13776470585E+04  0.25500000920E-02 0.  1.
    10030    2    1    2    0    0  0.00000000000E+00  0.00000000000E+00  0.85604140480E+03  0.36113355219E+04  0.35084095207E+04 0.  0.
        2    1    3    3  502    0 -0.69156318387E+02 -0.91644379773E+03  0.19660383475E+04  0.21702439067E+04  0.25500000920E-02 0. -1.
       -2    1    3    3    0  502  0.69156318387E+02  0.91644379773E+03 -0.11099969427E+04  0.14410916152E+04  0.25500000920E-02 0.  1.
</event>
<event>
 5   0  0.1866421E-07  0.3516727E+04  0.7818609E-02  0.8109837E-01
        1   -1    0    0  501    0  0.00000000000E+00  0.00000000000E+00  0.18067855416E+04  0.18067855417E+04  0.50400001928E-02 0. -1.
       -1   -1    0    0    0  501  0.00000000000E+00  0.00000000000E+00 -0.17112389532E+04  0.17112389532E+04  0.50400001928E-02 0.  1.
    10030    2    1    2    0    0  0.00000000000E+00  0.00000000000E+00  0.95546588488E+02  0.35180244948E+04  0.35167267729E+04 0.  0.
        1    1    3    3  502    0 -0.14965349752E+04  0.78358781559E+03  0.53602614251E+03  0.17722727844E+04  0.50400001928E-02 0. -1.
       -1    1    3    3    0  502  0.14965349752E+04 -0.78358781559E+03 -0.44047955402E+03  0.17457517104E+04  0.50400001928E-02 0.  1.
</event>
<event>
 5   0  0.5740827E-07  0.3504467E+04  0.7818609E-02  0.8112732E-01
        2   -1    0    0  501    0  0.00000000000E+00  0.00000000000E+00  0.13805805889E+04  0.13805805889E+04  0.25500000920E-02 0. -1.
       -2   -1    0    0    0  501  0.00000000000E+00  0.00000000000E+00 -0.22239349931E+04  0.22239349931E+04  0.25500000920E-02 0.  1.
    10030    2    1    2    0    0  0.00000000000E+00  0.00000000000E+00 -0.84335440419E+03  0.36045155821E+04  0.35044665686E+04 0.  0.
        2    1    3    3  502    0 -0.17503166645E+04  0.21584956154E+00 -0.50594926648E+03  0.18219750637E+04  0.25500000920E-02 0.  1.
       -2    1    3    3    0  502  0.17503166645E+04 -0.21584956154E+00 -0.33740513770E+03  0.17825405183E+04  0.25500000920E-02 0. -1.
</event>
<event>
 5   0  0.5740827E-07  0.3447732E+04  0.7818609E-02  0.8126290E-01
        2   -1    0    0  501    0  0.00000000000E+00  0.00000000000E+00  0.20735395198E+04  0.20735395198E+04  0.25500000920E-02 0. -1.
       -2   -1    0    0    0  501  0.00000000000E+00  0.00000000000E+00 -0.14331602067E+04  0.14331602067E+04  0.25500000920E-02 0.  1.
    10030    2    1    2    0    0  0.00000000000E+00  0.00000000000E+00  0.64037931310E+03  0.35066997265E+04  0.34477321977E+04 0.  0.
        2    1    3    3  502    0  0.16021828068E+04  0.58543524422E+03  0.66953089914E+02  0.17071048262E+04  0.25500000920E-02 0. -1.
       -2    1    3    3    0  502 -0.16021828068E+04 -0.58543524422E+03  0.57342622319E+03  0.17995949002E+04  0.25500000920E-02 0.  1.
</event>
<event>
 5   0  0.5740827E-07  0.3487597E+04  0.7818609E-02  0.8116736E-01
        2   -1    0    0  501    0  0.00000000000E+00  0.00000000000E+00  0.10994124233E+04  0.10994124233E+04  0.25500000920E-02 0.  1.
       -2   -1    0    0    0  501  0.00000000000E+00  0.00000000000E+00 -0.27658716112E+04  0.27658716112E+04  0.25500000920E-02 0. -1.
    10030    2    1    2    0    0  0.00000000000E+00  0.00000000000E+00 -0.16664591879E+04  0.38652840346E+04  0.34875972306E+04 0.  0.
        2    1    3    3  502    0  0.28901127914E+03 -0.13763252316E+04 -0.19759207340E+04  0.24252961488E+04  0.25500000920E-02 0. -1.
       -2    1    3    3    0  502 -0.28901127914E+03  0.13763252316E+04  0.30946154606E+03  0.14399878857E+04  0.25500000920E-02 0.  1.
</event>
<event>
 5   0  0.5707187E-07  0.3498529E+04  0.7818609E-02  0.8114139E-01
        2   -1    0    0  501    0  0.00000000000E+00  0.00000000000E+00  0.24488459620E+04  0.24488459620E+04  0.25500000920E-02 0. -1.
       -2   -1    0    0    0  501  0.00000000000E+00  0.00000000000E+00 -0.12495381276E+04  0.12495381276E+04  0.25500000920E-02 0.  1.
    10030    2    1    2    0    0  0.00000000000E+00  0.00000000000E+00  0.11993078344E+04  0.36983840896E+04  0.34985290613E+04 0.  0.
        1    1    3    3  502    0 -0.65036511723E+03  0.12083815625E+04  0.17464112098E+04  0.22210612103E+04  0.50400001928E-02 0. -1.
       -1    1    3    3    0  502  0.65036511723E+03 -0.12083815625E+04 -0.54710337536E+03  0.14773228793E+04  0.50400001928E-02 0.  1.
</event>
<event>
 5   0  0.1897049E-07  0.3469799E+04  0.7818609E-02  0.8120985E-01
       -1   -1    0    0    0  501  0.00000000000E+00  0.00000000000E+00  0.14425585941E+04  0.14425585941E+04  0.50400001928E-02 0. -1.
        1   -1    0    0  501    0  0.00000000000E+00  0.00000000000E+00 -0.20864843220E+04  0.20864843220E+04  0.50400001928E-02 0.  1.
    10030    2    1    2    0    0  0.00000000000E+00  0.00000000000E+00 -0.64392572795E+03  0.35290429161E+04  0.34697987781E+04 0.  0.
        2    1    3    3  502    0  0.12183366836E+04  0.13746283675E+03 -0.15703714884E+04  0.19923119529E+04  0.25500000920E-02 0.  1.
       -2    1    3    3    0  502 -0.12183366836E+04 -0.13746283675E+03  0.92644576049E+03  0.15367309632E+04  0.25500000920E-02 0. -1.
</event>
<event>
 5   0  0.5573334E-07  0.3480027E+04  0.7818609E-02  0.8118540E-01
        2   -1    0    0  501    0  0.00000000000E+00  0.00000000000E+00  0.22975920545E+04  0.22975920545E+04  0.25500000920E-02 0. -1.
       -2   -1    0    0    0  501  0.00000000000E+00  0.00000000000E+00 -0.13177478255E+04  0.13177478255E+04  0.25500000920E-02 0.  1.
    10030    2    1    2    0    0  0.00000000000E+00  0.00000000000E+00  0.97984422899E+03  0.36153398800E+04  0.34800269733E+04 0.  0.
        4    1    3    3  502    0 -0.26292719832E+03  0.14855766967E+04 -0.41072179020E+03  0.15635737384E+04  0.12699999809E+01 0.  1.
       -4    1    3    3    0  502  0.26292719832E+03 -0.14855766967E+04  0.13905660192E+04  0.20517661417E+04  0.12699999809E+01 0. -1.
</event>
<event>
 5   0  0.5554745E-07  0.3514786E+04  0.7818609E-02  0.8110295E-01
        2   -1    0    0  501    0  0.00000000000E+00  0.00000000000E+00  0.19450370259E+04  0.19450370259E+04  0.25500000920E-02 0.  1.
       -2   -1    0    0    0  501  0.00000000000E+00  0.00000000000E+00 -0.15878515801E+04  0.15878515801E+04  0.25500000920E-02 0. -1.
    10030    2    1    2    0    0  0.00000000000E+00  0.00000000000E+00  0.35718544587E+03  0.35328886060E+04  0.35147859764E+04 0.  0.
        5    1    3    3  502    0  0.97904261875E+03 -0.43936475611E+03  0.15774653664E+04  0.19078744483E+04  0.46999998093E+01 0.  1.
       -5    1    3    3    0  502 -0.97904261875E+03  0.43936475611E+03 -0.12202799205E+04  0.16250141577E+04  0.46999998093E+01 0. -1.
</event>
<event>
 5   0  0.1908190E-07  0.3513758E+04  0.7818609E-02  0.8110537E-01
        1   -1    0    0  501    0  0.00000000000E+00  0.00000000000E+00  0.18663941284E+04  0.18663941284E+04  0.50400001928E-02 0. -1.
       -1   -1    0    0    0  501  0.00000000000E+00  0.00000000000E+00 -0.16537903430E+04  0.16537903430E+04  0.50400001928E-02 0.  1.
    10030    2    1    2    0    0  0.00000000000E+00  0.00000000000E+00  0.21260378547E+03  0.35201844714E+04  0.35137584355E+04 0.  0.
        5    1    3    3  502    0  0.55922664208E+03  0.73393462380E+03 -0.13914935185E+04  0.16696319269E+04  0.46999998093E+01 0.  1.
       -5    1    3    3    0  502 -0.55922664208E+03 -0.73393462380E+03  0.16040973040E+04  0.18505525445E+04  0.46999998093E+01 0. -1.
</event>
<event>
 5   0  0.5554745E-07  0.3538388E+04  0.7818609E-02  0.8104752E-01
        2   -1    0    0  501    0  0.00000000000E+00  0.00000000000E+00  0.28700332241E+04  0.28700332241E+04  0.25500000920E-02 0. -1.
       -2   -1    0    0    0  501  0.00000000000E+00  0.00000000000E+00 -0.10905960609E+04  0.10905960609E+04  0.25500000920E-02 0.  1.
    10030    2    1    2    0    0  0.00000000000E+00  0.00000000000E+00  0.17794371632E+04  0.39606292849E+04  0.35383877282E+04 0.  0.
        5    1    3    3  502    0  0.67281319076E+03 -0.12755707658E+04  0.20368377177E+04  0.24956939609E+04  0.46999998093E+01 0. -1.
       -5    1    3    3    0  502 -0.67281319076E+03  0.12755707658E+04 -0.25740055451E+03  0.14649353241E+04  0.46999998093E+01 0.  1.
</event>
<event>
 5   0  0.1908190E-07  0.3469565E+04  0.7818609E-02  0.8121041E-01
       -1   -1    0    0    0  501  0.00000000000E+00  0.00000000000E+00  0.19924677010E+04  0.19924677010E+04  0.50400001928E-02 0. -1.
        1   -1    0    0  501    0  0.00000000000E+00  0.00000000000E+00 -0.15104234360E+04  0.15104234360E+04  0.50400001928E-02 0.  1.
    10030    2    1    2    0    0  0.00000000000E+00  0.00000000000E+00  0.48204426504E+03  0.35028911370E+04  0.34695647630E+04 0.  0.
        5    1    3    3  502    0  0.11433803910E+04  0.33933955945E+03  0.15128755556E+04  0.19264694629E+04  0.46999998093E+01 0. -1.
       -5    1    3    3    0  502 -0.11433803910E+04 -0.33933955945E+03 -0.10308312905E+04  0.15764216741E+04  0.46999998093E+01 0.  1.
</event>
<event>
 5   0  0.5554745E-07  0.3483821E+04  0.7818609E-02  0.8117635E-01
        2   -1    0    0  501    0  0.00000000000E+00  0.00000000000E+00  0.18237721647E+04  0.18237721647E+04  0.25500000920E-02 0.  1.
       -2   -1    0    0    0  501  0.00000000000E+00  0.00000000000E+00 -0.16637231859E+04  0.16637231859E+04  0.25500000920E-02 0. -1.
    10030    2    1    2    0    0  0.00000000000E+00  0.00000000000E+00  0.16004897886E+03  0.34874953506E+04  0.34838209117E+04 0.  0.
        5    1    3    3  502    0  0.70057553978E+02 -0.60756771831E+03  0.17127515897E+04  0.18186771817E+04  0.46999998093E+01 0.  1.
       -5    1    3    3    0  502 -0.70057553978E+02  0.60756771831E+03 -0.15527026108E+04  0.16688181689E+04  0.46999998093E+01 0. -1.
</event>
<event>
 5   0  0.5740827E-07  0.3466210E+04  0.7818609E-02  0.8121845E-01
       -2   -1    0    0    0  501  0.00000000000E+00  0.00000000000E+00  0.10040075524E+04  0.10040075524E+04  0.25500000920E-02 0. -1.
        2   -1    0    0  501    0  0.00000000000E+00  0.00000000000E+00 -0.29916632802E+04  0.29916632802E+04  0.25500000920E-02 0.  1.
    10030    2    1    2    0    0  0.00000000000E+00  0.00000000000E+00 -0.19876557278E+04  0.39956708326E+04  0.34662097614E+04 0.  0.
        2    1    3    3  502    0 -0.69215340106E+02 -0.38416063884E+03  0.95267468451E+03  0.10295432066E+04  0.25500000920E-02 0. -1.
       -2    1    3    3    0  502  0.69215340106E+02  0.38416063884E+03 -0.29403304123E+04  0.29661276260E+04  0.25500000920E-02 0.  1.
</event>
<event>
 5   0  0.1866421E-07  0.3504411E+04  0.7818609E-02  0.8112745E-01
        1   -1    0    0  501    0  0.00000000000E+00  0.00000000000E+00  0.26193472192E+04  0.26193472192E+04  0.50400001928E-02 0. -1.
       -1   -1    0    0    0  501  0.00000000000E+00  0.00000000000E+00 -0.11721331791E+04  0.11721331791E+04  0.50400001928E-02 0.  1.
    10030    2    1    2    0    0  0.00000000000E+00  0.00000000000E+00  0.14472140401E+04  0.37914803983E+04  0.35044108111E+04 0.  0.
        1    1    3    3  502    0  0.80979683225E+02  0.66130205130E+02  0.26159695096E+04  0.26180579421E+04  0.50400001928E-02 0. -1.
       -1    1    3    3    0  502 -0.80979683225E+02 -0.66130205130E+02 -0.11687554695E+04  0.11734224562E+04  0.50400001928E-02 0.  1.
</event>
<event>
 5   0  0.1873457E-07  0.3489045E+04  0.7818609E-02  0.8116391E-01
       -1   -1    0    0    0  501  0.00000000000E+00  0.00000000000E+00  0.17206347330E+04  0.17206347330E+04  0.50400001928E-02 0. -1.
        1   -1    0    0  501    0  0.00000000000E+00  0.00000000000E+00 -0.17687422182E+04  0.17687422182E+04  0.50400001928E-02 0.  1.
    10030    2    1    2    0    0  0.00000000000E+00  0.00000000000E+00 -0.48107485199E+02  0.34893769512E+04  0.34890453103E+04 0.  0.
        3    1    3    3  502    0 -0.38621450240E+03 -0.33539283060E+03  0.16439504933E+04  0.17216919664E+04  0.10100000352E+00 0. -1.
       -3    1    3    3    0  502  0.38621450240E+03  0.33539283060E+03 -0.16920579785E+04  0.17676849848E+04  0.10100000352E+00 0.  1.
</event>
<event>
 5   0  0.5573334E-07  0.3488874E+04  0.7818609E-02  0.8116432E-01
       -2   -1    0    0    0  501  0.00000000000E+00  0.00000000000E+00  0.22552229470E+04  0.22552229470E+04  0.25500000920E-02 0. -1.
        2   -1    0    0  501    0  0.00000000000E+00  0.00000000000E+00 -0.13493392319E+04  0.13493392319E+04  0.25500000920E-02 0.  1.
    10030    2    1    2    0    0  0.00000000000E+00  0.00000000000E+00  0.90588371503E+03  0.36045621789E+04  0.34888742018E+04 0.  0.
        4    1    3    3  502    0  0.11203624095E+04 -0.13241759990E+04  0.26130495839E+03  0.17541196936E+04  0.12699999809E+01 0.  1.
       -4    1    3    3    0  502 -0.11203624095E+04  0.13241759990E+04  0.64457875664E+03  0.18504424853E+04  0.12699999809E+01 0. -1.
</event>
<event>
 5   0  0.5573334E-07  0.3491195E+04  0.7818609E-02  0.8115880E-01
        2   -1    0    0  501    0  0.00000000000E+00  0.00000000000E+00  0.13024743752E+04  0.13024743752E+04  0.25500000920E-02 0.  1.
       -2   -1    0    0    0  501  0.00000000000E+00  0.00000000000E+00 -0.23394777388E+04  0.23394777388E+04  0.25500000920E-02 0. -1.
    10030    2    1    2    0    0  0.00000000000E+00  0.00000000000E+00 -0.10370033636E+04  0.36419521140E+04  0.34911945269E+04 0.  0.
        4    1    3    3  502    0 -0.30499767339E+03  0.14172175453E+04  0.49589799461E+03  0.15321375870E+04  0.12699999809E+01 0. -1.
       -4    1    3    3    0  502  0.30499767339E+03 -0.14172175453E+04 -0.15329013582E+04  0.21098145270E+04  0.12699999809E+01 0.  1.
</event>
<event>
 5   0  0.5707187E-07  0.3501422E+04  0.7818609E-02  0.8113453E-01
        2   -1    0    0  501    0  0.00000000000E+00  0.00000000000E+00  0.25060364060E+04  0.25060364060E+04  0.25500000920E-02 0.  1.
       -2   -1    0    0    0  501  0.00000000000E+00  0.00000000000E+00 -0.12230427846E+04  0.12230427846E+04  0.25500000920E-02 0. -1.
    10030    2    1    2    0    0  0.00000000000E+00  0.00000000000E+00  0.12829936214E+04  0.37290791906E+04  0.35014224219E+04 0.  0.
        1    1    3    3  502    0 -0.17235549097E+04  0.91123970066E+02  0.95390255243E+03  0.19720231196E+04  0.50400001928E-02 0.  1.
       -1    1    3    3    0  502  0.17235549097E+04 -0.91123970066E+02  0.32909106901E+03  0.17570560709E+04  0.50400001928E-02 0. -1.
</event>
<event>
 5   0  0.5554745E-07  0.3464830E+04  0.7818609E-02  0.8122176E-01
        2   -1    0    0  501    0  0.00000000000E+00  0.00000000000E+00  0.18804477486E+04  0.18804477486E+04  0.25500000920E-02 0. -1.
       -2   -1    0    0    0  501  0.00000000000E+00  0.00000000000E+00 -0.15960353044E+04  0.15960353044E+04  0.25500000920E-02 0.  1.
    10030    2    1    2    0    0  0.00000000000E+00  0.00000000000E+00  0.28441244416E+03  0.34764830530E+04  0.34648295743E+04 0.  0.
        5    1    3    3  502    0  0.49768093365E+03  0.52076857850E+03  0.17230537374E+04  0.18675712827E+04  0.46999998093E+01 0. -1.
       -5    1    3    3    0  502 -0.49768093365E+03 -0.52076857850E+03 -0.14386412932E+04  0.16089117703E+04  0.46999998093E+01 0.  1.
</event>
<event>
 5   0  0.1873457E-07  0.3517428E+04  0.7818609E-02  0.8109672E-01
       -1   -1    0    0    0  501  0.00000000000E+00  0.00000000000E+00  0.18212406892E+04  0.18212406892E+04  0.50400001928E-02 0. -1.
        1   -1    0    0  501    0  0.00000000000E+00  0.00000000000E+00 -0.16983342298E+04  0.16983342298E+04  0.50400001928E-02 0.  1.
    10030    2    1    2    0    0  0.00000000000E+00  0.00000000000E+00  0.12290645936E+03  0.35195749190E+04  0.35174282669E+04 0.  0.
        3    1    3    3  502    0 -0.20722179608E+03 -0.51762544723E+03 -0.16075570608E+04  0.17015042434E+04  0.10100000352E+00 0.  1.
       -3    1    3    3    0  502  0.20722179608E+03  0.51762544723E+03  0.17304635202E+04  0.18180706755E+04  0.10100000352E+00 0. -1.
</event>
<event>
 5   0  0.1866421E-07  0.3490128E+04  0.7818609E-02  0.8116133E-01
       -1   -1    0    0    0  501  0.00000000000E+00  0.00000000000E+00  0.16709239406E+04  0.16709239406E+04  0.50400001928E-02 0.  1.
        1   -1    0    0  501    0  0.00000000000E+00  0.00000000000E+00 -0.18224941298E+04  0.18224941298E+04  0.50400001928E-02 0. -1.
    10030    2    1    2    0    0  0.00000000000E+00  0.00000000000E+00 -0.15157018914E+03  0.34934180704E+04  0.34901284063E+04 0.  0.
        1    1    3    3  502    0  0.63153852934E+02  0.61502457984E+03 -0.17091949923E+04  0.18175783792E+04  0.50400001928E-02 0. -1.
       -1    1    3    3    0  502 -0.63153852934E+02 -0.61502457984E+03  0.15576248032E+04  0.16758396911E+04  0.50400001928E-02 0.  1.
</event>
<event>
 5   0  0.5740827E-07  0.3485869E+04  0.7818609E-02  0.8117147E-01
        2   -1    0    0  501    0  0.00000000000E+00  0.00000000000E+00  0.24802243681E+04  0.24802243681E+04  0.25500000920E-02 0.  1.
       -2   -1    0    0    0  501  0.00000000000E+00  0.00000000000E+00 -0.12248171732E+04  0.12248171732E+04  0.25500000920E-02 0. -1.
    10030    2    1    2    0    0  0.00000000000E+00  0.00000000000E+00  0.12554071949E+04  0.37050415412E+04  0.34858694177E+04 0.  0.
        2    1    3    3  502    0  0.52747119279E+03 -0.56151312106E+03  0.22894283652E+04  0.24155755181E+04  0.25500000920E-02 0.  1.
       -2    1    3    3    0  502 -0.52747119279E+03  0.56151312106E+03 -0.10340211702E+04  0.12894660231E+04  0.25500000920E-02 0. -1.
</event>
<event>
 5   0  0.1908190E-07  0.3493611E+04  0.7818609E-02  0.8115306E-01
       -1   -1    0    0    0  501  0.00000000000E+00  0.00000000000E+00  0.25061228795E+04  0.25061228796E+04  0.50400001928E-02 0.  1.
        1   -1    0    0  501    0  0.00000000000E+00  0.00000000000E+00 -0.12175496987E+04  0.12175496987E+04  0.50400001928E-02 0. -1.
    10030    2    1    2    0    0  0.00000000000E+00  0.00000000000E+00  0.12885731809E+04  0.37236725782E+04  0.34936108294E+04 0.  0.
        5    1    3    3  502    0  0.16248272506E+04 -0.49089021296E+03  0.10840978823E+04  0.20140325479E+04  0.46999998093E+01 0.  1.
       -5    1    3    3    0  502 -0.16248272506E+04  0.49089021296E+03  0.20447529856E+03  0.17096400303E+04  0.46999998093E+01 0. -1.
</event>
<event>
 5   0  0.1873457E-07  0.3553739E+04  0.7818609E-02  0.8101171E-01
        1   -1    0    0  501    0  0.00000000000E+00  0.00000000000E+00  0.20067109416E+04  0.20067109416E+04  0.50400001928E-02 0. -1.
       -1   -1    0    0    0  501  0.00000000000E+00  0.00000000000E+00 -0.15733530892E+04  0.15733530892E+04  0.50400001928E-02 0.  1.
    10030    2    1    2    0    0  0.00000000000E+00  0.00000000000E+00  0.43335785240E+03  0.35800640307E+04  0.35537387968E+04 0.  0.
        3    1    3    3  502    0 -0.11564586446E+03 -0.14988403005E+04  0.11709916933E+04  0.19055492038E+04  0.10100000352E+00 0. -1.
       -3    1    3    3    0  502  0.11564586446E+03  0.14988403005E+04 -0.73763384087E+03  0.16745148269E+04  0.10100000352E+00 0.  1.
</event>
<event>
 5   0  0.1897049E-07  0.3509213E+04  0.7818609E-02  0.8111610E-01
       -1   -1    0    0    0  501  0.00000000000E+00  0.00000000000E+00  0.31008990661E+04  0.31008990661E+04  0.50400001928E-02 0.  1.
        1   -1    0    0  501    0  0.00000000000E+00  0.00000000000E+00 -0.99282323079E+03  0.99282323080E+03  0.50400001928E-02 0. -1.
    10030    2    1    2    0    0  0.00000000000E+00  0.00000000000E+00  0.21080758353E+04  0.40937222969E+04  0.35092133758E+04 0.  0.
        2    1    3    3  502    0 -0.10413281300E+04  0.55615505560E+03  0.25683135536E+04  0.28266423951E+04  0.25500000920E-02 0.  1.
       -2    1    3    3    0  502  0.10413281300E+04 -0.55615505560E+03 -0.46023771831E+03  0.12670799018E+04  0.25500000920E-02 0. -1.
</event>
<event>
 5   0  0.5740827E-07  0.3520016E+04  0.7818609E-02  0.8109063E-01
        2   -1    0    0  501    0  0.00000000000E+00  0.00000000000E+00  0.18124666760E+04  0.18124666760E+04  0.25500000920E-02 0. -1.
       -2   -1    0    0    0  501  0.00000000000E+00  0.00000000000E+00 -0.17090674773E+04  0.17090674773E+04  0.25500000920E-02 0.  1.
    10030    2    1    2    0    0  0.00000000000E+00  0.00000000000E+00  0.10339919874E+03  0.35215341533E+04  0.35200158236E+04 0.  0.
        2    1    3    3  502    0  0.58084405336E+02  0.13655165683E+04  0.11610595741E+04  0.17933400768E+04  0.25500000920E-02 0. -1.
       -2    1    3    3    0  502 -0.58084405336E+02 -0.13655165683E+04 -0.10576603753E+04  0.17281940765E+04  0.25500000920E-02 0.  1.
</event>
<event>
 5   0  0.5677193E-07  0.3517713E+04  0.7818609E-02  0.8109605E-01
       -2   -1    0    0    0  501  0.00000000000E+00  0.00000000000E+00  0.12162064387E+04  0.12162064387E+04  0.25500000920E-02 0. -1.
        2   -1    0    0  501    0  0.00000000000E+00  0.00000000000E+00 -0.25436279317E+04  0.25436279317E+04  0.25500000920E-02 0.  1.
    10030    2    1    2    0    0  0.00000000000E+00  0.00000000000E+00 -0.13274214930E+04  0.37598343705E+04  0.35177132733E+04 0.  0.
        3    1    3    3  502    0  0.44652171654E+03  0.18703845822E+03  0.11435941574E+04  0.12418424358E+04  0.10100000352E+00 0. -1.
       -3    1    3    3    0  502 -0.44652171654E+03 -0.18703845822E+03 -0.24710156504E+04  0.25179919347E+04  0.10100000352E+00 0.  1.
</event>
<event>
 5   0  0.1908190E-07  0.3396736E+04  0.7818609E-02  0.8138708E-01
       -1   -1    0    0    0  501  0.00000000000E+00  0.00000000000E+00  0.21164633701E+04  0.21164633701E+04  0.50400001928E-02 0.  1.
        1   -1    0    0  501    0  0.00000000000E+00  0.00000000000E+00 -0.13628647205E+04  0.13628647205E+04  0.50400001928E-02 0. -1.
    10030    2    1    2    0    0  0.00000000000E+00  0.00000000000E+00  0.75359864963E+03  0.34793280906E+04  0.33967356443E+04 0.  0.
        5    1    3    3  502    0 -0.16929706541E+04  0.79303861822E+02  0.48897204541E+03  0.17639598888E+04  0.46999998093E+01 0. -1.
       -5    1    3    3    0  502  0.16929706541E+04 -0.79303861822E+02  0.26462660422E+03  0.17153682018E+04  0.46999998093E+01 0.  1.
</event>
<event>
 5   0  0.1866421E-07  0.3563978E+04  0.7818609E-02  0.8098793E-01
       -1   -1    0    0    0  501  0.00000000000E+00  0.00000000000E+00  0.24039199893E+04  0.24039199893E+04  0.50400001928E-02 0.  1.
        1   -1    0    0  501    0  0.00000000000E+00  0.00000000000E+00 -0.13209607312E+04  0.13209607312E+04  0.50400001928E-02 0. -1.
    10030    2    1    2    0    0  0.00000000000E+00  0.00000000000E+00  0.10829592581E+04  0.37248807205E+04  0.35639775009E+04 0.  0.
        1    1    3    3  502    0  0.85569614372E+03  0.15618569431E+04  0.60650513073E+03  0.18813456553E+04  0.50400001928E-02 0.  1.
       -1    1    3    3    0  502 -0.85569614372E+03 -0.15618569431E+04  0.47645412736E+03  0.18435350652E+04  0.50400001928E-02 0. -1.
</event>
<event>
 5   0  0.1908190E-07  0.3519075E+04  0.7818609E-02  0.8109284E-01
        1   -1    0    0  501    0  0.00000000000E+00  0.00000000000E+00  0.18170727436E+04  0.18170727436E+04  0.50400001928E-02 0.  1.
       -1   -1    0    0    0  501  0.00000000000E+00  0.00000000000E+00 -0.17038238337E+04  0.17038238337E+04  0.50400001928E-02 0. -1.
    10030    2    1    2    0    0  0.00000000000E+00  0.00000000000E+00  0.11324890992E+03  0.35208965773E+04  0.35190747921E+04 0.  0.
        5    1    3    3  502    0 -0.53389425816E+03  0.28830286979E+03 -0.15958322481E+04  0.17072973607E+04  0.46999998093E+01 0. -1.
       -5    1    3    3    0  502  0.53389425816E+03 -0.28830286979E+03  0.17090811581E+04  0.18135992166E+04  0.46999998093E+01 0.  1.
</event>
<event>
 5   0  0.5554745E-07  0.3413876E+04  0.7818609E-02  0.8134509E-01
       -2   -1    0    0    0  501  0.00000000000E+00  0.00000000000E+00  0.14114671243E+04  0.14114671243E+04  0.25500000920E-02 0. -1.
        2   -1    0    0  501    0  0.00000000000E+00  0.00000000000E+00 -0.20642618661E+04  0.20642618661E+04  0.25500000920E-02 0.  1.
    10030    2    1    2    0    0  0.00000000000E+00  0.00000000000E+00 -0.65279474180E+03  0.34757289903E+04  0.34138762484E+04 0.  0.
        5    1    3    3  502    0 -0.36725378576E+03 -0.13755711728E+04 -0.12850214798E+04  0.19179086757E+04  0.46999998093E+01 0.  1.
       -5    1    3    3    0  502  0.36725378576E+03  0.13755711728E+04  0.63222673801E+03  0.15578203147E+04  0.46999998093E+01 0. -1.
</event>
<event>
 5   0  0.5740827E-07  0.3247564E+04  0.7818609E-02  0.8176367E-01
       -2   -1    0    0    0  501  0.00000000000E+00  0.00000000000E+00  0.14264335557E+04  0.14264335557E+04  0.25500000920E-02 0.  1.
        2   -1    0    0  501    0  0.00000000000E+00  0.00000000000E+00 -0.18484341524E+04  0.18484341524E+04  0.25500000920E-02 0. -1.
    10030    2    1    2    0    0  0.00000000000E+00  0.00000000000E+00 -0.42200059664E+03  0.32748677081E+04  0.32475643184E+04 0.  0.
        2    1    3    3  502    0  0.52403046367E+03  0.64090686551E+03 -0.16196334551E+04  0.18189508146E+04  0.25500000920E-02 0. -1.
       -2    1    3    3    0  502 -0.52403046367E+03 -0.64090686551E+03  0.11976328585E+04  0.14559168935E+04  0.25500000920E-02 0.  1.
</event>
<event>
 5   0  0.5740827E-07  0.3509136E+04  0.7818609E-02  0.8111628E-01
        2   -1    0    0  501    0  0.00000000000E+00  0.00000000000E+00  0.27524423498E+04  0.27524423498E+04  0.25500000920E-02 0.  1.
       -2   -1    0    0    0  501  0.00000000000E+00  0.00000000000E+00 -0.11184644277E+04  0.11184644277E+04  0.25500000920E-02 0. -1.
    10030    2    1    2    0    0  0.00000000000E+00  0.00000000000E+00  0.16339779220E+04  0.38709067775E+04  0.35091359948E+04 0.  0.
        2    1    3    3  502    0  0.48337768161E+03 -0.10893003870E+04  0.22374894396E+04  0.25350716575E+04  0.25500000920E-02 0.  1.
       -2    1    3    3    0  502 -0.48337768161E+03  0.10893003870E+04 -0.60351151754E+03  0.13358351200E+04  0.25500000920E-02 0. -1.
</event>
<event>
 5   0  0.5554745E-07  0.3471788E+04  0.7818609E-02  0.8120508E-01
       -2   -1    0    0    0  501  0.00000000000E+00  0.00000000000E+00  0.11409704502E+04  0.11409704502E+04  0.25500000920E-02 0.  1.
        2   -1    0    0  501    0  0.00000000000E+00  0.00000000000E+00 -0.26410224679E+04  0.26410224679E+04  0.25500000920E-02 0. -1.
    10030    2    1    2    0    0  0.00000000000E+00  0.00000000000E+00 -0.15000520177E+04  0.37819929181E+04  0.34717883543E+04 0.  0.
        5    1    3    3  502    0 -0.89403429098E+03  0.10209373383E+04  0.42914004804E+03  0.14233037740E+04  0.46999998093E+01 0.  1.
       -5    1    3    3    0  502  0.89403429098E+03 -0.10209373383E+04 -0.19291920658E+04  0.23586891442E+04  0.46999998093E+01 0. -1.
</event>
<event>
 5   0  0.5707187E-07  0.3469740E+04  0.7818609E-02  0.8120999E-01
        2   -1    0    0  501    0  0.00000000000E+00  0.00000000000E+00  0.20971045543E+04  0.20971045543E+04  0.25500000920E-02 0. -1.
       -2   -1    0    0    0  501  0.00000000000E+00  0.00000000000E+00 -0.14352048384E+04  0.14352048384E+04  0.25500000920E-02 0.  1.
    10030    2    1    2    0    0  0.00000000000E+00  0.00000000000E+00  0.66189971594E+03  0.35323093928E+04  0.34697403955E+04 0.  0.
        1    1    3    3  502    0 -0.12262916865E+03 -0.13479286288E+04 -0.77389718266E+03  0.15591235841E+04  0.50400001928E-02 0.  1.
       -1    1    3    3    0  502  0.12262916865E+03  0.13479286288E+04  0.14357968986E+04  0.19731858086E+04  0.50400001928E-02 0. -1.
</event>
<event>
 5   0  0.5740827E-07  0.3488963E+04  0.7818609E-02  0.8116411E-01
       -2   -1    0    0    0  501  0.00000000000E+00  0.00000000000E+00  0.15006008521E+04  0.15006008521E+04  0.25500000920E-02 0. -1.
        2   -1    0    0  501    0  0.00000000000E+00  0.00000000000E+00 -0.20279977554E+04  0.20279977554E+04  0.25500000920E-02 0.  1.
    10030    2    1    2    0    0  0.00000000000E+00  0.00000000000E+00 -0.52739690335E+03  0.35285986075E+04  0.34889626882E+04 0.  0.
        2    1    3    3  502    0 -0.56477445218E+03  0.52843089736E+03  0.13177166330E+04  0.15279353782E+04  0.25500000920E-02 0. -1.
       -2    1    3    3    0  502  0.56477445218E+03 -0.52843089736E+03 -0.18451135364E+04  0.20006632293E+04  0.25500000920E-02 0.  1.
</event>
<event>
 5   0  0.5707187E-07  0.3507340E+04  0.7818609E-02  0.8112053E-01
        2   -1    0    0  501    0  0.00000000000E+00  0.00000000000E+00  0.22108789279E+04  0.22108789279E+04  0.25500000920E-02 0.  1.
       -2   -1    0    0    0  501  0.00000000000E+00  0.00000000000E+00 -0.13910120819E+04  0.13910120819E+04  0.25500000920E-02 0. -1.
    10030    2    1    2    0    0  0.00000000000E+00  0.00000000000E+00  0.81986684592E+03  0.36018910098E+04  0.35073404741E+04 0.  0.
        1    1    3    3  502    0  0.10886002328E+04 -0.19324703393E+03  0.18078658534E+04  0.21191445979E+04  0.50400001928E-02 0.  1.
       -1    1    3    3    0  502 -0.10886002328E+04  0.19324703393E+03 -0.98799900752E+03  0.14827464118E+04  0.50400001928E-02 0. -1.
</event>
<event>
 5   0  0.1933647E-07  0.3486378E+04  0.7818609E-02  0.8117026E-01
       -1   -1    0    0    0  501  0.00000000000E+00  0.00000000000E+00  0.16623699947E+04  0.16623699947E+04  0.50400001928E-02 0. -1.
        1   -1    0    0  501    0  0.00000000000E+00  0.00000000000E+00 -0.18279370508E+04  0.18279370508E+04  0.50400001928E-02 0.  1.
    10030    2    1    2    0    0  0.00000000000E+00  0.00000000000E+00 -0.16556705618E+03  0.34903070455E+04  0.34863778943E+04 0.  0.
        4    1    3    3  502    0 -0.12357967194E+04 -0.88459166652E+02 -0.13104148901E+04  0.18033877434E+04  0.12699999809E+01 0.  1.
       -4    1    3    3    0  502  0.12357967194E+04  0.88459166652E+02  0.11448478339E+04  0.16869193021E+04  0.12699999809E+01 0. -1.
</event>
<event>
 5   0  0.1933647E-07  0.3519626E+04  0.7818609E-02  0.8109155E-01
        1   -1    0    0  501    0  0.00000000000E+00  0.00000000000E+00  0.23590258970E+04  0.23590258970E+04  0.50400001928E-02 0. -1.
       -1   -1    0    0    0  501  0.00000000000E+00  0.00000000000E+00 -0.13128053339E+04  0.13128053339E+04  0.50400001928E-02 0.  1.
    10030    2    1    2    0    0  0.00000000000E+00  0.00000000000E+00  0.10462205631E+04  0.36718312310E+04  0.35196259918E+04 0.  0.
        4    1    3    3  502    0  0.14351393720E+03  0.93172323941E+03  0.20733858784E+04  0.22776380439E+04  0.12699999809E+01 0. -1.
       -4    1    3    3    0  502 -0.14351393720E+03 -0.93172323941E+03 -0.10271653153E+04  0.13941931871E+04  0.12699999809E+01 0.  1.
</event>
<event>
 5   0  0.1933647E-07  0.3467626E+04  0.7818609E-02  0.8121505E-01
        1   -1    0    0  501    0  0.00000000000E+00  0.00000000000E+00  0.30148942148E+04  0.30148942148E+04  0.50400001928E-02 0.  1.
       -1   -1    0    0    0  501  0.00000000000E+00  0.00000000000E+00 -0.99708561179E+03  0.99708561180E+03  0.50400001928E-02 0. -1.
    10030    2    1    2    0    0  0.00000000000E+00  0.00000000000E+00  0.20178086031E+04  0.40119798267E+04  0.34676260714E+04 0.  0.
        4    1    3    3  502    0  0.20578937070E+03  0.38826301957E+03 -0.93158838565E+03  0.10300271699E+04  0.12699999809E+01 0. -1.
       -4    1    3    3    0  502 -0.20578937070E+03 -0.38826301957E+03  0.29493969887E+04  0.29819526568E+04  0.12699999809E+01 0.  1.
</event>
<event>
 5   0  0.5573334E-07  0.3503019E+04  0.7818609E-02  0.8113075E-01
       -2   -1    0    0    0  501  0.00000000000E+00  0.00000000000E+00  0.19305778556E+04  0.19305778556E+04  0.25500000920E-02 0. -1.
        2   -1    0    0  501    0  0.00000000000E+00  0.00000000000E+00 -0.15890500327E+04  0.15890500327E+04  0.25500000920E-02 0.  1.
    10030    2    1    2    0    0  0.00000000000E+00  0.00000000000E+00  0.34152782284E+03  0.35196278883E+04  0.35030185866E+04 0.  0.
        4    1    3    3  502    0  0.25984815401E+03  0.15797766839E+04  0.88446121546E+03  0.18290677102E+04  0.12699999809E+01 0. -1.
       -4    1    3    3    0  502 -0.25984815401E+03 -0.15797766839E+04 -0.54293339262E+03  0.16905601781E+04  0.12699999809E+01 0.  1.
</event>
<event>
 5   0  0.1908190E-07  0.3477880E+04  0.7818609E-02  0.8119052E-01
        1   -1    0    0  501    0  0.00000000000E+00  0.00000000000E+00  0.23453015114E+04  0.23453015114E+04  0.50400001928E-02 0.  1.
       -1   -1    0    0    0  501  0.00000000000E+00  0.00000000000E+00 -0.12893493361E+04  0.12893493361E+04  0.50400001928E-02 0. -1.
    10030    2    1    2    0    0  0.00000000000E+00  0.00000000000E+00  0.10559521753E+04  0.36346508475E+04  0.34778803583E+04 0.  0.
        5    1    3    3  502    0 -0.11885488448E+04 -0.12692584692E+04  0.54366750311E+03  0.18218841517E+04  0.46999998093E+01 0.  1.
       -5    1    3    3    0  502  0.11885488448E+04  0.12692584692E+04  0.51228467219E+03  0.18127666958E+04  0.46999998093E+01 0. -1.
</event>
<event>
 5   0  0.1897049E-07  0.3524848E+04  0.7818609E-02  0.8107926E-01
        1   -1    0    0  501    0  0.00000000000E+00  0.00000000000E+00  0.25651633848E+04  0.25651633848E+04  0.50400001928E-02 0. -1.
       -1   -1    0    0    0  501  0.00000000000E+00  0.00000000000E+00 -0.12108929373E+04  0.12108929373E+04  0.50400001928E-02 0.  1.
    10030    2    1    2    0    0  0.00000000000E+00  0.00000000000E+00  0.13542704475E+04  0.37760563221E+04  0.35248479261E+04 0.  0.
        2    1    3    3  502    0  0.43111577132E+03 -0.63641720825E+03  0.23761169405E+04  0.24973624859E+04  0.25500000920E-02 0. -1.
       -2    1    3    3    0  502 -0.43111577132E+03  0.63641720825E+03 -0.10218464930E+04  0.12786938361E+04  0.25500000920E-02 0.  1.
</event>
<event>
 5   0  0.1933647E-07  0.3495629E+04  0.7818609E-02  0.8114827E-01
        1   -1    0    0  501    0  0.00000000000E+00  0.00000000000E+00  0.20586925182E+04  0.20586925182E+04  0.50400001928E-02 0.  1.
       -1   -1    0    0    0  501  0.00000000000E+00  0.00000000000E+00 -0.14838815723E+04  0.14838815724E+04  0.50400001928E-02 0. -1.
    10030    2    1    2    0    0  0.00000000000E+00  0.00000000000E+00  0.57481094589E+03  0.35425740906E+04  0.34956292086E+04 0.  0.
        4    1    3    3  502    0 -0.62196680791E+03  0.24013179129E+02 -0.13677564997E+04  0.15027237931E+04  0.12699999809E+01 0. -1.
       -4    1    3    3    0  502  0.62196680791E+03 -0.24013179129E+02  0.19425674456E+04  0.20398502975E+04  0.12699999809E+01 0.  1.
</event>
<event>
 5   0  0.1933647E-07  0.3506944E+04  0.7818609E-02  0.8112146E-01
        1   -1    0    0  501    0  0.00000000000E+00  0.00000000000E+00  0.28103849801E+04  0.28103849801E+04  0.50400001928E-02 0.  1.
       -1   -1    0    0    0  501  0.00000000000E+00  0.00000000000E+00 -0.10940369110E+04  0.10940369110E+04  0.50400001928E-02 0. -1.
    10030    2    1    2    0    0  0.00000000000E+00  0.00000000000E+00  0.17163480690E+04  0.39044218911E+04  0.35069444834E+04 0.  0.
        4    1    3    3  502    0  0.40085243738E+03 -0.44502869279E+03 -0.97661924375E+03  0.11456526411E+04  0.12699999809E+01 0. -1.
       -4    1    3    3    0  502 -0.40085243738E+03  0.44502869279E+03  0.26929673128E+04  0.27587692500E+04  0.12699999809E+01 0.  1.
</event>
<event>
 5   0  0.5677193E-07  0.3490914E+04  0.7818609E-02  0.8115947E-01
       -2   -1    0    0    0  501  0.00000000000E+00  0.00000000000E+00  0.15503855092E+04  0.15503855092E+04  0.25500000920E-02 0.  1.
        2   -1    0    0  501    0  0.00000000000E+00  0.00000000000E+00 -0.19650724163E+04  0.19650724163E+04  0.25500000920E-02 0. -1.
    10030    2    1    2    0    0  0.00000000000E+00  0.00000000000E+00 -0.41468690704E+03  0.35154579255E+04  0.34909138052E+04 0.  0.
        3    1    3    3  502    0  0.67200641057E+03  0.15451046087E+04  0.25157866308E+03  0.17035940543E+04  0.10100000352E+00 0.  1.
       -3    1    3    3    0  502 -0.67200641057E+03 -0.15451046087E+04 -0.66626557013E+03  0.18118638713E+04  0.10100000352E+00 0. -1.
</event>
<event>
 5   0  0.1897049E-07  0.3501556E+04  0.7818609E-02  0.8113421E-01
        1   -1    0    0  501    0  0.00000000000E+00  0.00000000000E+00  0.23625686248E+04  0.23625686248E+04  0.50400001928E-02 0. -1.
       -1   -1    0    0    0  501  0.00000000000E+00  0.00000000000E+00 -0.12974111893E+04  0.12974111893E+04  0.50400001928E-02 0.  1.
    10030    2    1    2    0    0  0.00000000000E+00  0.00000000000E+00  0.10651574355E+04  0.36599798140E+04  0.35015556367E+04 0.  0.
        2    1    3    3  502    0  0.13437787153E+03 -0.15182490974E+04  0.14329975179E+04  0.20920371938E+04  0.25500000920E-02 0. -1.
       -2    1    3    3    0  502 -0.13437787153E+03  0.15182490974E+04 -0.36784008235E+03  0.15679426202E+04  0.25500000920E-02 0.  1.
</event>
<event>
 5   0  0.5677193E-07  0.3388441E+04  0.7818609E-02  0.8140749E-01
       -2   -1    0    0    0  501  0.00000000000E+00  0.00000000000E+00  0.96016589303E+03  0.96016589303E+03  0.25500000920E-02 0.  1.
        2   -1    0    0  501    0  0.00000000000E+00  0.00000000000E+00 -0.29894657664E+04  0.29894657664E+04  0.25500000920E-02 0. -1.
    10030    2    1    2    0    0  0.00000000000E+00  0.00000000000E+00 -0.20292998734E+04  0.39496316595E+04  0.33884409792E+04 0.  0.
        3    1    3    3  502    0 -0.83086023762E+03 -0.39736768258E+03 -0.26721887345E+04  0.28264505042E+04  0.10100000352E+00 0. -1.
       -3    1    3    3    0  502  0.83086023762E+03  0.39736768258E+03  0.64288886110E+03  0.11231811553E+04  0.10100000352E+00 0.  1.
</event>
<event>
 5   0  0.1908190E-07  0.3495136E+04  0.7818609E-02  0.8114944E-01
        1   -1    0    0  501    0  0.00000000000E+00  0.00000000000E+00  0.15490083603E+04  0.15490083603E+04  0.50400001928E-02 0. -1.
       -1   -1    0    0    0  501  0.00000000000E+00  0.00000000000E+00 -0.19715800095E+04  0.19715800095E+04  0.50400001928E-02 0.  1.
    10030    2    1    2    0    0  0.00000000000E+00  0.00000000000E+00 -0.42257164920E+03  0.35205883699E+04  0.34951360018E+04 0.  0.
        5    1    3    3  502    0 -0.10922234550E+04 -0.63706380800E+03  0.10038028016E+04  0.16144486754E+04  0.46999998093E+01 0. -1.
       -5    1    3    3    0  502  0.10922234550E+04  0.63706380800E+03 -0.14263744507E+04  0.19061396945E+04  0.46999998093E+01 0.  1.
</event>
<event>
 5   0  0.5677193E-07  0.3505956E+04  0.7818609E-02  0.8112380E-01
       -2   -1    0    0    0  501  0.00000000000E+00  0.00000000000E+00  0.14030207357E+04  0.14030207357E+04  0.25500000920E-02 0. -1.
        2   -1    0    0  501    0  0.00000000000E+00  0.00000000000E+00 -0.21902252832E+04  0.21902252832E+04  0.25500000920E-02 0.  1.
    10030    2    1    2    0    0  0.00000000000E+00  0.00000000000E+00 -0.78720454753E+03  0.35932460188E+04  0.35059557830E+04 0.  0.
        3    1    3    3  502    0 -0.79739945629E+03 -0.15341175114E+04 -0.68988289129E+03  0.18615318546E+04  0.10100000352E+00 0.  1.
       -3    1    3    3    0  502  0.79739945629E+03  0.15341175114E+04 -0.97321656247E+02  0.17317141643E+04  0.10100000352E+00 0. -1.
</event>
<event>
 5   0  0.1873457E-07  0.3445437E+04  0.7818609E-02  0.8126844E-01
       -1   -1    0    0    0  501  0.00000000000E+00  0.00000000000E+00  0.25721344821E+04  0.25721344821E+04  0.50400001928E-02 0.  1.
        1   -1    0    0  501    0  0.00000000000E+00  0.00000000000E+00 -0.11538116616E+04  0.11538116616E+04  0.50400001928E-02 0. -1.
    10030    2    1    2    0    0  0.00000000000E+00  0.00000000000E+00  0.14183228205E+04  0.37259461437E+04  0.34454368435E+04 0.  0.
        3    1    3    3  502    0 -0.10615795831E+04  0.14969002594E+03  0.21674283934E+04  0.24180786104E+04  0.10100000352E+00 0.  1.
       -3    1    3    3    0  502  0.10615795831E+04 -0.14969002594E+03 -0.74910557291E+03  0.13078675333E+04  0.10100000352E+00 0. -1.
</event>
<event>
 5   0  0.1908190E-07  0.3508911E+04  0.7818609E-02  0.8111681E-01
       -1   -1    0    0    0  501  0.00000000000E+00  0.00000000000E+00  0.21480325484E+04  0.21480325484E+04  0.50400001928E-02 0. -1.
        1   -1    0    0  501    0  0.00000000000E+00  0.00000000000E+00 -0.14329923693E+04  0.14329923693E+04  0.50400001928E-02 0.  1.
    10030    2    1    2    0    0  0.00000000000E+00  0.00000000000E+00  0.71504017912E+03  0.35810249177E+04  0.35089110852E+04 0.  0.
        5    1    3    3  502    0  0.51036899585E+03  0.14046906205E+03 -0.13495440492E+04  0.14496548900E+04  0.46999998093E+01 0.  1.
       -5    1    3    3    0  502 -0.51036899585E+03 -0.14046906205E+03  0.20645842283E+04  0.21313700277E+04  0.46999998093E+01 0. -1.
</event>
<event>
 5   0  0.5554745E-07  0.3472175E+04  0.7818609E-02  0.8120416E-01
        2   -1    0    0  501    0  0.00000000000E+00  0.00000000000E+00  0.23738780003E+04  0.23738780003E+04  0.25500000920E-02 0.  1.
       -2   -1    0    0    0  501  0.00000000000E+00  0.00000000000E+00 -0.12696523610E+04  0.12696523610E+04  0.25500000920E-02 0. -1.
    10030    2    1    2    0    0  0.00000000000E+00  0.00000000000E+00  0.11042256392E+04  0.36435303613E+04  0.34721750001E+04 0.  0.
        5    1    3    3  502    0 -0.19285072735E+03  0.95502257532E+03 -0.95571301299E+03  0.13647963129E+04  0.46999998093E+01 0. -1.
       -5    1    3    3    0  502  0.19285072735E+03 -0.95502257532E+03  0.20599386522E+04  0.22787340484E+04  0.46999998093E+01 0.  1.
</event>
<event>
 5   0  0.1873457E-07  0.3504176E+04  0.7818609E-02  0.8112801E-01
        1   -1    0    0  501    0  0.00000000000E+00  0.00000000000E+00  0.22084363811E+04  0.22084363811E+04  0.50400001928E-02 0. -1.
       -1   -1    0    0    0  501  0.00000000000E+00  0.00000000000E+00 -0.13900388517E+04  0.13900388517E+04  0.50400001928E-02 0.  1.
    10030    2    1    2    0    0  0.00000000000E+00  0.00000000000E+00  0.81839752935E+03  0.35984752328E+04  0.35041760066E+04 0.  0.
        3    1    3    3  502    0 -0.45213181970E+02 -0.97774077387E+03 -0.10831079213E+04  0.14598438383E+04  0.10100000352E+00 0.  1.
       -3    1    3    3    0  502  0.45213181970E+02  0.97774077387E+03  0.19015054507E+04  0.21386313946E+04  0.10100000352E+00 0. -1.
</event>
<event>
 5   0  0.1897049E-07  0.3492221E+04  0.7818609E-02  0.8115636E-01
        1   -1    0    0  501    0  0.00000000000E+00  0.00000000000E+00  0.20021791396E+04  0.20021791397E+04  0.50400001928E-02 0. -1.
       -1   -1    0    0    0  501  0.00000000000E+00  0.00000000000E+00 -0.15227917117E+04  0.15227917117E+04  0.50400001928E-02 0.  1.
    10030    2    1    2    0    0  0.00000000000E+00  0.00000000000E+00  0.47938742793E+03  0.35249708514E+04  0.34922209548E+04 0.  0.
        2    1    3    3  502    0 -0.74799259548E+03 -0.55140935382E+03  0.17318522689E+04  0.19654153454E+04  0.25500000920E-02 0. -1.
       -2    1    3    3    0  502  0.74799259548E+03  0.55140935382E+03 -0.12524648410E+04  0.15595555060E+04  0.25500000920E-02 0.  1.
</event>
<event>
 5   0  0.5740827E-07  0.3336457E+04  0.7818609E-02  0.8153680E-01
        2   -1    0    0  501    0  0.00000000000E+00  0.00000000000E+00  0.25053776504E+04  0.25053776504E+04  0.25500000920E-02 0. -1.
       -2   -1    0    0    0  501  0.00000000000E+00  0.00000000000E+00 -0.11108053401E+04  0.11108053401E+04  0.25500000920E-02 0.  1.
    10030    2    1    2    0    0  0.00000000000E+00  0.00000000000E+00  0.13945723102E+04  0.36161829905E+04  0.33364573266E+04 0.  0.
        2    1    3    3  502    0  0.45706377247E+03  0.11460152633E+04  0.19142442575E+04  0.22774084730E+04  0.25500000920E-02 0. -1.
       -2    1    3    3    0  502 -0.45706377247E+03 -0.11460152633E+04 -0.51967194721E+03  0.13387745175E+04  0.25500000920E-02 0.  1.
</event>
<event>
 5   0  0.5740827E-07  0.3500672E+04  0.7818609E-02  0.8113631E-01
       -2   -1    0    0    0  501  0.00000000000E+00  0.00000000000E+00  0.14582219719E+04  0.14582219719E+04  0.25500000920E-02 0. -1.
        2   -1    0    0  501    0  0.00000000000E+00  0.00000000000E+00 -0.21009664177E+04  0.21009664177E+04  0.25500000920E-02 0.  1.
    10030    2    1    2    0    0  0.00000000000E+00  0.00000000000E+00 -0.64274444576E+03  0.35591883896E+04  0.35006715884E+04 0.  0.
        2    1    3    3  502    0 -0.12987559432E+04 -0.11718007004E+04 -0.25876769243E+03  0.17682886077E+04  0.25500000920E-02 0. -1.
       -2    1    3    3    0  502  0.12987559432E+04  0.11718007004E+04 -0.38397675332E+03  0.17908997818E+04  0.25500000920E-02 0.  1.
</event>
<event>
 5   0  0.5573334E-07  0.3334835E+04  0.7818609E-02  0.8154088E-01
        2   -1    0    0  501    0  0.00000000000E+00  0.00000000000E+00  0.18707285256E+04  0.18707285256E+04  0.25500000920E-02 0.  1.
       -2   -1    0    0    0  501  0.00000000000E+00  0.00000000000E+00 -0.14862019189E+04  0.14862019189E+04  0.25500000920E-02 0. -1.
    10030    2    1    2    0    0  0.00000000000E+00  0.00000000000E+00  0.38452660670E+03  0.33569304445E+04  0.33348345233E+04 0.  0.
        4    1    3    3  502    0  0.58024733019E+03  0.11202026311E+04  0.12897798906E+04  0.18041825512E+04  0.12699999809E+01 0.  1.
       -4    1    3    3    0  502 -0.58024733019E+03 -0.11202026311E+04 -0.90525328393E+03  0.15527478932E+04  0.12699999809E+01 0. -1.
</event>
<event>
 5   0  0.5707187E-07  0.3495585E+04  0.7818609E-02  0.8114837E-01
       -2   -1    0    0    0  501  0.00000000000E+00  0.00000000000E+00  0.16066162351E+04  0.16066162351E+04  0.25500000920E-02 0.  1.
        2   -1    0    0  501    0  0.00000000000E+00  0.00000000000E+00 -0.19013739209E+04  0.19013739209E+04  0.25500000920E-02 0. -1.
    10030    2    1    2    0    0  0.00000000000E+00  0.00000000000E+00 -0.29475768573E+03  0.35079901560E+04  0.34955847638E+04 0.  0.
        1    1    3    3  502    0  0.31297002412E+03  0.35697797490E+03  0.15406711175E+04  0.16121572513E+04  0.50400001928E-02 0.  1.
       -1    1    3    3    0  502 -0.31297002412E+03 -0.35697797490E+03 -0.18354288033E+04  0.18958329047E+04  0.50400001928E-02 0. -1.
</event>
<event>
 5   0  0.5554745E-07  0.3396660E+04  0.7818609E-02  0.8138727E-01
        2   -1    0    0  501    0  0.00000000000E+00  0.00000000000E+00  0.24957579376E+04  0.24957579376E+04  0.25500000920E-02 0.  1.
       -2   -1    0    0    0  501  0.00000000000E+00  0.00000000000E+00 -0.11556909584E+04  0.11556909584E+04  0.25500000920E-02 0. -1.
    10030    2    1    2    0    0  0.00000000000E+00  0.00000000000E+00  0.13400669793E+04  0.36514488960E+04  0.33966600553E+04 0.  0.
        5    1    3    3  502    0  0.71549265206E+03 -0.14812877608E+04  0.21628228521E+03  0.16591995908E+04  0.46999998093E+01 0. -1.
       -5    1    3    3    0  502 -0.71549265206E+03  0.14812877608E+04  0.11237846941E+04  0.19922493052E+04  0.46999998093E+01 0.  1.
</event>
<event>
 5   0  0.5573334E-07  0.3444916E+04  0.7818609E-02  0.8126970E-01
        2   -1    0    0  501    0  0.00000000000E+00  0.00000000000E+00  0.15118777750E+04  0.15118777750E+04  0.25500000920E-02 0.  1.
       -2   -1    0    0    0  501  0.00000000000E+00  0.00000000000E+00 -0.19623690575E+04  0.19623690575E+04  0.25500000920E-02 0. -1.
    10030    2    1    2    0    0  0.00000000000E+00  0.00000000000E+00 -0.45049128256E+03  0.34742468325E+04  0.34449163499E+04 0.  0.
        4    1    3    3  502    0  0.69442617705E+02  0.10290438419E+04  0.11660313345E+04  0.15567222590E+04  0.12699999809E+01 0.  1.
       -4    1    3    3    0  502 -0.69442617705E+02 -0.10290438419E+04 -0.16165226170E+04  0.19175245735E+04  0.12699999809E+01 0. -1.
</event>
<event>
 5   0  0.5707187E-07  0.3125913E+04  0.7818609E-02  0.8208662E-01
        2   -1    0    0  501    0  0.00000000000E+00  0.00000000000E+00  0.16803412094E+04  0.16803412094E+04  0.25500000920E-02 0. -1.
       -2   -1    0    0    0  501  0.00000000000E+00  0.00000000000E+00 -0.14537723319E+04  0.14537723319E+04  0.25500000920E-02 0.  1.
    10030    2    1    2    0    0  0.00000000000E+00  0.00000000000E+00  0.22656887746E+03  0.31341135413E+04  0.31259133439E+04 0.  0.
        1    1    3    3  502    0 -0.45391609368E+03  0.21891263485E+03 -0.13700800393E+04  0.14598225495E+04  0.50400001928E-02 0.  1.
       -1    1    3    3    0  502  0.45391609368E+03 -0.21891263485E+03  0.15966489168E+04  0.16742909918E+04  0.50400001928E-02 0. -1.
</event>
<event>
 5   0  0.1873457E-07  0.3290477E+04  0.7818609E-02  0.8165323E-01
        1   -1    0    0  501    0  0.00000000000E+00  0.00000000000E+00  0.17398914828E+04  0.17398914828E+04  0.50400001928E-02 0. -1.
       -1   -1    0    0    0  501  0.00000000000E+00  0.00000000000E+00 -0.15557345385E+04  0.15557345385E+04  0.50400001928E-02 0.  1.
    10030    2    1    2    0    0  0.00000000000E+00  0.00000000000E+00  0.18415694430E+03  0.32956260212E+04  0.32904767271E+04 0.  0.
        3    1    3    3  502    0  0.43996310717E+03  0.70770775005E+03  0.15128862747E+04  0.17272066134E+04  0.10100000352E+00 0. -1.
       -3    1    3    3    0  502 -0.43996310717E+03 -0.70770775005E+03 -0.13287293304E+04  0.15684194078E+04  0.10100000352E+00 0.  1.
</event>
<event>
 5   0  0.5554745E-07  0.3533269E+04  0.7818609E-02  0.8105951E-01
        2   -1    0    0  501    0  0.00000000000E+00  0.00000000000E+00  0.15928646120E+04  0.15928646120E+04  0.25500000920E-02 0.  1.
       -2   -1    0    0    0  501  0.00000000000E+00  0.00000000000E+00 -0.19593615596E+04  0.19593615596E+04  0.25500000920E-02 0. -1.
    10030    2    1    2    0    0  0.00000000000E+00  0.00000000000E+00 -0.36649694764E+03  0.35522261717E+04  0.35332691324E+04 0.  0.
        5    1    3    3  502    0 -0.61764759504E+03 -0.39452929097E+03  0.14328066423E+04  0.16093784134E+04  0.46999998093E+01 0.  1.
       -5    1    3    3    0  502  0.61764759504E+03  0.39452929097E+03 -0.17993035900E+04  0.19428477583E+04  0.46999998093E+01 0. -1.
</event>
<event>
 5   0  0.1933647E-07  0.3507191E+04  0.7818609E-02  0.8112088E-01
       -1   -1    0    0    0  501  0.00000000000E+00  0.00000000000E+00  0.19058927552E+04  0.19058927552E+04  0.50400001928E-02 0. -1.
        1   -1    0    0  501    0  0.00000000000E+00  0.00000000000E+00 -0.16134680926E+04  0.16134680926E+04  0.50400001928E-02 0.  1.
    10030    2    1    2    0    0  0.00000000000E+00  0.00000000000E+00  0.29242466251E+03  0.35193608478E+04  0.35071909834E+04 0.  0.
        4    1    3    3  502    0 -0.70132661804E+02 -0.15180092229E+04  0.10243632022E+04  0.18326462217E+04  0.12699999809E+01 0. -1.
       -4    1    3    3    0  502  0.70132661804E+02  0.15180092229E+04 -0.73193853969E+03  0.16867146261E+04  0.12699999809E+01 0.  1.
</event>
<event>
 5   0  0.5707187E-07  0.3484899E+04  0.7818609E-02  0.8117378E-01
       -2   -1    0    0    0  501  0.00000000000E+00  0.00000000000E+00  0.12959586989E+04  0.12959586989E+04  0.25500000920E-02 0.  1.
        2   -1    0    0  501    0  0.00000000000E+00  0.00000000000E+00 -0.23427675004E+04  0.23427675004E+04  0.25500000920E-02 0. -1.
    10030    2    1    2    0    0  0.00000000000E+00  0.00000000000E+00 -0.10468088015E+04  0.36387261993E+04  0.34848988058E+04 0.  0.
        1    1    3    3  502    0 -0.71126619690E+03 -0.12701094385E+04 -0.15233037051E+04  0.21070196407E+04  0.50400001928E-02 0. -1.
       -1    1    3    3    0  502  0.71126619690E+03  0.12701094385E+04  0.47649490356E+03  0.15317065586E+04  0.50400001928E-02 0.  1.
</event>
<event>
 5   0  0.5740827E-07  0.3492143E+04  0.7818609E-02  0.8115654E-01
       -2   -1    0    0    0  501  0.00000000000E+00  0.00000000000E+00  0.10793353735E+04  0.10793353735E+04  0.25500000920E-02 0. -1.
        2   -1    0    0  501    0  0.00000000000E+00  0.00000000000E+00 -0.28246697607E+04  0.28246697607E+04  0.25500000920E-02 0.  1.
    10030    2    1    2    0    0  0.00000000000E+00  0.00000000000E+00 -0.17453343873E+04  0.39040051342E+04  0.34921431764E+04 0.  0.
        2    1    3    3  502    0  0.93946958733E+03 -0.79539958379E+03 -0.22570639310E+04  0.25709144661E+04  0.25500000920E-02 0.  1.
       -2    1    3    3    0  502 -0.93946958733E+03  0.79539958379E+03  0.51172954374E+03  0.13330906681E+04  0.25500000920E-02 0. -1.
</event>
<event>
 5   0  0.1908190E-07  0.3446373E+04  0.7818609E-02  0.8126618E-01
       -1   -1    0    0    0  501  0.00000000000E+00  0.00000000000E+00  0.15966359336E+04  0.15966359336E+04  0.50400001928E-02 0. -1.
        1   -1    0    0  501    0  0.00000000000E+00  0.00000000000E+00 -0.18597679067E+04  0.18597679067E+04  0.50400001928E-02 0.  1.
    10030    2    1    2    0    0  0.00000000000E+00  0.00000000000E+00 -0.26313197308E+03  0.34564038403E+04  0.34463733216E+04 0.  0.
        5    1    3    3  502    0 -0.16533011542E+04  0.31919424722E+03 -0.49877436623E+03  0.17561570637E+04  0.46999998093E+01 0.  1.
       -5    1    3    3    0  502  0.16533011542E+04 -0.31919424722E+03  0.23564239315E+03  0.17002467766E+04  0.46999998093E+01 0. -1.
</event>
<event>
 5   0  0.5573334E-07  0.3501088E+04  0.7818609E-02  0.8113532E-01
        2   -1    0    0  501    0  0.00000000000E+00  0.00000000000E+00  0.19005150698E+04  0.19005150698E+04  0.25500000920E-02 0.  1.
       -2   -1    0    0    0  501  0.00000000000E+00  0.00000000000E+00 -0.16124073196E+04  0.16124073196E+04  0.25500000920E-02 0. -1.
    10030    2    1    2    0    0  0.00000000000E+00  0.00000000000E+00  0.28810775021E+03  0.35129223894E+04  0.35010880649E+04 0.  0.
        4    1    3    3  502    0 -0.92486930584E+03  0.65234413646E+03  0.14840329654E+04  0.18663578330E+04  0.12699999809E+01 0.  1.
       -4    1    3    3    0  502  0.92486930584E+03 -0.65234413646E+03 -0.11959252152E+04  0.16465645565E+04  0.12699999809E+01 0. -1.
</event>
<event>
 5   0  0.5554745E-07  0.3499242E+04  0.7818609E-02  0.8113970E-01
       -2   -1    0    0    0  501  0.00000000000E+00  0.00000000000E+00  0.16459942883E+04  0.16459942883E+04  0.25500000920E-02 0.  1.
        2   -1    0    0  501    0  0.00000000000E+00  0.00000000000E+00 -0.18597713603E+04  0.18597713603E+04  0.25500000920E-02 0. -1.
    10030    2    1    2    0    0  0.00000000000E+00  0.00000000000E+00 -0.21377707195E+03  0.35057656486E+04  0.34992416530E+04 0.  0.
        5    1    3    3  502    0 -0.19480148571E+03 -0.43944848468E+03 -0.17923116410E+04  0.18556577535E+04  0.46999998093E+01 0. -1.
       -5    1    3    3    0  502  0.19480148571E+03  0.43944848468E+03  0.15785345691E+04  0.16501078951E+04  0.46999998093E+01 0.  1.
</event>
<event>
 5   0  0.1933647E-07  0.3486736E+04  0.7818609E-02  0.8116940E-01
        1   -1    0    0  501    0  0.00000000000E+00  0.00000000000E+00  0.21469951933E+04  0.21469951933E+04  0.50400001928E-02 0.  1.
       -1   -1    0    0    0  501  0.00000000000E+00  0.00000000000E+00 -0.14156216125E+04  0.14156216125E+04  0.50400001928E-02 0. -1.
    10030    2    1    2    0    0  0.00000000000E+00  0.00000000000E+00  0.73137358076E+03  0.35626168058E+04  0.34867364670E+04 0.  0.
        4    1    3    3  502    0 -0.65194382376E+03 -0.14396781348E+04  0.11176563543E+04  0.19356810741E+04  0.12699999809E+01 0.  1.
       -4    1    3    3    0  502  0.65194382376E+03  0.14396781348E+04 -0.38628277358E+03  0.16269357318E+04  0.12699999809E+01 0. -1.
</event>
<event>
 5   0  0.5707187E-07  0.3477759E+04  0.7818609E-02  0.8119081E-01
       -2   -1    0    0    0  501  0.00000000000E+00  0.00000000000E+00  0.11858313541E+04  0.11858313541E+04  0.25500000920E-02 0. -1.
        2   -1    0    0  501    0  0.00000000000E+00  0.00000000000E+00 -0.25498587464E+04  0.25498587464E+04  0.25500000920E-02 0.  1.
    10030    2    1    2    0    0  0.00000000000E+00  0.00000000000E+00 -0.13640273923E+04  0.37356901005E+04  0.34777593074E+04 0.  0.
        1    1    3    3  502    0 -0.22736356845E+03 -0.12450361122E+04 -0.19628830343E+04  0.23355339688E+04  0.50400001928E-02 0.  1.
       -1    1    3    3    0  502  0.22736356845E+03  0.12450361122E+04  0.59885564206E+03  0.14001561317E+04  0.50400001928E-02 0. -1.
</event>
<event>
 5   0  0.1823000E-07  0.3542961E+04  0.7818609E-02  0.8103684E-01
        3   -1    0    0  501    0  0.00000000000E+00  0.00000000000E+00  0.17695470425E+04  0.17695470454E+04  0.10100000352E+00 0.  1.
       -3   -1    0    0    0  501  0.00000000000E+00  0.00000000000E+00 -0.17734159999E+04  0.17734160028E+04  0.10100000352E+00 0. -1.
    10030    2    1    2    0    0  0.00000000000E+00  0.00000000000E+00 -0.38689574639E+01  0.35429630482E+04  0.35429609357E+04 0.  0.
        4    1    3    3  502    0 -0.17057493107E+04 -0.17527596264E+03 -0.44672577477E+03  0.17719672414E+04  0.12699999809E+01 0.  1.
       -4    1    3    3    0  502  0.17057493107E+04  0.17527596264E+03  0.44285681731E+03  0.17709958068E+04  0.12699999809E+01 0. -1.
</event>
<event>
 5   0  0.1873457E-07  0.3502950E+04  0.7818609E-02  0.8113091E-01
       -1   -1    0    0    0  501  0.00000000000E+00  0.00000000000E+00  0.15656634348E+04  0.15656634349E+04  0.50400001928E-02 0. -1.
        1   -1    0    0  501    0  0.00000000000E+00  0.00000000000E+00 -0.19593387133E+04  0.19593387133E+04  0.50400001928E-02 0.  1.
    10030    2    1    2    0    0  0.00000000000E+00  0.00000000000E+00 -0.39367527846E+03  0.35250021482E+04  0.35029501737E+04 0.  0.
        3    1    3    3  502    0 -0.25019656352E+03 -0.17148217215E+04  0.58636753031E+02  0.17339694737E+04  0.10100000352E+00 0. -1.
       -3    1    3    3    0  502  0.25019656352E+03  0.17148217215E+04 -0.45231203149E+03  0.17910326744E+04  0.10100000352E+00 0.  1.
</event>
<event>
 5   0  0.1873457E-07  0.3491958E+04  0.7818609E-02  0.8115698E-01
       -1   -1    0    0    0  501  0.00000000000E+00  0.00000000000E+00  0.19191768676E+04  0.19191768676E+04  0.50400001928E-02 0. -1.
        1   -1    0    0  501    0  0.00000000000E+00  0.00000000000E+00 -0.15884117531E+04  0.15884117531E+04  0.50400001928E-02 0.  1.
    10030    2    1    2    0    0  0.00000000000E+00  0.00000000000E+00  0.33076511452E+03  0.35075886207E+04  0.34919582430E+04 0.  0.
        3    1    3    3  502    0 -0.15338585618E+04  0.63730944851E+03 -0.37513168429E+03  0.17028238932E+04  0.10100000352E+00 0.  1.
       -3    1    3    3    0  502  0.15338585618E+04 -0.63730944851E+03  0.70589679882E+03  0.18047647274E+04  0.10100000352E+00 0. -1.
</event>
<event>
 5   0  0.1866421E-07  0.3497591E+04  0.7818609E-02  0.8114361E-01
        1   -1    0    0  501    0  0.00000000000E+00  0.00000000000E+00  0.17996208920E+04  0.17996208920E+04  0.50400001928E-02 0.  1.
       -1   -1    0    0    0  501  0.00000000000E+00  0.00000000000E+00 -0.16994060075E+04  0.16994060075E+04  0.50400001928E-02 0. -1.
    10030    2    1    2    0    0  0.00000000000E+00  0.00000000000E+00  0.10021488451E+03  0.34990268995E+04  0.34975914885E+04 0.  0.
        1    1    3    3  502    0 -0.67512550597E+03  0.55033970239E+03 -0.14669641551E+04  0.17060633251E+04  0.50400001928E-02 0. -1.
       -1    1    3    3    0  502  0.67512550597E+03 -0.55033970239E+03  0.15671790396E+04  0.17929635744E+04  0.50400001928E-02 0.  1.
</event>
<event>
 5   0  0.5677193E-07  0.3530630E+04  0.7818609E-02  0.8106569E-01
        2   -1    0    0  501    0  0.00000000000E+00  0.00000000000E+00  0.25022388134E+04  0.25022388134E+04  0.25500000920E-02 0. -1.
       -2   -1    0    0    0  501  0.00000000000E+00  0.00000000000E+00 -0.12454195025E+04  0.12454195025E+04  0.25500000920E-02 0.  1.
    10030    2    1    2    0    0  0.00000000000E+00  0.00000000000E+00  0.12568193109E+04  0.37476583159E+04  0.35306299824E+04 0.  0.
        3    1    3    3  502    0 -0.11485139519E+04 -0.13029785839E+03 -0.78787761463E+03  0.13988613139E+04  0.10100000352E+00 0.  1.
       -3    1    3    3    0  502  0.11485139519E+04  0.13029785839E+03  0.20446969255E+04  0.23487970021E+04  0.10100000352E+00 0. -1.
</event>
<event>
 5   0  0.5677193E-07  0.3417818E+04  0.7818609E-02  0.8133547E-01
        2   -1    0    0  501    0  0.00000000000E+00  0.00000000000E+00  0.22100163053E+04  0.22100163053E+04  0.25500000920E-02 0. -1.
       -2   -1    0    0    0  501  0.00000000000E+00  0.00000000000E+00 -0.13214246338E+04  0.13214246338E+04  0.25500000920E-02 0.  1.
    10030    2    1    2    0    0  0.00000000000E+00  0.00000000000E+00  0.88859167153E+03  0.35314409391E+04  0.34178180098E+04 0.  0.
        3    1    3    3  502    0  0.27473856577E+03 -0.36649198839E+03  0.21454102047E+04  0.21937599261E+04  0.10100000352E+00 0. -1.
       -3    1    3    3    0  502 -0.27473856577E+03  0.36649198839E+03 -0.12568185331E+04  0.13376810130E+04  0.10100000352E+00 0.  1.
</event>
<event>
 5   0  0.5554745E-07  0.3496139E+04  0.7818609E-02  0.8114706E-01
        2   -1    0    0  501    0  0.00000000000E+00  0.00000000000E+00  0.21990885676E+04  0.21990885676E+04  0.25500000920E-02 0. -1.
       -2   -1    0    0    0  501  0.00000000000E+00  0.00000000000E+00 -0.13895512195E+04  0.13895512195E+04  0.25500000920E-02 0.  1.
    10030    2    1    2    0    0  0.00000000000E+00  0.00000000000E+00  0.80953734813E+03  0.35886397871E+04  0.34961385561E+04 0.  0.
        5    1    3    3  502    0 -0.10245760789E+04  0.12683692392E+04  0.10516876948E+04  0.19402540467E+04  0.46999998093E+01 0. -1.
       -5    1    3    3    0  502  0.10245760789E+04 -0.12683692392E+04 -0.24215034666E+03  0.16483857403E+04  0.46999998093E+01 0.  1.
</event>
<event>
 5   0  0.1897049E-07  0.3532776E+04  0.7818609E-02  0.8106066E-01
       -1   -1    0    0    0  501  0.00000000000E+00  0.00000000000E+00  0.30231495740E+04  0.30231495740E+04  0.50400001928E-02 0.  1.
        1   -1    0    0  501    0  0.00000000000E+00  0.00000000000E+00 -0.10320781474E+04  0.10320781475E+04  0.50400001928E-02 0. -1.
    10030    2    1    2    0    0  0.00000000000E+00  0.00000000000E+00  0.19910714266E+04  0.40552277215E+04  0.35327760256E+04 0.  0.
        2    1    3    3  502    0  0.13262746788E+04  0.44487398931E+02 -0.34269721699E+03  0.13705564690E+04  0.25500000920E-02 0. -1.
       -2    1    3    3    0  502 -0.13262746788E+04 -0.44487398931E+02  0.23337686435E+04  0.26846712525E+04  0.25500000920E-02 0.  1.
</event>
<event>
 5   0  0.1933647E-07  0.3516357E+04  0.7818609E-02  0.8109924E-01
       -1   -1    0    0    0  501  0.00000000000E+00  0.00000000000E+00  0.14588887917E+04  0.14588887917E+04  0.50400001928E-02 0. -1.
        1   -1    0    0  501    0  0.00000000000E+00  0.00000000000E+00 -0.21188677489E+04  0.21188677489E+04  0.50400001928E-02 0.  1.
    10030    2    1    2    0    0  0.00000000000E+00  0.00000000000E+00 -0.65997895728E+03  0.35777565406E+04  0.35163574392E+04 0.  0.
        4    1    3    3  502    0  0.68419036150E+03 -0.95229993757E+03 -0.16629018963E+04  0.20347569760E+04  0.12699999809E+01 0.  1.
       -4    1    3    3    0  502 -0.68419036150E+03  0.95229993757E+03  0.10029229390E+04  0.15429995646E+04  0.12699999809E+01 0. -1.
</event>
<event>
 5   0  0.5740827E-07  0.3509768E+04  0.7818609E-02  0.8111479E-01
        2   -1    0    0  501    0  0.00000000000E+00  0.00000000000E+00  0.16868062618E+04  0.16868062618E+04  0.25500000920E-02 0.  1.
       -2   -1    0    0    0  501  0.00000000000E+00  0.00000000000E+00 -0.18257093861E+04  0.18257093861E+04  0.25500000920E-02 0. -1.
    10030    2    1    2    0    0  0.00000000000E+00  0.00000000000E+00 -0.13890312434E+03  0.35125156478E+04  0.35097680975E+04 0.  0.
        2    1    3    3  502    0 -0.40826698869E+03  0.16969382405E+04 -0.25217789498E+03  0.17634837728E+04  0.25500000920E-02 0.  1.
       -2    1    3    3    0  502  0.40826698869E+03 -0.16969382405E+04  0.11327477064E+03  0.17490318750E+04  0.25500000920E-02 0. -1.
</event>
<event>
 5   0  0.5677193E-07  0.3235240E+04  0.7818609E-02  0.8179572E-01
        2   -1    0    0  501    0  0.00000000000E+00  0.00000000000E+00  0.18904274068E+04  0.18904274068E+04  0.25500000920E-02 0.  1.
       -2   -1    0    0    0  501  0.00000000000E+00  0.00000000000E+00 -0.13841815165E+04  0.13841815165E+04  0.25500000920E-02 0. -1.
    10030    2    1    2    0    0  0.00000000000E+00  0.00000000000E+00  0.50624589032E+03  0.32746089233E+04  0.32352401301E+04 0.  0.
        3    1    3    3  502    0  0.58526261095E+02 -0.14648618913E+04  0.94514514792E+03  0.17442892664E+04  0.10100000352E+00 0. -1.
       -3    1    3    3    0  502 -0.58526261095E+02  0.14648618913E+04 -0.43889925759E+03  0.15303196570E+04  0.10100000352E+00 0.  1.
</event>
<event>
 5   0  0.1866421E-07  0.3491877E+04  0.7818609E-02  0.8115718E-01
       -1   -1    0    0    0  501  0.00000000000E+00  0.00000000000E+00  0.12289991029E+04  0.12289991029E+04  0.50400001928E-02 0.  1.
        1   -1    0    0  501    0  0.00000000000E+00  0.00000000000E+00 -0.24803116039E+04  0.24803116039E+04  0.50400001928E-02 0. -1.
    10030    2    1    2    0    0  0.00000000000E+00  0.00000000000E+00 -0.12513125010E+04  0.37093107068E+04  0.34918767081E+04 0.  0.
        1    1    3    3  502    0  0.12581073209E+03  0.14867162134E+04  0.33752745858E+03  0.15297314225E+04  0.50400001928E-02 0.  1.
       -1    1    3    3    0  502 -0.12581073209E+03 -0.14867162134E+04 -0.15888399596E+04  0.21795792843E+04  0.50400001928E-02 0. -1.
</event>
<event>
 5   0  0.5554745E-07  0.3483821E+04  0.7818609E-02  0.8117635E-01
       -2   -1    0    0    0  501  0.00000000000E+00  0.00000000000E+00  0.21174056941E+04  0.21174056941E+04  0.25500000920E-02 0. -1.
        2   -1    0    0  501    0  0.00000000000E+00  0.00000000000E+00 -0.14330046343E+04  0.14330046343E+04  0.25500000920E-02 0.  1.
    10030    2    1    2    0    0  0.00000000000E+00  0.00000000000E+00  0.68440105982E+03  0.35504103284E+04  0.34838209898E+04 0.  0.
        5    1    3    3  502    0  0.16726037898E+04 -0.20628661946E+03  0.79115746986E+03  0.18617491344E+04  0.46999998093E+01 0. -1.
       -5    1    3    3    0  502 -0.16726037898E+04  0.20628661946E+03 -0.10675641003E+03  0.16886611940E+04  0.46999998093E+01 0.  1.
</event>
<event>
 5   0  0.1933647E-07  0.3503687E+04  0.7818609E-02  0.8112917E-01
        1   -1    0    0  501    0  0.00000000000E+00  0.00000000000E+00  0.13372748800E+04  0.13372748800E+04  0.50400001928E-02 0. -1.
       -1   -1    0    0    0  501  0.00000000000E+00  0.00000000000E+00 -0.22949325419E+04  0.22949325419E+04  0.50400001928E-02 0.  1.
    10030    2    1    2    0    0  0.00000000000E+00  0.00000000000E+00 -0.95765766195E+03  0.36322074219E+04  0.35036869949E+04 0.  0.
        4    1    3    3  502    0  0.10377487124E+04  0.77339802661E+03 -0.17027660578E+04  0.21388035810E+04  0.12699999809E+01 0.  1.
       -4    1    3    3    0  502 -0.10377487124E+04 -0.77339802661E+03  0.74510839584E+03  0.14934038409E+04  0.12699999809E+01 0. -1.
</event>
<event>
 5   0  0.1908190E-07  0.3479124E+04  0.7818609E-02  0.8118755E-01
        1   -1    0    0  501    0  0.00000000000E+00  0.00000000000E+00  0.31664418185E+04  0.31664418185E+04  0.50400001928E-02 0.  1.
       -1   -1    0    0    0  501  0.00000000000E+00  0.00000000000E+00 -0.95567078102E+03  0.95567078103E+03  0.50400001928E-02 0. -1.
    10030    2    1    2    0    0  0.00000000000E+00  0.00000000000E+00  0.22107710374E+04  0.41221125995E+04  0.34791239850E+04 0.  0.
        5    1    3    3  502    0  0.49381250959E+03  0.13894355302E+04  0.11967777019E+02  0.14746346005E+04  0.46999998093E+01 0. -1.
       -5    1    3    3    0  502 -0.49381250959E+03 -0.13894355302E+04  0.21988032604E+04  0.26474779990E+04  0.46999998093E+01 0.  1.
</event>
<event>
 5   0  0.5740827E-07  0.3499796E+04  0.7818609E-02  0.8113838E-01
        2   -1    0    0  501    0  0.00000000000E+00  0.00000000000E+00  0.19058231922E+04  0.19058231922E+04  0.25500000920E-02 0. -1.
       -2   -1    0    0    0  501  0.00000000000E+00  0.00000000000E+00 -0.16067295905E+04  0.16067295905E+04  0.25500000920E-02 0.  1.
    10030    2    1    2    0    0  0.00000000000E+00  0.00000000000E+00  0.29909360174E+03  0.35125527827E+04  0.34997957181E+04 0.  0.
        2    1    3    3  502    0  0.47335896827E+03  0.16785421409E+04  0.29349234093E+03  0.17685333431E+04  0.25500000920E-02 0.  1.
       -2    1    3    3    0  502 -0.47335896827E+03 -0.16785421409E+04  0.56012608037E+01  0.17440194396E+04  0.25500000920E-02 0. -1.
</event>
<event>
 5   0  0.1866421E-07  0.3417348E+04  0.7818609E-02  0.8133662E-01
        1   -1    0    0  501    0  0.00000000000E+00  0.00000000000E+00  0.11779547443E+04  0.11779547443E+04  0.50400001928E-02 0. -1.
       -1   -1    0    0    0  501  0.00000000000E+00  0.00000000000E+00 -0.24785052614E+04  0.24785052614E+04  0.50400001928E-02 0.  1.
    10030    2    1    2    0    0  0.00000000000E+00  0.00000000000E+00 -0.13005505171E+04  0.36564600057E+04  0.34173481130E+04 0.  0.
        1    1    3    3  502    0  0.11719089279E+04 -0.94462590582E+03  0.21493189212E+03  0.15204881964E+04  0.50400001928E-02 0. -1.
       -1    1    3    3    0  502 -0.11719089279E+04  0.94462590582E+03 -0.15154824092E+04  0.21359718092E+04  0.50400001928E-02 0.  1.
</event>
<event>
 5   0  0.1897049E-07  0.3514090E+04  0.7818609E-02  0.8110459E-01
        1   -1    0    0  501    0  0.00000000000E+00  0.00000000000E+00  0.21181577228E+04  0.21181577228E+04  0.50400001928E-02 0.  1.
       -1   -1    0    0    0  501  0.00000000000E+00  0.00000000000E+00 -0.14574960574E+04  0.14574960574E+04  0.50400001928E-02 0. -1.
    10030    2    1    2    0    0  0.00000000000E+00  0.00000000000E+00  0.66066166536E+03  0.35756537802E+04  0.35140896573E+04 0.  0.
        2    1    3    3  502    0  0.13392286423E+04  0.60385995474E+03  0.13110770325E+04  0.19690361060E+04  0.25500000920E-02 0.  1.
       -2    1    3    3    0  502 -0.13392286423E+04 -0.60385995474E+03 -0.65041536718E+03  0.16066176742E+04  0.25500000920E-02 0. -1.
</event>
<event>
 5   0  0.5554745E-07  0.3492737E+04  0.7818609E-02  0.8115513E-01
        2   -1    0    0  501    0  0.00000000000E+00  0.00000000000E+00  0.16662571766E+04  0.16662571766E+04  0.25500000920E-02 0. -1.
       -2   -1    0    0    0  501  0.00000000000E+00  0.00000000000E+00 -0.18303316076E+04  0.18303316076E+04  0.25500000920E-02 0.  1.
    10030    2    1    2    0    0  0.00000000000E+00  0.00000000000E+00 -0.16407443102E+03  0.34965887843E+04  0.34927371369E+04 0.  0.
        5    1    3    3  502    0 -0.21897713028E+03  0.11196305148E+04 -0.14057122336E+04  0.18104067076E+04  0.46999998093E+01 0.  1.
       -5    1    3    3    0  502  0.21897713028E+03 -0.11196305148E+04  0.12416378025E+04  0.16861820767E+04  0.46999998093E+01 0. -1.
</event>
<event>
 5   0  0.5573334E-07  0.3508925E+04  0.7818609E-02  0.8111678E-01
       -2   -1    0    0    0  501  0.00000000000E+00  0.00000000000E+00  0.16949450630E+04  0.16949450630E+04  0.25500000920E-02 0.  1.
        2   -1    0    0  501    0  0.00000000000E+00  0.00000000000E+00 -0.18160694323E+04  0.18160694323E+04  0.25500000920E-02 0. -1.
    10030    2    1    2    0    0  0.00000000000E+00  0.00000000000E+00 -0.12112436922E+03  0.35110144953E+04  0.35089245751E+04 0.  0.
        4    1    3    3  502    0 -0.36678953402E+03 -0.11819308417E+04  0.11838188424E+04  0.17125780979E+04  0.12699999809E+01 0.  1.
       -4    1    3    3    0  502  0.36678953402E+03  0.11819308417E+04 -0.13049432116E+04  0.17984363974E+04  0.12699999809E+01 0. -1.
</event>
<event>
 5   0  0.1897049E-07  0.3518177E+04  0.7818609E-02  0.8109496E-01
        1   -1    0    0  501    0  0.00000000000E+00  0.00000000000E+00  0.15155140476E+04  0.15155140476E+04  0.50400001928E-02 0.  1.
       -1   -1    0    0    0  501  0.00000000000E+00  0.00000000000E+00 -0.20418101931E+04  0.20418101931E+04  0.50400001928E-02 0. -1.
    10030    2    1    2    0    0  0.00000000000E+00  0.00000000000E+00 -0.52629614548E+03  0.35573242407E+04  0.35181768177E+04 0.  0.
        2    1    3    3  502    0 -0.12567000023E+03 -0.15143721571E+04 -0.11591665499E+04  0.19112255413E+04  0.25500000920E-02 0. -1.
       -2    1    3    3    0  502  0.12567000023E+03  0.15143721571E+04  0.63287040441E+03  0.16460986994E+04  0.25500000920E-02 0.  1.
</event>
<event>
 5   0  0.1873457E-07  0.3507627E+04  0.7818609E-02  0.8111985E-01
       -1   -1    0    0    0  501  0.00000000000E+00  0.00000000000E+00  0.36114551056E+04  0.36114551056E+04  0.50400001928E-02 0. -1.
        1   -1    0    0  501    0  0.00000000000E+00  0.00000000000E+00 -0.85169606208E+03  0.85169606210E+03  0.50400001928E-02 0.  1.
    10030    2    1    2    0    0  0.00000000000E+00  0.00000000000E+00  0.27597590435E+04  0.44631511677E+04  0.35076271705E+04 0.  0.
        3    1    3    3  502    0 -0.35789418226E+03 -0.16581727869E+04  0.81335285208E+03  0.18812676867E+04  0.10100000352E+00 0.  1.
       -3    1    3    3    0  502  0.35789418226E+03  0.16581727869E+04  0.19464061914E+04  0.25818834810E+04  0.10100000352E+00 0. -1.
</event>
<event>
 5   0  0.1897049E-07  0.3511457E+04  0.7818609E-02  0.8111080E-01
        1   -1    0    0  501    0  0.00000000000E+00  0.00000000000E+00  0.20198569666E+04  0.20198569666E+04  0.50400001928E-02 0. -1.
       -1   -1    0    0    0  501  0.00000000000E+00  0.00000000000E+00 -0.15261389728E+04  0.15261389728E+04  0.50400001928E-02 0.  1.
    10030    2    1    2    0    0  0.00000000000E+00  0.00000000000E+00  0.49371799380E+03  0.35459959395E+04  0.35114569263E+04 0.  0.
        2    1    3    3  502    0  0.86475128932E+03  0.25055350410E+03  0.17690041311E+04  0.19849300912E+04  0.25500000920E-02 0. -1.
       -2    1    3    3    0  502 -0.86475128932E+03 -0.25055350410E+03 -0.12752861373E+04  0.15610658483E+04  0.25500000920E-02 0.  1.
</event>
<event>
 5   0  0.5677193E-07  0.3495023E+04  0.7818609E-02  0.8114970E-01
        2   -1    0    0  501    0  0.00000000000E+00  0.00000000000E+00  0.10418486935E+04  0.10418486935E+04  0.25500000920E-02 0. -1.
       -2   -1    0    0    0  501  0.00000000000E+00  0.00000000000E+00 -0.29311326376E+04  0.29311326376E+04  0.25500000920E-02 0.  1.
    10030    2    1    2    0    0  0.00000000000E+00  0.00000000000E+00 -0.18892839441E+04  0.39729813312E+04  0.34950231525E+04 0.  0.
        3    1    3    3  502    0 -0.11375582808E+03 -0.12606516392E+04  0.42495253229E+03  0.13352032088E+04  0.10100000352E+00 0. -1.
       -3    1    3    3    0  502  0.11375582808E+03  0.12606516392E+04 -0.23142364764E+04  0.26377781223E+04  0.10100000352E+00 0.  1.
</event>
<event>
 5   0  0.1823000E-07  0.3391745E+04  0.7818609E-02  0.8139935E-01
        3   -1    0    0  501    0  0.00000000000E+00  0.00000000000E+00  0.18225123117E+04  0.18225123145E+04  0.10100000352E+00 0.  1.
       -3   -1    0    0    0  501  0.00000000000E+00  0.00000000000E+00 -0.15780325641E+04  0.15780325673E+04  0.10100000352E+00 0. -1.
    10030    2    1    2    0    0  0.00000000000E+00  0.00000000000E+00  0.24447974756E+03  0.34005448818E+04  0.33917451476E+04 0.  0.
        3    1    3    3  502    0  0.98514704783E+02 -0.77099839836E+03  0.16334128521E+04  0.18089171438E+04  0.10100000352E+00 0.  1.
       -3    1    3    3    0  502 -0.98514704783E+02  0.77099839836E+03 -0.13889331046E+04  0.15916277380E+04  0.10100000352E+00 0. -1.
</event>
<event>
 5   0  0.1933647E-07  0.3264771E+04  0.7818609E-02  0.8171918E-01
        1   -1    0    0  501    0  0.00000000000E+00  0.00000000000E+00  0.12872006542E+04  0.12872006543E+04  0.50400001928E-02 0.  1.
       -1   -1    0    0    0  501  0.00000000000E+00  0.00000000000E+00 -0.20701375729E+04  0.20701375729E+04  0.50400001928E-02 0. -1.
    10030    2    1    2    0    0  0.00000000000E+00  0.00000000000E+00 -0.78293691868E+03  0.33573382272E+04  0.32647710108E+04 0.  0.
        4    1    3    3  502    0 -0.15668723390E+04  0.15186917790E+03  0.52665499479E+02  0.15750963278E+04  0.12699999809E+01 0. -1.
       -4    1    3    3    0  502  0.15668723390E+04 -0.15186917790E+03 -0.83560241816E+03  0.17822418994E+04  0.12699999809E+01 0.  1.
</event>
<event>
 5   0  0.1873457E-07  0.3488787E+04  0.7818609E-02  0.8116453E-01
       -1   -1    0    0    0  501  0.00000000000E+00  0.00000000000E+00  0.19379494051E+04  0.19379494051E+04  0.50400001928E-02 0.  1.
        1   -1    0    0  501    0  0.00000000000E+00  0.00000000000E+00 -0.15701689433E+04  0.15701689433E+04  0.50400001928E-02 0. -1.
    10030    2    1    2    0    0  0.00000000000E+00  0.00000000000E+00  0.36778046185E+03  0.35081183484E+04  0.34887865911E+04 0.  0.
        3    1    3    3  502    0 -0.11270673064E+04 -0.12326726401E+04 -0.32203327631E+03  0.17010196919E+04  0.10100000352E+00 0.  1.
       -3    1    3    3    0  502  0.11270673064E+04  0.12326726401E+04  0.68981373816E+03  0.18070986565E+04  0.10100000352E+00 0. -1.
</event>
<event>
 5   0  0.5707187E-07  0.3504375E+04  0.7818609E-02  0.8112754E-01
       -2   -1    0    0    0  501  0.00000000000E+00  0.00000000000E+00  0.26543339418E+04  0.26543339418E+04  0.25500000920E-02 0. -1.
        2   -1    0    0  501    0  0.00000000000E+00  0.00000000000E+00 -0.11566595393E+04  0.11566595393E+04  0.25500000920E-02 0.  1.
    10030    2    1    2    0    0  0.00000000000E+00  0.00000000000E+00  0.14976744025E+04  0.38109934810E+04  0.35043747940E+04 0.  0.
        1    1    3    3  502    0  0.62390673629E+02 -0.17510734820E+04  0.74544348422E+03  0.19041630507E+04  0.50400001928E-02 0.  1.
       -1    1    3    3    0  502 -0.62390673629E+02  0.17510734820E+04  0.75223091827E+03  0.19068304303E+04  0.50400001928E-02 0. -1.
</event>
<event>
 5   0  0.1866421E-07  0.3470370E+04  0.7818609E-02  0.8120848E-01
       -1   -1    0    0    0  501  0.00000000000E+00  0.00000000000E+00  0.21589035680E+04  0.21589035680E+04  0.50400001928E-02 0.  1.
        1   -1    0    0  501    0  0.00000000000E+00  0.00000000000E+00 -0.13946276919E+04  0.13946276919E+04  0.50400001928E-02 0. -1.
    10030    2    1    2    0    0  0.00000000000E+00  0.00000000000E+00  0.76427587612E+03  0.35535312599E+04  0.34703698362E+04 0.  0.
        1    1    3    3  502    0  0.77194795530E+03  0.70098368318E+03  0.18023070522E+04  0.20822085583E+04  0.50400001928E-02 0.  1.
       -1    1    3    3    0  502 -0.77194795530E+03 -0.70098368318E+03 -0.10380311761E+04  0.14713227016E+04  0.50400001928E-02 0. -1.
</event>
<event>
 5   0  0.5677193E-07  0.3512007E+04  0.7818609E-02  0.8110950E-01
        2   -1    0    0  501    0  0.00000000000E+00  0.00000000000E+00  0.95380361743E+03  0.95380361744E+03  0.25500000920E-02 0.  1.
       -2   -1    0    0    0  501  0.00000000000E+00  0.00000000000E+00 -0.32328972233E+04  0.32328972233E+04  0.25500000920E-02 0. -1.
    10030    2    1    2    0    0  0.00000000000E+00  0.00000000000E+00 -0.22790936059E+04  0.41867008408E+04  0.35120074410E+04 0.  0.
        3    1    3    3  502    0  0.14659938299E+04 -0.93818635335E+03 -0.14171256062E+04  0.22444546191E+04  0.10100000352E+00 0. -1.
       -3    1    3    3    0  502 -0.14659938299E+04  0.93818635335E+03 -0.86196799967E+03  0.19422462217E+04  0.10100000352E+00 0.  1.
</event>
<event>
 5   0  0.5677193E-07  0.3518070E+04  0.7818609E-02  0.8109521E-01
        2   -1    0    0  501    0  0.00000000000E+00  0.00000000000E+00  0.24336499930E+04  0.24336499930E+04  0.25500000920E-02 0. -1.
       -2   -1    0    0    0  501  0.00000000000E+00  0.00000000000E+00 -0.12714250440E+04  0.12714250440E+04  0.25500000920E-02 0.  1.
    10030    2    1    2    0    0  0.00000000000E+00  0.00000000000E+00  0.11622249490E+04  0.37050750371E+04  0.35180696693E+04 0.  0.
        3    1    3    3  502    0 -0.14315267927E+04  0.83487828168E+02  0.16540731222E+04  0.21891087409E+04  0.10100000352E+00 0. -1.
       -3    1    3    3    0  502  0.14315267927E+04 -0.83487828168E+02 -0.49184817314E+03  0.15159662962E+04  0.10100000352E+00 0.  1.
</event>
<event>
 5   0  0.5573334E-07  0.3559596E+04  0.7818609E-02  0.8099810E-01
        2   -1    0    0  501    0  0.00000000000E+00  0.00000000000E+00  0.14287233450E+04  0.14287233450E+04  0.25500000920E-02 0.  1.
       -2   -1    0    0    0  501  0.00000000000E+00  0.00000000000E+00 -0.22171412124E+04  0.22171412124E+04  0.25500000920E-02 0. -1.
    10030    2    1    2    0    0  0.00000000000E+00  0.00000000000E+00 -0.78841786734E+03  0.36458645574E+04  0.35595962745E+04 0.  0.
        4    1    3    3  502    0  0.28947248232E+03 -0.83196629127E+03  0.11897894497E+04  0.14803927774E+04  0.12699999809E+01 0.  1.
       -4    1    3    3    0  502 -0.28947248232E+03  0.83196629127E+03 -0.19782073171E+04  0.21654717800E+04  0.12699999809E+01 0. -1.
</event>
<event>
 5   0  0.1908190E-07  0.3505461E+04  0.7818609E-02  0.8112497E-01
       -1   -1    0    0    0  501  0.00000000000E+00  0.00000000000E+00  0.15794200401E+04  0.15794200401E+04  0.50400001928E-02 0.  1.
        1   -1    0    0  501    0  0.00000000000E+00  0.00000000000E+00 -0.19450578417E+04  0.19450578417E+04  0.50400001928E-02 0. -1.
    10030    2    1    2    0    0  0.00000000000E+00  0.00000000000E+00 -0.36563780168E+03  0.35244778818E+04  0.35054605029E+04 0.  0.
        5    1    3    3  502    0  0.32085764133E+03  0.17163418693E+04 -0.29471944596E+02  0.17463303593E+04  0.46999998093E+01 0. -1.
       -5    1    3    3    0  502 -0.32085764133E+03 -0.17163418693E+04 -0.33616585709E+03  0.17781475225E+04  0.46999998093E+01 0.  1.
</event>
<event>
 5   0  0.5573334E-07  0.3473194E+04  0.7818609E-02  0.8120172E-01
       -2   -1    0    0    0  501  0.00000000000E+00  0.00000000000E+00  0.11829865113E+04  0.11829865113E+04  0.25500000920E-02 0. -1.
        2   -1    0    0  501    0  0.00000000000E+00  0.00000000000E+00 -0.25492839001E+04  0.25492839001E+04  0.25500000920E-02 0.  1.
    10030    2    1    2    0    0  0.00000000000E+00  0.00000000000E+00 -0.13662973889E+04  0.37322704114E+04  0.34731936124E+04 0.  0.
        4    1    3    3  502    0  0.29313959574E+03 -0.97818808672E+03  0.82625671030E+03  0.13135769942E+04  0.12699999809E+01 0. -1.
       -4    1    3    3    0  502 -0.29313959574E+03  0.97818808672E+03 -0.21925540992E+04  0.24186934172E+04  0.12699999809E+01 0.  1.
</event>
<event>
 5   0  0.1908190E-07  0.3497812E+04  0.7818609E-02  0.8114309E-01
        1   -1    0    0  501    0  0.00000000000E+00  0.00000000000E+00  0.10891313133E+04  0.10891313133E+04  0.50400001928E-02 0. -1.
       -1   -1    0    0    0  501  0.00000000000E+00  0.00000000000E+00 -0.28083598671E+04  0.28083598671E+04  0.50400001928E-02 0.  1.
    10030    2    1    2    0    0  0.00000000000E+00  0.00000000000E+00 -0.17192285538E+04  0.38974911803E+04  0.34978122706E+04 0.  0.
        5    1    3    3  502    0 -0.59597787941E+03 -0.25466785581E+03  0.95037438193E+03  0.11503386047E+04  0.46999998093E+01 0. -1.
       -5    1    3    3    0  502  0.59597787941E+03  0.25466785581E+03 -0.26696029357E+04  0.27471525757E+04  0.46999998093E+01 0.  1.
</event>
<event>
 5   0  0.5707187E-07  0.3510957E+04  0.7818609E-02  0.8111198E-01
       -2   -1    0    0    0  501  0.00000000000E+00  0.00000000000E+00  0.12919430088E+04  0.12919430088E+04  0.25500000920E-02 0.  1.
        2   -1    0    0  501    0  0.00000000000E+00  0.00000000000E+00 -0.23853250026E+04  0.23853250026E+04  0.25500000920E-02 0. -1.
    10030    2    1    2    0    0  0.00000000000E+00  0.00000000000E+00 -0.10933819939E+04  0.36772680114E+04  0.35109565425E+04 0.  0.
        1    1    3    3  502    0  0.17508938590E+04 -0.10467122276E+03 -0.62162432407E+03  0.18609143373E+04  0.50400001928E-02 0. -1.
       -1    1    3    3    0  502 -0.17508938590E+04  0.10467122276E+03 -0.47175766980E+03  0.18163536741E+04  0.50400001928E-02 0.  1.
</event>
<event>
 5   0  0.1897049E-07  0.3474583E+04  0.7818609E-02  0.8119840E-01
        1   -1    0    0  501    0  0.00000000000E+00  0.00000000000E+00  0.23202654639E+04  0.23202654639E+04  0.50400001928E-02 0.  1.
       -1   -1    0    0    0  501  0.00000000000E+00  0.00000000000E+00 -0.13007913089E+04  0.13007913089E+04  0.50400001928E-02 0. -1.
    10030    2    1    2    0    0  0.00000000000E+00  0.00000000000E+00  0.10194741549E+04  0.36210567728E+04  0.34745826511E+04 0.  0.
        2    1    3    3  502    0 -0.15278883025E+04  0.54558756485E+03 -0.13780386074E+03  0.16282193832E+04  0.25500000920E-02 0.  1.
       -2    1    3    3    0  502  0.15278883025E+04 -0.54558756485E+03  0.11572780157E+04  0.19928373896E+04  0.25500000920E-02 0. -1.
</event>
<event>
 5   0  0.5554745E-07  0.3544783E+04  0.7818609E-02  0.8103258E-01
       -2   -1    0    0    0  501  0.00000000000E+00  0.00000000000E+00  0.19522705892E+04  0.19522705892E+04  0.25500000920E-02 0. -1.
        2   -1    0    0  501    0  0.00000000000E+00  0.00000000000E+00 -0.16090860321E+04  0.16090860321E+04  0.25500000920E-02 0.  1.
    10030    2    1    2    0    0  0.00000000000E+00  0.00000000000E+00  0.34318455711E+03  0.35613566213E+04  0.35447828345E+04 0.  0.
        5    1    3    3  502    0 -0.15502661056E+03 -0.37516177218E+03 -0.15617481014E+04  0.16136476777E+04  0.46999998093E+01 0.  1.
       -5    1    3    3    0  502  0.15502661056E+03  0.37516177218E+03  0.19049326586E+04  0.19477089436E+04  0.46999998093E+01 0. -1.
</event>
<event>
 5   0  0.1873457E-07  0.3502969E+04  0.7818609E-02  0.8113087E-01
       -1   -1    0    0    0  501  0.00000000000E+00  0.00000000000E+00  0.21041240120E+04  0.21041240120E+04  0.50400001928E-02 0. -1.
        1   -1    0    0  501    0  0.00000000000E+00  0.00000000000E+00 -0.14579453264E+04  0.14579453264E+04  0.50400001928E-02 0.  1.
    10030    2    1    2    0    0  0.00000000000E+00  0.00000000000E+00  0.64617868555E+03  0.35620693384E+04  0.35029688948E+04 0.  0.
        3    1    3    3  502    0 -0.76385429950E+03  0.32273350106E+02  0.19254874887E+04  0.20717183784E+04  0.10100000352E+00 0. -1.
       -3    1    3    3    0  502  0.76385429950E+03 -0.32273350106E+02 -0.12793088032E+04  0.14903509600E+04  0.10100000352E+00 0.  1.
</event>
<event>
 5   0  0.1873457E-07  0.3510559E+04  0.7818609E-02  0.8111292E-01
       -1   -1    0    0    0  501  0.00000000000E+00  0.00000000000E+00  0.14199273385E+04  0.14199273385E+04  0.50400001928E-02 0.  1.
        1   -1    0    0  501    0  0.00000000000E+00  0.00000000000E+00 -0.21698340267E+04  0.21698340267E+04  0.50400001928E-02 0. -1.
    10030    2    1    2    0    0  0.00000000000E+00  0.00000000000E+00 -0.74990668822E+03  0.35897613652E+04  0.35105593028E+04 0.  0.
        3    1    3    3  502    0  0.53713753634E+03  0.14646856906E+04 -0.11975818123E+04  0.19667290389E+04  0.10100000352E+00 0. -1.
       -3    1    3    3    0  502 -0.53713753634E+03 -0.14646856906E+04  0.44767512411E+03  0.16230323263E+04  0.10100000352E+00 0.  1.
</event>
<event>
 5   0  0.1873457E-07  0.3298663E+04  0.7818609E-02  0.8163236E-01
        1   -1    0    0  501    0  0.00000000000E+00  0.00000000000E+00  0.14147554102E+04  0.14147554102E+04  0.50400001928E-02 0.  1.
       -1   -1    0    0    0  501  0.00000000000E+00  0.00000000000E+00 -0.19228017648E+04  0.19228017648E+04  0.50400001928E-02 0. -1.
    10030    2    1    2    0    0  0.00000000000E+00  0.00000000000E+00 -0.50804635464E+03  0.33375571750E+04  0.32986628803E+04 0.  0.
        3    1    3    3  502    0  0.94796018479E+03 -0.62167706664E+03 -0.14661399680E+04  0.18532882407E+04  0.10100000352E+00 0. -1.
       -3    1    3    3    0  502 -0.94796018479E+03  0.62167706664E+03  0.95809361339E+03  0.14842689343E+04  0.10100000352E+00 0.  1.
</event>
<event>
 5   0  0.1897049E-07  0.3500219E+04  0.7818609E-02  0.8113738E-01
        1   -1    0    0  501    0  0.00000000000E+00  0.00000000000E+00  0.10253283869E+04  0.10253283870E+04  0.50400001928E-02 0. -1.
       -1   -1    0    0    0  501  0.00000000000E+00  0.00000000000E+00 -0.29872225178E+04  0.29872225179E+04  0.50400001928E-02 0.  1.
    10030    2    1    2    0    0  0.00000000000E+00  0.00000000000E+00 -0.19618941309E+04  0.40125509048E+04  0.35002194478E+04 0.  0.
        2    1    3    3  502    0 -0.90440210680E+03  0.72484474211E+03  0.52230408923E+03  0.12712767726E+04  0.25500000920E-02 0. -1.
       -2    1    3    3    0  502  0.90440210680E+03 -0.72484474211E+03 -0.24841982201E+04  0.27412741322E+04  0.25500000920E-02 0.  1.
</event>
<event>
 5   0  0.1908190E-07  0.3501431E+04  0.7818609E-02  0.8113451E-01
        1   -1    0    0  501    0  0.00000000000E+00  0.00000000000E+00  0.34130454340E+04  0.34130454340E+04  0.50400001928E-02 0. -1.
       -1   -1    0    0    0  501  0.00000000000E+00  0.00000000000E+00 -0.89802653841E+03  0.89802653842E+03  0.50400001928E-02 0.  1.
    10030    2    1    2    0    0  0.00000000000E+00  0.00000000000E+00  0.25150188956E+04  0.43110719724E+04  0.35014313511E+04 0.  0.
        5    1    3    3  502    0  0.38644321937E+03  0.66937243345E+03  0.31915953509E+04  0.32838545629E+04  0.46999998093E+01 0. -1.
       -5    1    3    3    0  502 -0.38644321937E+03 -0.66937243345E+03 -0.67657645533E+03  0.10272174095E+04  0.46999998093E+01 0.  1.
</event>
<event>
 5   0  0.5554745E-07  0.3487101E+04  0.7818609E-02  0.8116854E-01
       -2   -1    0    0    0  501  0.00000000000E+00  0.00000000000E+00  0.17415198075E+04  0.17415198075E+04  0.25500000920E-02 0.  1.
        2   -1    0    0  501    0  0.00000000000E+00  0.00000000000E+00 -0.17455831863E+04  0.17455831863E+04  0.25500000920E-02 0. -1.
    10030    2    1    2    0    0  0.00000000000E+00  0.00000000000E+00 -0.40633788437E+01  0.34871029939E+04  0.34871006264E+04 0.  0.
        5    1    3    3  502    0 -0.92337947243E+03 -0.66403235586E+03  0.13194747828E+04  0.17420115994E+04  0.46999998093E+01 0.  1.
       -5    1    3    3    0  502  0.92337947243E+03  0.66403235586E+03 -0.13235381617E+04  0.17450913945E+04  0.46999998093E+01 0. -1.
</event>
<event>
 5   0  0.1823000E-07  0.3506863E+04  0.7818609E-02  0.8112165E-01
       -3   -1    0    0    0  501  0.00000000000E+00  0.00000000000E+00  0.23472526477E+04  0.23472526499E+04  0.10100000352E+00 0. -1.
        3   -1    0    0  501    0  0.00000000000E+00  0.00000000000E+00 -0.13098385731E+04  0.13098385770E+04  0.10100000352E+00 0.  1.
    10030    2    1    2    0    0  0.00000000000E+00  0.00000000000E+00  0.10374140746E+04  0.36570912269E+04  0.35068630255E+04 0.  0.
        1    1    3    3  502    0 -0.22893713106E+03  0.16913130220E+04  0.93788410656E+03  0.19474543757E+04  0.50400001928E-02 0.  1.
       -1    1    3    3    0  502  0.22893713106E+03 -0.16913130220E+04  0.99529968075E+02  0.17096368511E+04  0.50400001928E-02 0. -1.
</event>
<event>
 5   0  0.5707187E-07  0.3056441E+04  0.7818609E-02  0.8227795E-01
        2   -1    0    0  501    0  0.00000000000E+00  0.00000000000E+00  0.20090538999E+04  0.20090538999E+04  0.25500000920E-02 0.  1.
       -2   -1    0    0    0  501  0.00000000000E+00  0.00000000000E+00 -0.11624667700E+04  0.11624667700E+04  0.25500000920E-02 0. -1.
    10030    2    1    2    0    0  0.00000000000E+00  0.00000000000E+00  0.84658712985E+03  0.31715206699E+04  0.30564413280E+04 0.  0.
        1    1    3    3  502    0  0.80771491523E+03  0.71097126895E+03  0.15493126383E+04  0.18863332634E+04  0.50400001928E-02 0.  1.
       -1    1    3    3    0  502 -0.80771491523E+03 -0.71097126895E+03 -0.70272550845E+03  0.12851874065E+04  0.50400001928E-02 0. -1.
</event>
<event>
 5   0  0.1866421E-07  0.3502522E+04  0.7818609E-02  0.8113192E-01
       -1   -1    0    0    0  501  0.00000000000E+00  0.00000000000E+00  0.13120737151E+04  0.13120737151E+04  0.50400001928E-02 0.  1.
        1   -1    0    0  501    0  0.00000000000E+00  0.00000000000E+00 -0.23374565540E+04  0.23374565540E+04  0.50400001928E-02 0. -1.
    10030    2    1    2    0    0  0.00000000000E+00  0.00000000000E+00 -0.10253828389E+04  0.36495302690E+04  0.35025221224E+04 0.  0.
        1    1    3    3  502    0 -0.11233396743E+04  0.10935024207E+04 -0.13260143648E+04  0.20532787593E+04  0.50400001928E-02 0.  1.
       -1    1    3    3    0  502  0.11233396743E+04 -0.10935024207E+04  0.30063152589E+03  0.15962515097E+04  0.50400001928E-02 0. -1.
</event>
<event>
 5   0  0.5573334E-07  0.3542737E+04  0.7818609E-02  0.8103736E-01
       -2   -1    0    0    0  501  0.00000000000E+00  0.00000000000E+00  0.13579981805E+04  0.13579981805E+04  0.25500000920E-02 0. -1.
        2   -1    0    0  501    0  0.00000000000E+00  0.00000000000E+00 -0.23105674292E+04  0.23105674292E+04  0.25500000920E-02 0.  1.
    10030    2    1    2    0    0  0.00000000000E+00  0.00000000000E+00 -0.95256924867E+03  0.36685656096E+04  0.35427370011E+04 0.  0.
        4    1    3    3  502    0 -0.97925542541E+02  0.82059691482E+03 -0.20987047143E+04  0.22555557629E+04  0.12699999809E+01 0.  1.
       -4    1    3    3    0  502  0.97925542541E+02 -0.82059691482E+03  0.11461354657E+04  0.14130098468E+04  0.12699999809E+01 0. -1.
</event>
<event>
 5   0  0.5677193E-07  0.3485856E+04  0.7818609E-02  0.8117150E-01
       -2   -1    0    0    0  501  0.00000000000E+00  0.00000000000E+00  0.12707909172E+04  0.12707909172E+04  0.25500000920E-02 0.  1.
        2   -1    0    0  501    0  0.00000000000E+00  0.00000000000E+00 -0.23904784933E+04  0.23904784933E+04  0.25500000920E-02 0. -1.
    10030    2    1    2    0    0  0.00000000000E+00  0.00000000000E+00 -0.11196875761E+04  0.36612694105E+04  0.34858561973E+04 0.  0.
        3    1    3    3  502    0  0.54557677372E+02  0.72240995361E+03  0.11051544155E+04  0.13214457891E+04  0.10100000352E+00 0.  1.
       -3    1    3    3    0  502 -0.54557677372E+02 -0.72240995361E+03 -0.22248419917E+04  0.23398236214E+04  0.10100000352E+00 0. -1.
</event>
<event>
 5   0  0.1873457E-07  0.3508008E+04  0.7818609E-02  0.8111895E-01
       -1   -1    0    0    0  501  0.00000000000E+00  0.00000000000E+00  0.11843843161E+04  0.11843843161E+04  0.50400001928E-02 0. -1.
        1   -1    0    0  501    0  0.00000000000E+00  0.00000000000E+00 -0.25975774108E+04  0.25975774108E+04  0.50400001928E-02 0.  1.
    10030    2    1    2    0    0  0.00000000000E+00  0.00000000000E+00 -0.14131930947E+04  0.37819617270E+04  0.35080079506E+04 0.  0.
        3    1    3    3  502    0  0.63386909202E+03  0.16281073062E+04 -0.53955632316E+03  0.18285634969E+04  0.10100000352E+00 0. -1.
       -3    1    3    3    0  502 -0.63386909202E+03 -0.16281073062E+04 -0.87363677157E+03  0.19533982300E+04  0.10100000352E+00 0.  1.
</event>
<event>
 5   0  0.1908190E-07  0.3510612E+04  0.7818609E-02  0.8111280E-01
        1   -1    0    0  501    0  0.00000000000E+00  0.00000000000E+00  0.24172371147E+04  0.24172371147E+04  0.50400001928E-02 0.  1.
       -1   -1    0    0    0  501  0.00000000000E+00  0.00000000000E+00 -0.12746364749E+04  0.12746364749E+04  0.50400001928E-02 0. -1.
    10030    2    1    2    0    0  0.00000000000E+00  0.00000000000E+00  0.11426006398E+04  0.36918735895E+04  0.35106116816E+04 0.  0.
        5    1    3    3  502    0  0.62396212976E+03  0.11492689155E+04  0.18026218316E+04  0.22270193841E+04  0.46999998093E+01 0.  1.
       -5    1    3    3    0  502 -0.62396212976E+03 -0.11492689155E+04 -0.66002119180E+03  0.14648542054E+04  0.46999998093E+01 0. -1.
</event>
<event>
 5   0  0.1933647E-07  0.3528619E+04  0.7818609E-02  0.8107041E-01
       -1   -1    0    0    0  501  0.00000000000E+00  0.00000000000E+00  0.14075151615E+04  0.14075151615E+04  0.50400001928E-02 0. -1.
        1   -1    0    0  501    0  0.00000000000E+00  0.00000000000E+00 -0.22115483939E+04  0.22115483939E+04  0.50400001928E-02 0.  1.
    10030    2    1    2    0    0  0.00000000000E+00  0.00000000000E+00 -0.80403323240E+03  0.36190635555E+04  0.35286189338E+04 0.  0.
        4    1    3    3  502    0 -0.17516633139E+04 -0.52983446203E+02 -0.19269055292E+03  0.17630266228E+04  0.12699999809E+01 0.  1.
       -4    1    3    3    0  502  0.17516633139E+04  0.52983446203E+02 -0.61134267949E+03  0.18560369327E+04  0.12699999809E+01 0. -1.
</event>
<event>
 5   0  0.5677193E-07  0.3495900E+04  0.7818609E-02  0.8114762E-01
       -2   -1    0    0    0  501  0.00000000000E+00  0.00000000000E+00  0.21331761208E+04  0.21331761208E+04  0.25500000920E-02 0.  1.
        2   -1    0    0  501    0  0.00000000000E+00  0.00000000000E+00 -0.14322910786E+04  0.14322910786E+04  0.25500000920E-02 0. -1.
    10030    2    1    2    0    0  0.00000000000E+00  0.00000000000E+00  0.70088504226E+03  0.35654671994E+04  0.34958999567E+04 0.  0.
        3    1    3    3  502    0 -0.16325797213E+04 -0.19224722848E+03  0.95644968133E+03  0.19018600228E+04  0.10100000352E+00 0. -1.
       -3    1    3    3    0  502  0.16325797213E+04  0.19224722848E+03 -0.25556463906E+03  0.16636071766E+04  0.10100000352E+00 0.  1.
</event>
<event>
 5   0  0.5740827E-07  0.3520139E+04  0.7818609E-02  0.8109034E-01
        2   -1    0    0  501    0  0.00000000000E+00  0.00000000000E+00  0.19655238239E+04  0.19655238239E+04  0.25500000920E-02 0.  1.
       -2   -1    0    0    0  501  0.00000000000E+00  0.00000000000E+00 -0.15760912666E+04  0.15760912666E+04  0.25500000920E-02 0. -1.
    10030    2    1    2    0    0  0.00000000000E+00  0.00000000000E+00  0.38943255733E+03  0.35416150905E+04  0.35201391638E+04 0.  0.
        2    1    3    3  502    0 -0.17319151807E+04 -0.15756479659E+03  0.46745698503E+03  0.18007978485E+04  0.25500000920E-02 0.  1.
       -2    1    3    3    0  502  0.17319151807E+04  0.15756479659E+03 -0.78024427699E+02  0.17408172419E+04  0.25500000920E-02 0. -1.
</event>
<event>
 5   0  0.5677193E-07  0.3485149E+04  0.7818609E-02  0.8117318E-01
        2   -1    0    0  501    0  0.00000000000E+00  0.00000000000E+00  0.28553187112E+04  0.28553187112E+04  0.25500000920E-02 0.  1.
       -2   -1    0    0    0  501  0.00000000000E+00  0.00000000000E+00 -0.10634772793E+04  0.10634772793E+04  0.25500000920E-02 0. -1.
    10030    2    1    2    0    0  0.00000000000E+00  0.00000000000E+00  0.17918414319E+04  0.39187959905E+04  0.34851493940E+04 0.  0.
        3    1    3    3  502    0 -0.14924314953E+04  0.15643273248E+03  0.18920028397E+04  0.24148494204E+04  0.10100000352E+00 0.  1.
       -3    1    3    3    0  502  0.14924314953E+04 -0.15643273248E+03 -0.10016140777E+03  0.15039465701E+04  0.10100000352E+00 0. -1.
</event>
<event>
 5   0  0.5740827E-07  0.3506148E+04  0.7818609E-02  0.8112335E-01
        2   -1    0    0  501    0  0.00000000000E+00  0.00000000000E+00  0.12348716997E+04  0.12348716997E+04  0.25500000920E-02 0.  1.
       -2   -1    0    0    0  501  0.00000000000E+00  0.00000000000E+00 -0.24887344631E+04  0.24887344631E+04  0.25500000920E-02 0. -1.
    10030    2    1    2    0    0  0.00000000000E+00  0.00000000000E+00 -0.12538627634E+04  0.37236061628E+04  0.35061476048E+04 0.  0.
        2    1    3    3  502    0  0.21993080903E+02 -0.17802927230E+03 -0.24789619723E+04  0.24854437385E+04  0.25500000920E-02 0. -1.
       -2    1    3    3    0  502 -0.21993080903E+02  0.17802927230E+03  0.12250992089E+04  0.12381624243E+04  0.25500000920E-02 0.  1.
</event>
<event>
 5   0  0.5677193E-07  0.3462154E+04  0.7818609E-02  0.8122818E-01
       -2   -1    0    0    0  501  0.00000000000E+00  0.00000000000E+00  0.23678202874E+04  0.23678202874E+04  0.25500000920E-02 0.  1.
        2   -1    0    0  501    0  0.00000000000E+00  0.00000000000E+00 -0.12655637581E+04  0.12655637581E+04  0.25500000920E-02 0. -1.
    10030    2    1    2    0    0  0.00000000000E+00  0.00000000000E+00  0.11022565292E+04  0.36333840455E+04  0.34621539778E+04 0.  0.
        3    1    3    3  502    0  0.94382666058E+03 -0.12508543941E+04  0.13231626041E+04  0.20509034028E+04  0.10100000352E+00 0.  1.
       -3    1    3    3    0  502 -0.94382666058E+03  0.12508543941E+04 -0.22090607486E+03  0.15824806427E+04  0.10100000352E+00 0. -1.
</event>
<event>
 5   0  0.5554745E-07  0.3548381E+04  0.7818609E-02  0.8102419E-01
       -2   -1    0    0    0  501  0.00000000000E+00  0.00000000000E+00  0.22688528890E+04  0.22688528890E+04  0.25500000920E-02 0. -1.
        2   -1    0    0  501    0  0.00000000000E+00  0.00000000000E+00 -0.13873761585E+04  0.13873761585E+04  0.25500000920E-02 0.  1.
    10030    2    1    2    0    0  0.00000000000E+00  0.00000000000E+00  0.88147673056E+03  0.36562290475E+04  0.35483812678E+04 0.  0.
        5    1    3    3  502    0 -0.74421856349E+02  0.17722980475E+04  0.47570096131E+03  0.18365436223E+04  0.46999998093E+01 0. -1.
       -5    1    3    3    0  502  0.74421856349E+02 -0.17722980475E+04  0.40577576925E+03  0.18196854252E+04  0.46999998093E+01 0.  1.
</event>
<event>
 5   0  0.5573334E-07  0.3504811E+04  0.7818609E-02  0.8112651E-01
       -2   -1    0    0    0  501  0.00000000000E+00  0.00000000000E+00  0.17469181248E+04  0.17469181248E+04  0.25500000920E-02 0.  1.
        2   -1    0    0  501    0  0.00000000000E+00  0.00000000000E+00 -0.17579101804E+04  0.17579101804E+04  0.25500000920E-02 0. -1.
    10030    2    1    2    0    0  0.00000000000E+00  0.00000000000E+00 -0.10992055610E+02  0.35048283052E+04  0.35048110682E+04 0.  0.
        4    1    3    3  502    0 -0.12195405703E+04 -0.21374071037E+03 -0.12456469771E+04  0.17563035894E+04  0.12699999809E+01 0. -1.
       -4    1    3    3    0  502  0.12195405703E+04  0.21374071037E+03  0.12346549215E+04  0.17485247158E+04  0.12699999809E+01 0.  1.
</event>
<event>
 5   0  0.5573334E-07  0.3501353E+04  0.7818609E-02  0.8113469E-01
       -2   -1    0    0    0  501  0.00000000000E+00  0.00000000000E+00  0.28563480541E+04  0.28563480541E+04  0.25500000920E-02 0. -1.
        2   -1    0    0  501    0  0.00000000000E+00  0.00000000000E+00 -0.10730026569E+04  0.10730026570E+04  0.25500000920E-02 0.  1.
    10030    2    1    2    0    0  0.00000000000E+00  0.00000000000E+00  0.17833453971E+04  0.39293507110E+04  0.35013534818E+04 0.  0.
        4    1    3    3  502    0  0.13497673582E+04 -0.85113457366E+03  0.83532655194E+02  0.15978990272E+04  0.12699999809E+01 0.  1.
       -4    1    3    3    0  502 -0.13497673582E+04  0.85113457366E+03  0.16998127419E+04  0.23314516838E+04  0.12699999809E+01 0. -1.
</event>
<event>
 5   0  0.1866421E-07  0.3506354E+04  0.7818609E-02  0.8112286E-01
       -1   -1    0    0    0  501  0.00000000000E+00  0.00000000000E+00  0.17875670618E+04  0.17875670618E+04  0.50400001928E-02 0. -1.
        1   -1    0    0  501    0  0.00000000000E+00  0.00000000000E+00 -0.17194488210E+04  0.17194488210E+04  0.50400001928E-02 0.  1.
    10030    2    1    2    0    0  0.00000000000E+00  0.00000000000E+00  0.68118240794E+02  0.35070158828E+04  0.35063542758E+04 0.  0.
        1    1    3    3  502    0 -0.34773657398E+03 -0.17166790927E+04 -0.41600672363E+02  0.17520383695E+04  0.50400001928E-02 0. -1.
       -1    1    3    3    0  502  0.34773657398E+03  0.17166790927E+04  0.10971891316E+03  0.17549775133E+04  0.50400001928E-02 0.  1.
</event>
<event>
 5   0  0.5740827E-07  0.3494206E+04  0.7818609E-02  0.8115164E-01
       -2   -1    0    0    0  501  0.00000000000E+00  0.00000000000E+00  0.13741584165E+04  0.13741584165E+04  0.25500000920E-02 0.  1.
        2   -1    0    0  501    0  0.00000000000E+00  0.00000000000E+00 -0.22212644459E+04  0.22212644459E+04  0.25500000920E-02 0. -1.
    10030    2    1    2    0    0  0.00000000000E+00  0.00000000000E+00 -0.84710602934E+03  0.35954228624E+04  0.34942061952E+04 0.  0.
        2    1    3    3  502    0 -0.93844989258E+03 -0.14047761715E+04 -0.88174375912E+03  0.19056642804E+04  0.25500000920E-02 0. -1.
       -2    1    3    3    0  502  0.93844989258E+03  0.14047761715E+04  0.34637729781E+02  0.16897585820E+04  0.25500000920E-02 0.  1.
</event>
<event>
 5   0  0.1908190E-07  0.3501829E+04  0.7818609E-02  0.8113357E-01
       -1   -1    0    0    0  501  0.00000000000E+00  0.00000000000E+00  0.14466441172E+04  0.14466441172E+04  0.50400001928E-02 0.  1.
        1   -1    0    0  501    0  0.00000000000E+00  0.00000000000E+00 -0.21191815717E+04  0.21191815717E+04  0.50400001928E-02 0. -1.
    10030    2    1    2    0    0  0.00000000000E+00  0.00000000000E+00 -0.67253745449E+03  0.35658256889E+04  0.35018289815E+04 0.  0.
        5    1    3    3  502    0 -0.15859646686E+04  0.26170721359E+03 -0.10431489540E+04  0.19162349610E+04  0.46999998093E+01 0. -1.
       -5    1    3    3    0  502  0.15859646686E+04 -0.26170721359E+03  0.37061149952E+03  0.16495907278E+04  0.46999998093E+01 0.  1.
</event>
<event>
 5   0  0.1866421E-07  0.3528516E+04  0.7818609E-02  0.8107065E-01
       -1   -1    0    0    0  501  0.00000000000E+00  0.00000000000E+00  0.16193562114E+04  0.16193562115E+04  0.50400001928E-02 0.  1.
        1   -1    0    0  501    0  0.00000000000E+00  0.00000000000E+00 -0.19221257803E+04  0.19221257803E+04  0.50400001928E-02 0. -1.
    10030    2    1    2    0    0  0.00000000000E+00  0.00000000000E+00 -0.30276956884E+03  0.35414819917E+04  0.35285160175E+04 0.  0.
        1    1    3    3  502    0 -0.31894432264E+03  0.38281171233E+03 -0.18500387908E+04  0.19159628952E+04  0.50400001928E-02 0. -1.
       -1    1    3    3    0  502  0.31894432264E+03 -0.38281171233E+03  0.15472692220E+04  0.16255190966E+04  0.50400001928E-02 0.  1.
</event>
<event>
 5   0  0.1908190E-07  0.3493827E+04  0.7818609E-02  0.8115255E-01
        1   -1    0    0  501    0  0.00000000000E+00  0.00000000000E+00  0.23210968811E+04  0.23210968811E+04  0.50400001928E-02 0. -1.
       -1   -1    0    0    0  501  0.00000000000E+00  0.00000000000E+00 -0.13147689347E+04  0.13147689348E+04  0.50400001928E-02 0.  1.
    10030    2    1    2    0    0  0.00000000000E+00  0.00000000000E+00  0.10063279464E+04  0.36358658159E+04  0.34938265978E+04 0.  0.
        5    1    3    3  502    0  0.14536526033E+04  0.85814198074E+03  0.35250746524E+02  0.16884247852E+04  0.46999998093E+01 0. -1.
       -5    1    3    3    0  502 -0.14536526033E+04 -0.85814198074E+03  0.97107719985E+03  0.19474410307E+04  0.46999998093E+01 0.  1.
</event>
<event>
 5   0  0.5707187E-07  0.3421574E+04  0.7818609E-02  0.8132631E-01
        2   -1    0    0  501    0  0.00000000000E+00  0.00000000000E+00  0.18497401103E+04  0.18497401103E+04  0.25500000920E-02 0. -1.
       -2   -1    0    0    0  501  0.00000000000E+00  0.00000000000E+00 -0.15822724953E+04  0.15822724953E+04  0.25500000920E-02 0.  1.
    10030    2    1    2    0    0  0.00000000000E+00  0.00000000000E+00  0.26746761494E+03  0.34320126056E+04  0.34215744329E+04 0.  0.
        1    1    3    3  502    0  0.14249048225E+04 -0.93643506021E+03 -0.64370084668E+01  0.17050823470E+04  0.50400001928E-02 0.  1.
       -1    1    3    3    0  502 -0.14249048225E+04  0.93643506021E+03  0.27390462341E+03  0.17269302585E+04  0.50400001928E-02 0. -1.
</event>
<event>
 5   0  0.5677193E-07  0.3533620E+04  0.7818609E-02  0.8105868E-01
       -2   -1    0    0    0  501  0.00000000000E+00  0.00000000000E+00  0.18115928446E+04  0.18115928446E+04  0.25500000920E-02 0.  1.
        2   -1    0    0  501    0  0.00000000000E+00  0.00000000000E+00 -0.17231343983E+04  0.17231343983E+04  0.25500000920E-02 0. -1.
    10030    2    1    2    0    0  0.00000000000E+00  0.00000000000E+00  0.88458446390E+02  0.35347272429E+04  0.35336202095E+04 0.  0.
        3    1    3    3  502    0 -0.15712569512E+04  0.64636465109E+03 -0.44067233748E+03  0.17552286996E+04  0.10100000352E+00 0. -1.
       -3    1    3    3    0  502  0.15712569512E+04 -0.64636465109E+03  0.52913078387E+03  0.17794985433E+04  0.10100000352E+00 0.  1.
</event>
<event>
 5   0  0.5554745E-07  0.3498859E+04  0.7818609E-02  0.8114060E-01
       -2   -1    0    0    0  501  0.00000000000E+00  0.00000000000E+00  0.19520101740E+04  0.19520101740E+04  0.25500000920E-02 0. -1.
        2   -1    0    0  501    0  0.00000000000E+00  0.00000000000E+00 -0.15678728986E+04  0.15678728986E+04  0.25500000920E-02 0.  1.
    10030    2    1    2    0    0  0.00000000000E+00  0.00000000000E+00  0.38413727538E+03  0.35198830726E+04  0.34988591567E+04 0.  0.
        5    1    3    3  502    0 -0.16666351667E+04  0.47683011798E+03 -0.44807490812E+02  0.17340904075E+04  0.46999998093E+01 0.  1.
       -5    1    3    3    0  502  0.16666351667E+04 -0.47683011798E+03  0.42894476619E+03  0.17857926651E+04  0.46999998093E+01 0. -1.
</event>
<event>
 5   0  0.1908190E-07  0.3519681E+04  0.7818609E-02  0.8109142E-01
        1   -1    0    0  501    0  0.00000000000E+00  0.00000000000E+00  0.20918945740E+04  0.20918945740E+04  0.50400001928E-02 0.  1.
       -1   -1    0    0    0  501  0.00000000000E+00  0.00000000000E+00 -0.14804946395E+04  0.14804946395E+04  0.50400001928E-02 0. -1.
    10030    2    1    2    0    0  0.00000000000E+00  0.00000000000E+00  0.61139993452E+03  0.35723892135E+04  0.35196810669E+04 0.  0.
        5    1    3    3  502    0 -0.10620140775E+04  0.11627502962E+04 -0.49165626597E+03  0.16497303192E+04  0.46999998093E+01 0. -1.
       -5    1    3    3    0  502  0.10620140775E+04 -0.11627502962E+04  0.11030562005E+04  0.19226588943E+04  0.46999998093E+01 0.  1.
</event>
<event>
 5   0  0.5677193E-07  0.3493971E+04  0.7818609E-02  0.8115220E-01
       -2   -1    0    0    0  501  0.00000000000E+00  0.00000000000E+00  0.17070076229E+04  0.17070076229E+04  0.25500000920E-02 0. -1.
        2   -1    0    0  501    0  0.00000000000E+00  0.00000000000E+00 -0.17878997856E+04  0.17878997856E+04  0.25500000920E-02 0.  1.
    10030    2    1    2    0    0  0.00000000000E+00  0.00000000000E+00 -0.80892162635E+02  0.34949074085E+04  0.34939711293E+04 0.  0.
        3    1    3    3  502    0  0.89774913484E+03 -0.84174977986E+03 -0.12807228446E+04  0.17761608080E+04  0.10100000352E+00 0.  1.
       -3    1    3    3    0  502 -0.89774913484E+03  0.84174977986E+03  0.11998306820E+04  0.17187466005E+04  0.10100000352E+00 0. -1.
</event>
<event>
 5   0  0.5573334E-07  0.3496239E+04  0.7818609E-02  0.8114682E-01
       -2   -1    0    0    0  501  0.00000000000E+00  0.00000000000E+00  0.14659309784E+04  0.14659309784E+04  0.25500000920E-02 0. -1.
        2   -1    0    0  501    0  0.00000000000E+00  0.00000000000E+00 -0.20846290343E+04  0.20846290343E+04  0.25500000920E-02 0.  1.
    10030    2    1    2    0    0  0.00000000000E+00  0.00000000000E+00 -0.61869805588E+03  0.35505600127E+04  0.34962392823E+04 0.  0.
        4    1    3    3  502    0 -0.69544673864E+03  0.45708531856E+03  0.12518544229E+04  0.15032346004E+04  0.12699999809E+01 0. -1.
       -4    1    3    3    0  502  0.69544673864E+03 -0.45708531856E+03 -0.18705524788E+04  0.20473254123E+04  0.12699999809E+01 0.  1.
</event>
<event>
 5   0  0.5554745E-07  0.3486591E+04  0.7818609E-02  0.8116975E-01
        2   -1    0    0  501    0  0.00000000000E+00  0.00000000000E+00  0.24550866341E+04  0.24550866341E+04  0.25500000920E-02 0. -1.
       -2   -1    0    0    0  501  0.00000000000E+00  0.00000000000E+00 -0.12378704304E+04  0.12378704304E+04  0.25500000920E-02 0.  1.
    10030    2    1    2    0    0  0.00000000000E+00  0.00000000000E+00  0.12172162037E+04  0.36929570645E+04  0.34865909702E+04 0.  0.
        5    1    3    3  502    0 -0.44697272036E+03  0.89276348285E+03 -0.90504816796E+03  0.13475702302E+04  0.46999998093E+01 0.  1.
       -5    1    3    3    0  502  0.44697272036E+03 -0.89276348285E+03  0.21222643717E+04  0.23453868343E+04  0.46999998093E+01 0. -1.
</event>
<event>
 5   0  0.1908190E-07  0.3377640E+04  0.7818609E-02  0.8143416E-01
       -1   -1    0    0    0  501  0.00000000000E+00  0.00000000000E+00  0.17061615423E+04  0.17061615423E+04  0.50400001928E-02 0.  1.
        1   -1    0    0  501    0  0.00000000000E+00  0.00000000000E+00 -0.16716544813E+04  0.16716544813E+04  0.50400001928E-02 0. -1.
    10030    2    1    2    0    0  0.00000000000E+00  0.00000000000E+00  0.34507060941E+02  0.33778160236E+04  0.33776397605E+04 0.  0.
        5    1    3    3  502    0  0.31255229922E+03 -0.10333435789E+04  0.13160139558E+04  0.17021758763E+04  0.46999998093E+01 0.  1.
       -5    1    3    3    0  502 -0.31255229922E+03  0.10333435789E+04 -0.12815068949E+04  0.16756401473E+04  0.46999998093E+01 0. -1.
</event>
<event>
 5   0  0.5677193E-07  0.3537228E+04  0.7818609E-02  0.8105024E-01
        2   -1    0    0  501    0  0.00000000000E+00  0.00000000000E+00  0.17023644347E+04  0.17023644347E+04  0.25500000920E-02 0. -1.
       -2   -1    0    0    0  501  0.00000000000E+00  0.00000000000E+00 -0.18374413710E+04  0.18374413711E+04  0.25500000920E-02 0.  1.
    10030    2    1    2    0    0  0.00000000000E+00  0.00000000000E+00 -0.13507693634E+03  0.35398058058E+04  0.35372276381E+04 0.  0.
        3    1    3    3  502    0  0.22252415795E+03  0.51896335043E+03 -0.17448134493E+04  0.18339067433E+04  0.10100000352E+00 0.  1.
       -3    1    3    3    0  502 -0.22252415795E+03 -0.51896335043E+03  0.16097365130E+04  0.17058990625E+04  0.10100000352E+00 0. -1.
</event>
<event>
 5   0  0.5707187E-07  0.3501865E+04  0.7818609E-02  0.8113348E-01
        2   -1    0    0  501    0  0.00000000000E+00  0.00000000000E+00  0.15314644069E+04  0.15314644069E+04  0.25500000920E-02 0.  1.
       -2   -1    0    0    0  501  0.00000000000E+00  0.00000000000E+00 -0.20018521646E+04  0.20018521646E+04  0.25500000920E-02 0. -1.
    10030    2    1    2    0    0  0.00000000000E+00  0.00000000000E+00 -0.47038775772E+03  0.35333165714E+04  0.35018654102E+04 0.  0.
        1    1    3    3  502    0 -0.16138162346E+04  0.50028514291E+03  0.22836386315E+03  0.17049451948E+04  0.50400001928E-02 0.  1.
       -1    1    3    3    0  502  0.16138162346E+04 -0.50028514291E+03 -0.69875162086E+03  0.18283713766E+04  0.50400001928E-02 0. -1.
</event>
<event>
 5   0  0.5573334E-07  0.3625488E+04  0.7818609E-02  0.8084678E-01
        2   -1    0    0  501    0  0.00000000000E+00  0.00000000000E+00  0.26015370193E+04  0.26015370193E+04  0.25500000920E-02 0. -1.
       -2   -1    0    0    0  501  0.00000000000E+00  0.00000000000E+00 -0.12631150709E+04  0.12631150709E+04  0.25500000920E-02 0.  1.
    10030    2    1    2    0    0  0.00000000000E+00  0.00000000000E+00  0.13384219484E+04  0.38646520902E+04  0.36254878936E+04 0.  0.
        4    1    3    3  502    0 -0.35110537388E+03 -0.15261857955E+04  0.16424111995E+04  0.22693686848E+04  0.12699999809E+01 0. -1.
       -4    1    3    3    0  502  0.35110537388E+03  0.15261857955E+04 -0.30398925109E+03  0.15952834055E+04  0.12699999809E+01 0.  1.
</event>
<event>
 5   0  0.5707187E-07  0.3509843E+04  0.7818609E-02  0.8111461E-01
        2   -1    0    0  501    0  0.00000000000E+00  0.00000000000E+00  0.17467700858E+04  0.17467700858E+04  0.25500000920E-02 0.  1.
       -2   -1    0    0    0  501  0.00000000000E+00  0.00000000000E+00 -0.17631104895E+04  0.17631104895E+04  0.25500000920E-02 0. -1.
    10030    2    1    2    0    0  0.00000000000E+00  0.00000000000E+00 -0.16340403676E+02  0.35098805753E+04  0.35098425383E+04 0.  0.
        1    1    3    3  502    0 -0.38576419361E+02 -0.50639638381E+03 -0.16880167380E+04  0.17627608872E+04  0.50400001928E-02 0. -1.
       -1    1    3    3    0  502  0.38576419361E+02  0.50639638381E+03  0.16716763343E+04  0.17471196881E+04  0.50400001928E-02 0.  1.
</event>
<event>
 5   0  0.5677193E-07  0.3417551E+04  0.7818609E-02  0.8133612E-01
        2   -1    0    0  501    0  0.00000000000E+00  0.00000000000E+00  0.20150474403E+04  0.20150474403E+04  0.25500000920E-02 0. -1.
       -2   -1    0    0    0  501  0.00000000000E+00  0.00000000000E+00 -0.14490548319E+04  0.14490548319E+04  0.25500000920E-02 0.  1.
    10030    2    1    2    0    0  0.00000000000E+00  0.00000000000E+00  0.56599260832E+03  0.34641022722E+04  0.34175513046E+04 0.  0.
        3    1    3    3  502    0  0.12971713310E+04  0.98143153182E+03  0.81362760957E+03  0.18187499034E+04  0.10100000352E+00 0. -1.
       -3    1    3    3    0  502 -0.12971713310E+04 -0.98143153182E+03 -0.24763500125E+03  0.16453523689E+04  0.10100000352E+00 0.  1.
</event>
<event>
 5   0  0.5740827E-07  0.3501694E+04  0.7818609E-02  0.8113389E-01
       -2   -1    0    0    0  501  0.00000000000E+00  0.00000000000E+00  0.11062030909E+04  0.11062030909E+04  0.25500000920E-02 0. -1.
        2   -1    0    0  501    0  0.00000000000E+00  0.00000000000E+00 -0.27711595168E+04  0.27711595168E+04  0.25500000920E-02 0.  1.
    10030    2    1    2    0    0  0.00000000000E+00  0.00000000000E+00 -0.16649564259E+04  0.38773626076E+04  0.35016940030E+04 0.  0.
        2    1    3    3  502    0  0.75379199807E+03  0.72977861050E+03  0.71956855395E+03  0.12722256484E+04  0.25500000920E-02 0. -1.
       -2    1    3    3    0  502 -0.75379199807E+03 -0.72977861050E+03 -0.23845249798E+04  0.26051369592E+04  0.25500000920E-02 0.  1.
</event>
<event>
 5   0  0.5707187E-07  0.3472316E+04  0.7818609E-02  0.8120382E-01
        2   -1    0    0  501    0  0.00000000000E+00  0.00000000000E+00  0.21916060455E+04  0.21916060455E+04  0.25500000920E-02 0. -1.
       -2   -1    0    0    0  501  0.00000000000E+00  0.00000000000E+00 -0.13753586646E+04  0.13753586646E+04  0.25500000920E-02 0.  1.
    10030    2    1    2    0    0  0.00000000000E+00  0.00000000000E+00  0.81624738083E+03  0.35669647101E+04  0.34723158635E+04 0.  0.
        1    1    3    3  502    0 -0.15592868098E+03  0.16464055083E+04  0.95099779657E+03  0.19077111050E+04  0.50400001928E-02 0. -1.
       -1    1    3    3    0  502  0.15592868098E+03 -0.16464055083E+04 -0.13475041573E+03  0.16592536050E+04  0.50400001928E-02 0.  1.
</event>
<event>
 5   0  0.5740827E-07  0.3494773E+04  0.7818609E-02  0.8115030E-01
        2   -1    0    0  501    0  0.00000000000E+00  0.00000000000E+00  0.27544927035E+04  0.27544927035E+04  0.25500000920E-02 0. -1.
       -2   -1    0    0    0  501  0.00000000000E+00  0.00000000000E+00 -0.11085013548E+04  0.11085013548E+04  0.25500000920E-02 0.  1.
    10030    2    1    2    0    0  0.00000000000E+00  0.00000000000E+00  0.16459913487E+04  0.38629940583E+04  0.34947726070E+04 0.  0.
        2    1    3    3  502    0  0.79797860817E+03 -0.35273363110E+03  0.24965057897E+04  0.26445665111E+04  0.25500000920E-02 0. -1.
       -2    1    3    3    0  502 -0.79797860817E+03  0.35273363110E+03 -0.85051444098E+03  0.12184275473E+04  0.25500000920E-02 0.  1.
</event>
<event>
 5   0  0.1866421E-07  0.3344623E+04  0.7818609E-02  0.8151633E-01
        1   -1    0    0  501    0  0.00000000000E+00  0.00000000000E+00  0.14371372339E+04  0.14371372339E+04  0.50400001928E-02 0.  1.
       -1   -1    0    0    0  501  0.00000000000E+00  0.00000000000E+00 -0.19459701406E+04  0.19459701406E+04  0.50400001928E-02 0. -1.
    10030    2    1    2    0    0  0.00000000000E+00  0.00000000000E+00 -0.50883290663E+03  0.33831073745E+04  0.33446232345E+04 0.  0.
        1    1    3    3  502    0 -0.11820071905E+04 -0.23504580855E+03 -0.14271700211E+04  0.18679405236E+04  0.50400001928E-02 0. -1.
       -1    1    3    3    0  502  0.11820071905E+04  0.23504580855E+03  0.91833711442E+03  0.15151668510E+04  0.50400001928E-02 0.  1.
</event>
<event>
 5   0  0.1897049E-07  0.3509519E+04  0.7818609E-02  0.8111538E-01
        1   -1    0    0  501    0  0.00000000000E+00  0.00000000000E+00  0.23572757849E+04  0.23572757850E+04  0.50400001928E-02 0. -1.
       -1   -1    0    0    0  501  0.00000000000E+00  0.00000000000E+00 -0.13062453422E+04  0.13062453422E+04  0.50400001928E-02 0.  1.
    10030    2    1    2    0    0  0.00000000000E+00  0.00000000000E+00  0.10510304428E+04  0.36635211271E+04  0.35095187786E+04 0.  0.
        2    1    3    3  502    0  0.13726381072E+04  0.10592717135E+04  0.24349608297E+03  0.17508518723E+04  0.25500000920E-02 0.  1.
       -2    1    3    3    0  502 -0.13726381072E+04 -0.10592717135E+04  0.80753435978E+03  0.19126692549E+04  0.25500000920E-02 0. -1.
</event>
<event>
 5   0  0.1933647E-07  0.3518177E+04  0.7818609E-02  0.8109496E-01
       -1   -1    0    0    0  501  0.00000000000E+00  0.00000000000E+00  0.11181408885E+04  0.11181408885E+04  0.50400001928E-02 0.  1.
        1   -1    0    0  501    0  0.00000000000E+00  0.00000000000E+00 -0.27674441313E+04  0.27674441313E+04  0.50400001928E-02 0. -1.
    10030    2    1    2    0    0  0.00000000000E+00  0.00000000000E+00 -0.16493032428E+04  0.38855850198E+04  0.35181770506E+04 0.  0.
        4    1    3    3  502    0 -0.16080330756E+03  0.20868532970E+03 -0.27455316176E+04  0.27581429888E+04  0.12699999809E+01 0. -1.
       -4    1    3    3    0  502  0.16080330756E+03 -0.20868532970E+03  0.10962283748E+04  0.11274420310E+04  0.12699999809E+01 0.  1.
</event>
<event>
 5   0  0.1823000E-07  0.3505107E+04  0.7818609E-02  0.8112581E-01
       -3   -1    0    0    0  501  0.00000000000E+00  0.00000000000E+00  0.14028542051E+04  0.14028542087E+04  0.10100000352E+00 0. -1.
        3   -1    0    0  501    0  0.00000000000E+00  0.00000000000E+00 -0.21894241609E+04  0.21894241632E+04  0.10100000352E+00 0.  1.
    10030    2    1    2    0    0  0.00000000000E+00  0.00000000000E+00 -0.78656995583E+03  0.35922783719E+04  0.35051065043E+04 0.  0.
        2    1    3    3  502    0 -0.76123400393E+03 -0.90876253388E+03 -0.17161679548E+04  0.20857993673E+04  0.25500000920E-02 0.  1.
       -2    1    3    3    0  502  0.76123400393E+03  0.90876253388E+03  0.92959799895E+03  0.15064790046E+04  0.25500000920E-02 0. -1.
</event>
<event>
 5   0  0.5677193E-07  0.3496481E+04  0.7818609E-02  0.8114624E-01
        2   -1    0    0  501    0  0.00000000000E+00  0.00000000000E+00  0.15465834294E+04  0.15465834294E+04  0.25500000920E-02 0.  1.
       -2   -1    0    0    0  501  0.00000000000E+00  0.00000000000E+00 -0.19761911433E+04  0.19761911433E+04  0.25500000920E-02 0. -1.
    10030    2    1    2    0    0  0.00000000000E+00  0.00000000000E+00 -0.42960771391E+03  0.35227745728E+04  0.34964807883E+04 0.  0.
        3    1    3    3  502    0  0.13905959190E+04 -0.46193206786E+03  0.74588976132E+03  0.16442292393E+04  0.10100000352E+00 0.  1.
       -3    1    3    3    0  502 -0.13905959190E+04  0.46193206786E+03 -0.11754974752E+04  0.18785453334E+04  0.10100000352E+00 0. -1.
</event>
<event>
 5   0  0.5677193E-07  0.3503516E+04  0.7818609E-02  0.8112957E-01
       -2   -1    0    0    0  501  0.00000000000E+00  0.00000000000E+00  0.15229522313E+04  0.15229522313E+04  0.25500000920E-02 0. -1.
        2   -1    0    0  501    0  0.00000000000E+00  0.00000000000E+00 -0.20149395485E+04  0.20149395485E+04  0.25500000920E-02 0.  1.
    10030    2    1    2    0    0  0.00000000000E+00  0.00000000000E+00 -0.49198731718E+03  0.35378917797E+04  0.35035163372E+04 0.  0.
        3    1    3    3  502    0 -0.11280213268E+04 -0.39758183511E+03 -0.15384552920E+04  0.19486785587E+04  0.10100000352E+00 0.  1.
       -3    1    3    3    0  502  0.11280213268E+04  0.39758183511E+03  0.10464679748E+04  0.15892132210E+04  0.10100000352E+00 0. -1.
</event>
<event>
 5   0  0.1873457E-07  0.3508845E+04  0.7818609E-02  0.8111697E-01
        1   -1    0    0  501    0  0.00000000000E+00  0.00000000000E+00  0.25980123232E+04  0.25980123232E+04  0.50400001928E-02 0.  1.
       -1   -1    0    0    0  501  0.00000000000E+00  0.00000000000E+00 -0.11847510465E+04  0.11847510465E+04  0.50400001928E-02 0. -1.
    10030    2    1    2    0    0  0.00000000000E+00  0.00000000000E+00  0.14132612766E+04  0.37827633697E+04  0.35088447208E+04 0.  0.
        3    1    3    3  502    0  0.14779692112E+04  0.34844449241E+03  0.16539741061E+04  0.22453144340E+04  0.10100000352E+00 0.  1.
       -3    1    3    3    0  502 -0.14779692112E+04 -0.34844449241E+03 -0.24071282951E+03  0.15374489357E+04  0.10100000352E+00 0. -1.
</event>
<event>
 5   0  0.1933647E-07  0.3467023E+04  0.7818609E-02  0.8121650E-01
        1   -1    0    0  501    0  0.00000000000E+00  0.00000000000E+00  0.22508596926E+04  0.22508596927E+04  0.50400001928E-02 0. -1.
       -1   -1    0    0    0  501  0.00000000000E+00  0.00000000000E+00 -0.13350731815E+04  0.13350731815E+04  0.50400001928E-02 0.  1.
    10030    2    1    2    0    0  0.00000000000E+00  0.00000000000E+00  0.91578651112E+03  0.35859328742E+04  0.34670231675E+04 0.  0.
        4    1    3    3  502    0 -0.26970205121E+03 -0.73953086992E+03 -0.11395573858E+04  0.13850046038E+04  0.12699999809E+01 0.  1.
       -4    1    3    3    0  502  0.26970205121E+03  0.73953086992E+03  0.20553438969E+04  0.22009282704E+04  0.12699999809E+01 0. -1.
</event>
<event>
 5   0  0.1908190E-07  0.3498182E+04  0.7818609E-02  0.8114221E-01
       -1   -1    0    0    0  501  0.00000000000E+00  0.00000000000E+00  0.10712293525E+04  0.10712293525E+04  0.50400001928E-02 0. -1.
        1   -1    0    0  501    0  0.00000000000E+00  0.00000000000E+00 -0.28558950742E+04  0.28558950742E+04  0.50400001928E-02 0.  1.
    10030    2    1    2    0    0  0.00000000000E+00  0.00000000000E+00 -0.17846657217E+04  0.39271244267E+04  0.34981816026E+04 0.  0.
        5    1    3    3  502    0  0.47594446990E+02 -0.17129439033E+04 -0.49884817565E+03  0.17847446987E+04  0.46999998093E+01 0.  1.
       -5    1    3    3    0  502 -0.47594446990E+02  0.17129439033E+04 -0.12858175460E+04  0.21423797280E+04  0.46999998093E+01 0. -1.
</event>
<event>
 5   0  0.5573334E-07  0.3499192E+04  0.7818609E-02  0.8113982E-01
       -2   -1    0    0    0  501  0.00000000000E+00  0.00000000000E+00  0.20514503373E+04  0.20514503373E+04  0.25500000920E-02 0. -1.
        2   -1    0    0  501    0  0.00000000000E+00  0.00000000000E+00 -0.14921568989E+04  0.14921568989E+04  0.25500000920E-02 0.  1.
    10030    2    1    2    0    0  0.00000000000E+00  0.00000000000E+00  0.55929343838E+03  0.35436072362E+04  0.34991917772E+04 0.  0.
        4    1    3    3  502    0 -0.96840287924E+03  0.14294059255E+04  0.56622046945E+03  0.18170340309E+04  0.12699999809E+01 0.  1.
       -4    1    3    3    0  502  0.96840287924E+03 -0.14294059255E+04 -0.69270310662E+01  0.17265732053E+04  0.12699999809E+01 0. -1.
</event>
<event>
 5   0  0.5573334E-07  0.3526152E+04  0.7818609E-02  0.8107620E-01
        2   -1    0    0  501    0  0.00000000000E+00  0.00000000000E+00  0.16350520735E+04  0.16350520735E+04  0.25500000920E-02 0. -1.
       -2   -1    0    0    0  501  0.00000000000E+00  0.00000000000E+00 -0.19011242159E+04  0.19011242159E+04  0.25500000920E-02 0.  1.
    10030    2    1    2    0    0  0.00000000000E+00  0.00000000000E+00 -0.26607214239E+03  0.35361762894E+04  0.35261520621E+04 0.  0.
        4    1    3    3  502    0  0.56782585637E+03  0.16417404784E+04  0.16898029190E+03  0.17453635591E+04  0.12699999809E+01 0. -1.
       -4    1    3    3    0  502 -0.56782585637E+03 -0.16417404784E+04 -0.43505243429E+03  0.17908127303E+04  0.12699999809E+01 0.  1.
</event>
<event>
 5   0  0.5677193E-07  0.3496964E+04  0.7818609E-02  0.8114510E-01
       -2   -1    0    0    0  501  0.00000000000E+00  0.00000000000E+00  0.10558200537E+04  0.10558200537E+04  0.25500000920E-02 0.  1.
        2   -1    0    0  501    0  0.00000000000E+00  0.00000000000E+00 -0.28955595278E+04  0.28955595278E+04  0.25500000920E-02 0. -1.
    10030    2    1    2    0    0  0.00000000000E+00  0.00000000000E+00 -0.18397394742E+04  0.39513795815E+04  0.34969642927E+04 0.  0.
        3    1    3    3  502    0 -0.17181066534E+04  0.28613279890E+03 -0.10928191849E+04  0.20562140531E+04  0.10100000352E+00 0. -1.
       -3    1    3    3    0  502  0.17181066534E+04 -0.28613279890E+03 -0.74692028930E+03  0.18951655284E+04  0.10100000352E+00 0.  1.
</event>
<event>
 5   0  0.1866421E-07  0.3485952E+04  0.7818609E-02  0.8117127E-01
       -1   -1    0    0    0  501  0.00000000000E+00  0.00000000000E+00  0.14880456668E+04  0.14880456668E+04  0.50400001928E-02 0. -1.
        1   -1    0    0  501    0  0.00000000000E+00  0.00000000000E+00 -0.20415801950E+04  0.20415801950E+04  0.50400001928E-02 0.  1.
    10030    2    1    2    0    0  0.00000000000E+00  0.00000000000E+00 -0.55353452827E+03  0.35296258618E+04  0.34859515560E+04 0.  0.
        1    1    3    3  502    0  0.32927657067E+02  0.90222841223E+03  0.12328393623E+04  0.15280684643E+04  0.50400001928E-02 0. -1.
       -1    1    3    3    0  502 -0.32927657067E+02 -0.90222841223E+03 -0.17863738906E+04  0.20015573975E+04  0.50400001928E-02 0.  1.
</event>
<event>
 5   0  0.5573334E-07  0.3498379E+04  0.7818609E-02  0.8114174E-01
       -2   -1    0    0    0  501  0.00000000000E+00  0.00000000000E+00  0.16072099918E+04  0.16072099918E+04  0.25500000920E-02 0. -1.
        2   -1    0    0  501    0  0.00000000000E+00  0.00000000000E+00 -0.19037116518E+04  0.19037116518E+04  0.25500000920E-02 0.  1.
    10030    2    1    2    0    0  0.00000000000E+00  0.00000000000E+00 -0.29650166000E+03  0.35109216436E+04  0.34983792752E+04 0.  0.
        4    1    3    3  502    0  0.29667181985E+03 -0.51941765230E+03 -0.17978756294E+04  0.18947736693E+04  0.12699999809E+01 0.  1.
       -4    1    3    3    0  502 -0.29667181985E+03  0.51941765230E+03  0.15013739694E+04  0.16161479744E+04  0.12699999809E+01 0. -1.
</event>
<event>
 5   0  0.1933647E-07  0.3495536E+04  0.7818609E-02  0.8114849E-01
       -1   -1    0    0    0  501  0.00000000000E+00  0.00000000000E+00  0.13688272547E+04  0.13688272547E+04  0.50400001928E-02 0. -1.
        1   -1    0    0  501    0  0.00000000000E+00  0.00000000000E+00 -0.22316130834E+04  0.22316130834E+04  0.50400001928E-02 0.  1.
    10030    2    1    2    0    0  0.00000000000E+00  0.00000000000E+00 -0.86278582867E+03  0.36004403380E+04  0.34955359019E+04 0.  0.
        4    1    3    3  502    0  0.17216879967E+04 -0.19695734885E+03 -0.19721670348E+03  0.17441037229E+04  0.12699999809E+01 0. -1.
       -4    1    3    3    0  502 -0.17216879967E+04  0.19695734885E+03 -0.66556912519E+03  0.18563366151E+04  0.12699999809E+01 0.  1.
</event>
<event>
 5   0  0.5707187E-07  0.3533288E+04  0.7818609E-02  0.8105946E-01
       -2   -1    0    0    0  501  0.00000000000E+00  0.00000000000E+00  0.11949388732E+04  0.11949388732E+04  0.25500000920E-02 0.  1.
        2   -1    0    0  501    0  0.00000000000E+00  0.00000000000E+00 -0.26118748471E+04  0.26118748471E+04  0.25500000920E-02 0. -1.
    10030    2    1    2    0    0  0.00000000000E+00  0.00000000000E+00 -0.14169359739E+04  0.38068137202E+04  0.35332878663E+04 0.  0.
        1    1    3    3  502    0  0.13823114581E+04  0.10240242098E+04 -0.11416101625E+04  0.20646269185E+04  0.50400001928E-02 0. -1.
       -1    1    3    3    0  502 -0.13823114581E+04 -0.10240242098E+04 -0.27532581143E+03  0.17421868017E+04  0.50400001928E-02 0.  1.
</event>
<event>
 5   0  0.5554745E-07  0.3528278E+04  0.7818609E-02  0.8107121E-01
        2   -1    0    0  501    0  0.00000000000E+00  0.00000000000E+00  0.19402776481E+04  0.19402776481E+04  0.25500000920E-02 0.  1.
       -2   -1    0    0    0  501  0.00000000000E+00  0.00000000000E+00 -0.16039904570E+04  0.16039904570E+04  0.25500000920E-02 0. -1.
    10030    2    1    2    0    0  0.00000000000E+00  0.00000000000E+00  0.33628719105E+03  0.35442681051E+04  0.35282782382E+04 0.  0.
        5    1    3    3  502    0 -0.13546263822E+04  0.58639668188E+03 -0.80230444655E+03  0.16800560166E+04  0.46999998093E+01 0. -1.
       -5    1    3    3    0  502  0.13546263822E+04 -0.58639668188E+03  0.11385916376E+04  0.18642120885E+04  0.46999998093E+01 0.  1.
</event>
<event>
 5   0  0.1866421E-07  0.3541342E+04  0.7818609E-02  0.8104062E-01
       -1   -1    0    0    0  501  0.00000000000E+00  0.00000000000E+00  0.17382855313E+04  0.17382855313E+04  0.50400001928E-02 0. -1.
        1   -1    0    0  501    0  0.00000000000E+00  0.00000000000E+00 -0.18036596287E+04  0.18036596287E+04  0.50400001928E-02 0.  1.
    10030    2    1    2    0    0  0.00000000000E+00  0.00000000000E+00 -0.65374097399E+02  0.35419451601E+04  0.35413418000E+04 0.  0.
        1    1    3    3  502    0  0.96635667213E+03  0.47144134049E+03  0.13743835771E+04  0.17450021124E+04  0.50400001928E-02 0. -1.
       -1    1    3    3    0  502 -0.96635667213E+03 -0.47144134049E+03 -0.14397576745E+04  0.17969430477E+04  0.50400001928E-02 0.  1.
</event>
<event>
 5   0  0.1866421E-07  0.3439401E+04  0.7818609E-02  0.8128303E-01
       -1   -1    0    0    0  501  0.00000000000E+00  0.00000000000E+00  0.22775369860E+04  0.22775369860E+04  0.50400001928E-02 0.  1.
        1   -1    0    0  501    0  0.00000000000E+00  0.00000000000E+00 -0.12984948815E+04  0.12984948815E+04  0.50400001928E-02 0. -1.
    10030    2    1    2    0    0  0.00000000000E+00  0.00000000000E+00  0.97904210457E+03  0.35760318675E+04  0.34394011797E+04 0.  0.
        1    1    3    3  502    0 -0.84065581962E+03  0.47229941312E+03  0.19700258246E+04  0.21933469157E+04  0.50400001928E-02 0.  1.
       -1    1    3    3    0  502  0.84065581962E+03 -0.47229941312E+03 -0.99098372005E+03  0.13826849519E+04  0.50400001928E-02 0. -1.
</event>
<event>
 5   0  0.1933647E-07  0.3327746E+04  0.7818609E-02  0.8155871E-01
       -1   -1    0    0    0  501  0.00000000000E+00  0.00000000000E+00  0.20746365020E+04  0.20746365020E+04  0.50400001928E-02 0.  1.
        1   -1    0    0  501    0  0.00000000000E+00  0.00000000000E+00 -0.13344379051E+04  0.13344379051E+04  0.50400001928E-02 0. -1.
    10030    2    1    2    0    0  0.00000000000E+00  0.00000000000E+00  0.74019859695E+03  0.34090744071E+04  0.33277461367E+04 0.  0.
        4    1    3    3  502    0  0.46866060084E+02  0.15336664097E+03 -0.13265017788E+04  0.13361610442E+04  0.12699999809E+01 0. -1.
       -4    1    3    3    0  502 -0.46866060084E+02 -0.15336664097E+03  0.20667003757E+04  0.20729133629E+04  0.12699999809E+01 0.  1.
</event>
<event>
 5   0  0.5573334E-07  0.3492950E+04  0.7818609E-02  0.8115463E-01
       -2   -1    0    0    0  501  0.00000000000E+00  0.00000000000E+00  0.14275587465E+04  0.14275587465E+04  0.25500000920E-02 0. -1.
        2   -1    0    0  501    0  0.00000000000E+00  0.00000000000E+00 -0.21366372255E+04  0.21366372255E+04  0.25500000920E-02 0.  1.
    10030    2    1    2    0    0  0.00000000000E+00  0.00000000000E+00 -0.70907847898E+03  0.35641959720E+04  0.34929501338E+04 0.  0.
        4    1    3    3  502    0  0.11208663902E+03  0.74124178790E+03 -0.19641070538E+04  0.21023132341E+04  0.12699999809E+01 0.  1.
       -4    1    3    3    0  502 -0.11208663902E+03 -0.74124178790E+03  0.12550285748E+04  0.14618827378E+04  0.12699999809E+01 0. -1.
</event>
<event>
 5   0  0.1866421E-07  0.3505014E+04  0.7818609E-02  0.8112603E-01
        1   -1    0    0  501    0  0.00000000000E+00  0.00000000000E+00  0.19596855908E+04  0.19596855908E+04  0.50400001928E-02 0. -1.
       -1   -1    0    0    0  501  0.00000000000E+00  0.00000000000E+00 -0.15672311039E+04  0.15672311039E+04  0.50400001928E-02 0.  1.
    10030    2    1    2    0    0  0.00000000000E+00  0.00000000000E+00  0.39245448693E+03  0.35269166947E+04  0.35050136729E+04 0.  0.
        1    1    3    3  502    0  0.11827914437E+04  0.11693540034E+04 -0.35939704952E+03  0.17016317533E+04  0.50400001928E-02 0.  1.
       -1    1    3    3    0  502 -0.11827914437E+04 -0.11693540034E+04  0.75185153646E+03  0.18252849414E+04  0.50400001928E-02 0. -1.
</event>
<event>
 5   0  0.5707187E-07  0.3509949E+04  0.7818609E-02  0.8111436E-01
       -2   -1    0    0    0  501  0.00000000000E+00  0.00000000000E+00  0.14241683872E+04  0.14241683872E+04  0.25500000920E-02 0.  1.
        2   -1    0    0  501    0  0.00000000000E+00  0.00000000000E+00 -0.21626199096E+04  0.21626199096E+04  0.25500000920E-02 0. -1.
    10030    2    1    2    0    0  0.00000000000E+00  0.00000000000E+00 -0.73845152239E+03  0.35867882968E+04  0.35099486656E+04 0.  0.
        1    1    3    3  502    0  0.54150283884E+03 -0.64839497245E+03  0.12027262680E+04  0.14697591097E+04  0.50400001928E-02 0.  1.
       -1    1    3    3    0  502 -0.54150283884E+03  0.64839497245E+03 -0.19411777904E+04  0.21170291870E+04  0.50400001928E-02 0. -1.
</event>
<event>
 5   0  0.1823000E-07  0.3516638E+04  0.7818609E-02  0.8109858E-01
        3   -1    0    0  501    0  0.00000000000E+00  0.00000000000E+00  0.27842020871E+04  0.27842020889E+04  0.10100000352E+00 0. -1.
       -3   -1    0    0    0  501  0.00000000000E+00  0.00000000000E+00 -0.11104389145E+04  0.11104389191E+04  0.10100000352E+00 0.  1.
    10030    2    1    2    0    0  0.00000000000E+00  0.00000000000E+00  0.16737631726E+04  0.38946410080E+04  0.35166383697E+04 0.  0.
        4    1    3    3  502    0 -0.62970235598E+03 -0.53903009134E+03 -0.88047985397E+03  0.12092662580E+04  0.12699999809E+01 0.  1.
       -4    1    3    3    0  502  0.62970235598E+03  0.53903009134E+03  0.25542430265E+04  0.26853747500E+04  0.12699999809E+01 0. -1.
</event>
<event>
 5   0  0.5677193E-07  0.3507637E+04  0.7818609E-02  0.8111983E-01
       -2   -1    0    0    0  501  0.00000000000E+00  0.00000000000E+00  0.15429961966E+04  0.15429961966E+04  0.25500000920E-02 0.  1.
        2   -1    0    0  501    0  0.00000000000E+00  0.00000000000E+00 -0.19934454308E+04  0.19934454308E+04  0.25500000920E-02 0. -1.
    10030    2    1    2    0    0  0.00000000000E+00  0.00000000000E+00 -0.45044923420E+03  0.35364416274E+04  0.35076366505E+04 0.  0.
        3    1    3    3  502    0  0.11474060782E+04 -0.76745216439E+03  0.86548899863E+03  0.16292927146E+04  0.10100000352E+00 0.  1.
       -3    1    3    3    0  502 -0.11474060782E+04  0.76745216439E+03 -0.13159382328E+04  0.19071489128E+04  0.10100000352E+00 0. -1.
</event>
<event>
 5   0  0.1866421E-07  0.3505792E+04  0.7818609E-02  0.8112419E-01
       -1   -1    0    0    0  501  0.00000000000E+00  0.00000000000E+00  0.15363102877E+04  0.15363102877E+04  0.50400001928E-02 0.  1.
        1   -1    0    0  501    0  0.00000000000E+00  0.00000000000E+00 -0.20000155977E+04  0.20000155978E+04  0.50400001928E-02 0. -1.
    10030    2    1    2    0    0  0.00000000000E+00  0.00000000000E+00 -0.46370531004E+03  0.35363258855E+04  0.35057920865E+04 0.  0.
        1    1    3    3  502    0 -0.49497119881E+03 -0.14301203313E+03 -0.19219139724E+04  0.19897744210E+04  0.50400001928E-02 0. -1.
       -1    1    3    3    0  502  0.49497119881E+03  0.14301203313E+03  0.14582086623E+04  0.15465514645E+04  0.50400001928E-02 0.  1.
</event>
<event>
 5   0  0.1823000E-07  0.3438959E+04  0.7818609E-02  0.8128410E-01
       -3   -1    0    0    0  501  0.00000000000E+00  0.00000000000E+00  0.16812804579E+04  0.16812804610E+04  0.10100000352E+00 0. -1.
        3   -1    0    0  501    0  0.00000000000E+00  0.00000000000E+00 -0.17585462091E+04  0.17585462120E+04  0.10100000352E+00 0.  1.
    10030    2    1    2    0    0  0.00000000000E+00  0.00000000000E+00 -0.77265751165E+02  0.34398266730E+04  0.34389587878E+04 0.  0.
        4    1    3    3  502    0  0.97557192865E+03 -0.14148674583E+04  0.16310583337E+02  0.17186791907E+04  0.12699999809E+01 0.  1.
       -4    1    3    3    0  502 -0.97557192865E+03  0.14148674583E+04 -0.93576334502E+02  0.17211474823E+04  0.12699999809E+01 0. -1.
</event>
<event>
 5   0  0.5554745E-07  0.3493864E+04  0.7818609E-02  0.8115246E-01
       -2   -1    0    0    0  501  0.00000000000E+00  0.00000000000E+00  0.21186119265E+04  0.21186119265E+04  0.25500000920E-02 0. -1.
        2   -1    0    0  501    0  0.00000000000E+00  0.00000000000E+00 -0.14404581974E+04  0.14404581974E+04  0.25500000920E-02 0.  1.
    10030    2    1    2    0    0  0.00000000000E+00  0.00000000000E+00  0.67815372903E+03  0.35590701239E+04  0.34938642885E+04 0.  0.
        5    1    3    3  502    0 -0.15694192653E+04 -0.17401140246E+03 -0.42212616274E+03  0.16344936175E+04  0.46999998093E+01 0.  1.
       -5    1    3    3    0  502  0.15694192653E+04  0.17401140246E+03  0.11002798918E+04  0.19245765063E+04  0.46999998093E+01 0. -1.
</event>
<event>
 5   0  0.1866421E-07  0.3468338E+04  0.7818609E-02  0.8121335E-01
        1   -1    0    0  501    0  0.00000000000E+00  0.00000000000E+00  0.11384998606E+04  0.11384998606E+04  0.50400001928E-02 0. -1.
       -1   -1    0    0    0  501  0.00000000000E+00  0.00000000000E+00 -0.26414954442E+04  0.26414954442E+04  0.50400001928E-02 0.  1.
    10030    2    1    2    0    0  0.00000000000E+00  0.00000000000E+00 -0.15029955836E+04  0.37799953048E+04  0.34683380429E+04 0.  0.
        1    1    3    3  502    0  0.12950141899E+04  0.11355300090E+04 -0.53121695197E+03  0.18024099432E+04  0.50400001928E-02 0. -1.
       -1    1    3    3    0  502 -0.12950141899E+04 -0.11355300090E+04 -0.97177863161E+03  0.19775853616E+04  0.50400001928E-02 0.  1.
</event>
<event>
 5   0  0.1908190E-07  0.3197652E+04  0.7818609E-02  0.8189437E-01
       -1   -1    0    0    0  501  0.00000000000E+00  0.00000000000E+00  0.12023381024E+04  0.12023381024E+04  0.50400001928E-02 0. -1.
        1   -1    0    0  501    0  0.00000000000E+00  0.00000000000E+00 -0.21260619075E+04  0.21260619076E+04  0.50400001928E-02 0.  1.
    10030    2    1    2    0    0  0.00000000000E+00  0.00000000000E+00 -0.92372380514E+03  0.33284000100E+04  0.31976524136E+04 0.  0.
        5    1    3    3  502    0 -0.12666316556E+04 -0.74267151770E+03  0.19670596314E+03  0.14814290601E+04  0.46999998093E+01 0. -1.
       -5    1    3    3    0  502  0.12666316556E+04  0.74267151770E+03 -0.11204297683E+04  0.18469709499E+04  0.46999998093E+01 0.  1.
</event>
<event>
 5   0  0.1873457E-07  0.3500405E+04  0.7818609E-02  0.8113694E-01
       -1   -1    0    0    0  501  0.00000000000E+00  0.00000000000E+00  0.14569819547E+04  0.14569819547E+04  0.50400001928E-02 0.  1.
        1   -1    0    0  501    0  0.00000000000E+00  0.00000000000E+00 -0.21024340322E+04  0.21024340322E+04  0.50400001928E-02 0. -1.
    10030    2    1    2    0    0  0.00000000000E+00  0.00000000000E+00 -0.64545207749E+03  0.35594159870E+04  0.35004048029E+04 0.  0.
        3    1    3    3  502    0 -0.77728121978E+03  0.33231434812E+03  0.12356271130E+04  0.14971216695E+04  0.10100000352E+00 0.  1.
       -3    1    3    3    0  502  0.77728121978E+03 -0.33231434812E+03 -0.18810791905E+04  0.20622943175E+04  0.10100000352E+00 0. -1.
</event>
<event>
 5   0  0.5573334E-07  0.3498121E+04  0.7818609E-02  0.8114235E-01
        2   -1    0    0  501    0  0.00000000000E+00  0.00000000000E+00  0.24949100135E+04  0.24949100135E+04  0.25500000920E-02 0.  1.
       -2   -1    0    0    0  501  0.00000000000E+00  0.00000000000E+00 -0.12261814987E+04  0.12261814987E+04  0.25500000920E-02 0. -1.
    10030    2    1    2    0    0  0.00000000000E+00  0.00000000000E+00  0.12687285148E+04  0.37210915121E+04  0.34981209238E+04 0.  0.
        4    1    3    3  502    0 -0.75515522514E+03 -0.63136830849E+03  0.21723152441E+04  0.23849193880E+04  0.12699999809E+01 0.  1.
       -4    1    3    3    0  502  0.75515522514E+03  0.63136830849E+03 -0.90358672924E+03  0.13361721241E+04  0.12699999809E+01 0. -1.
</event>
<event>
 5   0  0.1897049E-07  0.3496633E+04  0.7818609E-02  0.8114588E-01
       -1   -1    0    0    0  501  0.00000000000E+00  0.00000000000E+00  0.19934005418E+04  0.19934005419E+04  0.50400001928E-02 0.  1.
        1   -1    0    0  501    0  0.00000000000E+00  0.00000000000E+00 -0.15333652487E+04  0.15333652487E+04  0.50400001928E-02 0. -1.
    10030    2    1    2    0    0  0.00000000000E+00  0.00000000000E+00  0.46003529315E+03  0.35267657906E+04  0.34966333051E+04 0.  0.
        2    1    3    3  502    0  0.37485470065E+03 -0.36060021051E+03  0.19135519178E+04  0.19829849976E+04  0.25500000920E-02 0.  1.
       -2    1    3    3    0  502 -0.37485470065E+03  0.36060021051E+03 -0.14535166247E+04  0.15437807930E+04  0.25500000920E-02 0. -1.
</event>
<event>
 5   0  0.5707187E-07  0.3495564E+04  0.7818609E-02  0.8114842E-01
       -2   -1    0    0    0  501  0.00000000000E+00  0.00000000000E+00  0.14043215130E+04  0.14043215130E+04  0.25500000920E-02 0.  1.
        2   -1    0    0  501    0  0.00000000000E+00  0.00000000000E+00 -0.21752444759E+04  0.21752444759E+04  0.25500000920E-02 0. -1.
    10030    2    1    2    0    0  0.00000000000E+00  0.00000000000E+00 -0.77092296284E+03  0.35795659889E+04  0.34955643971E+04 0.  0.
        1    1    3    3  502    0  0.50744120290E+03  0.56047060973E+03  0.12281976837E+04  0.14422529005E+04  0.50400001928E-02 0.  1.
       -1    1    3    3    0  502 -0.50744120290E+03 -0.56047060973E+03 -0.19991206465E+04  0.21373130884E+04  0.50400001928E-02 0. -1.
</event>
<event>
 5   0  0.5573334E-07  0.3503573E+04  0.7818609E-02  0.8112944E-01
        2   -1    0    0  501    0  0.00000000000E+00  0.00000000000E+00  0.24773146702E+04  0.24773146702E+04  0.25500000920E-02 0. -1.
       -2   -1    0    0    0  501  0.00000000000E+00  0.00000000000E+00 -0.12387431531E+04  0.12387431531E+04  0.25500000920E-02 0.  1.
    10030    2    1    2    0    0  0.00000000000E+00  0.00000000000E+00  0.12385715171E+04  0.37160578233E+04  0.35035733678E+04 0.  0.
        4    1    3    3  502    0  0.68326345887E+03  0.15771503853E+04  0.97819039971E+03  0.19776527407E+04  0.12699999809E+01 0.  1.
       -4    1    3    3    0  502 -0.68326345887E+03 -0.15771503853E+04  0.26038111736E+03  0.17384050826E+04  0.12699999809E+01 0. -1.
</event>
<event>
 5   0  0.5573334E-07  0.3515998E+04  0.7818609E-02  0.8110009E-01
        2   -1    0    0  501    0  0.00000000000E+00  0.00000000000E+00  0.13415357845E+04  0.13415357845E+04  0.25500000920E-02 0. -1.
       -2   -1    0    0    0  501  0.00000000000E+00  0.00000000000E+00 -0.23037486924E+04  0.23037486924E+04  0.25500000920E-02 0.  1.
    10030    2    1    2    0    0  0.00000000000E+00  0.00000000000E+00 -0.96221290797E+03  0.36452844769E+04  0.35159984694E+04 0.  0.
        4    1    3    3  502    0  0.48345915156E+02 -0.11067783893E+04  0.93410045919E+03  0.14490828172E+04  0.12699999809E+01 0. -1.
       -4    1    3    3    0  502 -0.48345915156E+02  0.11067783893E+04 -0.18963133672E+04  0.21962016596E+04  0.12699999809E+01 0.  1.
</event>
<event>
 5   0  0.5740827E-07  0.3432885E+04  0.7818609E-02  0.8129882E-01
        2   -1    0    0  501    0  0.00000000000E+00  0.00000000000E+00  0.19200992030E+04  0.19200992030E+04  0.25500000920E-02 0.  1.
       -2   -1    0    0    0  501  0.00000000000E+00  0.00000000000E+00 -0.15343866353E+04  0.15343866353E+04  0.25500000920E-02 0. -1.
    10030    2    1    2    0    0  0.00000000000E+00  0.00000000000E+00  0.38571256767E+03  0.34544858383E+04  0.34328848250E+04 0.  0.
        2    1    3    3  502    0  0.94154013530E+03 -0.13234607352E+04 -0.36572972850E+03  0.16648736824E+04  0.25500000920E-02 0. -1.
       -2    1    3    3    0  502 -0.94154013530E+03  0.13234607352E+04  0.75144229617E+03  0.17896121559E+04  0.25500000920E-02 0.  1.
</event>
<event>
 5   0  0.5677193E-07  0.3456414E+04  0.7818609E-02  0.8124198E-01
        2   -1    0    0  501    0  0.00000000000E+00  0.00000000000E+00  0.16155580160E+04  0.16155580160E+04  0.25500000920E-02 0.  1.
       -2   -1    0    0    0  501  0.00000000000E+00  0.00000000000E+00 -0.18487106127E+04  0.18487106127E+04  0.25500000920E-02 0. -1.
    10030    2    1    2    0    0  0.00000000000E+00  0.00000000000E+00 -0.23315259666E+03  0.34642686286E+04  0.34564138928E+04 0.  0.
        3    1    3    3  502    0 -0.45626803108E+03 -0.48066452019E+03 -0.17162862246E+04  0.18397981716E+04  0.10100000352E+00 0. -1.
       -3    1    3    3    0  502  0.45626803108E+03  0.48066452019E+03  0.14831336280E+04  0.16244704570E+04  0.10100000352E+00 0.  1.
</event>
<event>
 5   0  0.1873457E-07  0.3513112E+04  0.7818609E-02  0.8110690E-01
        1   -1    0    0  501    0  0.00000000000E+00  0.00000000000E+00  0.22344200999E+04  0.22344200999E+04  0.50400001928E-02 0. -1.
       -1   -1    0    0    0  501  0.00000000000E+00  0.00000000000E+00 -0.13808903467E+04  0.13808903467E+04  0.50400001928E-02 0.  1.
    10030    2    1    2    0    0  0.00000000000E+00  0.00000000000E+00  0.85352975323E+03  0.36153104467E+04  0.35131120942E+04 0.  0.
        3    1    3    3  502    0 -0.72919166420E+03 -0.14075243730E+04  0.12055109459E+04  0.19915074679E+04  0.10100000352E+00 0. -1.
       -3    1    3    3    0  502  0.72919166420E+03  0.14075243730E+04 -0.35198119265E+03  0.16238029788E+04  0.10100000352E+00 0.  1.
</event>
<event>
 5   0  0.1933647E-07  0.3515670E+04  0.7818609E-02  0.8110086E-01
       -1   -1    0    0    0  501  0.00000000000E+00  0.00000000000E+00  0.16005433868E+04  0.16005433868E+04  0.50400001928E-02 0.  1.
        1   -1    0    0  501    0  0.00000000000E+00  0.00000000000E+00 -0.19305843302E+04  0.19305843302E+04  0.50400001928E-02 0. -1.
    10030    2    1    2    0    0  0.00000000000E+00  0.00000000000E+00 -0.33004094333E+03  0.35311277170E+04  0.35156700541E+04 0.  0.
        4    1    3    3  502    0 -0.24803967579E+03  0.12046113351E+04  0.10964356094E+04  0.16476604043E+04  0.12699999809E+01 0.  1.
       -4    1    3    3    0  502  0.24803967579E+03 -0.12046113351E+04 -0.14264765527E+04  0.18834673127E+04  0.12699999809E+01 0. -1.
</event>
<event>
 5   0  0.5677193E-07  0.3506005E+04  0.7818609E-02  0.8112368E-01
        2   -1    0    0  501    0  0.00000000000E+00  0.00000000000E+00  0.20724263749E+04  0.20724263749E+04  0.25500000920E-02 0. -1.
       -2   -1    0    0    0  501  0.00000000000E+00  0.00000000000E+00 -0.14828118239E+04  0.14828118239E+04  0.25500000920E-02 0.  1.
    10030    2    1    2    0    0  0.00000000000E+00  0.00000000000E+00  0.58961455097E+03  0.35552381987E+04  0.35060053239E+04 0.  0.
        3    1    3    3  502    0 -0.82523546026E+03 -0.47003572707E+03  0.17889537097E+04  0.20254141639E+04  0.10100000352E+00 0. -1.
       -3    1    3    3    0  502  0.82523546026E+03  0.47003572707E+03 -0.11993391588E+04  0.15298240348E+04  0.10100000352E+00 0.  1.
</event>
<event>
 5   0  0.5740827E-07  0.3501133E+04  0.7818609E-02  0.8113522E-01
        2   -1    0    0  501    0  0.00000000000E+00  0.00000000000E+00  0.27936452455E+04  0.27936452455E+04  0.25500000920E-02 0. -1.
       -2   -1    0    0    0  501  0.00000000000E+00  0.00000000000E+00 -0.10969476493E+04  0.10969476493E+04  0.25500000920E-02 0.  1.
    10030    2    1    2    0    0  0.00000000000E+00  0.00000000000E+00  0.16966975962E+04  0.38905928948E+04  0.35011327224E+04 0.  0.
        2    1    3    3  502    0  0.15989366821E+04  0.21155132677E+03  0.92110404374E+02  0.16154989334E+04  0.25500000920E-02 0. -1.
       -2    1    3    3    0  502 -0.15989366821E+04 -0.21155132677E+03  0.16045871919E+04  0.22750939614E+04  0.25500000920E-02 0.  1.
</event>
<event>
 5   0  0.1866421E-07  0.3464055E+04  0.7818609E-02  0.8122362E-01
       -1   -1    0    0    0  501  0.00000000000E+00  0.00000000000E+00  0.17171113117E+04  0.17171113117E+04  0.50400001928E-02 0. -1.
        1   -1    0    0  501    0  0.00000000000E+00  0.00000000000E+00 -0.17470730853E+04  0.17470730853E+04  0.50400001928E-02 0.  1.
    10030    2    1    2    0    0  0.00000000000E+00  0.00000000000E+00 -0.29961773561E+02  0.34641843970E+04  0.34640548247E+04 0.  0.
        1    1    3    3  502    0 -0.92076510477E+03  0.11938271028E+04 -0.86758971070E+03  0.17394664227E+04  0.50400001928E-02 0.  1.
       -1    1    3    3    0  502  0.92076510477E+03 -0.11938271028E+04  0.83762793714E+03  0.17247179743E+04  0.50400001928E-02 0. -1.
</event>
<event>
 5   0  0.5707187E-07  0.3301053E+04  0.7818609E-02  0.8162628E-01
       -2   -1    0    0    0  501  0.00000000000E+00  0.00000000000E+00  0.95124346936E+03  0.95124346936E+03  0.25500000920E-02 0. -1.
        2   -1    0    0  501    0  0.00000000000E+00  0.00000000000E+00 -0.28638698674E+04  0.28638698674E+04  0.25500000920E-02 0.  1.
    10030    2    1    2    0    0  0.00000000000E+00  0.00000000000E+00 -0.19126263980E+04  0.38151133367E+04  0.33010528674E+04 0.  0.
        1    1    3    3  502    0 -0.15149364677E+04 -0.11309474935E+03 -0.21052083822E+03  0.15336694386E+04  0.50400001928E-02 0. -1.
       -1    1    3    3    0  502  0.15149364677E+04  0.11309474935E+03 -0.17021055598E+04  0.22814438981E+04  0.50400001928E-02 0.  1.
</event>
<event>
 5   0  0.1897049E-07  0.3489660E+04  0.7818609E-02  0.8116245E-01
        1   -1    0    0  501    0  0.00000000000E+00  0.00000000000E+00  0.15642045293E+04  0.15642045293E+04  0.50400001928E-02 0. -1.
       -1   -1    0    0    0  501  0.00000000000E+00  0.00000000000E+00 -0.19463126174E+04  0.19463126174E+04  0.50400001928E-02 0.  1.
    10030    2    1    2    0    0  0.00000000000E+00  0.00000000000E+00 -0.38210808812E+03  0.35105171468E+04  0.34896595890E+04 0.  0.
        2    1    3    3  502    0  0.16084651776E+04  0.51093262948E+03  0.25455926811E+03  0.17067550499E+04  0.25500000920E-02 0. -1.
       -2    1    3    3    0  502 -0.16084651776E+04 -0.51093262948E+03 -0.63666735623E+03  0.18037620968E+04  0.25500000920E-02 0.  1.
</event>
<event>
 5   0  0.5554745E-07  0.3499981E+04  0.7818609E-02  0.8113794E-01
        2   -1    0    0  501    0  0.00000000000E+00  0.00000000000E+00  0.21951789949E+04  0.21951789949E+04  0.25500000920E-02 0. -1.
       -2   -1    0    0    0  501  0.00000000000E+00  0.00000000000E+00 -0.13950877775E+04  0.13950877775E+04  0.25500000920E-02 0.  1.
    10030    2    1    2    0    0  0.00000000000E+00  0.00000000000E+00  0.80009121740E+03  0.35902667724E+04  0.34999813629E+04 0.  0.
        5    1    3    3  502    0 -0.14213009488E+03 -0.14843145236E+04  0.13396740028E+04  0.20045296438E+04  0.46999998093E+01 0. -1.
       -5    1    3    3    0  502  0.14213009488E+03  0.14843145236E+04 -0.53958278543E+03  0.15857371287E+04  0.46999998093E+01 0.  1.
</event>
<event>
 5   0  0.1897049E-07  0.3455927E+04  0.7818609E-02  0.8124315E-01
       -1   -1    0    0    0  501  0.00000000000E+00  0.00000000000E+00  0.25937833367E+04  0.25937833367E+04  0.50400001928E-02 0. -1.
        1   -1    0    0  501    0  0.00000000000E+00  0.00000000000E+00 -0.11511594067E+04  0.11511594067E+04  0.50400001928E-02 0.  1.
    10030    2    1    2    0    0  0.00000000000E+00  0.00000000000E+00  0.14426239300E+04  0.37449427434E+04  0.34559271329E+04 0.  0.
        2    1    3    3  502    0 -0.11407376751E+04  0.73913555521E+03 -0.43480094312E+03  0.14271144567E+04  0.25500000920E-02 0.  1.
       -2    1    3    3    0  502  0.11407376751E+04 -0.73913555521E+03  0.18774248731E+04  0.23178282867E+04  0.25500000920E-02 0. -1.
</event>
<event>
 5   0  0.1873457E-07  0.3534170E+04  0.7818609E-02  0.8105740E-01
       -1   -1    0    0    0  501  0.00000000000E+00  0.00000000000E+00  0.13943475465E+04  0.13943475466E+04  0.50400001928E-02 0.  1.
        1   -1    0    0  501    0  0.00000000000E+00  0.00000000000E+00 -0.22394626762E+04  0.22394626762E+04  0.50400001928E-02 0. -1.
    10030    2    1    2    0    0  0.00000000000E+00  0.00000000000E+00 -0.84511512970E+03  0.36338102228E+04  0.35341699383E+04 0.  0.
        3    1    3    3  502    0  0.14190235743E+03  0.98428354276E+03 -0.19244377064E+04  0.21661973289E+04  0.10100000352E+00 0. -1.
       -3    1    3    3    0  502 -0.14190235743E+03 -0.98428354276E+03  0.10793225767E+04  0.14676128939E+04  0.10100000352E+00 0.  1.
</event>
<event>
 5   0  0.1908190E-07  0.3488352E+04  0.7818609E-02  0.8116556E-01
       -1   -1    0    0    0  501  0.00000000000E+00  0.00000000000E+00  0.29626087713E+04  0.29626087713E+04  0.50400001928E-02 0.  1.
        1   -1    0    0  501    0  0.00000000000E+00  0.00000000000E+00 -0.10268482804E+04  0.10268482805E+04  0.50400001928E-02 0. -1.
    10030    2    1    2    0    0  0.00000000000E+00  0.00000000000E+00  0.19357604908E+04  0.39894570517E+04  0.34883518873E+04 0.  0.
        5    1    3    3  502    0  0.72318661314E+03  0.12002251796E+04 -0.21985967429E+03  0.14184145112E+04  0.46999998093E+01 0. -1.
       -5    1    3    3    0  502 -0.72318661314E+03 -0.12002251796E+04  0.21556201651E+04  0.25710425406E+04  0.46999998093E+01 0.  1.
</event>
<event>
 5   0  0.5707187E-07  0.3467923E+04  0.7818609E-02  0.8121434E-01
       -2   -1    0    0    0  501  0.00000000000E+00  0.00000000000E+00  0.20105881285E+04  0.20105881285E+04  0.25500000920E-02 0. -1.
        2   -1    0    0  501    0  0.00000000000E+00  0.00000000000E+00 -0.14953947696E+04  0.14953947696E+04  0.25500000920E-02 0.  1.
    10030    2    1    2    0    0  0.00000000000E+00  0.00000000000E+00  0.51519335891E+03  0.35059828980E+04  0.34679232812E+04 0.  0.
        1    1    3    3  502    0 -0.62244274303E+03  0.14181357626E+04  0.10459489105E+04  0.18688373746E+04  0.50400001928E-02 0. -1.
       -1    1    3    3    0  502  0.62244274303E+03 -0.14181357626E+04 -0.53075555156E+03  0.16371455234E+04  0.50400001928E-02 0.  1.
</event>
<event>
 5   0  0.1873457E-07  0.3508256E+04  0.7818609E-02  0.8111836E-01
       -1   -1    0    0    0  501  0.00000000000E+00  0.00000000000E+00  0.15545443998E+04  0.15545443998E+04  0.50400001928E-02 0. -1.
        1   -1    0    0  501    0  0.00000000000E+00  0.00000000000E+00 -0.19793354652E+04  0.19793354652E+04  0.50400001928E-02 0.  1.
    10030    2    1    2    0    0  0.00000000000E+00  0.00000000000E+00 -0.42479106537E+03  0.35338798650E+04  0.35082558988E+04 0.  0.
        3    1    3    3  502    0  0.57821486518E+02 -0.17393090418E+04 -0.43406095707E+03  0.17935852898E+04  0.10100000352E+00 0.  1.
       -3    1    3    3    0  502 -0.57821486518E+02  0.17393090418E+04  0.92698917030E+01  0.17402945752E+04  0.10100000352E+00 0. -1.
</event>
<event>
 5   0  0.5740827E-07  0.3321905E+04  0.7818609E-02  0.8157344E-01
        2   -1    0    0  501    0  0.00000000000E+00  0.00000000000E+00  0.15893716694E+04  0.15893716694E+04  0.25500000920E-02 0.  1.
       -2   -1    0    0    0  501  0.00000000000E+00  0.00000000000E+00 -0.17357575600E+04  0.17357575600E+04  0.25500000920E-02 0. -1.
    10030    2    1    2    0    0  0.00000000000E+00  0.00000000000E+00 -0.14638589060E+03  0.33251292294E+04  0.33219054115E+04 0.  0.
        2    1    3    3  502    0  0.10897382100E+04 -0.13782278075E+03  0.11739051579E+04  0.16076622173E+04  0.25500000920E-02 0.  1.
       -2    1    3    3    0  502 -0.10897382100E+04  0.13782278075E+03 -0.13202910485E+04  0.17174670121E+04  0.25500000920E-02 0. -1.
</event>
<event>
 5   0  0.1933647E-07  0.3485381E+04  0.7818609E-02  0.8117263E-01
        1   -1    0    0  501    0  0.00000000000E+00  0.00000000000E+00  0.14251941485E+04  0.14251941485E+04  0.50400001928E-02 0.  1.
       -1   -1    0    0    0  501  0.00000000000E+00  0.00000000000E+00 -0.21309173631E+04  0.21309173631E+04  0.50400001928E-02 0. -1.
    10030    2    1    2    0    0  0.00000000000E+00  0.00000000000E+00 -0.70572321454E+03  0.35561115116E+04  0.34853814465E+04 0.  0.
        4    1    3    3  502    0 -0.55294779443E+03 -0.16446044998E+04 -0.18678831150E+03  0.17450979085E+04  0.12699999809E+01 0.  1.
       -4    1    3    3    0  502  0.55294779443E+03  0.16446044998E+04 -0.51893490304E+03  0.18110136031E+04  0.12699999809E+01 0. -1.
</event>
<event>
 5   0  0.1908190E-07  0.3493866E+04  0.7818609E-02  0.8115245E-01
       -1   -1    0    0    0  501  0.00000000000E+00  0.00000000000E+00  0.13268661140E+04  0.13268661141E+04  0.50400001928E-02 0. -1.
        1   -1    0    0  501    0  0.00000000000E+00  0.00000000000E+00 -0.22999875573E+04  0.22999875573E+04  0.50400001928E-02 0.  1.
    10030    2    1    2    0    0  0.00000000000E+00  0.00000000000E+00 -0.97312144325E+03  0.36268536714E+04  0.34938663698E+04 0.  0.
        5    1    3    3  502    0  0.71885373512E+03 -0.60889809255E+03  0.10405729166E+04  0.14036814683E+04  0.46999998093E+01 0. -1.
       -5    1    3    3    0  502 -0.71885373512E+03  0.60889809255E+03 -0.20136943599E+04  0.22231722031E+04  0.46999998093E+01 0.  1.
</event>
<event>
 5   0  0.5554745E-07  0.3510089E+04  0.7818609E-02  0.8111403E-01
       -2   -1    0    0    0  501  0.00000000000E+00  0.00000000000E+00  0.12483484246E+04  0.12483484246E+04  0.25500000920E-02 0. -1.
        2   -1    0    0  501    0  0.00000000000E+00  0.00000000000E+00 -0.24674047178E+04  0.24674047178E+04  0.25500000920E-02 0.  1.
    10030    2    1    2    0    0  0.00000000000E+00  0.00000000000E+00 -0.12190562932E+04  0.37157531424E+04  0.35100887695E+04 0.  0.
        5    1    3    3  502    0 -0.44534441888E+03  0.14741109644E+04  0.28171855371E+03  0.15654782721E+04  0.46999998093E+01 0. -1.
       -5    1    3    3    0  502  0.44534441888E+03 -0.14741109644E+04 -0.15007748469E+04  0.21502748703E+04  0.46999998093E+01 0.  1.
</event>
<event>
 5   0  0.1908190E-07  0.3457154E+04  0.7818609E-02  0.8124020E-01
        1   -1    0    0  501    0  0.00000000000E+00  0.00000000000E+00  0.26792995370E+04  0.26792995370E+04  0.50400001928E-02 0.  1.
       -1   -1    0    0    0  501  0.00000000000E+00  0.00000000000E+00 -0.11152088433E+04  0.11152088433E+04  0.50400001928E-02 0. -1.
    10030    2    1    2    0    0  0.00000000000E+00  0.00000000000E+00  0.15640906937E+04  0.37945083803E+04  0.34571540536E+04 0.  0.
        5    1    3    3  502    0 -0.92957830262E+03 -0.60784856462E+03 -0.67172643542E+03  0.12980116302E+04  0.46999998093E+01 0. -1.
       -5    1    3    3    0  502  0.92957830262E+03  0.60784856462E+03  0.22358171291E+04  0.24964967500E+04  0.46999998093E+01 0.  1.
</event>
<event>
 5   0  0.1897049E-07  0.3451715E+04  0.7818609E-02  0.8125329E-01
       -1   -1    0    0    0  501  0.00000000000E+00  0.00000000000E+00  0.19644968227E+04  0.19644968227E+04  0.50400001928E-02 0.  1.
        1   -1    0    0  501    0  0.00000000000E+00  0.00000000000E+00 -0.15162068883E+04  0.15162068883E+04  0.50400001928E-02 0. -1.
    10030    2    1    2    0    0  0.00000000000E+00  0.00000000000E+00  0.44828993444E+03  0.34807037110E+04  0.34517147128E+04 0.  0.
        2    1    3    3  502    0 -0.43938527550E+03  0.11649128370E+03 -0.14547563510E+04  0.15241212813E+04  0.25500000920E-02 0. -1.
       -2    1    3    3    0  502  0.43938527550E+03 -0.11649128370E+03  0.19030462854E+04  0.19565824296E+04  0.25500000920E-02 0.  1.
</event>
<event>
 5   0  0.5707187E-07  0.3596802E+04  0.7818609E-02  0.8091225E-01
       -2   -1    0    0    0  501  0.00000000000E+00  0.00000000000E+00  0.15369852011E+04  0.15369852011E+04  0.25500000920E-02 0. -1.
        2   -1    0    0  501    0  0.00000000000E+00  0.00000000000E+00 -0.21042796607E+04  0.21042796607E+04  0.25500000920E-02 0.  1.
    10030    2    1    2    0    0  0.00000000000E+00  0.00000000000E+00 -0.56729445967E+03  0.36412648618E+04  0.35968023006E+04 0.  0.
        1    1    3    3  502    0  0.14482945883E+04  0.88232852261E+03  0.32223738164E+03  0.17262380388E+04  0.50400001928E-02 0. -1.
       -1    1    3    3    0  502 -0.14482945883E+04 -0.88232852261E+03 -0.88953184130E+03  0.19150268230E+04  0.50400001928E-02 0.  1.
</event>
<event>
 5   0  0.1933647E-07  0.3505835E+04  0.7818609E-02  0.8112408E-01
        1   -1    0    0  501    0  0.00000000000E+00  0.00000000000E+00  0.21623346416E+04  0.21623346416E+04  0.50400001928E-02 0.  1.
       -1   -1    0    0    0  501  0.00000000000E+00  0.00000000000E+00 -0.14210199292E+04  0.14210199292E+04  0.50400001928E-02 0. -1.
    10030    2    1    2    0    0  0.00000000000E+00  0.00000000000E+00  0.74131471237E+03  0.35833545708E+04  0.35058354892E+04 0.  0.
        4    1    3    3  502    0 -0.45571507536E+03  0.16445687805E+04 -0.38744279101E+02  0.17069813812E+04  0.12699999809E+01 0.  1.
       -4    1    3    3    0  502  0.45571507536E+03 -0.16445687805E+04  0.78005899147E+03  0.18763731896E+04  0.12699999809E+01 0. -1.
</event>
<event>
 5   0  0.5707187E-07  0.3544580E+04  0.7818609E-02  0.8103306E-01
       -2   -1    0    0    0  501  0.00000000000E+00  0.00000000000E+00  0.22035166331E+04  0.22035166331E+04  0.25500000920E-02 0.  1.
        2   -1    0    0  501    0  0.00000000000E+00  0.00000000000E+00 -0.14254542008E+04  0.14254542008E+04  0.25500000920E-02 0. -1.
    10030    2    1    2    0    0  0.00000000000E+00  0.00000000000E+00  0.77806243232E+03  0.36289708338E+04  0.35445801111E+04 0.  0.
        1    1    3    3  502    0  0.16917459058E+04  0.98738244711E+02  0.92028674817E+03  0.19283882258E+04  0.50400001928E-02 0.  1.
       -1    1    3    3    0  502 -0.16917459058E+04 -0.98738244711E+02 -0.14222431585E+03  0.17005826080E+04  0.50400001928E-02 0. -1.
</event>
<event>
 5   0  0.5707187E-07  0.3502166E+04  0.7818609E-02  0.8113277E-01
        2   -1    0    0  501    0  0.00000000000E+00  0.00000000000E+00  0.16519237981E+04  0.16519237981E+04  0.25500000920E-02 0. -1.
       -2   -1    0    0    0  501  0.00000000000E+00  0.00000000000E+00 -0.18561939379E+04  0.18561939379E+04  0.25500000920E-02 0.  1.
    10030    2    1    2    0    0  0.00000000000E+00  0.00000000000E+00 -0.20427013990E+03  0.35081177360E+04  0.35021655814E+04 0.  0.
        1    1    3    3  502    0 -0.15723632532E+04  0.72631100907E+03 -0.36032701015E+03  0.17690928286E+04  0.50400001928E-02 0.  1.
       -1    1    3    3    0  502  0.15723632532E+04 -0.72631100907E+03  0.15605687025E+03  0.17390249074E+04  0.50400001928E-02 0. -1.
</event>
<event>
 5   0  0.1933647E-07  0.3496013E+04  0.7818609E-02  0.8114736E-01
       -1   -1    0    0    0  501  0.00000000000E+00  0.00000000000E+00  0.16671080621E+04  0.16671080621E+04  0.50400001928E-02 0. -1.
        1   -1    0    0  501    0  0.00000000000E+00  0.00000000000E+00 -0.18328303700E+04  0.18328303700E+04  0.50400001928E-02 0.  1.
    10030    2    1    2    0    0  0.00000000000E+00  0.00000000000E+00 -0.16572230794E+03  0.34999384321E+04  0.34960127496E+04 0.  0.
        4    1    3    3  502    0 -0.95507133294E+03 -0.18122416802E+03  0.13715334641E+04  0.16811035382E+04  0.12699999809E+01 0. -1.
       -4    1    3    3    0  502  0.95507133294E+03  0.18122416802E+03 -0.15372557720E+04  0.18188348940E+04  0.12699999809E+01 0.  1.
</event>
<event>
 5   0  0.1908190E-07  0.3473318E+04  0.7818609E-02  0.8120142E-01
       -1   -1    0    0    0  501  0.00000000000E+00  0.00000000000E+00  0.24229881096E+04  0.24229881096E+04  0.50400001928E-02 0.  1.
        1   -1    0    0  501    0  0.00000000000E+00  0.00000000000E+00 -0.12447377749E+04  0.12447377749E+04  0.50400001928E-02 0. -1.
    10030    2    1    2    0    0  0.00000000000E+00  0.00000000000E+00  0.11782503347E+04  0.36677258845E+04  0.34733181991E+04 0.  0.
        5    1    3    3  502    0 -0.37686115938E+03 -0.75670457988E+03 -0.10128005330E+04  0.13192471961E+04  0.46999998093E+01 0. -1.
       -5    1    3    3    0  502  0.37686115938E+03  0.75670457988E+03  0.21910508678E+04  0.23484786884E+04  0.46999998093E+01 0.  1.
</event>
<event>
 5   0  0.5573334E-07  0.3468597E+04  0.7818609E-02  0.8121273E-01
        2   -1    0    0  501    0  0.00000000000E+00  0.00000000000E+00  0.15782015831E+04  0.15782015831E+04  0.25500000920E-02 0.  1.
       -2   -1    0    0    0  501  0.00000000000E+00  0.00000000000E+00 -0.19058343834E+04  0.19058343834E+04  0.25500000920E-02 0. -1.
    10030    2    1    2    0    0  0.00000000000E+00  0.00000000000E+00 -0.32763280029E+03  0.34840359665E+04  0.34685967428E+04 0.  0.
        4    1    3    3  502    0 -0.73816926459E+03 -0.15593381972E+04  0.14058686517E+02  0.17252909135E+04  0.12699999809E+01 0. -1.
       -4    1    3    3    0  502  0.73816926459E+03  0.15593381972E+04 -0.34169148681E+03  0.17587450530E+04  0.12699999809E+01 0.  1.
</event>
<event>
 5   0  0.1933647E-07  0.3494100E+04  0.7818609E-02  0.8115190E-01
        1   -1    0    0  501    0  0.00000000000E+00  0.00000000000E+00  0.11609154785E+04  0.11609154785E+04  0.50400001928E-02 0. -1.
       -1   -1    0    0    0  501  0.00000000000E+00  0.00000000000E+00 -0.26291172982E+04  0.26291172982E+04  0.50400001928E-02 0.  1.
    10030    2    1    2    0    0  0.00000000000E+00  0.00000000000E+00 -0.14682018197E+04  0.37900327767E+04  0.34940995786E+04 0.  0.
        4    1    3    3  502    0  0.14215530712E+03  0.17396700146E+04 -0.81470085579E+03  0.19262395978E+04  0.12699999809E+01 0. -1.
       -4    1    3    3    0  502 -0.14215530712E+03 -0.17396700146E+04 -0.65350096394E+03  0.18637931789E+04  0.12699999809E+01 0.  1.
</event>
<event>
 5   0  0.1866421E-07  0.3086469E+04  0.7818609E-02  0.8219461E-01
        1   -1    0    0  501    0  0.00000000000E+00  0.00000000000E+00  0.18112174918E+04  0.18112174918E+04  0.50400001928E-02 0.  1.
       -1   -1    0    0    0  501  0.00000000000E+00  0.00000000000E+00 -0.13149012232E+04  0.13149012232E+04  0.50400001928E-02 0. -1.
    10030    2    1    2    0    0  0.00000000000E+00  0.00000000000E+00  0.49631626857E+03  0.31261187150E+04  0.30864685940E+04 0.  0.
        1    1    3    3  502    0 -0.29310218091E+03  0.57381325911E+03 -0.11721406268E+04  0.13375665194E+04  0.50400001928E-02 0. -1.
       -1    1    3    3    0  502  0.29310218091E+03 -0.57381325911E+03  0.16684568953E+04  0.17885521956E+04  0.50400001928E-02 0.  1.
</event>
<event>
 5   0  0.1908190E-07  0.3479239E+04  0.7818609E-02  0.8118728E-01
       -1   -1    0    0    0  501  0.00000000000E+00  0.00000000000E+00  0.12290387950E+04  0.12290387950E+04  0.50400001928E-02 0.  1.
        1   -1    0    0  501    0  0.00000000000E+00  0.00000000000E+00 -0.24623107098E+04  0.24623107098E+04  0.50400001928E-02 0. -1.
    10030    2    1    2    0    0  0.00000000000E+00  0.00000000000E+00 -0.12332719148E+04  0.36913495048E+04  0.34792386453E+04 0.  0.
        5    1    3    3  502    0 -0.33328876636E+03 -0.67384745296E+02  0.11934305734E+04  0.12409354251E+04  0.46999998093E+01 0.  1.
       -5    1    3    3    0  502  0.33328876636E+03  0.67384745296E+02 -0.24267024883E+04  0.24504140797E+04  0.46999998093E+01 0. -1.
</event>
<event>
 5   0  0.5573334E-07  0.3502302E+04  0.7818609E-02  0.8113245E-01
       -2   -1    0    0    0  501  0.00000000000E+00  0.00000000000E+00  0.10531809229E+04  0.10531809229E+04  0.25500000920E-02 0. -1.
        2   -1    0    0  501    0  0.00000000000E+00  0.00000000000E+00 -0.29116833250E+04  0.29116833250E+04  0.25500000920E-02 0.  1.
    10030    2    1    2    0    0  0.00000000000E+00  0.00000000000E+00 -0.18585024021E+04  0.39648642479E+04  0.35023017182E+04 0.  0.
        4    1    3    3  502    0 -0.15001346699E+04  0.32709973927E+03 -0.18825686153E+04  0.24292929983E+04  0.12699999809E+01 0.  1.
       -4    1    3    3    0  502  0.15001346699E+04 -0.32709973927E+03  0.24066213187E+02  0.15355712496E+04  0.12699999809E+01 0. -1.
</event>
<event>
 5   0  0.5740827E-07  0.3521813E+04  0.7818609E-02  0.8108640E-01
        2   -1    0    0  501    0  0.00000000000E+00  0.00000000000E+00  0.17906170422E+04  0.17906170422E+04  0.25500000920E-02 0.  1.
       -2   -1    0    0    0  501  0.00000000000E+00  0.00000000000E+00 -0.17316885885E+04  0.17316885885E+04  0.25500000920E-02 0. -1.
    10030    2    1    2    0    0  0.00000000000E+00  0.00000000000E+00  0.58928453717E+02  0.35223056307E+04  0.35218126574E+04 0.  0.
        2    1    3    3  502    0 -0.13039211574E+04 -0.10780166200E+04  0.51785714595E+03  0.17693236678E+04  0.25500000920E-02 0.  1.
       -2    1    3    3    0  502  0.13039211574E+04  0.10780166200E+04 -0.45892869223E+03  0.17529819629E+04  0.25500000920E-02 0. -1.
</event>
<event>
 5   0  0.1908190E-07  0.3505224E+04  0.7818609E-02  0.8112553E-01
        1   -1    0    0  501    0  0.00000000000E+00  0.00000000000E+00  0.19840586158E+04  0.19840586158E+04  0.50400001928E-02 0. -1.
       -1   -1    0    0    0  501  0.00000000000E+00  0.00000000000E+00 -0.15481641304E+04  0.15481641304E+04  0.50400001928E-02 0.  1.
    10030    2    1    2    0    0  0.00000000000E+00  0.00000000000E+00  0.43589448535E+03  0.35322227462E+04  0.35052237484E+04 0.  0.
        5    1    3    3  502    0 -0.53764822842E+03  0.18675967444E+03  0.18883282071E+04  0.19722449901E+04  0.46999998093E+01 0. -1.
       -5    1    3    3    0  502  0.53764822842E+03 -0.18675967444E+03 -0.14524337217E+04  0.15599777561E+04  0.46999998093E+01 0.  1.
</event>
<event>
 5   0  0.1866421E-07  0.3498862E+04  0.7818609E-02  0.8114060E-01
       -1   -1    0    0    0  501  0.00000000000E+00  0.00000000000E+00  0.11851081990E+04  0.11851081990E+04  0.50400001928E-02 0.  1.
        1   -1    0    0  501    0  0.00000000000E+00  0.00000000000E+00 -0.25824715551E+04  0.25824715551E+04  0.50400001928E-02 0. -1.
    10030    2    1    2    0    0  0.00000000000E+00  0.00000000000E+00 -0.13973633561E+04  0.37675797541E+04  0.34988616512E+04 0.  0.
        1    1    3    3  502    0  0.66228687506E+03 -0.93567221416E+03  0.72432772973E+03  0.13560077645E+04  0.50400001928E-02 0.  1.
       -1    1    3    3    0  502 -0.66228687506E+03  0.93567221416E+03 -0.21216910859E+04  0.24115719896E+04  0.50400001928E-02 0. -1.
</event>
<event>
 5   0  0.5677193E-07  0.3473366E+04  0.7818609E-02  0.8120131E-01
       -2   -1    0    0    0  501  0.00000000000E+00  0.00000000000E+00  0.13407466432E+04  0.13407466432E+04  0.25500000920E-02 0.  1.
        2   -1    0    0  501    0  0.00000000000E+00  0.00000000000E+00 -0.22495429743E+04  0.22495429743E+04  0.25500000920E-02 0. -1.
    10030    2    1    2    0    0  0.00000000000E+00  0.00000000000E+00 -0.90879633109E+03  0.35902896175E+04  0.34733656252E+04 0.  0.
        3    1    3    3  502    0  0.11599937374E+03 -0.89976203865E+03 -0.19851409405E+04  0.21826158949E+04  0.10100000352E+00 0. -1.
       -3    1    3    3    0  502 -0.11599937374E+03  0.89976203865E+03  0.10763446094E+04  0.14076737226E+04  0.10100000352E+00 0.  1.
</event>
<event>
 5   0  0.5573334E-07  0.3501144E+04  0.7818609E-02  0.8113519E-01
       -2   -1    0    0    0  501  0.00000000000E+00  0.00000000000E+00  0.11973218797E+04  0.11973218797E+04  0.25500000920E-02 0. -1.
        2   -1    0    0  501    0  0.00000000000E+00  0.00000000000E+00 -0.25594636093E+04  0.25594636093E+04  0.25500000920E-02 0.  1.
    10030    2    1    2    0    0  0.00000000000E+00  0.00000000000E+00 -0.13621417296E+04  0.37567854890E+04  0.35011436873E+04 0.  0.
        4    1    3    3  502    0 -0.71423487011E+03  0.66203676517E+03  0.87981841489E+03  0.13124428308E+04  0.12699999809E+01 0. -1.
       -4    1    3    3    0  502  0.71423487011E+03 -0.66203676517E+03 -0.22419601445E+04  0.24443426582E+04  0.12699999809E+01 0.  1.
</event>
<event>
 5   0  0.5573334E-07  0.3491724E+04  0.7818609E-02  0.8115754E-01
        2   -1    0    0  501    0  0.00000000000E+00  0.00000000000E+00  0.20629870650E+04  0.20629870650E+04  0.25500000920E-02 0. -1.
       -2   -1    0    0    0  501  0.00000000000E+00  0.00000000000E+00 -0.14774857433E+04  0.14774857433E+04  0.25500000920E-02 0.  1.
    10030    2    1    2    0    0  0.00000000000E+00  0.00000000000E+00  0.58550132176E+03  0.35404728083E+04  0.34917239164E+04 0.  0.
        4    1    3    3  502    0  0.63043496624E+03 -0.20797391415E+02  0.19434072261E+04  0.20432116967E+04  0.12699999809E+01 0. -1.
       -4    1    3    3    0  502 -0.63043496624E+03  0.20797391415E+02 -0.13579059044E+04  0.14972611116E+04  0.12699999809E+01 0.  1.
</event>
<event>
 5   0  0.1873457E-07  0.3505286E+04  0.7818609E-02  0.8112538E-01
        1   -1    0    0  501    0  0.00000000000E+00  0.00000000000E+00  0.18286232216E+04  0.18286232216E+04  0.50400001928E-02 0.  1.
       -1   -1    0    0    0  501  0.00000000000E+00  0.00000000000E+00 -0.16798195665E+04  0.16798195665E+04  0.50400001928E-02 0. -1.
    10030    2    1    2    0    0  0.00000000000E+00  0.00000000000E+00  0.14880365508E+03  0.35084427882E+04  0.35052857615E+04 0.  0.
        3    1    3    3  502    0  0.94437832351E+03 -0.14574890597E+04 -0.16167556561E+03  0.17442086388E+04  0.10100000352E+00 0.  1.
       -3    1    3    3    0  502 -0.94437832351E+03  0.14574890597E+04  0.31047922069E+03  0.17642341493E+04  0.10100000352E+00 0. -1.
</event>
<event>
 5   0  0.1908190E-07  0.3605233E+04  0.7818609E-02  0.8089294E-01
       -1   -1    0    0    0  501  0.00000000000E+00  0.00000000000E+00  0.18204111640E+04  0.18204111640E+04  0.50400001928E-02 0.  1.
        1   -1    0    0  501    0  0.00000000000E+00  0.00000000000E+00 -0.17849960874E+04  0.17849960874E+04  0.50400001928E-02 0. -1.
    10030    2    1    2    0    0  0.00000000000E+00  0.00000000000E+00  0.35415076528E+02  0.36054072514E+04  0.36052333102E+04 0.  0.
        5    1    3    3  502    0 -0.16176117488E+04 -0.77447923959E+03 -0.16373674844E+03  0.18009213407E+04  0.46999998093E+01 0.  1.
       -5    1    3    3    0  502  0.16176117488E+04  0.77447923959E+03  0.19915182497E+03  0.18044859107E+04  0.46999998093E+01 0. -1.
</event>
<event>
 5   0  0.1873457E-07  0.3182471E+04  0.7818609E-02  0.8193462E-01
        1   -1    0    0  501    0  0.00000000000E+00  0.00000000000E+00  0.13698210318E+04  0.13698210318E+04  0.50400001928E-02 0.  1.
       -1   -1    0    0    0  501  0.00000000000E+00  0.00000000000E+00 -0.18484382860E+04  0.18484382860E+04  0.50400001928E-02 0. -1.
    10030    2    1    2    0    0  0.00000000000E+00  0.00000000000E+00 -0.47861725422E+03  0.32182593178E+04  0.31824705121E+04 0.  0.
        3    1    3    3  502    0  0.60755428104E+03  0.85858071372E+03  0.96816545289E+03  0.14295549660E+04  0.10100000352E+00 0.  1.
       -3    1    3    3    0  502 -0.60755428104E+03 -0.85858071372E+03 -0.14467827071E+04  0.17887043518E+04  0.10100000352E+00 0. -1.
</event>
<event>
 5   0  0.1897049E-07  0.3464851E+04  0.7818609E-02  0.8122171E-01
       -1   -1    0    0    0  501  0.00000000000E+00  0.00000000000E+00  0.13868795852E+04  0.13868795852E+04  0.50400001928E-02 0. -1.
        1   -1    0    0  501    0  0.00000000000E+00  0.00000000000E+00 -0.21640649109E+04  0.21640649109E+04  0.50400001928E-02 0.  1.
    10030    2    1    2    0    0  0.00000000000E+00  0.00000000000E+00 -0.77718532578E+03  0.35509444961E+04  0.34648506149E+04 0.  0.
        2    1    3    3  502    0  0.13615119788E+04  0.15778089347E+03 -0.14744902405E+04  0.20131396246E+04  0.25500000920E-02 0.  1.
       -2    1    3    3    0  502 -0.13615119788E+04 -0.15778089347E+03  0.69730491475E+03  0.15378048715E+04  0.25500000920E-02 0. -1.
</event>
<event>
 5   0  0.5677193E-07  0.3488282E+04  0.7818609E-02  0.8116573E-01
       -2   -1    0    0    0  501  0.00000000000E+00  0.00000000000E+00  0.18151523886E+04  0.18151523886E+04  0.25500000920E-02 0. -1.
        2   -1    0    0  501    0  0.00000000000E+00  0.00000000000E+00 -0.16759073904E+04  0.16759073904E+04  0.25500000920E-02 0.  1.
    10030    2    1    2    0    0  0.00000000000E+00  0.00000000000E+00  0.13924499824E+03  0.34910597790E+04  0.34882816990E+04 0.  0.
        3    1    3    3  502    0  0.10253055161E+04  0.13797198995E+04  0.36506751389E+03  0.17573140591E+04  0.10100000352E+00 0.  1.
       -3    1    3    3    0  502 -0.10253055161E+04 -0.13797198995E+04 -0.22582251564E+03  0.17337457199E+04  0.10100000352E+00 0. -1.
</event>
<event>
 5   0  0.5677193E-07  0.3405219E+04  0.7818609E-02  0.8136627E-01
        2   -1    0    0  501    0  0.00000000000E+00  0.00000000000E+00  0.18874454582E+04  0.18874454582E+04  0.25500000920E-02 0.  1.
       -2   -1    0    0    0  501  0.00000000000E+00  0.00000000000E+00 -0.15358745570E+04  0.15358745570E+04  0.25500000920E-02 0. -1.
    10030    2    1    2    0    0  0.00000000000E+00  0.00000000000E+00  0.35157090119E+03  0.34233200153E+04  0.34052192042E+04 0.  0.
        3    1    3    3  502    0  0.12662231878E+04  0.78919871809E+02  0.13173079059E+04  0.18288930085E+04  0.10100000352E+00 0.  1.
       -3    1    3    3    0  502 -0.12662231878E+04 -0.78919871809E+02 -0.96573700467E+03  0.15944270068E+04  0.10100000352E+00 0. -1.
</event>
<event>
 5   0  0.1873457E-07  0.3532123E+04  0.7818609E-02  0.8106219E-01
       -1   -1    0    0    0  501  0.00000000000E+00  0.00000000000E+00  0.19285076422E+04  0.19285076422E+04  0.50400001928E-02 0.  1.
        1   -1    0    0  501    0  0.00000000000E+00  0.00000000000E+00 -0.16172985273E+04  0.16172985273E+04  0.50400001928E-02 0. -1.
    10030    2    1    2    0    0  0.00000000000E+00  0.00000000000E+00  0.31120911488E+03  0.35458061695E+04  0.35321226307E+04 0.  0.
        3    1    3    3  502    0  0.13861657648E+04 -0.85536550931E+03 -0.52958405231E+03  0.17127652965E+04  0.10100000352E+00 0. -1.
       -3    1    3    3    0  502 -0.13861657648E+04  0.85536550931E+03  0.84079316720E+03  0.18330408731E+04  0.10100000352E+00 0.  1.
</event>
<event>
 5   0  0.5740827E-07  0.3493901E+04  0.7818609E-02  0.8115237E-01
       -2   -1    0    0    0  501  0.00000000000E+00  0.00000000000E+00  0.20210871011E+04  0.20210871011E+04  0.25500000920E-02 0.  1.
        2   -1    0    0  501    0  0.00000000000E+00  0.00000000000E+00 -0.15099973553E+04  0.15099973553E+04  0.25500000920E-02 0. -1.
    10030    2    1    2    0    0  0.00000000000E+00  0.00000000000E+00  0.51108974584E+03  0.35310844564E+04  0.34939010733E+04 0.  0.
        2    1    3    3  502    0  0.35855013737E+03  0.13040757430E+04  0.13730541584E+04  0.19272907063E+04  0.25500000920E-02 0.  1.
       -2    1    3    3    0  502 -0.35855013737E+03 -0.13040757430E+04 -0.86196441260E+03  0.16037937501E+04  0.25500000920E-02 0. -1.
</event>
<event>
 5   0  0.5707187E-07  0.3472795E+04  0.7818609E-02  0.8120268E-01
        2   -1    0    0  501    0  0.00000000000E+00  0.00000000000E+00  0.18127472977E+04  0.18127472977E+04  0.25500000920E-02 0.  1.
       -2   -1    0    0    0  501  0.00000000000E+00  0.00000000000E+00 -0.16632635127E+04  0.16632635127E+04  0.25500000920E-02 0. -1.
    10030    2    1    2    0    0  0.00000000000E+00  0.00000000000E+00  0.14948378494E+03  0.34760108104E+04  0.34727950921E+04 0.  0.
        1    1    3    3  502    0 -0.18111650583E+03  0.13206324657E+03 -0.16487214250E+04  0.16638888866E+04  0.50400001928E-02 0. -1.
       -1    1    3    3    0  502  0.18111650583E+03 -0.13206324657E+03  0.17982052099E+04  0.18121219238E+04  0.50400001928E-02 0.  1.
</event>
<event>
 5   0  0.5573334E-07  0.3507581E+04  0.7818609E-02  0.8111996E-01
       -2   -1    0    0    0  501  0.00000000000E+00  0.00000000000E+00  0.16254906250E+04  0.16254906250E+04  0.25500000920E-02 0. -1.
        2   -1    0    0  501    0  0.00000000000E+00  0.00000000000E+00 -0.18922173689E+04  0.18922173689E+04  0.25500000920E-02 0.  1.
    10030    2    1    2    0    0  0.00000000000E+00  0.00000000000E+00 -0.26672674389E+03  0.35177079940E+04  0.35075812713E+04 0.  0.
        4    1    3    3  502    0  0.88263835778E+03 -0.60455490055E+02  0.13852986738E+04  0.16437029432E+04  0.12699999809E+01 0. -1.
       -4    1    3    3    0  502 -0.88263835778E+03  0.60455490055E+02 -0.16520254177E+04  0.18740050508E+04  0.12699999809E+01 0.  1.
</event>
<event>
 5   0  0.1908190E-07  0.3463283E+04  0.7818609E-02  0.8122547E-01
       -1   -1    0    0    0  501  0.00000000000E+00  0.00000000000E+00  0.13726429798E+04  0.13726429799E+04  0.50400001928E-02 0. -1.
        1   -1    0    0  501    0  0.00000000000E+00  0.00000000000E+00 -0.21845318775E+04  0.21845318775E+04  0.50400001928E-02 0.  1.
    10030    2    1    2    0    0  0.00000000000E+00  0.00000000000E+00 -0.81188889761E+03  0.35571748573E+04  0.34632830354E+04 0.  0.
        5    1    3    3  502    0  0.62209366195E+03  0.34273883010E+03  0.12161393022E+04  0.14083633488E+04  0.46999998093E+01 0. -1.
       -5    1    3    3    0  502 -0.62209366195E+03 -0.34273883010E+03 -0.20280281998E+04  0.21488115085E+04  0.46999998093E+01 0.  1.
</event>
<event>
 5   0  0.5707187E-07  0.3565213E+04  0.7818609E-02  0.8098507E-01
       -2   -1    0    0    0  501  0.00000000000E+00  0.00000000000E+00  0.15965082008E+04  0.15965082008E+04  0.25500000920E-02 0.  1.
        2   -1    0    0  501    0  0.00000000000E+00  0.00000000000E+00 -0.19903970270E+04  0.19903970270E+04  0.25500000920E-02 0. -1.
    10030    2    1    2    0    0  0.00000000000E+00  0.00000000000E+00 -0.39388882619E+03  0.35869052277E+04  0.35652125751E+04 0.  0.
        1    1    3    3  502    0  0.23087854836E+03  0.59870245625E+03  0.14762850668E+04  0.16097102639E+04  0.50400001928E-02 0.  1.
       -1    1    3    3    0  502 -0.23087854836E+03 -0.59870245625E+03 -0.18701738930E+04  0.19771949639E+04  0.50400001928E-02 0. -1.
</event>
<event>
 5   0  0.5677193E-07  0.3473788E+04  0.7818609E-02  0.8120030E-01
       -2   -1    0    0    0  501  0.00000000000E+00  0.00000000000E+00  0.17181999479E+04  0.17181999479E+04  0.25500000920E-02 0. -1.
        2   -1    0    0  501    0  0.00000000000E+00  0.00000000000E+00 -0.17557911373E+04  0.17557911373E+04  0.25500000920E-02 0.  1.
    10030    2    1    2    0    0  0.00000000000E+00  0.00000000000E+00 -0.37591189475E+02  0.34739910852E+04  0.34737876968E+04 0.  0.
        3    1    3    3  502    0  0.13848017128E+04 -0.99049216862E+03 -0.36239934106E+03  0.17407135929E+04  0.10100000352E+00 0.  1.
       -3    1    3    3    0  502 -0.13848017128E+04  0.99049216862E+03  0.32480815158E+03  0.17332774923E+04  0.10100000352E+00 0. -1.
</event>
<event>
 5   0  0.1933647E-07  0.3511428E+04  0.7818609E-02  0.8111087E-01
        1   -1    0    0  501    0  0.00000000000E+00  0.00000000000E+00  0.18927605836E+04  0.18927605836E+04  0.50400001928E-02 0. -1.
       -1   -1    0    0    0  501  0.00000000000E+00  0.00000000000E+00 -0.16285907716E+04  0.16285907716E+04  0.50400001928E-02 0.  1.
    10030    2    1    2    0    0  0.00000000000E+00  0.00000000000E+00  0.26416981201E+03  0.35213513551E+04  0.35114284382E+04 0.  0.
        4    1    3    3  502    0  0.10742854319E+04 -0.96862403138E+03 -0.86581962747E+03  0.16858134368E+04  0.12699999809E+01 0.  1.
       -4    1    3    3    0  502 -0.10742854319E+04  0.96862403138E+03  0.11299894395E+04  0.18355379183E+04  0.12699999809E+01 0. -1.
</event>
<event>
 5   0  0.5554745E-07  0.3497413E+04  0.7818609E-02  0.8114403E-01
       -2   -1    0    0    0  501  0.00000000000E+00  0.00000000000E+00  0.13209095793E+04  0.13209095793E+04  0.25500000920E-02 0. -1.
        2   -1    0    0  501    0  0.00000000000E+00  0.00000000000E+00 -0.23150523332E+04  0.23150523332E+04  0.25500000920E-02 0.  1.
    10030    2    1    2    0    0  0.00000000000E+00  0.00000000000E+00 -0.99414275394E+03  0.36359619125E+04  0.34974132175E+04 0.  0.
        5    1    3    3  502    0  0.32198554009E+03 -0.49974945067E+03  0.12126217286E+04  0.13505175853E+04  0.46999998093E+01 0. -1.
       -5    1    3    3    0  502 -0.32198554009E+03  0.49974945067E+03 -0.22067644825E+04  0.22854443272E+04  0.46999998093E+01 0.  1.
</event>
<event>
 5   0  0.5740827E-07  0.3487676E+04  0.7818609E-02  0.8116717E-01
       -2   -1    0    0    0  501  0.00000000000E+00  0.00000000000E+00  0.18889323831E+04  0.18889323831E+04  0.25500000920E-02 0. -1.
        2   -1    0    0  501    0  0.00000000000E+00  0.00000000000E+00 -0.16098888785E+04  0.16098888786E+04  0.25500000920E-02 0.  1.
    10030    2    1    2    0    0  0.00000000000E+00  0.00000000000E+00  0.27904350451E+03  0.34988212616E+04  0.34876761523E+04 0.  0.
        2    1    3    3  502    0 -0.55328688078E+03  0.11349478606E+04  0.13461697100E+04  0.18456451194E+04  0.25500000920E-02 0. -1.
       -2    1    3    3    0  502  0.55328688078E+03 -0.11349478606E+04 -0.10671262055E+04  0.16531761422E+04  0.25500000920E-02 0.  1.
</event>
<event>
 5   0  0.5740827E-07  0.3493388E+04  0.7818609E-02  0.8115359E-01
       -2   -1    0    0    0  501  0.00000000000E+00  0.00000000000E+00  0.33553925288E+04  0.33553925288E+04  0.25500000920E-02 0. -1.
        2   -1    0    0  501    0  0.00000000000E+00  0.00000000000E+00 -0.90926443834E+03  0.90926443834E+03  0.25500000920E-02 0.  1.
    10030    2    1    2    0    0  0.00000000000E+00  0.00000000000E+00  0.24461280905E+04  0.42646569672E+04  0.34933875268E+04 0.  0.
        2    1    3    3  502    0 -0.13542389248E+04 -0.21291839234E+02  0.25695364165E+04  0.29046400471E+04  0.25500000920E-02 0.  1.
       -2    1    3    3    0  502  0.13542389248E+04  0.21291839234E+02 -0.12340832597E+03  0.13600169200E+04  0.25500000920E-02 0. -1.
</event>
<event>
 5   0  0.1873457E-07  0.3491292E+04  0.7818609E-02  0.8115857E-01
       -1   -1    0    0    0  501  0.00000000000E+00  0.00000000000E+00  0.17864411298E+04  0.17864411298E+04  0.50400001928E-02 0. -1.
        1   -1    0    0  501    0  0.00000000000E+00  0.00000000000E+00 -0.17057823019E+04  0.17057823019E+04  0.50400001928E-02 0.  1.
    10030    2    1    2    0    0  0.00000000000E+00  0.00000000000E+00  0.80658827820E+02  0.34922234317E+04  0.34912918312E+04 0.  0.
        3    1    3    3  502    0 -0.76532040888E+03  0.35579290621E+03 -0.14881410657E+04  0.17108090957E+04  0.10100000352E+00 0.  1.
       -3    1    3    3    0  502  0.76532040888E+03 -0.35579290621E+03  0.15687998935E+04  0.17814143360E+04  0.10100000352E+00 0. -1.
</event>
<event>
 5   0  0.1897049E-07  0.3525684E+04  0.7818609E-02  0.8107730E-01
        1   -1    0    0  501    0  0.00000000000E+00  0.00000000000E+00  0.19445426922E+04  0.19445426922E+04  0.50400001928E-02 0.  1.
       -1   -1    0    0    0  501  0.00000000000E+00  0.00000000000E+00 -0.15981198142E+04  0.15981198142E+04  0.50400001928E-02 0. -1.
    10030    2    1    2    0    0  0.00000000000E+00  0.00000000000E+00  0.34642287799E+03  0.35426625064E+04  0.35256841639E+04 0.  0.
        2    1    3    3  502    0 -0.48183805240E+03  0.12226984986E+04  0.13537961046E+04  0.18867759327E+04  0.25500000920E-02 0.  1.
       -2    1    3    3    0  502  0.48183805240E+03 -0.12226984986E+04 -0.10073732266E+04  0.16558865737E+04  0.25500000920E-02 0. -1.
</event>
<event>
 5   0  0.5707187E-07  0.3535172E+04  0.7818609E-02  0.8105505E-01
        2   -1    0    0  501    0  0.00000000000E+00  0.00000000000E+00  0.17515667065E+04  0.17515667065E+04  0.25500000920E-02 0.  1.
       -2   -1    0    0    0  501  0.00000000000E+00  0.00000000000E+00 -0.17837518217E+04  0.17837518217E+04  0.25500000920E-02 0. -1.
    10030    2    1    2    0    0  0.00000000000E+00  0.00000000000E+00 -0.32185115131E+02  0.35353185282E+04  0.35351720205E+04 0.  0.
        1    1    3    3  502    0  0.73278828627E+03 -0.71439968555E+02  0.15909208215E+04  0.17530292074E+04  0.50400001928E-02 0.  1.
       -1    1    3    3    0  502 -0.73278828627E+03  0.71439968555E+02 -0.16231059366E+04  0.17822893208E+04  0.50400001928E-02 0. -1.
</event>
<event>
 5   0  0.1897049E-07  0.3487483E+04  0.7818609E-02  0.8116763E-01
       -1   -1    0    0    0  501  0.00000000000E+00  0.00000000000E+00  0.18313471277E+04  0.18313471277E+04  0.50400001928E-02 0. -1.
        1   -1    0    0  501    0  0.00000000000E+00  0.00000000000E+00 -0.16603262085E+04  0.16603262085E+04  0.50400001928E-02 0.  1.
    10030    2    1    2    0    0  0.00000000000E+00  0.00000000000E+00  0.17102091926E+03  0.34916733362E+04  0.34874825493E+04 0.  0.
        2    1    3    3  502    0 -0.53189271155E+03  0.89621364341E+03 -0.13142127536E+04  0.16772787225E+04  0.25500000920E-02 0.  1.
       -2    1    3    3    0  502  0.53189271155E+03 -0.89621364341E+03  0.14852336728E+04  0.18143946137E+04  0.25500000920E-02 0. -1.
</event>
<event>
 5   0  0.1908190E-07  0.3528232E+04  0.7818609E-02  0.8107132E-01
       -1   -1    0    0    0  501  0.00000000000E+00  0.00000000000E+00  0.16160607968E+04  0.16160607968E+04  0.50400001928E-02 0.  1.
        1   -1    0    0  501    0  0.00000000000E+00  0.00000000000E+00 -0.19257354695E+04  0.19257354695E+04  0.50400001928E-02 0. -1.
    10030    2    1    2    0    0  0.00000000000E+00  0.00000000000E+00 -0.30967467268E+03  0.35417962663E+04  0.35282321903E+04 0.  0.
        5    1    3    3  502    0 -0.43817155335E+03  0.10084701070E+04  0.12299868037E+04  0.16498169274E+04  0.46999998093E+01 0.  1.
       -5    1    3    3    0  502  0.43817155335E+03 -0.10084701070E+04 -0.15396614763E+04  0.18919793388E+04  0.46999998093E+01 0. -1.
</event>
<event>
 5   0  0.5554745E-07  0.3421342E+04  0.7818609E-02  0.8132688E-01
       -2   -1    0    0    0  501  0.00000000000E+00  0.00000000000E+00  0.11361378099E+04  0.11361378099E+04  0.25500000920E-02 0. -1.
        2   -1    0    0  501    0  0.00000000000E+00  0.00000000000E+00 -0.25757397252E+04  0.25757397252E+04  0.25500000920E-02 0.  1.
    10030    2    1    2    0    0  0.00000000000E+00  0.00000000000E+00 -0.14396019153E+04  0.37118775351E+04  0.34213420117E+04 0.  0.
        5    1    3    3  502    0 -0.12792987584E+04  0.97677489616E+03 -0.91223163859E+02  0.16121533012E+04  0.46999998093E+01 0. -1.
       -5    1    3    3    0  502  0.12792987584E+04 -0.97677489616E+03 -0.13483787515E+04  0.20997242339E+04  0.46999998093E+01 0.  1.
</event>
<event>
 5   0  0.1897049E-07  0.3514226E+04  0.7818609E-02  0.8110427E-01
        1   -1    0    0  501    0  0.00000000000E+00  0.00000000000E+00  0.28735118208E+04  0.28735118208E+04  0.50400001928E-02 0. -1.
       -1   -1    0    0    0  501  0.00000000000E+00  0.00000000000E+00 -0.10744506186E+04  0.10744506187E+04  0.50400001928E-02 0.  1.
    10030    2    1    2    0    0  0.00000000000E+00  0.00000000000E+00  0.17990612022E+04  0.39479624395E+04  0.35142262611E+04 0.  0.
        2    1    3    3  502    0 -0.77434810981E+03  0.28111504266E+03 -0.84405869690E+03  0.11794387420E+04  0.25500000920E-02 0.  1.
       -2    1    3    3    0  502  0.77434810981E+03 -0.28111504266E+03  0.26431198991E+04  0.27685236974E+04  0.25500000920E-02 0. -1.
</event>
<event>
 5   0  0.1873457E-07  0.3569973E+04  0.7818609E-02  0.8097405E-01
        1   -1    0    0  501    0  0.00000000000E+00  0.00000000000E+00  0.19908651805E+04  0.19908651805E+04  0.50400001928E-02 0. -1.
       -1   -1    0    0    0  501  0.00000000000E+00  0.00000000000E+00 -0.16003976590E+04  0.16003976590E+04  0.50400001928E-02 0.  1.
    10030    2    1    2    0    0  0.00000000000E+00  0.00000000000E+00  0.39046752149E+03  0.35912628395E+04  0.35699725345E+04 0.  0.
        3    1    3    3  502    0 -0.41063114267E+03 -0.59702729146E+03  0.18362552038E+04  0.19740548892E+04  0.10100000352E+00 0. -1.
       -3    1    3    3    0  502  0.41063114267E+03  0.59702729146E+03 -0.14457876823E+04  0.16172079503E+04  0.10100000352E+00 0.  1.
</event>
<event>
 5   0  0.1908190E-07  0.3496824E+04  0.7818609E-02  0.8114543E-01
        1   -1    0    0  501    0  0.00000000000E+00  0.00000000000E+00  0.24604791884E+04  0.24604791884E+04  0.50400001928E-02 0. -1.
       -1   -1    0    0    0  501  0.00000000000E+00  0.00000000000E+00 -0.12424182965E+04  0.12424182966E+04  0.50400001928E-02 0.  1.
    10030    2    1    2    0    0  0.00000000000E+00  0.00000000000E+00  0.12180608918E+04  0.37028974849E+04  0.34968239086E+04 0.  0.
        5    1    3    3  502    0  0.10719637979E+04 -0.66511458178E+03 -0.67286239363E+03  0.14297725978E+04  0.46999998093E+01 0.  1.
       -5    1    3    3    0  502 -0.10719637979E+04  0.66511458178E+03  0.18909232854E+04  0.22731248871E+04  0.46999998093E+01 0. -1.
</event>
<event>
 5   0  0.5740827E-07  0.3546669E+04  0.7818609E-02  0.8102818E-01
        2   -1    0    0  501    0  0.00000000000E+00  0.00000000000E+00  0.17483031900E+04  0.17483031900E+04  0.25500000920E-02 0. -1.
       -2   -1    0    0    0  501  0.00000000000E+00  0.00000000000E+00 -0.17987238731E+04  0.17987238731E+04  0.25500000920E-02 0.  1.
    10030    2    1    2    0    0  0.00000000000E+00  0.00000000000E+00 -0.50420683111E+02  0.35470270632E+04  0.35466686822E+04 0.  0.
        2    1    3    3  502    0  0.24881945081E+03 -0.13914522742E+04 -0.10961425901E+04  0.17887367409E+04  0.25500000920E-02 0.  1.
       -2    1    3    3    0  502 -0.24881945081E+03  0.13914522742E+04  0.10457219070E+04  0.17582903222E+04  0.25500000920E-02 0. -1.
</event>
<event>
 5   0  0.5707187E-07  0.3488639E+04  0.7818609E-02  0.8116488E-01
       -2   -1    0    0    0  501  0.00000000000E+00  0.00000000000E+00  0.12340264318E+04  0.12340264318E+04  0.25500000920E-02 0.  1.
        2   -1    0    0  501    0  0.00000000000E+00  0.00000000000E+00 -0.24656276713E+04  0.24656276713E+04  0.25500000920E-02 0. -1.
    10030    2    1    2    0    0  0.00000000000E+00  0.00000000000E+00 -0.12316012395E+04  0.36996541031E+04  0.34886385410E+04 0.  0.
        1    1    3    3  502    0  0.30670247241E+03 -0.97623605250E+03 -0.21138842948E+04  0.23485335954E+04  0.50400001928E-02 0. -1.
       -1    1    3    3    0  502 -0.30670247241E+03  0.97623605250E+03  0.88228305531E+03  0.13511205078E+04  0.50400001928E-02 0.  1.
</event>
<event>
 5   0  0.1873457E-07  0.3496271E+04  0.7818609E-02  0.8114674E-01
        1   -1    0    0  501    0  0.00000000000E+00  0.00000000000E+00  0.21000233251E+04  0.21000233251E+04  0.50400001928E-02 0. -1.
       -1   -1    0    0    0  501  0.00000000000E+00  0.00000000000E+00 -0.14552116933E+04  0.14552116933E+04  0.50400001928E-02 0.  1.
    10030    2    1    2    0    0  0.00000000000E+00  0.00000000000E+00  0.64481163179E+03  0.35552350183E+04  0.34962714418E+04 0.  0.
        3    1    3    3  502    0  0.39490334177E+03  0.14449238374E+04  0.12388401116E+04  0.19438308511E+04  0.10100000352E+00 0. -1.
       -3    1    3    3    0  502 -0.39490334177E+03 -0.14449238374E+04 -0.59402847976E+03  0.16114041673E+04  0.10100000352E+00 0.  1.
</event>
<event>
 5   0  0.5707187E-07  0.3447559E+04  0.7818609E-02  0.8126331E-01
        2   -1    0    0  501    0  0.00000000000E+00  0.00000000000E+00  0.17653841386E+04  0.17653841386E+04  0.25500000920E-02 0.  1.
       -2   -1    0    0    0  501  0.00000000000E+00  0.00000000000E+00 -0.16831552239E+04  0.16831552239E+04  0.25500000920E-02 0. -1.
    10030    2    1    2    0    0  0.00000000000E+00  0.00000000000E+00  0.82228914629E+02  0.34485393625E+04  0.34475588669E+04 0.  0.
        1    1    3    3  502    0  0.10115761024E+04 -0.12817930283E+04 -0.51143377093E+03  0.17110944101E+04  0.50400001928E-02 0. -1.
       -1    1    3    3    0  502 -0.10115761024E+04  0.12817930283E+04  0.59366268556E+03  0.17374449524E+04  0.50400001928E-02 0.  1.
</event>
<event>
 5   0  0.5707187E-07  0.3512137E+04  0.7818609E-02  0.8110920E-01
       -2   -1    0    0    0  501  0.00000000000E+00  0.00000000000E+00  0.12772491018E+04  0.12772491018E+04  0.25500000920E-02 0.  1.
        2   -1    0    0  501    0  0.00000000000E+00  0.00000000000E+00 -0.24143888591E+04  0.24143888591E+04  0.25500000920E-02 0. -1.
    10030    2    1    2    0    0  0.00000000000E+00  0.00000000000E+00 -0.11371397573E+04  0.36916379608E+04  0.35121366725E+04 0.  0.
        1    1    3    3  502    0  0.85105055099E+03  0.72314128168E+03  0.85588842541E+03  0.14070413464E+04  0.50400001928E-02 0.  1.
       -1    1    3    3    0  502 -0.85105055099E+03 -0.72314128168E+03 -0.19930281827E+04  0.22845966145E+04  0.50400001928E-02 0. -1.
</event>
<event>
 5   0  0.5554745E-07  0.3501265E+04  0.7818609E-02  0.8113490E-01
       -2   -1    0    0    0  501  0.00000000000E+00  0.00000000000E+00  0.23075399378E+04  0.23075399378E+04  0.25500000920E-02 0.  1.
        2   -1    0    0  501    0  0.00000000000E+00  0.00000000000E+00 -0.13281303421E+04  0.13281303421E+04  0.25500000920E-02 0. -1.
    10030    2    1    2    0    0  0.00000000000E+00  0.00000000000E+00  0.97940959575E+03  0.36356702799E+04  0.35012648040E+04 0.  0.
        5    1    3    3  502    0  0.10002617279E+04  0.26486687339E+03 -0.97659780101E+03  0.14228293432E+04  0.46999998093E+01 0. -1.
       -5    1    3    3    0  502 -0.10002617279E+04 -0.26486687339E+03  0.19560073968E+04  0.22128409367E+04  0.46999998093E+01 0.  1.
</event>
<event>
 5   0  0.5677193E-07  0.3491477E+04  0.7818609E-02  0.8115813E-01
       -2   -1    0    0    0  501  0.00000000000E+00  0.00000000000E+00  0.13174536332E+04  0.13174536332E+04  0.25500000920E-02 0. -1.
        2   -1    0    0  501    0  0.00000000000E+00  0.00000000000E+00 -0.23132519270E+04  0.23132519270E+04  0.25500000920E-02 0.  1.
    10030    2    1    2    0    0  0.00000000000E+00  0.00000000000E+00 -0.99579829380E+03  0.36307055602E+04  0.34914765677E+04 0.  0.
        3    1    3    3  502    0 -0.16895136187E+04 -0.34658524896E+03 -0.21689267472E+03  0.17382807728E+04  0.10100000352E+00 0. -1.
       -3    1    3    3    0  502  0.16895136187E+04  0.34658524896E+03 -0.77890561909E+03  0.18924247874E+04  0.10100000352E+00 0.  1.
</event>
<event>
 5   0  0.1866421E-07  0.3485937E+04  0.7818609E-02  0.8117131E-01
        1   -1    0    0  501    0  0.00000000000E+00  0.00000000000E+00  0.98625060938E+03  0.98625060939E+03  0.50400001928E-02 0. -1.
       -1   -1    0    0    0  501  0.00000000000E+00  0.00000000000E+00 -0.30802911094E+04  0.30802911094E+04  0.50400001928E-02 0.  1.
    10030    2    1    2    0    0  0.00000000000E+00  0.00000000000E+00 -0.20940405000E+04  0.40665417188E+04  0.34859368805E+04 0.  0.
        1    1    3    3  502    0  0.91254493789E+03  0.75779544941E+03  0.44277164556E+03  0.12661117395E+04  0.50400001928E-02 0. -1.
       -1    1    3    3    0  502 -0.91254493789E+03 -0.75779544941E+03 -0.25368121456E+04  0.28004299793E+04  0.50400001928E-02 0.  1.
</event>
<event>
 5   0  0.1866421E-07  0.3497931E+04  0.7818609E-02  0.8114280E-01
       -1   -1    0    0    0  501  0.00000000000E+00  0.00000000000E+00  0.18270321981E+04  0.18270321981E+04  0.50400001928E-02 0. -1.
        1   -1    0    0  501    0  0.00000000000E+00  0.00000000000E+00 -0.16742343400E+04  0.16742343400E+04  0.50400001928E-02 0.  1.
    10030    2    1    2    0    0  0.00000000000E+00  0.00000000000E+00  0.15279785808E+03  0.35012665380E+04  0.34979308434E+04 0.  0.
        1    1    3    3  502    0  0.27364246658E+03  0.14992900196E+04 -0.78239902595E+03  0.17131546919E+04  0.50400001928E-02 0.  1.
       -1    1    3    3    0  502 -0.27364246658E+03 -0.14992900196E+04  0.93519688403E+03  0.17881118462E+04  0.50400001928E-02 0. -1.
</event>
<event>
 5   0  0.1873457E-07  0.3545635E+04  0.7818609E-02  0.8103059E-01
       -1   -1    0    0    0  501  0.00000000000E+00  0.00000000000E+00  0.27817456694E+04  0.27817456695E+04  0.50400001928E-02 0.  1.
        1   -1    0    0  501    0  0.00000000000E+00  0.00000000000E+00 -0.11298237304E+04  0.11298237304E+04  0.50400001928E-02 0. -1.
    10030    2    1    2    0    0  0.00000000000E+00  0.00000000000E+00  0.16519219391E+04  0.39115693998E+04  0.35456352148E+04 0.  0.
        3    1    3    3  502    0 -0.99868439374E+03  0.88386377366E+03  0.21145409552E+04  0.24999738299E+04  0.10100000352E+00 0.  1.
       -3    1    3    3    0  502  0.99868439374E+03 -0.88386377366E+03 -0.46261901613E+03  0.14115955699E+04  0.10100000352E+00 0. -1.
</event>
<event>
 5   0  0.5554745E-07  0.3472756E+04  0.7818609E-02  0.8120277E-01
        2   -1    0    0  501    0  0.00000000000E+00  0.00000000000E+00  0.10528542046E+04  0.10528542046E+04  0.25500000920E-02 0. -1.
       -2   -1    0    0    0  501  0.00000000000E+00  0.00000000000E+00 -0.28636531514E+04  0.28636531515E+04  0.25500000920E-02 0.  1.
    10030    2    1    2    0    0  0.00000000000E+00  0.00000000000E+00 -0.18107989469E+04  0.39165073560E+04  0.34727564043E+04 0.  0.
        5    1    3    3  502    0  0.10082534218E+04  0.11939541863E+04 -0.17590076809E+04  0.23529198187E+04  0.46999998093E+01 0.  1.
       -5    1    3    3    0  502 -0.10082534218E+04 -0.11939541863E+04 -0.51791265967E+02  0.15635875373E+04  0.46999998093E+01 0. -1.
</event>
<event>
 5   0  0.5707187E-07  0.3444497E+04  0.7818609E-02  0.8127071E-01
       -2   -1    0    0    0  501  0.00000000000E+00  0.00000000000E+00  0.13057251244E+04  0.13057251244E+04  0.25500000920E-02 0. -1.
        2   -1    0    0  501    0  0.00000000000E+00  0.00000000000E+00 -0.22716412482E+04  0.22716412482E+04  0.25500000920E-02 0.  1.
    10030    2    1    2    0    0  0.00000000000E+00  0.00000000000E+00 -0.96591612382E+03  0.35773663726E+04  0.34444965097E+04 0.  0.
        1    1    3    3  502    0 -0.77481560645E+03 -0.43132509990E+03 -0.20163100470E+04  0.22026998823E+04  0.50400001928E-02 0.  1.
       -1    1    3    3    0  502  0.77481560645E+03  0.43132509990E+03  0.10503939232E+04  0.13746664903E+04  0.50400001928E-02 0. -1.
</event>
<event>
 5   0  0.1908190E-07  0.3732712E+04  0.7818609E-02  0.8060751E-01
        1   -1    0    0  501    0  0.00000000000E+00  0.00000000000E+00  0.18024864661E+04  0.18024864661E+04  0.50400001928E-02 0.  1.
       -1   -1    0    0    0  501  0.00000000000E+00  0.00000000000E+00 -0.19324891052E+04  0.19324891052E+04  0.50400001928E-02 0. -1.
    10030    2    1    2    0    0  0.00000000000E+00  0.00000000000E+00 -0.13000263907E+03  0.37349755713E+04  0.37327123962E+04 0.  0.
        5    1    3    3  502    0  0.12142381205E+04 -0.70362098985E+03  0.11661131681E+04  0.18246365998E+04  0.46999998093E+01 0.  1.
       -5    1    3    3    0  502 -0.12142381205E+04  0.70362098985E+03 -0.12961158071E+04  0.19103389715E+04  0.46999998093E+01 0. -1.
</event>
<event>
 5   0  0.1908190E-07  0.3479230E+04  0.7818609E-02  0.8118730E-01
        1   -1    0    0  501    0  0.00000000000E+00  0.00000000000E+00  0.24130006654E+04  0.24130006654E+04  0.50400001928E-02 0. -1.
       -1   -1    0    0    0  501  0.00000000000E+00  0.00000000000E+00 -0.12541478479E+04  0.12541478479E+04  0.50400001928E-02 0.  1.
    10030    2    1    2    0    0  0.00000000000E+00  0.00000000000E+00  0.11588528175E+04  0.36671485133E+04  0.34792295650E+04 0.  0.
        5    1    3    3  502    0 -0.67376405481E+03 -0.20259587949E+03  0.22563435197E+04  0.23634955597E+04  0.46999998093E+01 0. -1.
       -5    1    3    3    0  502  0.67376405481E+03  0.20259587949E+03 -0.10974907022E+04  0.13036529536E+04  0.46999998093E+01 0.  1.
</event>
<event>
 5   0  0.5707187E-07  0.3502842E+04  0.7818609E-02  0.8113117E-01
       -2   -1    0    0    0  501  0.00000000000E+00  0.00000000000E+00  0.17467449977E+04  0.17467449977E+04  0.25500000920E-02 0.  1.
        2   -1    0    0  501    0  0.00000000000E+00  0.00000000000E+00 -0.17561099363E+04  0.17561099363E+04  0.25500000920E-02 0. -1.
    10030    2    1    2    0    0  0.00000000000E+00  0.00000000000E+00 -0.93649386541E+01  0.35028549340E+04  0.35028424153E+04 0.  0.
        1    1    3    3  502    0  0.16265432588E+04  0.60149070147E+03  0.24035352621E+03  0.17507723593E+04  0.50400001928E-02 0.  1.
       -1    1    3    3    0  502 -0.16265432588E+04 -0.60149070147E+03 -0.24971846487E+03  0.17520825746E+04  0.50400001928E-02 0. -1.
</event>
<event>
 5   0  0.1873457E-07  0.3517231E+04  0.7818609E-02  0.8109719E-01
        1   -1    0    0  501    0  0.00000000000E+00  0.00000000000E+00  0.18140248065E+04  0.18140248066E+04  0.50400001928E-02 0.  1.
       -1   -1    0    0    0  501  0.00000000000E+00  0.00000000000E+00 -0.17048981985E+04  0.17048981985E+04  0.50400001928E-02 0. -1.
    10030    2    1    2    0    0  0.00000000000E+00  0.00000000000E+00  0.10912660802E+03  0.35189230051E+04  0.35172305155E+04 0.  0.
        3    1    3    3  502    0 -0.14998918690E+04 -0.21702720581E+02  0.97292711096E+03  0.17879412184E+04  0.10100000352E+00 0.  1.
       -3    1    3    3    0  502  0.14998918690E+04  0.21702720581E+02 -0.86380050295E+03  0.17309817867E+04  0.10100000352E+00 0. -1.
</event>
<event>
 5   0  0.1897049E-07  0.3449201E+04  0.7818609E-02  0.8125935E-01
        1   -1    0    0  501    0  0.00000000000E+00  0.00000000000E+00  0.33915636804E+04  0.33915636804E+04  0.50400001928E-02 0.  1.
       -1   -1    0    0    0  501  0.00000000000E+00  0.00000000000E+00 -0.87695431357E+03  0.87695431358E+03  0.50400001928E-02 0. -1.
    10030    2    1    2    0    0  0.00000000000E+00  0.00000000000E+00  0.25146093668E+04  0.42685179940E+04  0.34492007186E+04 0.  0.
        2    1    3    3  502    0  0.15159835618E+04 -0.13587142898E+02  0.23991901315E+03  0.15349110407E+04  0.25500000920E-02 0. -1.
       -2    1    3    3    0  502 -0.15159835618E+04  0.13587142898E+02  0.22746903536E+04  0.27336069533E+04  0.25500000920E-02 0.  1.
</event>
<event>
 5   0  0.1933647E-07  0.3484173E+04  0.7818609E-02  0.8117551E-01
        1   -1    0    0  501    0  0.00000000000E+00  0.00000000000E+00  0.12813121485E+04  0.12813121485E+04  0.50400001928E-02 0. -1.
       -1   -1    0    0    0  501  0.00000000000E+00  0.00000000000E+00 -0.23685609539E+04  0.23685609539E+04  0.50400001928E-02 0.  1.
    10030    2    1    2    0    0  0.00000000000E+00  0.00000000000E+00 -0.10872488054E+04  0.36498731024E+04  0.34841733164E+04 0.  0.
        4    1    3    3  502    0  0.12110673859E+04  0.76297757475E+02  0.76576371963E+03  0.14348871901E+04  0.12699999809E+01 0. -1.
       -4    1    3    3    0  502 -0.12110673859E+04 -0.76297757475E+02 -0.18530125250E+04  0.22149859123E+04  0.12699999809E+01 0.  1.
</event>
<event>
 5   0  0.1933647E-07  0.3358543E+04  0.7818609E-02  0.8148157E-01
        1   -1    0    0  501    0  0.00000000000E+00  0.00000000000E+00  0.20256535133E+04  0.20256535133E+04  0.50400001928E-02 0. -1.
       -1   -1    0    0    0  501  0.00000000000E+00  0.00000000000E+00 -0.13921203089E+04  0.13921203089E+04  0.50400001928E-02 0.  1.
    10030    2    1    2    0    0  0.00000000000E+00  0.00000000000E+00  0.63353320440E+03  0.34177738222E+04  0.33585433716E+04 0.  0.
        4    1    3    3  502    0 -0.76453095452E+03  0.30723904057E+03 -0.11722707695E+04  0.14328725618E+04  0.12699999809E+01 0.  1.
       -4    1    3    3    0  502  0.76453095452E+03 -0.30723904057E+03  0.18058039739E+04  0.19849012604E+04  0.12699999809E+01 0. -1.
</event>
<event>
 5   0  0.1866421E-07  0.3472510E+04  0.7818609E-02  0.8120336E-01
        1   -1    0    0  501    0  0.00000000000E+00  0.00000000000E+00  0.28614398493E+04  0.28614398493E+04  0.50400001928E-02 0.  1.
       -1   -1    0    0    0  501  0.00000000000E+00  0.00000000000E+00 -0.10535191611E+04  0.10535191611E+04  0.50400001928E-02 0. -1.
    10030    2    1    2    0    0  0.00000000000E+00  0.00000000000E+00  0.18079206881E+04  0.39149590104E+04  0.34725101639E+04 0.  0.
        1    1    3    3  502    0 -0.89039980552E+03 -0.38882026959E+03  0.25262582699E+04  0.27066536280E+04  0.50400001928E-02 0.  1.
       -1    1    3    3    0  502  0.89039980552E+03  0.38882026959E+03 -0.71833758177E+03  0.12083053824E+04  0.50400001928E-02 0. -1.
</event>
<event>
 5   0  0.1873457E-07  0.3290506E+04  0.7818609E-02  0.8165315E-01
       -1   -1    0    0    0  501  0.00000000000E+00  0.00000000000E+00  0.26852634506E+04  0.26852634506E+04  0.50400001928E-02 0.  1.
        1   -1    0    0  501    0  0.00000000000E+00  0.00000000000E+00 -0.10080414474E+04  0.10080414475E+04  0.50400001928E-02 0. -1.
    10030    2    1    2    0    0  0.00000000000E+00  0.00000000000E+00  0.16772220031E+04  0.36933048980E+04  0.32905056484E+04 0.  0.
        3    1    3    3  502    0 -0.95836055357E+03  0.64530034821E+03  0.21533147231E+04  0.24436922468E+04  0.10100000352E+00 0.  1.
       -3    1    3    3    0  502  0.95836055357E+03 -0.64530034821E+03 -0.47609271995E+03  0.12496126513E+04  0.10100000352E+00 0. -1.
</event>
<event>
 5   0  0.1933647E-07  0.3503007E+04  0.7818609E-02  0.8113078E-01
        1   -1    0    0  501    0  0.00000000000E+00  0.00000000000E+00  0.19564613410E+04  0.19564613410E+04  0.50400001928E-02 0.  1.
       -1   -1    0    0    0  501  0.00000000000E+00  0.00000000000E+00 -0.15680170219E+04  0.15680170219E+04  0.50400001928E-02 0. -1.
    10030    2    1    2    0    0  0.00000000000E+00  0.00000000000E+00  0.38844431912E+03  0.35244783629E+04  0.35030070999E+04 0.  0.
        4    1    3    3  502    0 -0.11887888873E+04  0.27160124411E+03  0.14592180377E+04  0.19016585258E+04  0.12699999809E+01 0.  1.
       -4    1    3    3    0  502  0.11887888873E+04 -0.27160124411E+03 -0.10707737186E+04  0.16228198371E+04  0.12699999809E+01 0. -1.
</event>
<event>
 5   0  0.5677193E-07  0.3510056E+04  0.7818609E-02  0.8111411E-01
        2   -1    0    0  501    0  0.00000000000E+00  0.00000000000E+00  0.21512071865E+04  0.21512071865E+04  0.25500000920E-02 0. -1.
       -2   -1    0    0    0  501  0.00000000000E+00  0.00000000000E+00 -0.14318112005E+04  0.14318112005E+04  0.25500000920E-02 0.  1.
    10030    2    1    2    0    0  0.00000000000E+00  0.00000000000E+00  0.71939598606E+03  0.35830183870E+04  0.35100555803E+04 0.  0.
        3    1    3    3  502    0 -0.10361533699E+04  0.12209975685E+03  0.18002738877E+04  0.20807470384E+04  0.10100000352E+00 0. -1.
       -3    1    3    3    0  502  0.10361533699E+04 -0.12209975685E+03 -0.10808779017E+04  0.15022713487E+04  0.10100000352E+00 0.  1.
</event>
<event>
 5   0  0.1897049E-07  0.3491382E+04  0.7818609E-02  0.8115835E-01
        1   -1    0    0  501    0  0.00000000000E+00  0.00000000000E+00  0.17161632003E+04  0.17161632003E+04  0.50400001928E-02 0. -1.
       -1   -1    0    0    0  501  0.00000000000E+00  0.00000000000E+00 -0.17757270626E+04  0.17757270626E+04  0.50400001928E-02 0.  1.
    10030    2    1    2    0    0  0.00000000000E+00  0.00000000000E+00 -0.59563862281E+02  0.34918902629E+04  0.34913822126E+04 0.  0.
        2    1    3    3  502    0 -0.17433501457E+03 -0.17214628082E+04  0.20179126408E+03  0.17419950091E+04  0.25500000920E-02 0. -1.
       -2    1    3    3    0  502  0.17433501457E+03  0.17214628082E+04 -0.26135512636E+03  0.17498952538E+04  0.25500000920E-02 0.  1.
</event>
<event>
 5   0  0.1873457E-07  0.3407550E+04  0.7818609E-02  0.8136056E-01
       -1   -1    0    0    0  501  0.00000000000E+00  0.00000000000E+00  0.17546183606E+04  0.17546183606E+04  0.50400001928E-02 0.  1.
        1   -1    0    0  501    0  0.00000000000E+00  0.00000000000E+00 -0.16544047480E+04  0.16544047480E+04  0.50400001928E-02 0. -1.
    10030    2    1    2    0    0  0.00000000000E+00  0.00000000000E+00  0.10021361263E+03  0.34090231086E+04  0.34075498217E+04 0.  0.
        3    1    3    3  502    0  0.60308749078E+03 -0.17134159973E+03  0.16350191674E+04  0.17511025537E+04  0.10100000352E+00 0.  1.
       -3    1    3    3    0  502 -0.60308749078E+03  0.17134159973E+03 -0.15348055548E+04  0.16579205550E+04  0.10100000352E+00 0. -1.
</event>
<event>
 5   0  0.1897049E-07  0.3522376E+04  0.7818609E-02  0.8108508E-01
       -1   -1    0    0    0  501  0.00000000000E+00  0.00000000000E+00  0.13946419913E+04  0.13946419914E+04  0.50400001928E-02 0. -1.
        1   -1    0    0  501    0  0.00000000000E+00  0.00000000000E+00 -0.22240708259E+04  0.22240708259E+04  0.50400001928E-02 0.  1.
    10030    2    1    2    0    0  0.00000000000E+00  0.00000000000E+00 -0.82942883457E+03  0.36187128173E+04  0.35223756560E+04 0.  0.
        2    1    3    3  502    0  0.24211127833E+02  0.36311253992E+02 -0.22235152124E+04  0.22239434762E+04  0.25500000920E-02 0.  1.
       -2    1    3    3    0  502 -0.24211127833E+02 -0.36311253992E+02  0.13940863778E+04  0.13947693410E+04  0.25500000920E-02 0. -1.
</event>
<event>
 5   0  0.5707187E-07  0.3526045E+04  0.7818609E-02  0.8107645E-01
        2   -1    0    0  501    0  0.00000000000E+00  0.00000000000E+00  0.19094570202E+04  0.19094570202E+04  0.25500000920E-02 0.  1.
       -2   -1    0    0    0  501  0.00000000000E+00  0.00000000000E+00 -0.16278177415E+04  0.16278177415E+04  0.25500000920E-02 0. -1.
    10030    2    1    2    0    0  0.00000000000E+00  0.00000000000E+00  0.28163927863E+03  0.35372747617E+04  0.35260448177E+04 0.  0.
        1    1    3    3  502    0 -0.13887827594E+03 -0.53083879232E+03  0.18216171757E+04  0.19024631754E+04  0.50400001928E-02 0.  1.
       -1    1    3    3    0  502  0.13887827594E+03  0.53083879232E+03 -0.15399778971E+04  0.16348115863E+04  0.50400001928E-02 0. -1.
</event>
<event>
 5   0  0.1866421E-07  0.3490748E+04  0.7818609E-02  0.8115986E-01
        1   -1    0    0  501    0  0.00000000000E+00  0.00000000000E+00  0.27361099287E+04  0.27361099287E+04  0.50400001928E-02 0. -1.
       -1   -1    0    0    0  501  0.00000000000E+00  0.00000000000E+00 -0.11133802759E+04  0.11133802760E+04  0.50400001928E-02 0.  1.
    10030    2    1    2    0    0  0.00000000000E+00  0.00000000000E+00  0.16227296527E+04  0.38494902046E+04  0.34907482450E+04 0.  0.
        1    1    3    3  502    0 -0.16444392760E+04 -0.46451972365E+03  0.41934354761E+03  0.17594908687E+04  0.50400001928E-02 0.  1.
       -1    1    3    3    0  502  0.16444392760E+04  0.46451972365E+03  0.12033861051E+04  0.20899993359E+04  0.50400001928E-02 0. -1.
</event>
<event>
 5   0  0.5740827E-07  0.3512180E+04  0.7818609E-02  0.8110910E-01
        2   -1    0    0  501    0  0.00000000000E+00  0.00000000000E+00  0.20451622721E+04  0.20451622721E+04  0.25500000920E-02 0.  1.
       -2   -1    0    0    0  501  0.00000000000E+00  0.00000000000E+00 -0.15078760653E+04  0.15078760653E+04  0.25500000920E-02 0. -1.
    10030    2    1    2    0    0  0.00000000000E+00  0.00000000000E+00  0.53728620683E+03  0.35530383374E+04  0.35121795169E+04 0.  0.
        2    1    3    3  502    0 -0.13395078045E+04  0.10684496500E+04 -0.12052090006E+03  0.17176702536E+04  0.25500000920E-02 0.  1.
       -2    1    3    3    0  502  0.13395078045E+04 -0.10684496500E+04  0.65780710690E+03  0.18353680837E+04  0.25500000920E-02 0. -1.
</event>
<event>
 5   0  0.1823000E-07  0.3442986E+04  0.7818609E-02  0.8127436E-01
       -3   -1    0    0    0  501  0.00000000000E+00  0.00000000000E+00  0.12109393485E+04  0.12109393527E+04  0.10100000352E+00 0. -1.
        3   -1    0    0  501    0  0.00000000000E+00  0.00000000000E+00 -0.24473051089E+04  0.24473051110E+04  0.10100000352E+00 0.  1.
    10030    2    1    2    0    0  0.00000000000E+00  0.00000000000E+00 -0.12363657604E+04  0.36582444637E+04  0.34429859515E+04 0.  0.
        3    1    3    3  502    0 -0.64779087827E+03 -0.28965009735E+03 -0.22846844237E+04  0.23923446924E+04  0.10100000352E+00 0.  1.
       -3    1    3    3    0  502  0.64779087827E+03  0.28965009735E+03  0.10483186633E+04  0.12658997713E+04  0.10100000352E+00 0. -1.
</event>
<event>
 5   0  0.1866421E-07  0.3536308E+04  0.7818609E-02  0.8105239E-01
        1   -1    0    0  501    0  0.00000000000E+00  0.00000000000E+00  0.20481050013E+04  0.20481050013E+04  0.50400001928E-02 0. -1.
       -1   -1    0    0    0  501  0.00000000000E+00  0.00000000000E+00 -0.15264685699E+04  0.15264685699E+04  0.50400001928E-02 0.  1.
    10030    2    1    2    0    0  0.00000000000E+00  0.00000000000E+00  0.52163643140E+03  0.35745735712E+04  0.35363076293E+04 0.  0.
        1    1    3    3  502    0  0.87851046696E+02 -0.37253040562E+03  0.20057278827E+04  0.20419209213E+04  0.50400001928E-02 0. -1.
       -1    1    3    3    0  502 -0.87851046696E+02  0.37253040562E+03 -0.14840914513E+04  0.15326526499E+04  0.50400001928E-02 0.  1.
</event>
<event>
 5   0  0.1873457E-07  0.3502310E+04  0.7818609E-02  0.8113243E-01
        1   -1    0    0  501    0  0.00000000000E+00  0.00000000000E+00  0.20965259267E+04  0.20965259267E+04  0.50400001928E-02 0.  1.
       -1   -1    0    0    0  501  0.00000000000E+00  0.00000000000E+00 -0.14626783547E+04  0.14626783547E+04  0.50400001928E-02 0. -1.
    10030    2    1    2    0    0  0.00000000000E+00  0.00000000000E+00  0.63384757203E+03  0.35592042814E+04  0.35023095769E+04 0.  0.
        3    1    3    3  502    0  0.13882720783E+03  0.11521214053E+04  0.16496724602E+04  0.20169471888E+04  0.10100000352E+00 0.  1.
       -3    1    3    3    0  502 -0.13882720783E+03 -0.11521214053E+04 -0.10158248882E+04  0.15422570926E+04  0.10100000352E+00 0. -1.
</event>
<event>
 5   0  0.5677193E-07  0.3512889E+04  0.7818609E-02  0.8110742E-01
       -2   -1    0    0    0  501  0.00000000000E+00  0.00000000000E+00  0.24214755339E+04  0.24214755339E+04  0.25500000920E-02 0. -1.
        2   -1    0    0  501    0  0.00000000000E+00  0.00000000000E+00 -0.12740567149E+04  0.12740567149E+04  0.25500000920E-02 0.  1.
    10030    2    1    2    0    0  0.00000000000E+00  0.00000000000E+00  0.11474188190E+04  0.36955322487E+04  0.35128889330E+04 0.  0.
        3    1    3    3  502    0 -0.47569762870E+03  0.10783152486E+04 -0.79632438964E+03  0.14223869210E+04  0.10100000352E+00 0.  1.
       -3    1    3    3    0  502  0.47569762870E+03 -0.10783152486E+04  0.19437432087E+04  0.22731453277E+04  0.10100000352E+00 0. -1.
</event>
<event>
 5   0  0.5573334E-07  0.3496092E+04  0.7818609E-02  0.8114717E-01
       -2   -1    0    0    0  501  0.00000000000E+00  0.00000000000E+00  0.13522805719E+04  0.13522805719E+04  0.25500000920E-02 0.  1.
        2   -1    0    0  501    0  0.00000000000E+00  0.00000000000E+00 -0.22596376920E+04  0.22596376920E+04  0.25500000920E-02 0. -1.
    10030    2    1    2    0    0  0.00000000000E+00  0.00000000000E+00 -0.90735712012E+03  0.36119182639E+04  0.34960916181E+04 0.  0.
        4    1    3    3  502    0 -0.15359261664E+04  0.80478087951E+03 -0.22516964490E+03  0.17485549561E+04  0.12699999809E+01 0. -1.
       -4    1    3    3    0  502  0.15359261664E+04 -0.80478087951E+03 -0.68218747522E+03  0.18633633078E+04  0.12699999809E+01 0.  1.
</event>
<event>
 5   0  0.1866421E-07  0.3573205E+04  0.7818609E-02  0.8096657E-01
       -1   -1    0    0    0  501  0.00000000000E+00  0.00000000000E+00  0.12806980447E+04  0.12806980447E+04  0.50400001928E-02 0. -1.
        1   -1    0    0  501    0  0.00000000000E+00  0.00000000000E+00 -0.24923503642E+04  0.24923503642E+04  0.50400001928E-02 0.  1.
    10030    2    1    2    0    0  0.00000000000E+00  0.00000000000E+00 -0.12116523195E+04  0.37730484088E+04  0.35732048573E+04 0.  0.
        1    1    3    3  502    0 -0.98376392006E+03 -0.47856916184E+02  0.96813293871E+03  0.13810731776E+04  0.50400001928E-02 0. -1.
       -1    1    3    3    0  502  0.98376392006E+03  0.47856916184E+02 -0.21797852582E+04  0.23919752312E+04  0.50400001928E-02 0.  1.
</event>
<event>
 5   0  0.1908190E-07  0.3514217E+04  0.7818609E-02  0.8110429E-01
       -1   -1    0    0    0  501  0.00000000000E+00  0.00000000000E+00  0.13518937845E+04  0.13518937846E+04  0.50400001928E-02 0.  1.
        1   -1    0    0  501    0  0.00000000000E+00  0.00000000000E+00 -0.22837818413E+04  0.22837818413E+04  0.50400001928E-02 0. -1.
    10030    2    1    2    0    0  0.00000000000E+00  0.00000000000E+00 -0.93188805675E+03  0.36356756258E+04  0.35142171114E+04 0.  0.
        5    1    3    3  502    0 -0.59372169510E+03  0.11495608229E+04  0.76401616811E+03  0.15025772299E+04  0.46999998093E+01 0.  1.
       -5    1    3    3    0  502  0.59372169510E+03 -0.11495608229E+04 -0.16959042249E+04  0.21330983959E+04  0.46999998093E+01 0. -1.
</event>
<event>
 5   0  0.5677193E-07  0.3490993E+04  0.7818609E-02  0.8115928E-01
        2   -1    0    0  501    0  0.00000000000E+00  0.00000000000E+00  0.16302887488E+04  0.16302887488E+04  0.25500000920E-02 0.  1.
       -2   -1    0    0    0  501  0.00000000000E+00  0.00000000000E+00 -0.18688457791E+04  0.18688457791E+04  0.25500000920E-02 0. -1.
    10030    2    1    2    0    0  0.00000000000E+00  0.00000000000E+00 -0.23855703032E+03  0.34991345279E+04  0.34909931234E+04 0.  0.
        3    1    3    3  502    0 -0.64821211222E+03  0.36296291011E+03 -0.17024674785E+04  0.18575027704E+04  0.10100000352E+00 0. -1.
       -3    1    3    3    0  502  0.64821211222E+03 -0.36296291011E+03  0.14639104482E+04  0.16416317575E+04  0.10100000352E+00 0.  1.
</event>
<event>
 5   0  0.1933647E-07  0.3407280E+04  0.7818609E-02  0.8136122E-01
       -1   -1    0    0    0  501  0.00000000000E+00  0.00000000000E+00  0.17689328360E+04  0.17689328360E+04  0.50400001928E-02 0.  1.
        1   -1    0    0  501    0  0.00000000000E+00  0.00000000000E+00 -0.16407570430E+04  0.16407570430E+04  0.50400001928E-02 0. -1.
    10030    2    1    2    0    0  0.00000000000E+00  0.00000000000E+00  0.12817579302E+03  0.34096898790E+04  0.34072798590E+04 0.  0.
        4    1    3    3  502    0  0.66529678971E+03 -0.15570233983E+04 -0.12431559454E+03  0.16977625456E+04  0.12699999809E+01 0.  1.
       -4    1    3    3    0  502 -0.66529678971E+03  0.15570233983E+04  0.25249138756E+03  0.17119273334E+04  0.12699999809E+01 0. -1.
</event>
<event>
 5   0  0.5677193E-07  0.3507705E+04  0.7818609E-02  0.8111966E-01
        2   -1    0    0  501    0  0.00000000000E+00  0.00000000000E+00  0.20297868427E+04  0.20297868427E+04  0.25500000920E-02 0.  1.
       -2   -1    0    0    0  501  0.00000000000E+00  0.00000000000E+00 -0.15154290480E+04  0.15154290480E+04  0.25500000920E-02 0. -1.
    10030    2    1    2    0    0  0.00000000000E+00  0.00000000000E+00  0.51435779468E+03  0.35452158906E+04  0.35077046299E+04 0.  0.
        3    1    3    3  502    0  0.13571104473E+04 -0.70383196366E+03  0.11259464848E+04  0.18986531268E+04  0.10100000352E+00 0.  1.
       -3    1    3    3    0  502 -0.13571104473E+04  0.70383196366E+03 -0.61158869011E+03  0.16465627638E+04  0.10100000352E+00 0. -1.
</event>
<event>
 5   0  0.1823000E-07  0.3503604E+04  0.7818609E-02  0.8112936E-01
        3   -1    0    0  501    0  0.00000000000E+00  0.00000000000E+00  0.15111938175E+04  0.15111938209E+04  0.10100000352E+00 0.  1.
       -3   -1    0    0    0  501  0.00000000000E+00  0.00000000000E+00 -0.20307195094E+04  0.20307195119E+04  0.10100000352E+00 0. -1.
    10030    2    1    2    0    0  0.00000000000E+00  0.00000000000E+00 -0.51952569185E+03  0.35419133328E+04  0.35036043031E+04 0.  0.
        1    1    3    3  502    0  0.11266568353E+04 -0.69702903784E+03  0.89889548065E+03  0.16010053683E+04  0.50400001928E-02 0. -1.
       -1    1    3    3    0  502 -0.11266568353E+04  0.69702903784E+03 -0.14184211725E+04  0.19409079645E+04  0.50400001928E-02 0.  1.
</event>
<event>
 5   0  0.1897049E-07  0.3509449E+04  0.7818609E-02  0.8111554E-01
        1   -1    0    0  501    0  0.00000000000E+00  0.00000000000E+00  0.19719821095E+04  0.19719821095E+04  0.50400001928E-02 0. -1.
       -1   -1    0    0    0  501  0.00000000000E+00  0.00000000000E+00 -0.15614024932E+04  0.15614024932E+04  0.50400001928E-02 0.  1.
    10030    2    1    2    0    0  0.00000000000E+00  0.00000000000E+00  0.41057961632E+03  0.35333846027E+04  0.35094488355E+04 0.  0.
        2    1    3    3  502    0  0.12814261734E+04 -0.24552719119E+03 -0.97605040586E+03  0.16294204597E+04  0.25500000920E-02 0.  1.
       -2    1    3    3    0  502 -0.12814261734E+04  0.24552719119E+03  0.13866300222E+04  0.19039641430E+04  0.25500000920E-02 0. -1.
</event>
<event>
 5   0  0.5554745E-07  0.3505682E+04  0.7818609E-02  0.8112445E-01
        2   -1    0    0  501    0  0.00000000000E+00  0.00000000000E+00  0.16769933337E+04  0.16769933337E+04  0.25500000920E-02 0.  1.
       -2   -1    0    0    0  501  0.00000000000E+00  0.00000000000E+00 -0.18321195516E+04  0.18321195516E+04  0.25500000920E-02 0. -1.
    10030    2    1    2    0    0  0.00000000000E+00  0.00000000000E+00 -0.15512621793E+03  0.35091128853E+04  0.35056824013E+04 0.  0.
        5    1    3    3  502    0  0.15094121208E+04  0.88127827213E+03  0.54679157518E+02  0.17487104516E+04  0.46999998093E+01 0.  1.
       -5    1    3    3    0  502 -0.15094121208E+04 -0.88127827213E+03 -0.20980537545E+03  0.17604024338E+04  0.46999998093E+01 0. -1.
</event>
<event>
 5   0  0.1866421E-07  0.3488303E+04  0.7818609E-02  0.8116568E-01
       -1   -1    0    0    0  501  0.00000000000E+00  0.00000000000E+00  0.17147594216E+04  0.17147594216E+04  0.50400001928E-02 0.  1.
        1   -1    0    0  501    0  0.00000000000E+00  0.00000000000E+00 -0.17740469612E+04  0.17740469612E+04  0.50400001928E-02 0. -1.
    10030    2    1    2    0    0  0.00000000000E+00  0.00000000000E+00 -0.59287539529E+02  0.34888063828E+04  0.34883025907E+04 0.  0.
        1    1    3    3  502    0  0.17190862849E+04  0.29443214711E+03 -0.18881315487E+02  0.17442202981E+04  0.50400001928E-02 0.  1.
       -1    1    3    3    0  502 -0.17190862849E+04 -0.29443214711E+03 -0.40406224042E+02  0.17445860847E+04  0.50400001928E-02 0. -1.
</event>
<event>
 5   0  0.1866421E-07  0.3523352E+04  0.7818609E-02  0.8108278E-01
        1   -1    0    0  501    0  0.00000000000E+00  0.00000000000E+00  0.20321733683E+04  0.20321733683E+04  0.50400001928E-02 0.  1.
       -1   -1    0    0    0  501  0.00000000000E+00  0.00000000000E+00 -0.15271837821E+04  0.15271837821E+04  0.50400001928E-02 0. -1.
    10030    2    1    2    0    0  0.00000000000E+00  0.00000000000E+00  0.50498958625E+03  0.35593571504E+04  0.35233519327E+04 0.  0.
        1    1    3    3  502    0  0.68758869654E+03  0.11479367293E+04 -0.90506160640E+03  0.16154483779E+04  0.50400001928E-02 0. -1.
       -1    1    3    3    0  502 -0.68758869654E+03 -0.11479367293E+04  0.14100511926E+04  0.19439087726E+04  0.50400001928E-02 0.  1.
</event>
<event>
 5   0  0.5677193E-07  0.3484525E+04  0.7818609E-02  0.8117467E-01
       -2   -1    0    0    0  501  0.00000000000E+00  0.00000000000E+00  0.13272641431E+04  0.13272641431E+04  0.25500000920E-02 0. -1.
        2   -1    0    0  501    0  0.00000000000E+00  0.00000000000E+00 -0.22870186346E+04  0.22870186346E+04  0.25500000920E-02 0.  1.
    10030    2    1    2    0    0  0.00000000000E+00  0.00000000000E+00 -0.95975449145E+03  0.36142827777E+04  0.34845245462E+04 0.  0.
        3    1    3    3  502    0 -0.15818020789E+04 -0.23374670997E+03  0.23780066813E+03  0.16165656526E+04  0.10100000352E+00 0. -1.
       -3    1    3    3    0  502  0.15818020789E+04  0.23374670997E+03 -0.11975551596E+04  0.19977171250E+04  0.10100000352E+00 0.  1.
</event>
<event>
 5   0  0.1933647E-07  0.3452921E+04  0.7818609E-02  0.8125039E-01
       -1   -1    0    0    0  501  0.00000000000E+00  0.00000000000E+00  0.12858048578E+04  0.12858048579E+04  0.50400001928E-02 0.  1.
        1   -1    0    0  501    0  0.00000000000E+00  0.00000000000E+00 -0.23181325191E+04  0.23181325191E+04  0.50400001928E-02 0. -1.
    10030    2    1    2    0    0  0.00000000000E+00  0.00000000000E+00 -0.10323276612E+04  0.36039373769E+04  0.34529211136E+04 0.  0.
        4    1    3    3  502    0 -0.58905661366E+03  0.42726626861E+03 -0.21502422383E+04  0.22700412892E+04  0.12699999809E+01 0. -1.
       -4    1    3    3    0  502  0.58905661366E+03 -0.42726626861E+03  0.11179145771E+04  0.13338960877E+04  0.12699999809E+01 0.  1.
</event>
<event>
 5   0  0.1866421E-07  0.3332139E+04  0.7818609E-02  0.8154765E-01
       -1   -1    0    0    0  501  0.00000000000E+00  0.00000000000E+00  0.25304501865E+04  0.25304501865E+04  0.50400001928E-02 0. -1.
        1   -1    0    0  501    0  0.00000000000E+00  0.00000000000E+00 -0.10969542089E+04  0.10969542089E+04  0.50400001928E-02 0.  1.
    10030    2    1    2    0    0  0.00000000000E+00  0.00000000000E+00  0.14334959776E+04  0.36274043954E+04  0.33321392423E+04 0.  0.
        1    1    3    3  502    0  0.15884573275E+04 -0.38601908802E+03  0.36639004319E+03  0.16752459764E+04  0.50400001928E-02 0.  1.
       -1    1    3    3    0  502 -0.15884573275E+04  0.38601908802E+03  0.10671059345E+04  0.19521584190E+04  0.50400001928E-02 0. -1.
</event>
<event>
 5   0  0.5554745E-07  0.3491455E+04  0.7818609E-02  0.8115818E-01
        2   -1    0    0  501    0  0.00000000000E+00  0.00000000000E+00  0.28383828857E+04  0.28383828857E+04  0.25500000920E-02 0. -1.
       -2   -1    0    0    0  501  0.00000000000E+00  0.00000000000E+00 -0.10736973043E+04  0.10736973043E+04  0.25500000920E-02 0.  1.
    10030    2    1    2    0    0  0.00000000000E+00  0.00000000000E+00  0.17646855814E+04  0.39120801900E+04  0.34914547415E+04 0.  0.
        5    1    3    3  502    0  0.54798807628E+03 -0.16057570905E+04  0.13426856115E+04  0.21636944116E+04  0.46999998093E+01 0.  1.
       -5    1    3    3    0  502 -0.54798807628E+03  0.16057570905E+04  0.42199996992E+03  0.17483857784E+04  0.46999998093E+01 0. -1.
</event>
<event>
 5   0  0.1908190E-07  0.3543687E+04  0.7818609E-02  0.8103514E-01
       -1   -1    0    0    0  501  0.00000000000E+00  0.00000000000E+00  0.15069885303E+04  0.15069885303E+04  0.50400001928E-02 0.  1.
        1   -1    0    0  501    0  0.00000000000E+00  0.00000000000E+00 -0.20832468410E+04  0.20832468410E+04  0.50400001928E-02 0. -1.
    10030    2    1    2    0    0  0.00000000000E+00  0.00000000000E+00 -0.57625831068E+03  0.35902353713E+04  0.35436868344E+04 0.  0.
        5    1    3    3  502    0 -0.22290201864E+03  0.15336571052E+04 -0.11582572981E+04  0.19347794409E+04  0.46999998093E+01 0. -1.
       -5    1    3    3    0  502  0.22290201864E+03 -0.15336571052E+04  0.58199898745E+03  0.16554559304E+04  0.46999998093E+01 0.  1.
</event>
<event>
 5   0  0.5677193E-07  0.3522789E+04  0.7818609E-02  0.8108410E-01
       -2   -1    0    0    0  501  0.00000000000E+00  0.00000000000E+00  0.10619849185E+04  0.10619849185E+04  0.25500000920E-02 0. -1.
        2   -1    0    0  501    0  0.00000000000E+00  0.00000000000E+00 -0.29214260683E+04  0.29214260683E+04  0.25500000920E-02 0.  1.
    10030    2    1    2    0    0  0.00000000000E+00  0.00000000000E+00 -0.18594411498E+04  0.39834109868E+04  0.35227889094E+04 0.  0.
        3    1    3    3  502    0 -0.40733024300E+03 -0.12052634003E+04 -0.23071697645E+04  0.26346935540E+04  0.10100000352E+00 0.  1.
       -3    1    3    3    0  502  0.40733024300E+03  0.12052634003E+04  0.44772861475E+03  0.13487174328E+04  0.10100000352E+00 0. -1.
</event>
<event>
 5   0  0.1897049E-07  0.3497182E+04  0.7818609E-02  0.8114458E-01
        1   -1    0    0  501    0  0.00000000000E+00  0.00000000000E+00  0.25167243248E+04  0.25167243248E+04  0.50400001928E-02 0.  1.
       -1   -1    0    0    0  501  0.00000000000E+00  0.00000000000E+00 -0.12149005626E+04  0.12149005626E+04  0.50400001928E-02 0. -1.
    10030    2    1    2    0    0  0.00000000000E+00  0.00000000000E+00  0.13018237622E+04  0.37316248874E+04  0.34971816070E+04 0.  0.
        2    1    3    3  502    0 -0.14161958099E+04  0.37451686560E+01  0.17453125590E+04  0.22476077342E+04  0.25500000920E-02 0.  1.
       -2    1    3    3    0  502  0.14161958099E+04 -0.37451686560E+01 -0.44348879679E+03  0.14840171532E+04  0.25500000920E-02 0. -1.
</event>
<event>
 5   0  0.1933647E-07  0.3497812E+04  0.7818609E-02  0.8114309E-01
       -1   -1    0    0    0  501  0.00000000000E+00  0.00000000000E+00  0.20490500088E+04  0.20490500088E+04  0.50400001928E-02 0.  1.
        1   -1    0    0  501    0  0.00000000000E+00  0.00000000000E+00 -0.14927272570E+04  0.14927272570E+04  0.50400001928E-02 0. -1.
    10030    2    1    2    0    0  0.00000000000E+00  0.00000000000E+00  0.55632275181E+03  0.35417772658E+04  0.34978123444E+04 0.  0.
        4    1    3    3  502    0  0.66771699452E+02  0.13964336575E+04  0.13421716269E+04  0.19380174686E+04  0.12699999809E+01 0.  1.
       -4    1    3    3    0  502 -0.66771699452E+02 -0.13964336575E+04 -0.78584887511E+03  0.16037597972E+04  0.12699999809E+01 0. -1.
</event>
<event>
 5   0  0.1866421E-07  0.3529566E+04  0.7818609E-02  0.8106819E-01
        1   -1    0    0  501    0  0.00000000000E+00  0.00000000000E+00  0.17408326967E+04  0.17408326967E+04  0.50400001928E-02 0. -1.
       -1   -1    0    0    0  501  0.00000000000E+00  0.00000000000E+00 -0.17890624387E+04  0.17890624387E+04  0.50400001928E-02 0.  1.
    10030    2    1    2    0    0  0.00000000000E+00  0.00000000000E+00 -0.48229742019E+02  0.35298951354E+04  0.35295656332E+04 0.  0.
        1    1    3    3  502    0  0.79592126038E+03 -0.12026475765E+04  0.99313619135E+03  0.17510486403E+04  0.50400001928E-02 0. -1.
       -1    1    3    3    0  502 -0.79592126038E+03  0.12026475765E+04 -0.10413659334E+04  0.17788464951E+04  0.50400001928E-02 0.  1.
</event>
<event>
 5   0  0.1933647E-07  0.3419362E+04  0.7818609E-02  0.8133171E-01
        1   -1    0    0  501    0  0.00000000000E+00  0.00000000000E+00  0.21413445281E+04  0.21413445282E+04  0.50400001928E-02 0. -1.
       -1   -1    0    0    0  501  0.00000000000E+00  0.00000000000E+00 -0.13650341898E+04  0.13650341898E+04  0.50400001928E-02 0.  1.
    10030    2    1    2    0    0  0.00000000000E+00  0.00000000000E+00  0.77631033832E+03  0.35063787180E+04  0.34193616323E+04 0.  0.
        4    1    3    3  502    0 -0.11443955372E+04 -0.38973140464E+03  0.16278349204E+04  0.20276537807E+04  0.12699999809E+01 0. -1.
       -4    1    3    3    0  502  0.11443955372E+04  0.38973140464E+03 -0.85152458209E+03  0.14787249373E+04  0.12699999809E+01 0.  1.
</event>
<event>
 5   0  0.5740827E-07  0.3489165E+04  0.7818609E-02  0.8116363E-01
       -2   -1    0    0    0  501  0.00000000000E+00  0.00000000000E+00  0.16620015367E+04  0.16620015367E+04  0.25500000920E-02 0. -1.
        2   -1    0    0  501    0  0.00000000000E+00  0.00000000000E+00 -0.18312666693E+04  0.18312666693E+04  0.25500000920E-02 0.  1.
    10030    2    1    2    0    0  0.00000000000E+00  0.00000000000E+00 -0.16926513264E+03  0.34932682060E+04  0.34891649537E+04 0.  0.
        2    1    3    3  502    0  0.57915888498E+03  0.27163141117E+03  0.15403471347E+04  0.16678962597E+04  0.25500000920E-02 0. -1.
       -2    1    3    3    0  502 -0.57915888498E+03 -0.27163141117E+03 -0.17096122674E+04  0.18253719463E+04  0.25500000920E-02 0.  1.
</event>
<event>
 5   0  0.5707187E-07  0.3505642E+04  0.7818609E-02  0.8112454E-01
        2   -1    0    0  501    0  0.00000000000E+00  0.00000000000E+00  0.17840110334E+04  0.17840110334E+04  0.25500000920E-02 0.  1.
       -2   -1    0    0    0  501  0.00000000000E+00  0.00000000000E+00 -0.17221758378E+04  0.17221758378E+04  0.25500000920E-02 0. -1.
    10030    2    1    2    0    0  0.00000000000E+00  0.00000000000E+00  0.61835195610E+02  0.35061868712E+04  0.35056415653E+04 0.  0.
        1    1    3    3  502    0 -0.10374459192E+04  0.14036166406E+04 -0.13018814398E+03  0.17502521709E+04  0.50400001928E-02 0.  1.
       -1    1    3    3    0  502  0.10374459192E+04 -0.14036166406E+04  0.19202333959E+03  0.17559347003E+04  0.50400001928E-02 0. -1.
</event>
<event>
 5   0  0.5677193E-07  0.3522512E+04  0.7818609E-02  0.8108476E-01
        2   -1    0    0  501    0  0.00000000000E+00  0.00000000000E+00  0.86179676456E+03  0.86179676456E+03  0.25500000920E-02 0.  1.
       -2   -1    0    0    0  501  0.00000000000E+00  0.00000000000E+00 -0.35994822312E+04  0.35994822312E+04  0.25500000920E-02 0. -1.
    10030    2    1    2    0    0  0.00000000000E+00  0.00000000000E+00 -0.27376854666E+04  0.44612789957E+04  0.35225116840E+04 0.  0.
        3    1    3    3  502    0 -0.14023763321E+04 -0.20923556193E+03 -0.26920728276E+04  0.30426460551E+04  0.10100000352E+00 0. -1.
       -3    1    3    3    0  502  0.14023763321E+04  0.20923556193E+03 -0.45612639025E+02  0.14186329407E+04  0.10100000352E+00 0.  1.
</event>
<event>
 5   0  0.5707187E-07  0.3521486E+04  0.7818609E-02  0.8108717E-01
       -2   -1    0    0    0  501  0.00000000000E+00  0.00000000000E+00  0.17570942453E+04  0.17570942453E+04  0.25500000920E-02 0. -1.
        2   -1    0    0  501    0  0.00000000000E+00  0.00000000000E+00 -0.17643993616E+04  0.17643993616E+04  0.25500000920E-02 0.  1.
    10030    2    1    2    0    0  0.00000000000E+00  0.00000000000E+00 -0.73051162382E+01  0.35214936069E+04  0.35214860299E+04 0.  0.
        1    1    3    3  502    0  0.74037555826E+02  0.14527506868E+04  0.98844324499E+03  0.17586887633E+04  0.50400001928E-02 0. -1.
       -1    1    3    3    0  502 -0.74037555826E+02 -0.14527506868E+04 -0.99574836123E+03  0.17628048436E+04  0.50400001928E-02 0.  1.
</event>
<event>
 5   0  0.5573334E-07  0.3458203E+04  0.7818609E-02  0.8123767E-01
       -2   -1    0    0    0  501  0.00000000000E+00  0.00000000000E+00  0.19806566112E+04  0.19806566112E+04  0.25500000920E-02 0. -1.
        2   -1    0    0  501    0  0.00000000000E+00  0.00000000000E+00 -0.15094952118E+04  0.15094952118E+04  0.25500000920E-02 0.  1.
    10030    2    1    2    0    0  0.00000000000E+00  0.00000000000E+00  0.47116139936E+03  0.34901518230E+04  0.34582028111E+04 0.  0.
        4    1    3    3  502    0 -0.82191091009E+03  0.15162705444E+04  0.11125106381E+03  0.17282917347E+04  0.12699999809E+01 0. -1.
       -4    1    3    3    0  502  0.82191091009E+03 -0.15162705444E+04  0.35991033555E+03  0.17618600883E+04  0.12699999809E+01 0.  1.
</event>
<event>
 5   0  0.1873457E-07  0.3205166E+04  0.7818609E-02  0.8187454E-01
        1   -1    0    0  501    0  0.00000000000E+00  0.00000000000E+00  0.21989379027E+04  0.21989379027E+04  0.50400001928E-02 0. -1.
       -1   -1    0    0    0  501  0.00000000000E+00  0.00000000000E+00 -0.11679602243E+04  0.11679602243E+04  0.50400001928E-02 0.  1.
    10030    2    1    2    0    0  0.00000000000E+00  0.00000000000E+00  0.10309776784E+04  0.33668981270E+04  0.32051658341E+04 0.  0.
        3    1    3    3  502    0 -0.10575332191E+04 -0.87448992490E+03 -0.35402475724E+03  0.14171953560E+04  0.10100000352E+00 0.  1.
       -3    1    3    3    0  502  0.10575332191E+04  0.87448992490E+03  0.13850024356E+04  0.19497027710E+04  0.10100000352E+00 0. -1.
</event>
<event>
 5   0  0.1866421E-07  0.3494940E+04  0.7818609E-02  0.8114990E-01
       -1   -1    0    0    0  501  0.00000000000E+00  0.00000000000E+00  0.13212210185E+04  0.13212210185E+04  0.50400001928E-02 0.  1.
        1   -1    0    0  501    0  0.00000000000E+00  0.00000000000E+00 -0.23112338235E+04  0.23112338235E+04  0.50400001928E-02 0. -1.
    10030    2    1    2    0    0  0.00000000000E+00  0.00000000000E+00 -0.99001280504E+03  0.36324548420E+04  0.34949396024E+04 0.  0.
        1    1    3    3  502    0 -0.23965647773E+03  0.14249145110E+04  0.52643114859E+03  0.15378382051E+04  0.50400001928E-02 0.  1.
       -1    1    3    3    0  502  0.23965647773E+03 -0.14249145110E+04 -0.15164439536E+04  0.20946166368E+04  0.50400001928E-02 0. -1.
</event>
<event>
 5   0  0.1823000E-07  0.3476296E+04  0.7818609E-02  0.8119431E-01
       -3   -1    0    0    0  501  0.00000000000E+00  0.00000000000E+00  0.13361134712E+04  0.13361134750E+04  0.10100000352E+00 0. -1.
        3   -1    0    0  501    0  0.00000000000E+00  0.00000000000E+00 -0.22611538677E+04  0.22611538700E+04  0.10100000352E+00 0.  1.
    10030    2    1    2    0    0  0.00000000000E+00  0.00000000000E+00 -0.92504039655E+03  0.35972673449E+04  0.34762958182E+04 0.  0.
        3    1    3    3  502    0  0.18175356035E+03 -0.22581183927E+03  0.13109250334E+04  0.13425907034E+04  0.10100000352E+00 0. -1.
       -3    1    3    3    0  502 -0.18175356035E+03  0.22581183927E+03 -0.22359654300E+04  0.22546766415E+04  0.10100000352E+00 0.  1.
</event>
<event>
 5   0  0.1866421E-07  0.3509012E+04  0.7818609E-02  0.8111658E-01
       -1   -1    0    0    0  501  0.00000000000E+00  0.00000000000E+00  0.20637559804E+04  0.20637559805E+04  0.50400001928E-02 0. -1.
        1   -1    0    0  501    0  0.00000000000E+00  0.00000000000E+00 -0.14915966762E+04  0.14915966762E+04  0.50400001928E-02 0.  1.
    10030    2    1    2    0    0  0.00000000000E+00  0.00000000000E+00  0.57215930423E+03  0.35553526567E+04  0.35090121465E+04 0.  0.
        1    1    3    3  502    0  0.13768407219E+04 -0.44504721874E+03  0.12914202212E+04  0.19394647685E+04  0.50400001928E-02 0. -1.
       -1    1    3    3    0  502 -0.13768407219E+04  0.44504721874E+03 -0.71926091698E+03  0.16158878882E+04  0.50400001928E-02 0.  1.
</event>
<event>
 5   0  0.1933647E-07  0.3548603E+04  0.7818609E-02  0.8102367E-01
        1   -1    0    0  501    0  0.00000000000E+00  0.00000000000E+00  0.30839695867E+04  0.30839695867E+04  0.50400001928E-02 0. -1.
       -1   -1    0    0    0  501  0.00000000000E+00  0.00000000000E+00 -0.10208093500E+04  0.10208093500E+04  0.50400001928E-02 0.  1.
    10030    2    1    2    0    0  0.00000000000E+00  0.00000000000E+00  0.20631602366E+04  0.41047789367E+04  0.35486025358E+04 0.  0.
        4    1    3    3  502    0 -0.36612124639E+02 -0.16334976646E+04  0.23143625317E+03  0.16502179917E+04  0.12699999809E+01 0.  1.
       -4    1    3    3    0  502  0.36612124639E+02  0.16334976646E+04  0.18317239835E+04  0.24545609450E+04  0.12699999809E+01 0. -1.
</event>
<event>
 5   0  0.1873457E-07  0.3492221E+04  0.7818609E-02  0.8115636E-01
       -1   -1    0    0    0  501  0.00000000000E+00  0.00000000000E+00  0.16609052430E+04  0.16609052430E+04  0.50400001928E-02 0.  1.
        1   -1    0    0  501    0  0.00000000000E+00  0.00000000000E+00 -0.18356868742E+04  0.18356868742E+04  0.50400001928E-02 0. -1.
    10030    2    1    2    0    0  0.00000000000E+00  0.00000000000E+00 -0.17478163122E+03  0.34965921172E+04  0.34922210433E+04 0.  0.
        3    1    3    3  502    0 -0.11330129296E+04 -0.13115016341E+04 -0.30013525648E+03  0.17589303617E+04  0.10100000352E+00 0.  1.
       -3    1    3    3    0  502  0.11330129296E+04  0.13115016341E+04  0.12535362526E+03  0.17376617555E+04  0.10100000352E+00 0. -1.
</event>
<event>
 5   0  0.5573334E-07  0.3655892E+04  0.7818609E-02  0.8077808E-01
        2   -1    0    0  501    0  0.00000000000E+00  0.00000000000E+00  0.18397953683E+04  0.18397953683E+04  0.25500000920E-02 0. -1.
       -2   -1    0    0    0  501  0.00000000000E+00  0.00000000000E+00 -0.18161727504E+04  0.18161727504E+04  0.25500000920E-02 0.  1.
    10030    2    1    2    0    0  0.00000000000E+00  0.00000000000E+00  0.23622617859E+02  0.36559681187E+04  0.36558918005E+04 0.  0.
        4    1    3    3  502    0  0.33078746358E+03 -0.82672746602E+03 -0.15846198216E+04  0.18176689031E+04  0.12699999809E+01 0.  1.
       -4    1    3    3    0  502 -0.33078746358E+03  0.82672746602E+03  0.16082424395E+04  0.18382992156E+04  0.12699999809E+01 0. -1.
</event>
<event>
 5   0  0.1897049E-07  0.3496739E+04  0.7818609E-02  0.8114563E-01
        1   -1    0    0  501    0  0.00000000000E+00  0.00000000000E+00  0.15778429198E+04  0.15778429198E+04  0.50400001928E-02 0. -1.
       -1   -1    0    0    0  501  0.00000000000E+00  0.00000000000E+00 -0.19373260286E+04  0.19373260286E+04  0.50400001928E-02 0.  1.
    10030    2    1    2    0    0  0.00000000000E+00  0.00000000000E+00 -0.35948310874E+03  0.35151689484E+04  0.34967391425E+04 0.  0.
        2    1    3    3  502    0 -0.10045087109E+04 -0.28386446728E+03 -0.15896955707E+04  0.19017751690E+04  0.25500000920E-02 0.  1.
       -2    1    3    3    0  502  0.10045087109E+04  0.28386446728E+03  0.12302124619E+04  0.16133937794E+04  0.25500000920E-02 0. -1.
</event>
<event>
 5   0  0.1873457E-07  0.3493506E+04  0.7818609E-02  0.8115331E-01
        1   -1    0    0  501    0  0.00000000000E+00  0.00000000000E+00  0.21394554780E+04  0.21394554780E+04  0.50400001928E-02 0.  1.
       -1   -1    0    0    0  501  0.00000000000E+00  0.00000000000E+00 -0.14261318766E+04  0.14261318766E+04  0.50400001928E-02 0. -1.
    10030    2    1    2    0    0  0.00000000000E+00  0.00000000000E+00  0.71332360144E+03  0.35655873547E+04  0.34935057784E+04 0.  0.
        3    1    3    3  502    0  0.18733550454E+03 -0.10979691879E+04  0.17299783215E+04  0.20575363744E+04  0.10100000352E+00 0.  1.
       -3    1    3    3    0  502 -0.18733550454E+03  0.10979691879E+04 -0.10166547201E+04  0.15080509802E+04  0.10100000352E+00 0. -1.
</event>
<event>
 5   0  0.5554745E-07  0.3491425E+04  0.7818609E-02  0.8115825E-01
       -2   -1    0    0    0  501  0.00000000000E+00  0.00000000000E+00  0.11834235768E+04  0.11834235768E+04  0.25500000920E-02 0. -1.
        2   -1    0    0  501    0  0.00000000000E+00  0.00000000000E+00 -0.25751665417E+04  0.25751665417E+04  0.25500000920E-02 0.  1.
    10030    2    1    2    0    0  0.00000000000E+00  0.00000000000E+00 -0.13917429649E+04  0.37585901185E+04  0.34914253820E+04 0.  0.
        5    1    3    3  502    0 -0.56941496874E+03 -0.11037903392E+04 -0.20164877069E+04  0.23682971270E+04  0.46999998093E+01 0.  1.
       -5    1    3    3    0  502  0.56941496874E+03  0.11037903392E+04  0.62474474202E+03  0.13902929915E+04  0.46999998093E+01 0. -1.
</event>
<event>
 5   0  0.1897049E-07  0.3495386E+04  0.7818609E-02  0.8114884E-01
       -1   -1    0    0    0  501  0.00000000000E+00  0.00000000000E+00  0.19028146611E+04  0.19028146611E+04  0.50400001928E-02 0.  1.
        1   -1    0    0  501    0  0.00000000000E+00  0.00000000000E+00 -0.16052174978E+04  0.16052174978E+04  0.50400001928E-02 0. -1.
    10030    2    1    2    0    0  0.00000000000E+00  0.00000000000E+00  0.29759716332E+03  0.35080321589E+04  0.34953863244E+04 0.  0.
        2    1    3    3  502    0 -0.18423938279E+03  0.94103771109E+03 -0.13176293992E+04  0.16296144812E+04  0.25500000920E-02 0. -1.
       -2    1    3    3    0  502  0.18423938279E+03 -0.94103771109E+03  0.16152265625E+04  0.18784176777E+04  0.25500000920E-02 0.  1.
</event>
<event>
 5   0  0.1908190E-07  0.3503884E+04  0.7818609E-02  0.8112870E-01
       -1   -1    0    0    0  501  0.00000000000E+00  0.00000000000E+00  0.15322840711E+04  0.15322840711E+04  0.50400001928E-02 0. -1.
        1   -1    0    0  501    0  0.00000000000E+00  0.00000000000E+00 -0.20030889131E+04  0.20030889131E+04  0.50400001928E-02 0.  1.
    10030    2    1    2    0    0  0.00000000000E+00  0.00000000000E+00 -0.47080484201E+03  0.35353729842E+04  0.35038842644E+04 0.  0.
        5    1    3    3  502    0 -0.51299055185E+03  0.10671213200E+04  0.10674695129E+04  0.15941833235E+04  0.46999998093E+01 0. -1.
       -5    1    3    3    0  502  0.51299055185E+03 -0.10671213200E+04 -0.15382743549E+04  0.19411896607E+04  0.46999998093E+01 0.  1.
</event>
<event>
 5   0  0.1908190E-07  0.3488090E+04  0.7818609E-02  0.8116618E-01
        1   -1    0    0  501    0  0.00000000000E+00  0.00000000000E+00  0.11663982374E+04  0.11663982374E+04  0.50400001928E-02 0.  1.
       -1   -1    0    0    0  501  0.00000000000E+00  0.00000000000E+00 -0.26077649876E+04  0.26077649876E+04  0.50400001928E-02 0. -1.
    10030    2    1    2    0    0  0.00000000000E+00  0.00000000000E+00 -0.14413667502E+04  0.37741632250E+04  0.34880897265E+04 0.  0.
        5    1    3    3  502    0 -0.12473590622E+04 -0.70137972759E+03  0.35798903773E+03  0.14751326698E+04  0.46999998093E+01 0.  1.
       -5    1    3    3    0  502  0.12473590622E+04  0.70137972759E+03 -0.17993557879E+04  0.22990305552E+04  0.46999998093E+01 0. -1.
</event>
<event>
 5   0  0.5740827E-07  0.3478779E+04  0.7818609E-02  0.8118838E-01
       -2   -1    0    0    0  501  0.00000000000E+00  0.00000000000E+00  0.14280334572E+04  0.14280334572E+04  0.25500000920E-02 0. -1.
        2   -1    0    0  501    0  0.00000000000E+00  0.00000000000E+00 -0.21186305180E+04  0.21186305180E+04  0.25500000920E-02 0.  1.
    10030    2    1    2    0    0  0.00000000000E+00  0.00000000000E+00 -0.69059706078E+03  0.35466639753E+04  0.34787786726E+04 0.  0.
        2    1    3    3  502    0 -0.17328622161E+04  0.28678600890E+02 -0.19462641091E+03  0.17439935097E+04  0.25500000920E-02 0. -1.
       -2    1    3    3    0  502  0.17328622161E+04 -0.28678600890E+02 -0.49597064986E+03  0.18026704656E+04  0.25500000920E-02 0.  1.
</event>
<event>
 5   0  0.5740827E-07  0.3492777E+04  0.7818609E-02  0.8115504E-01
       -2   -1    0    0    0  501  0.00000000000E+00  0.00000000000E+00  0.17698791321E+04  0.17698791321E+04  0.25500000920E-02 0.  1.
        2   -1    0    0  501    0  0.00000000000E+00  0.00000000000E+00 -0.17232100949E+04  0.17232100949E+04  0.25500000920E-02 0. -1.
    10030    2    1    2    0    0  0.00000000000E+00  0.00000000000E+00  0.46669037247E+02  0.34930892270E+04  0.34927774548E+04 0.  0.
        2    1    3    3  502    0  0.72368354022E+03  0.62764964802E+03  0.14836743106E+04  0.17660553238E+04  0.25500000920E-02 0.  1.
       -2    1    3    3    0  502 -0.72368354022E+03 -0.62764964802E+03 -0.14370052733E+04  0.17270339031E+04  0.25500000920E-02 0. -1.
</event>
<event>
 5   0  0.5677193E-07  0.3487000E+04  0.7818609E-02  0.8116878E-01
       -2   -1    0    0    0  501  0.00000000000E+00  0.00000000000E+00  0.12928657309E+04  0.12928657309E+04  0.25500000920E-02 0. -1.
        2   -1    0    0  501    0  0.00000000000E+00  0.00000000000E+00 -0.23512044254E+04  0.23512044254E+04  0.25500000920E-02 0.  1.
    10030    2    1    2    0    0  0.00000000000E+00  0.00000000000E+00 -0.10583386945E+04  0.36440701563E+04  0.34869996432E+04 0.  0.
        3    1    3    3  502    0 -0.15298015141E+03  0.10502167188E+04  0.91640860929E+03  0.14021992842E+04  0.10100000352E+00 0. -1.
       -3    1    3    3    0  502  0.15298015141E+03 -0.10502167188E+04 -0.19747473038E+04  0.22418708721E+04  0.10100000352E+00 0.  1.
</event>
<event>
 5   0  0.5573334E-07  0.3065080E+04  0.7818609E-02  0.8225387E-01
       -2   -1    0    0    0  501  0.00000000000E+00  0.00000000000E+00  0.12417974802E+04  0.12417974802E+04  0.25500000920E-02 0. -1.
        2   -1    0    0  501    0  0.00000000000E+00  0.00000000000E+00 -0.18913537351E+04  0.18913537351E+04  0.25500000920E-02 0.  1.
    10030    2    1    2    0    0  0.00000000000E+00  0.00000000000E+00 -0.64955625484E+03  0.31331512153E+04  0.30650796417E+04 0.  0.
        4    1    3    3  502    0  0.12775205553E+04  0.82395988836E+03 -0.52327628130E+03  0.16077276966E+04  0.12699999809E+01 0.  1.
       -4    1    3    3    0  502 -0.12775205553E+04 -0.82395988836E+03 -0.12627997354E+03  0.15254235187E+04  0.12699999809E+01 0. -1.
</event>
<event>
 5   0  0.1866421E-07  0.3479505E+04  0.7818609E-02  0.8118664E-01
        1   -1    0    0  501    0  0.00000000000E+00  0.00000000000E+00  0.19575034985E+04  0.19575034985E+04  0.50400001928E-02 0.  1.
       -1   -1    0    0    0  501  0.00000000000E+00  0.00000000000E+00 -0.15462236089E+04  0.15462236089E+04  0.50400001928E-02 0. -1.
    10030    2    1    2    0    0  0.00000000000E+00  0.00000000000E+00  0.41127988961E+03  0.35037271074E+04  0.34795046336E+04 0.  0.
        1    1    3    3  502    0 -0.26137902457E+03 -0.15797147259E+04  0.89075903266E+03  0.18322852573E+04  0.50400001928E-02 0.  1.
       -1    1    3    3    0  502  0.26137902457E+03  0.15797147259E+04 -0.47947914304E+03  0.16714418501E+04  0.50400001928E-02 0. -1.
</event>
<event>
 5   0  0.5573334E-07  0.3501291E+04  0.7818609E-02  0.8113484E-01
       -2   -1    0    0    0  501  0.00000000000E+00  0.00000000000E+00  0.11977562501E+04  0.11977562501E+04  0.25500000920E-02 0. -1.
        2   -1    0    0  501    0  0.00000000000E+00  0.00000000000E+00 -0.25587506613E+04  0.25587506613E+04  0.25500000920E-02 0.  1.
    10030    2    1    2    0    0  0.00000000000E+00  0.00000000000E+00 -0.13609944112E+04  0.37565069115E+04  0.35012909603E+04 0.  0.
        4    1    3    3  502    0  0.32432903110E+03  0.49620783099E+03 -0.24477904393E+04  0.25185494197E+04  0.12699999809E+01 0.  1.
       -4    1    3    3    0  502 -0.32432903110E+03 -0.49620783099E+03  0.10867960281E+04  0.12379574918E+04  0.12699999809E+01 0. -1.
</event>
<event>
 5   0  0.1933647E-07  0.3478136E+04  0.7818609E-02  0.8118991E-01
        1   -1    0    0  501    0  0.00000000000E+00  0.00000000000E+00  0.19398447882E+04  0.19398447882E+04  0.50400001928E-02 0. -1.
       -1   -1    0    0    0  501  0.00000000000E+00  0.00000000000E+00 -0.15590717958E+04  0.15590717958E+04  0.50400001928E-02 0.  1.
    10030    2    1    2    0    0  0.00000000000E+00  0.00000000000E+00  0.38077299237E+03  0.34989165840E+04  0.34781358786E+04 0.  0.
        4    1    3    3  502    0  0.33161477792E+03  0.90989984732E+03 -0.12627053783E+04  0.15913241588E+04  0.12699999809E+01 0.  1.
       -4    1    3    3    0  502 -0.33161477792E+03 -0.90989984732E+03  0.16434783706E+04  0.19075924252E+04  0.12699999809E+01 0. -1.
</event>
<event>
 5   0  0.5707187E-07  0.3500002E+04  0.7818609E-02  0.8113789E-01
        2   -1    0    0  501    0  0.00000000000E+00  0.00000000000E+00  0.26958281047E+04  0.26958281047E+04  0.25500000920E-02 0.  1.
       -2   -1    0    0    0  501  0.00000000000E+00  0.00000000000E+00 -0.11360161054E+04  0.11360161054E+04  0.25500000920E-02 0. -1.
    10030    2    1    2    0    0  0.00000000000E+00  0.00000000000E+00  0.15598119993E+04  0.38318442101E+04  0.35000023682E+04 0.  0.
        1    1    3    3  502    0  0.84984432315E+03 -0.11826401674E+04 -0.28247398675E+03  0.14834637482E+04  0.50400001928E-02 0. -1.
       -1    1    3    3    0  502 -0.84984432315E+03  0.11826401674E+04  0.18422859860E+04  0.23483804618E+04  0.50400001928E-02 0.  1.
</event>
<event>
 5   0  0.1873457E-07  0.3275974E+04  0.7818609E-02  0.8169036E-01
        1   -1    0    0  501    0  0.00000000000E+00  0.00000000000E+00  0.19093449663E+04  0.19093449663E+04  0.50400001928E-02 0.  1.
       -1   -1    0    0    0  501  0.00000000000E+00  0.00000000000E+00 -0.14051948338E+04  0.14051948338E+04  0.50400001928E-02 0. -1.
    10030    2    1    2    0    0  0.00000000000E+00  0.00000000000E+00  0.50415013246E+03  0.33145398001E+04  0.32759741651E+04 0.  0.
        3    1    3    3  502    0 -0.19094961720E+03 -0.84749037416E+03  0.16570548288E+04  0.18709709796E+04  0.10100000352E+00 0.  1.
       -3    1    3    3    0  502  0.19094961720E+03  0.84749037416E+03 -0.11529046963E+04  0.14435688205E+04  0.10100000352E+00 0. -1.
</event>
<event>
 5   0  0.5677193E-07  0.3483428E+04  0.7818609E-02  0.8117729E-01
        2   -1    0    0  501    0  0.00000000000E+00  0.00000000000E+00  0.15568276668E+04  0.15568276668E+04  0.25500000920E-02 0.  1.
       -2   -1    0    0    0  501  0.00000000000E+00  0.00000000000E+00 -0.19485566247E+04  0.19485566247E+04  0.25500000920E-02 0. -1.
    10030    2    1    2    0    0  0.00000000000E+00  0.00000000000E+00 -0.39172895789E+03  0.35053842915E+04  0.34834275441E+04 0.  0.
        3    1    3    3  502    0 -0.10520218738E+04  0.71956057779E+03  0.99865150401E+03  0.16192042134E+04  0.10100000352E+00 0.  1.
       -3    1    3    3    0  502  0.10520218738E+04 -0.71956057779E+03 -0.13903804619E+04  0.18861800781E+04  0.10100000352E+00 0. -1.
</event>
<event>
 5   0  0.1908190E-07  0.3508516E+04  0.7818609E-02  0.8111775E-01
       -1   -1    0    0    0  501  0.00000000000E+00  0.00000000000E+00  0.32579618234E+04  0.32579618234E+04  0.50400001928E-02 0. -1.
        1   -1    0    0  501    0  0.00000000000E+00  0.00000000000E+00 -0.94458460172E+03  0.94458460174E+03  0.50400001928E-02 0.  1.
    10030    2    1    2    0    0  0.00000000000E+00  0.00000000000E+00  0.23133772217E+04  0.42025464252E+04  0.35085156813E+04 0.  0.
        5    1    3    3  502    0  0.75911908125E+03  0.21449049859E+03 -0.72014767399E+03  0.10681304770E+04  0.46999998093E+01 0.  1.
       -5    1    3    3    0  502 -0.75911908125E+03 -0.21449049859E+03  0.30335248957E+04  0.31344159482E+04  0.46999998093E+01 0. -1.
</event>
<event>
 5   0  0.5707187E-07  0.3504731E+04  0.7818609E-02  0.8112670E-01
       -2   -1    0    0    0  501  0.00000000000E+00  0.00000000000E+00  0.12067916812E+04  0.12067916812E+04  0.25500000920E-02 0.  1.
        2   -1    0    0  501    0  0.00000000000E+00  0.00000000000E+00 -0.25445860722E+04  0.25445860722E+04  0.25500000920E-02 0. -1.
    10030    2    1    2    0    0  0.00000000000E+00  0.00000000000E+00 -0.13377943910E+04  0.37513777534E+04  0.35047312616E+04 0.  0.
        1    1    3    3  502    0  0.15389544033E+03 -0.38513750869E+03  0.11534998385E+04  0.12257963064E+04  0.50400001928E-02 0.  1.
       -1    1    3    3    0  502 -0.15389544033E+03  0.38513750869E+03 -0.24912942296E+04  0.25255814470E+04  0.50400001928E-02 0. -1.
</event>
<event>
 5   0  0.5677193E-07  0.3489502E+04  0.7818609E-02  0.8116282E-01
        2   -1    0    0  501    0  0.00000000000E+00  0.00000000000E+00  0.25166019052E+04  0.25166019052E+04  0.25500000920E-02 0. -1.
       -2   -1    0    0    0  501  0.00000000000E+00  0.00000000000E+00 -0.12096293057E+04  0.12096293057E+04  0.25500000920E-02 0.  1.
    10030    2    1    2    0    0  0.00000000000E+00  0.00000000000E+00  0.13069725994E+04  0.37262312109E+04  0.34895016351E+04 0.  0.
        3    1    3    3  502    0  0.37795479578E+03  0.23988147746E+03  0.24542347554E+04  0.24947266776E+04  0.10100000352E+00 0. -1.
       -3    1    3    3    0  502 -0.37795479578E+03 -0.23988147746E+03 -0.11472621560E+04  0.12315045333E+04  0.10100000352E+00 0.  1.
</event>
<event>
 5   0  0.1823000E-07  0.3496907E+04  0.7818609E-02  0.8114523E-01
       -3   -1    0    0    0  501  0.00000000000E+00  0.00000000000E+00  0.21892651704E+04  0.21892651728E+04  0.10100000352E+00 0.  1.
        3   -1    0    0  501    0  0.00000000000E+00  0.00000000000E+00 -0.13963995975E+04  0.13963996012E+04  0.10100000352E+00 0. -1.
    10030    2    1    2    0    0  0.00000000000E+00  0.00000000000E+00  0.79286557291E+03  0.35856647739E+04  0.34969066408E+04 0.  0.
        3    1    3    3  502    0  0.28751693786E+03  0.56213262498E+01 -0.13719843157E+04  0.14017983313E+04  0.10100000352E+00 0. -1.
       -3    1    3    3    0  502 -0.28751693786E+03 -0.56213262498E+01  0.21648498886E+04  0.21838664426E+04  0.10100000352E+00 0.  1.
</event>
<event>
 5   0  0.1933647E-07  0.3494313E+04  0.7818609E-02  0.8115139E-01
        1   -1    0    0  501    0  0.00000000000E+00  0.00000000000E+00  0.19505088004E+04  0.19505088004E+04  0.50400001928E-02 0. -1.
       -1   -1    0    0    0  501  0.00000000000E+00  0.00000000000E+00 -0.15650050613E+04  0.15650050613E+04  0.50400001928E-02 0.  1.
    10030    2    1    2    0    0  0.00000000000E+00  0.00000000000E+00  0.38550373909E+03  0.35155138617E+04  0.34943131770E+04 0.  0.
        4    1    3    3  502    0  0.11263224209E+04  0.51041103829E+03 -0.10490109583E+04  0.16215878722E+04  0.12699999809E+01 0.  1.
       -4    1    3    3    0  502 -0.11263224209E+04 -0.51041103829E+03  0.14345146974E+04  0.18939259895E+04  0.12699999809E+01 0. -1.
</event>
<event>
 5   0  0.1897049E-07  0.3516084E+04  0.7818609E-02  0.8109989E-01
       -1   -1    0    0    0  501  0.00000000000E+00  0.00000000000E+00  0.15887659171E+04  0.15887659171E+04  0.50400001928E-02 0.  1.
        1   -1    0    0  501    0  0.00000000000E+00  0.00000000000E+00 -0.19453537439E+04  0.19453537440E+04  0.50400001928E-02 0. -1.
    10030    2    1    2    0    0  0.00000000000E+00  0.00000000000E+00 -0.35658782684E+03  0.35341196611E+04  0.35160840292E+04 0.  0.
        2    1    3    3  502    0 -0.15713499036E+04 -0.56520789533E+03 -0.73075977487E+03  0.18228028783E+04  0.25500000920E-02 0. -1.
       -2    1    3    3    0  502  0.15713499036E+04  0.56520789533E+03  0.37417194803E+03  0.17113167828E+04  0.25500000920E-02 0.  1.
</event>
<event>
 5   0  0.5573334E-07  0.3432835E+04  0.7818609E-02  0.8129894E-01
       -2   -1    0    0    0  501  0.00000000000E+00  0.00000000000E+00  0.12410797572E+04  0.12410797572E+04  0.25500000920E-02 0.  1.
        2   -1    0    0  501    0  0.00000000000E+00  0.00000000000E+00 -0.23738109128E+04  0.23738109128E+04  0.25500000920E-02 0. -1.
    10030    2    1    2    0    0  0.00000000000E+00  0.00000000000E+00 -0.11327311555E+04  0.36148906700E+04  0.34328347885E+04 0.  0.
        4    1    3    3  502    0 -0.10114828640E+04  0.13866525615E+04 -0.58065535796E+03  0.18119230580E+04  0.12699999809E+01 0. -1.
       -4    1    3    3    0  502  0.10114828640E+04 -0.13866525615E+04 -0.55207579757E+03  0.18029676120E+04  0.12699999809E+01 0.  1.
</event>
<event>
 5   0  0.5707187E-07  0.3513065E+04  0.7818609E-02  0.8110701E-01
       -2   -1    0    0    0  501  0.00000000000E+00  0.00000000000E+00  0.17661726682E+04  0.17661726682E+04  0.25500000920E-02 0.  1.
        2   -1    0    0  501    0  0.00000000000E+00  0.00000000000E+00 -0.17469449593E+04  0.17469449593E+04  0.25500000920E-02 0. -1.
    10030    2    1    2    0    0  0.00000000000E+00  0.00000000000E+00  0.19227708916E+02  0.35131176275E+04  0.35130650093E+04 0.  0.
        1    1    3    3  502    0 -0.14379392370E+04 -0.60432294602E+03 -0.79819213387E+03  0.17521375959E+04  0.50400001928E-02 0. -1.
       -1    1    3    3    0  502  0.14379392370E+04  0.60432294602E+03  0.81741984278E+03  0.17609800316E+04  0.50400001928E-02 0.  1.
</event>
<event>
 5   0  0.1866421E-07  0.3500764E+04  0.7818609E-02  0.8113609E-01
       -1   -1    0    0    0  501  0.00000000000E+00  0.00000000000E+00  0.97475143509E+03  0.97475143511E+03  0.50400001928E-02 0.  1.
        1   -1    0    0  501    0  0.00000000000E+00  0.00000000000E+00 -0.31431990795E+04  0.31431990795E+04  0.50400001928E-02 0. -1.
    10030    2    1    2    0    0  0.00000000000E+00  0.00000000000E+00 -0.21684476444E+04  0.41179505146E+04  0.35007643814E+04 0.  0.
        1    1    3    3  502    0 -0.93117402511E+03  0.18709859555E+03 -0.28137241976E+04  0.29697028150E+04  0.50400001928E-02 0. -1.
       -1    1    3    3    0  502  0.93117402511E+03 -0.18709859555E+03  0.64527655318E+03  0.11482476996E+04  0.50400001928E-02 0.  1.
</event>
<event>
 5   0  0.5554745E-07  0.3509701E+04  0.7818609E-02  0.8111495E-01
       -2   -1    0    0    0  501  0.00000000000E+00  0.00000000000E+00  0.20622042114E+04  0.20622042114E+04  0.25500000920E-02 0.  1.
        2   -1    0    0  501    0  0.00000000000E+00  0.00000000000E+00 -0.14933054208E+04  0.14933054208E+04  0.25500000920E-02 0. -1.
    10030    2    1    2    0    0  0.00000000000E+00  0.00000000000E+00  0.56889879061E+03  0.35555096323E+04  0.35097012567E+04 0.  0.
        5    1    3    3  502    0  0.12847242205E+04  0.10345204685E+01 -0.92654444330E+03  0.15839899269E+04  0.46999998093E+01 0. -1.
       -5    1    3    3    0  502 -0.12847242205E+04 -0.10345204685E+01  0.14954432339E+04  0.19715197054E+04  0.46999998093E+01 0.  1.
</event>
<event>
 5   0  0.1933647E-07  0.3506819E+04  0.7818609E-02  0.8112176E-01
       -1   -1    0    0    0  501  0.00000000000E+00  0.00000000000E+00  0.30112561827E+04  0.30112561827E+04  0.50400001928E-02 0. -1.
        1   -1    0    0  501    0  0.00000000000E+00  0.00000000000E+00 -0.10209840478E+04  0.10209840478E+04  0.50400001928E-02 0.  1.
    10030    2    1    2    0    0  0.00000000000E+00  0.00000000000E+00  0.19902721349E+04  0.40322402305E+04  0.35068188014E+04 0.  0.
        4    1    3    3  502    0  0.13087365401E+04  0.87297109255E+03  0.10479967557E+03  0.15766592672E+04  0.12699999809E+01 0.  1.
       -4    1    3    3    0  502 -0.13087365401E+04 -0.87297109255E+03  0.18854724593E+04  0.24555809634E+04  0.12699999809E+01 0. -1.
</event>
<event>
 5   0  0.1908190E-07  0.3501691E+04  0.7818609E-02  0.8113389E-01
        1   -1    0    0  501    0  0.00000000000E+00  0.00000000000E+00  0.18850500062E+04  0.18850500062E+04  0.50400001928E-02 0.  1.
       -1   -1    0    0    0  501  0.00000000000E+00  0.00000000000E+00 -0.16261956359E+04  0.16261956359E+04  0.50400001928E-02 0. -1.
    10030    2    1    2    0    0  0.00000000000E+00  0.00000000000E+00  0.25885437036E+03  0.35112456421E+04  0.35016910735E+04 0.  0.
        5    1    3    3  502    0  0.10864996168E+04  0.89524935967E+03 -0.91431892478E+03  0.16786762700E+04  0.46999998093E+01 0. -1.
       -5    1    3    3    0  502 -0.10864996168E+04 -0.89524935967E+03  0.11731732951E+04  0.18325693721E+04  0.46999998093E+01 0.  1.
</event>
<event>
 5   0  0.1897049E-07  0.3501095E+04  0.7818609E-02  0.8113531E-01
        1   -1    0    0  501    0  0.00000000000E+00  0.00000000000E+00  0.20649421638E+04  0.20649421638E+04  0.50400001928E-02 0. -1.
       -1   -1    0    0    0  501  0.00000000000E+00  0.00000000000E+00 -0.14840203463E+04  0.14840203463E+04  0.50400001928E-02 0.  1.
    10030    2    1    2    0    0  0.00000000000E+00  0.00000000000E+00  0.58092181753E+03  0.35489625101E+04  0.35010947916E+04 0.  0.
        2    1    3    3  502    0  0.11378327947E+04 -0.80599573992E+03  0.13632899292E+04  0.19500902627E+04  0.25500000920E-02 0. -1.
       -2    1    3    3    0  502 -0.11378327947E+04  0.80599573992E+03 -0.78236811169E+03  0.15988722474E+04  0.25500000920E-02 0.  1.
</event>
<event>
 5   0  0.5573334E-07  0.3504175E+04  0.7818609E-02  0.8112801E-01
       -2   -1    0    0    0  501  0.00000000000E+00  0.00000000000E+00  0.15660793447E+04  0.15660793447E+04  0.25500000920E-02 0. -1.
        2   -1    0    0  501    0  0.00000000000E+00  0.00000000000E+00 -0.19601889807E+04  0.19601889807E+04  0.25500000920E-02 0.  1.
    10030    2    1    2    0    0  0.00000000000E+00  0.00000000000E+00 -0.39410963605E+03  0.35262683254E+04  0.35041754947E+04 0.  0.
        4    1    3    3  502    0  0.46419526677E+03 -0.14187858676E+04 -0.11201052157E+04  0.18662979105E+04  0.12699999809E+01 0.  1.
       -4    1    3    3    0  502 -0.46419526677E+03  0.14187858676E+04  0.72599557961E+03  0.16599704149E+04  0.12699999809E+01 0. -1.
</event>
<event>
 5   0  0.1866421E-07  0.3483561E+04  0.7818609E-02  0.8117697E-01
       -1   -1    0    0    0  501  0.00000000000E+00  0.00000000000E+00  0.26697576154E+04  0.26697576154E+04  0.50400001928E-02 0. -1.
        1   -1    0    0  501    0  0.00000000000E+00  0.00000000000E+00 -0.11363573762E+04  0.11363573762E+04  0.50400001928E-02 0.  1.
    10030    2    1    2    0    0  0.00000000000E+00  0.00000000000E+00  0.15334002392E+04  0.38061149917E+04  0.34835606836E+04 0.  0.
        1    1    3    3  502    0  0.69788612355E+03 -0.82456779668E+03  0.22595366969E+04  0.25044886060E+04  0.50400001928E-02 0. -1.
       -1    1    3    3    0  502 -0.69788612355E+03  0.82456779668E+03 -0.72613645768E+03  0.13016263857E+04  0.50400001928E-02 0.  1.
</event>
<event>
 5   0  0.1873457E-07  0.3383616E+04  0.7818609E-02  0.8141939E-01
        1   -1    0    0  501    0  0.00000000000E+00  0.00000000000E+00  0.11324270482E+04  0.11324270482E+04  0.50400001928E-02 0.  1.
       -1   -1    0    0    0  501  0.00000000000E+00  0.00000000000E+00 -0.25275051085E+04  0.25275051086E+04  0.50400001928E-02 0. -1.
    10030    2    1    2    0    0  0.00000000000E+00  0.00000000000E+00 -0.13950780604E+04  0.36599321567E+04  0.33836164968E+04 0.  0.
        3    1    3    3  502    0  0.28423031548E+02  0.14938399417E+04 -0.15559797212E+04  0.21571830111E+04  0.10100000352E+00 0. -1.
       -3    1    3    3    0  502 -0.28423031548E+02 -0.14938399417E+04  0.16090166083E+03  0.15027491457E+04  0.10100000352E+00 0.  1.
</event>
<event>
 5   0  0.5740827E-07  0.3487807E+04  0.7818609E-02  0.8116686E-01
       -2   -1    0    0    0  501  0.00000000000E+00  0.00000000000E+00  0.11815402011E+04  0.11815402011E+04  0.25500000920E-02 0. -1.
        2   -1    0    0  501    0  0.00000000000E+00  0.00000000000E+00 -0.25739280291E+04  0.25739280291E+04  0.25500000920E-02 0.  1.
    10030    2    1    2    0    0  0.00000000000E+00  0.00000000000E+00 -0.13923878281E+04  0.37554682302E+04  0.34878070137E+04 0.  0.
        2    1    3    3  502    0 -0.17072723112E+04  0.24319879546E+03 -0.97547314253E+03  0.19812804573E+04  0.25500000920E-02 0. -1.
       -2    1    3    3    0  502  0.17072723112E+04 -0.24319879546E+03 -0.41691468553E+03  0.17741877729E+04  0.25500000920E-02 0.  1.
</event>
<event>
 5   0  0.5573334E-07  0.3509367E+04  0.7818609E-02  0.8111574E-01
        2   -1    0    0  501    0  0.00000000000E+00  0.00000000000E+00  0.17758729573E+04  0.17758729573E+04  0.25500000920E-02 0.  1.
       -2   -1    0    0    0  501  0.00000000000E+00  0.00000000000E+00 -0.17337468494E+04  0.17337468494E+04  0.25500000920E-02 0. -1.
    10030    2    1    2    0    0  0.00000000000E+00  0.00000000000E+00  0.42126107966E+02  0.35096198067E+04  0.35093669769E+04 0.  0.
        4    1    3    3  502    0  0.71191053954E+03  0.99865524418E+02 -0.15797154998E+04  0.17355956939E+04  0.12699999809E+01 0. -1.
       -4    1    3    3    0  502 -0.71191053954E+03 -0.99865524418E+02  0.16218416078E+04  0.17740241128E+04  0.12699999809E+01 0.  1.
</event>
<event>
 5   0  0.1908190E-07  0.3501906E+04  0.7818609E-02  0.8113338E-01
       -1   -1    0    0    0  501  0.00000000000E+00  0.00000000000E+00  0.15581355328E+04  0.15581355328E+04  0.50400001928E-02 0. -1.
        1   -1    0    0  501    0  0.00000000000E+00  0.00000000000E+00 -0.19676311947E+04  0.19676311947E+04  0.50400001928E-02 0.  1.
    10030    2    1    2    0    0  0.00000000000E+00  0.00000000000E+00 -0.40949566191E+03  0.35257667275E+04  0.35019058125E+04 0.  0.
        5    1    3    3  502    0 -0.23087700625E+03 -0.49758015090E+03  0.14693880198E+04  0.15684429990E+04  0.46999998093E+01 0. -1.
       -5    1    3    3    0  502  0.23087700625E+03  0.49758015090E+03 -0.18788836817E+04  0.19573237284E+04  0.46999998093E+01 0.  1.
</event>
<event>
 5   0  0.5573334E-07  0.3495725E+04  0.7818609E-02  0.8114804E-01
       -2   -1    0    0    0  501  0.00000000000E+00  0.00000000000E+00  0.19364542307E+04  0.19364542307E+04  0.25500000920E-02 0. -1.
        2   -1    0    0  501    0  0.00000000000E+00  0.00000000000E+00 -0.15776378836E+04  0.15776378836E+04  0.25500000920E-02 0.  1.
    10030    2    1    2    0    0  0.00000000000E+00  0.00000000000E+00  0.35881634709E+03  0.35140921143E+04  0.34957251346E+04 0.  0.
        4    1    3    3  502    0 -0.37014154858E+03 -0.10750353882E+04  0.15139056822E+04  0.18933087121E+04  0.12699999809E+01 0. -1.
       -4    1    3    3    0  502  0.37014154858E+03  0.10750353882E+04 -0.11550893351E+04  0.16207834022E+04  0.12699999809E+01 0.  1.
</event>
<event>
 5   0  0.1897049E-07  0.3503789E+04  0.7818609E-02  0.8112893E-01
       -1   -1    0    0    0  501  0.00000000000E+00  0.00000000000E+00  0.23021685314E+04  0.23021685314E+04  0.50400001928E-02 0.  1.
        1   -1    0    0  501    0  0.00000000000E+00  0.00000000000E+00 -0.13331492713E+04  0.13331492713E+04  0.50400001928E-02 0. -1.
    10030    2    1    2    0    0  0.00000000000E+00  0.00000000000E+00  0.96901926008E+03  0.36353178026E+04  0.35037889776E+04 0.  0.
        2    1    3    3  502    0 -0.71831467056E+03  0.14835865314E+04 -0.13117107916E+03  0.16535449235E+04  0.25500000920E-02 0. -1.
       -2    1    3    3    0  502  0.71831467056E+03 -0.14835865314E+04  0.11001903392E+04  0.19817728792E+04  0.25500000920E-02 0.  1.
</event>
<event>
 5   0  0.5554745E-07  0.3451143E+04  0.7818609E-02  0.8125467E-01
       -2   -1    0    0    0  501  0.00000000000E+00  0.00000000000E+00  0.15706995311E+04  0.15706995311E+04  0.25500000920E-02 0. -1.
        2   -1    0    0  501    0  0.00000000000E+00  0.00000000000E+00 -0.18957140042E+04  0.18957140042E+04  0.25500000920E-02 0.  1.
    10030    2    1    2    0    0  0.00000000000E+00  0.00000000000E+00 -0.32501447315E+03  0.34664135353E+04  0.34511430556E+04 0.  0.
        5    1    3    3  502    0 -0.18494017062E+02  0.11445537624E+04  0.11344185469E+04  0.16116056817E+04  0.46999998093E+01 0. -1.
       -5    1    3    3    0  502  0.18494017062E+02 -0.11445537624E+04 -0.14594330201E+04  0.18548078536E+04  0.46999998093E+01 0.  1.
</event>
<event>
 5   0  0.1933647E-07  0.3483564E+04  0.7818609E-02  0.8117696E-01
        1   -1    0    0  501    0  0.00000000000E+00  0.00000000000E+00  0.97389554124E+03  0.97389554125E+03  0.50400001928E-02 0.  1.
       -1   -1    0    0    0  501  0.00000000000E+00  0.00000000000E+00 -0.31151227575E+04  0.31151227575E+04  0.50400001928E-02 0. -1.
    10030    2    1    2    0    0  0.00000000000E+00  0.00000000000E+00 -0.21412272163E+04  0.40890182988E+04  0.34835637867E+04 0.  0.
        4    1    3    3  502    0 -0.11762802541E+03 -0.17265240774E+04 -0.13026611967E+04  0.21660215946E+04  0.12699999809E+01 0. -1.
       -4    1    3    3    0  502  0.11762802541E+03  0.17265240774E+04 -0.83856601953E+03  0.19229967041E+04  0.12699999809E+01 0.  1.
</event>
<event>
 5   0  0.5677193E-07  0.3638810E+04  0.7818609E-02  0.8081659E-01
       -2   -1    0    0    0  501  0.00000000000E+00  0.00000000000E+00  0.16735003950E+04  0.16735003950E+04  0.25500000920E-02 0.  1.
        2   -1    0    0  501    0  0.00000000000E+00  0.00000000000E+00 -0.19780301730E+04  0.19780301730E+04  0.25500000920E-02 0. -1.
    10030    2    1    2    0    0  0.00000000000E+00  0.00000000000E+00 -0.30452977795E+03  0.36515305680E+04  0.36388098472E+04 0.  0.
        3    1    3    3  502    0 -0.81495032474E+03  0.15383946076E+04 -0.68272637178E+03  0.18700046282E+04  0.10100000352E+00 0. -1.
       -3    1    3    3    0  502  0.81495032474E+03 -0.15383946076E+04  0.37819659383E+03  0.17815259398E+04  0.10100000352E+00 0.  1.
</event>
<event>
 5   0  0.1823000E-07  0.3502801E+04  0.7818609E-02  0.8113127E-01
       -4   -1    0    0    0  501  0.00000000000E+00  0.00000000000E+00  0.20627492301E+04  0.20627496211E+04  0.12699999809E+01 0. -1.
        4   -1    0    0  501    0  0.00000000000E+00  0.00000000000E+00 -0.14870451667E+04  0.14870457090E+04  0.12699999809E+01 0.  1.
    10030    2    1    2    0    0  0.00000000000E+00  0.00000000000E+00  0.57570406342E+03  0.35497953301E+04  0.35028005535E+04 0.  0.
        4    1    3    3  502    0  0.10549646352E+04  0.67956015374E+03  0.15259834421E+04  0.19756972092E+04  0.12699999809E+01 0. -1.
       -4    1    3    3    0  502 -0.10549646352E+04 -0.67956015374E+03 -0.95027937863E+03  0.15740981210E+04  0.12699999809E+01 0.  1.
</event>
<event>
 5   0  0.5740827E-07  0.3548091E+04  0.7818609E-02  0.8102487E-01
        2   -1    0    0  501    0  0.00000000000E+00  0.00000000000E+00  0.18050126156E+04  0.18050126156E+04  0.25500000920E-02 0. -1.
       -2   -1    0    0    0  501  0.00000000000E+00  0.00000000000E+00 -0.17436096473E+04  0.17436096473E+04  0.25500000920E-02 0.  1.
    10030    2    1    2    0    0  0.00000000000E+00  0.00000000000E+00  0.61402968283E+02  0.35486222628E+04  0.35480909853E+04 0.  0.
        2    1    3    3  502    0  0.10112897802E+04 -0.13090214483E+04 -0.61048205320E+03  0.17632165236E+04  0.25500000920E-02 0.  1.
       -2    1    3    3    0  502 -0.10112897802E+04  0.13090214483E+04  0.67188502148E+03  0.17854057393E+04  0.25500000920E-02 0. -1.
</event>
<event>
 5   0  0.5573334E-07  0.3502426E+04  0.7818609E-02  0.8113215E-01
       -2   -1    0    0    0  501  0.00000000000E+00  0.00000000000E+00  0.20101346237E+04  0.20101346237E+04  0.25500000920E-02 0.  1.
        2   -1    0    0  501    0  0.00000000000E+00  0.00000000000E+00 -0.15256424582E+04  0.15256424582E+04  0.25500000920E-02 0. -1.
    10030    2    1    2    0    0  0.00000000000E+00  0.00000000000E+00  0.48449216556E+03  0.35357770819E+04  0.35024258614E+04 0.  0.
        4    1    3    3  502    0 -0.11419991808E+04 -0.58998832213E+03  0.14428974093E+04  0.19324085737E+04  0.12699999809E+01 0.  1.
       -4    1    3    3    0  502  0.11419991808E+04  0.58998832213E+03 -0.95840524372E+03  0.16033685082E+04  0.12699999809E+01 0. -1.
</event>
<event>
 5   0  0.5554745E-07  0.3473135E+04  0.7818609E-02  0.8120186E-01
       -2   -1    0    0    0  501  0.00000000000E+00  0.00000000000E+00  0.13069487206E+04  0.13069487206E+04  0.25500000920E-02 0. -1.
        2   -1    0    0  501    0  0.00000000000E+00  0.00000000000E+00 -0.23074106178E+04  0.23074106178E+04  0.25500000920E-02 0.  1.
    10030    2    1    2    0    0  0.00000000000E+00  0.00000000000E+00 -0.10004618972E+04  0.36143593384E+04  0.34731353874E+04 0.  0.
        5    1    3    3  502    0  0.14098636925E+04 -0.27632953637E+03 -0.15153812676E+04  0.20881753088E+04  0.46999998093E+01 0.  1.
       -5    1    3    3    0  502 -0.14098636925E+04  0.27632953637E+03  0.51491937039E+03  0.15261840296E+04  0.46999998093E+01 0. -1.
</event>
<event>
 5   0  0.1866421E-07  0.3477597E+04  0.7818609E-02  0.8119120E-01
       -1   -1    0    0    0  501  0.00000000000E+00  0.00000000000E+00  0.26325951382E+04  0.26325951382E+04  0.50400001928E-02 0. -1.
        1   -1    0    0  501    0  0.00000000000E+00  0.00000000000E+00 -0.11484559199E+04  0.11484559199E+04  0.50400001928E-02 0.  1.
    10030    2    1    2    0    0  0.00000000000E+00  0.00000000000E+00  0.14841392183E+04  0.37810510581E+04  0.34775965672E+04 0.  0.
        1    1    3    3  502    0 -0.32328653652E+03  0.82030860124E+03  0.23715087000E+04  0.25301134165E+04  0.50400001928E-02 0. -1.
       -1    1    3    3    0  502  0.32328653652E+03 -0.82030860124E+03 -0.88736948175E+03  0.12509376416E+04  0.50400001928E-02 0.  1.
</event>
<event>
 5   0  0.1897049E-07  0.3481381E+04  0.7818609E-02  0.8118217E-01
        1   -1    0    0  501    0  0.00000000000E+00  0.00000000000E+00  0.23701362629E+04  0.23701362629E+04  0.50400001928E-02 0.  1.
       -1   -1    0    0    0  501  0.00000000000E+00  0.00000000000E+00 -0.12784087858E+04  0.12784087858E+04  0.50400001928E-02 0. -1.
    10030    2    1    2    0    0  0.00000000000E+00  0.00000000000E+00  0.10917274771E+04  0.36485450487E+04  0.34813807733E+04 0.  0.
        2    1    3    3  502    0  0.85915466816E+03 -0.14286671592E+04  0.21052795799E+02  0.16672371805E+04  0.25500000920E-02 0. -1.
       -2    1    3    3    0  502 -0.85915466816E+03  0.14286671592E+04  0.10706746813E+04  0.19813078683E+04  0.25500000920E-02 0.  1.
</event>
<event>
 5   0  0.5554745E-07  0.3486536E+04  0.7818609E-02  0.8116988E-01
       -2   -1    0    0    0  501  0.00000000000E+00  0.00000000000E+00  0.18133140702E+04  0.18133140702E+04  0.25500000920E-02 0. -1.
        2   -1    0    0  501    0  0.00000000000E+00  0.00000000000E+00 -0.16759280321E+04  0.16759280321E+04  0.25500000920E-02 0.  1.
    10030    2    1    2    0    0  0.00000000000E+00  0.00000000000E+00  0.13738603809E+03  0.34892421023E+04  0.34865363221E+04 0.  0.
        5    1    3    3  502    0 -0.83939940828E+02  0.15237701640E+04  0.91198589110E+03  0.17778250144E+04  0.46999998093E+01 0. -1.
       -5    1    3    3    0  502  0.83939940828E+02 -0.15237701640E+04 -0.77459985301E+03  0.17114170879E+04  0.46999998093E+01 0.  1.
</event>
<event>
 5   0  0.1873457E-07  0.3494920E+04  0.7818609E-02  0.8114995E-01
       -1   -1    0    0    0  501  0.00000000000E+00  0.00000000000E+00  0.24291436988E+04  0.24291436988E+04  0.50400001928E-02 0. -1.
        1   -1    0    0  501    0  0.00000000000E+00  0.00000000000E+00 -0.12570749867E+04  0.12570749868E+04  0.50400001928E-02 0.  1.
    10030    2    1    2    0    0  0.00000000000E+00  0.00000000000E+00  0.11720687120E+04  0.36862186855E+04  0.34949196174E+04 0.  0.
        3    1    3    3  502    0  0.14538259293E+03 -0.11545852476E+04  0.19610046621E+04  0.22802943861E+04  0.10100000352E+00 0. -1.
       -3    1    3    3    0  502 -0.14538259293E+03  0.11545852476E+04 -0.78893595007E+03  0.14059242994E+04  0.10100000352E+00 0.  1.
</event>
<event>
 5   0  0.5707187E-07  0.3461188E+04  0.7818609E-02  0.8123050E-01
       -2   -1    0    0    0  501  0.00000000000E+00  0.00000000000E+00  0.20435266012E+04  0.20435266012E+04  0.25500000920E-02 0.  1.
        2   -1    0    0  501    0  0.00000000000E+00  0.00000000000E+00 -0.14655817906E+04  0.14655817906E+04  0.25500000920E-02 0. -1.
    10030    2    1    2    0    0  0.00000000000E+00  0.00000000000E+00  0.57794481058E+03  0.35091083918E+04  0.34611878743E+04 0.  0.
        1    1    3    3  502    0  0.54441942435E+03  0.46335697070E+03 -0.13088755262E+04  0.14913910738E+04  0.50400001928E-02 0. -1.
       -1    1    3    3    0  502 -0.54441942435E+03 -0.46335697070E+03  0.18868203368E+04  0.20177173180E+04  0.50400001928E-02 0.  1.
</event>
<event>
 5   0  0.1866421E-07  0.3496969E+04  0.7818609E-02  0.8114509E-01
        1   -1    0    0  501    0  0.00000000000E+00  0.00000000000E+00  0.17895906933E+04  0.17895906933E+04  0.50400001928E-02 0.  1.
       -1   -1    0    0    0  501  0.00000000000E+00  0.00000000000E+00 -0.17083226086E+04  0.17083226086E+04  0.50400001928E-02 0. -1.
    10030    2    1    2    0    0  0.00000000000E+00  0.00000000000E+00  0.81268084699E+02  0.34979133019E+04  0.34969691113E+04 0.  0.
        1    1    3    3  502    0 -0.13870993360E+03 -0.85553897229E+03  0.15595995746E+04  0.17842472396E+04  0.50400001928E-02 0.  1.
       -1    1    3    3    0  502  0.13870993360E+03  0.85553897229E+03 -0.14783314899E+04  0.17136660623E+04  0.50400001928E-02 0. -1.
</event>
<event>
 5   0  0.5707187E-07  0.3513562E+04  0.7818609E-02  0.8110584E-01
       -2   -1    0    0    0  501  0.00000000000E+00  0.00000000000E+00  0.13482181974E+04  0.13482181975E+04  0.25500000920E-02 0. -1.
        2   -1    0    0  501    0  0.00000000000E+00  0.00000000000E+00 -0.22891538685E+04  0.22891538685E+04  0.25500000920E-02 0.  1.
    10030    2    1    2    0    0  0.00000000000E+00  0.00000000000E+00 -0.94093567110E+03  0.36373720660E+04  0.35135616701E+04 0.  0.
        1    1    3    3  502    0 -0.52678419214E+02 -0.56770399251E+03 -0.21907129858E+04  0.22636886326E+04  0.50400001928E-02 0.  1.
       -1    1    3    3    0  502  0.52678419214E+02  0.56770399251E+03  0.12497773147E+04  0.13736834334E+04  0.50400001928E-02 0. -1.
</event>
<event>
 5   0  0.5707187E-07  0.3510922E+04  0.7818609E-02  0.8111206E-01
       -2   -1    0    0    0  501  0.00000000000E+00  0.00000000000E+00  0.14426659292E+04  0.14426659292E+04  0.25500000920E-02 0. -1.
        2   -1    0    0  501    0  0.00000000000E+00  0.00000000000E+00 -0.21360756141E+04  0.21360756141E+04  0.25500000920E-02 0.  1.
    10030    2    1    2    0    0  0.00000000000E+00  0.00000000000E+00 -0.69340968492E+03  0.35787415433E+04  0.35109221072E+04 0.  0.
        1    1    3    3  502    0 -0.56603777087E+03  0.64321841716E+03 -0.19084613052E+04  0.20919735284E+04  0.50400001928E-02 0.  1.
       -1    1    3    3    0  502  0.56603777087E+03 -0.64321841716E+03  0.12150516203E+04  0.14867680149E+04  0.50400001928E-02 0. -1.
</event>
<event>
 5   0  0.5554745E-07  0.3510771E+04  0.7818609E-02  0.8111242E-01
       -2   -1    0    0    0  501  0.00000000000E+00  0.00000000000E+00  0.16860355927E+04  0.16860355927E+04  0.25500000920E-02 0. -1.
        2   -1    0    0  501    0  0.00000000000E+00  0.00000000000E+00 -0.18275878591E+04  0.18275878591E+04  0.25500000920E-02 0.  1.
    10030    2    1    2    0    0  0.00000000000E+00  0.00000000000E+00 -0.14155226635E+03  0.35136234518E+04  0.35107709576E+04 0.  0.
        5    1    3    3  502    0  0.76102179140E+03  0.19988932270E+03 -0.16412056751E+04  0.18200791374E+04  0.46999998093E+01 0.  1.
       -5    1    3    3    0  502 -0.76102179140E+03 -0.19988932270E+03  0.14996534088E+04  0.16935443144E+04  0.46999998093E+01 0. -1.
</event>
<event>
 5   0  0.5677193E-07  0.3500787E+04  0.7818609E-02  0.8113603E-01
        2   -1    0    0  501    0  0.00000000000E+00  0.00000000000E+00  0.24203728683E+04  0.24203728683E+04  0.25500000920E-02 0. -1.
       -2   -1    0    0    0  501  0.00000000000E+00  0.00000000000E+00 -0.12658701738E+04  0.12658701738E+04  0.25500000920E-02 0.  1.
    10030    2    1    2    0    0  0.00000000000E+00  0.00000000000E+00  0.11545026945E+04  0.36862430421E+04  0.35007872391E+04 0.  0.
        3    1    3    3  502    0  0.15501500831E+04 -0.31337701230E+03 -0.21262581001E+03  0.15957381293E+04  0.10100000352E+00 0.  1.
       -3    1    3    3    0  502 -0.15501500831E+04  0.31337701230E+03  0.13671285045E+04  0.20905049127E+04  0.10100000352E+00 0. -1.
</event>
<event>
 5   0  0.1897049E-07  0.3478900E+04  0.7818609E-02  0.8118809E-01
        1   -1    0    0  501    0  0.00000000000E+00  0.00000000000E+00  0.26945016593E+04  0.26945016593E+04  0.50400001928E-02 0. -1.
       -1   -1    0    0    0  501  0.00000000000E+00  0.00000000000E+00 -0.11229113725E+04  0.11229113725E+04  0.50400001928E-02 0.  1.
    10030    2    1    2    0    0  0.00000000000E+00  0.00000000000E+00  0.15715902868E+04  0.38174130318E+04  0.34789001460E+04 0.  0.
        2    1    3    3  502    0  0.10236454851E+04 -0.13625973393E+04  0.11677532435E+04  0.20659547977E+04  0.25500000920E-02 0. -1.
       -2    1    3    3    0  502 -0.10236454851E+04  0.13625973393E+04  0.40383704328E+03  0.17514582341E+04  0.25500000920E-02 0.  1.
</event>
<event>
 5   0  0.1873457E-07  0.3485052E+04  0.7818609E-02  0.8117342E-01
       -1   -1    0    0    0  501  0.00000000000E+00  0.00000000000E+00  0.10696694934E+04  0.10696694934E+04  0.50400001928E-02 0.  1.
        1   -1    0    0  501    0  0.00000000000E+00  0.00000000000E+00 -0.28386307397E+04  0.28386307397E+04  0.50400001928E-02 0. -1.
    10030    2    1    2    0    0  0.00000000000E+00  0.00000000000E+00 -0.17689612463E+04  0.39083002331E+04  0.34850519108E+04 0.  0.
        3    1    3    3  502    0  0.94282332480E+03 -0.13368304734E+04 -0.15576898578E+04  0.22588557368E+04  0.10100000352E+00 0.  1.
       -3    1    3    3    0  502 -0.94282332480E+03  0.13368304734E+04 -0.21127138846E+03  0.16494444963E+04  0.10100000352E+00 0. -1.
</event>
<event>
 5   0  0.1897049E-07  0.3588604E+04  0.7818609E-02  0.8093107E-01
        1   -1    0    0  501    0  0.00000000000E+00  0.00000000000E+00  0.23884568969E+04  0.23884568969E+04  0.50400001928E-02 0.  1.
       -1   -1    0    0    0  501  0.00000000000E+00  0.00000000000E+00 -0.13479493154E+04  0.13479493154E+04  0.50400001928E-02 0. -1.
    10030    2    1    2    0    0  0.00000000000E+00  0.00000000000E+00  0.10405075815E+04  0.37364062123E+04  0.35886035384E+04 0.  0.
        2    1    3    3  502    0 -0.54567001702E+03 -0.44351711139E+03  0.22390179613E+04  0.23468414149E+04  0.25500000920E-02 0.  1.
       -2    1    3    3    0  502  0.54567001702E+03  0.44351711139E+03 -0.11985103798E+04  0.13895647974E+04  0.25500000920E-02 0. -1.
</event>
<event>
 5   0  0.1866421E-07  0.3506298E+04  0.7818609E-02  0.8112299E-01
       -1   -1    0    0    0  501  0.00000000000E+00  0.00000000000E+00  0.19561721317E+04  0.19561721317E+04  0.50400001928E-02 0.  1.
        1   -1    0    0  501    0  0.00000000000E+00  0.00000000000E+00 -0.15711965491E+04  0.15711965491E+04  0.50400001928E-02 0. -1.
    10030    2    1    2    0    0  0.00000000000E+00  0.00000000000E+00  0.38497558263E+03  0.35273686808E+04  0.35062977071E+04 0.  0.
        1    1    3    3  502    0 -0.15453615397E+03  0.41074203609E+03  0.19000211945E+04  0.19500438413E+04  0.50400001928E-02 0.  1.
       -1    1    3    3    0  502  0.15453615397E+03 -0.41074203609E+03 -0.15150456119E+04  0.15773248395E+04  0.50400001928E-02 0. -1.
</event>
<event>
 5   0  0.5573334E-07  0.3694447E+04  0.7818609E-02  0.8069194E-01
       -2   -1    0    0    0  501  0.00000000000E+00  0.00000000000E+00  0.16629663570E+04  0.16629663570E+04  0.25500000920E-02 0. -1.
        2   -1    0    0  501    0  0.00000000000E+00  0.00000000000E+00 -0.20518958762E+04  0.20518958762E+04  0.25500000920E-02 0.  1.
    10030    2    1    2    0    0  0.00000000000E+00  0.00000000000E+00 -0.38892951912E+03  0.37148622332E+04  0.36944465405E+04 0.  0.
        4    1    3    3  502    0 -0.84814095228E+03  0.92673308268E+03 -0.15562213742E+04  0.20000009650E+04  0.12699999809E+01 0.  1.
       -4    1    3    3    0  502  0.84814095228E+03 -0.92673308268E+03  0.11672918551E+04  0.17148612682E+04  0.12699999809E+01 0. -1.
</event>
<event>
 5   0  0.1873457E-07  0.3491593E+04  0.7818609E-02  0.8115785E-01
        1   -1    0    0  501    0  0.00000000000E+00  0.00000000000E+00  0.20099921024E+04  0.20099921024E+04  0.50400001928E-02 0. -1.
       -1   -1    0    0    0  501  0.00000000000E+00  0.00000000000E+00 -0.15163273633E+04  0.15163273633E+04  0.50400001928E-02 0.  1.
    10030    2    1    2    0    0  0.00000000000E+00  0.00000000000E+00  0.49366473905E+03  0.35263194657E+04  0.34915933468E+04 0.  0.
        3    1    3    3  502    0  0.93245302167E+02 -0.16259676126E+04 -0.38818226439E+03  0.16742612832E+04  0.10100000352E+00 0.  1.
       -3    1    3    3    0  502 -0.93245302167E+02  0.16259676126E+04  0.88184700344E+03  0.18520581825E+04  0.10100000352E+00 0. -1.
</event>
<event>
 5   0  0.5740827E-07  0.3534537E+04  0.7818609E-02  0.8105654E-01
        2   -1    0    0  501    0  0.00000000000E+00  0.00000000000E+00  0.26333544699E+04  0.26333544699E+04  0.25500000920E-02 0.  1.
       -2   -1    0    0    0  501  0.00000000000E+00  0.00000000000E+00 -0.11860299899E+04  0.11860299899E+04  0.25500000920E-02 0. -1.
    10030    2    1    2    0    0  0.00000000000E+00  0.00000000000E+00  0.14473244800E+04  0.38193844599E+04  0.35345366743E+04 0.  0.
        2    1    3    3  502    0  0.15165571402E+04 -0.90475548014E+03  0.79781729762E+03  0.19377926821E+04  0.25500000920E-02 0.  1.
       -2    1    3    3    0  502 -0.15165571402E+04  0.90475548014E+03  0.64950718241E+03  0.18815917778E+04  0.25500000920E-02 0. -1.
</event>
<event>
 5   0  0.1908190E-07  0.3504622E+04  0.7818609E-02  0.8112695E-01
       -1   -1    0    0    0  501  0.00000000000E+00  0.00000000000E+00  0.10229153452E+04  0.10229153452E+04  0.50400001928E-02 0.  1.
        1   -1    0    0  501    0  0.00000000000E+00  0.00000000000E+00 -0.30018070215E+04  0.30018070215E+04  0.50400001928E-02 0. -1.
    10030    2    1    2    0    0  0.00000000000E+00  0.00000000000E+00 -0.19788916763E+04  0.40247223667E+04  0.35046223566E+04 0.  0.
        5    1    3    3  502    0  0.91544777430E+03 -0.47374898890E+03  0.63792394707E+03  0.12122094638E+04  0.46999998093E+01 0.  1.
       -5    1    3    3    0  502 -0.91544777430E+03  0.47374898890E+03 -0.26168156234E+04  0.28125129029E+04  0.46999998093E+01 0. -1.
</event>
<event>
 5   0  0.5573334E-07  0.3493984E+04  0.7818609E-02  0.8115217E-01
       -2   -1    0    0    0  501  0.00000000000E+00  0.00000000000E+00  0.23746460818E+04  0.23746460818E+04  0.25500000920E-02 0.  1.
        2   -1    0    0  501    0  0.00000000000E+00  0.00000000000E+00 -0.12852364841E+04  0.12852364841E+04  0.25500000920E-02 0. -1.
    10030    2    1    2    0    0  0.00000000000E+00  0.00000000000E+00  0.10894095977E+04  0.36598825659E+04  0.34939844196E+04 0.  0.
        4    1    3    3  502    0 -0.79853091314E+03  0.12804162428E+04  0.14667635427E+04  0.21044035443E+04  0.12699999809E+01 0.  1.
       -4    1    3    3    0  502  0.79853091314E+03 -0.12804162428E+04 -0.37735394496E+03  0.15554790216E+04  0.12699999809E+01 0. -1.
</event>
<event>
 5   0  0.5707187E-07  0.3481715E+04  0.7818609E-02  0.8118137E-01
        2   -1    0    0  501    0  0.00000000000E+00  0.00000000000E+00  0.25586808145E+04  0.25586808145E+04  0.25500000920E-02 0.  1.
       -2   -1    0    0    0  501  0.00000000000E+00  0.00000000000E+00 -0.11844326014E+04  0.11844326014E+04  0.25500000920E-02 0. -1.
    10030    2    1    2    0    0  0.00000000000E+00  0.00000000000E+00  0.13742482132E+04  0.37431134159E+04  0.34817150792E+04 0.  0.
        1    1    3    3  502    0  0.53855096787E+03  0.15123943841E+04 -0.36628274308E+02  0.16058379584E+04  0.50400001928E-02 0.  1.
       -1    1    3    3    0  502 -0.53855096787E+03 -0.15123943841E+04  0.14108764875E+04  0.21372754575E+04  0.50400001928E-02 0. -1.
</event>
<event>
 5   0  0.5707187E-07  0.3493507E+04  0.7818609E-02  0.8115330E-01
       -2   -1    0    0    0  501  0.00000000000E+00  0.00000000000E+00  0.13987985165E+04  0.13987985165E+04  0.25500000920E-02 0.  1.
        2   -1    0    0  501    0  0.00000000000E+00  0.00000000000E+00 -0.21812634152E+04  0.21812634152E+04  0.25500000920E-02 0. -1.
    10030    2    1    2    0    0  0.00000000000E+00  0.00000000000E+00 -0.78246489868E+03  0.35800619317E+04  0.34935071371E+04 0.  0.
        1    1    3    3  502    0  0.16716080266E+04  0.41821324497E+03 -0.97830828472E+02  0.17259045697E+04  0.50400001928E-02 0.  1.
       -1    1    3    3    0  502 -0.16716080266E+04 -0.41821324497E+03 -0.68463407021E+03  0.18541573619E+04  0.50400001928E-02 0. -1.
</event>
<event>
 5   0  0.1933647E-07  0.3482019E+04  0.7818609E-02  0.8118065E-01
        1   -1    0    0  501    0  0.00000000000E+00  0.00000000000E+00  0.13082228705E+04  0.13082228705E+04  0.50400001928E-02 0.  1.
       -1   -1    0    0    0  501  0.00000000000E+00  0.00000000000E+00 -0.23169704609E+04  0.23169704609E+04  0.50400001928E-02 0. -1.
    10030    2    1    2    0    0  0.00000000000E+00  0.00000000000E+00 -0.10087475904E+04  0.36251933314E+04  0.34820188094E+04 0.  0.
        4    1    3    3  502    0  0.13508107343E+04 -0.45170012633E+03  0.53798758428E+03  0.15225488162E+04  0.12699999809E+01 0.  1.
       -4    1    3    3    0  502 -0.13508107343E+04  0.45170012633E+03 -0.15467351746E+04  0.21026445152E+04  0.12699999809E+01 0. -1.
</event>
<event>
 5   0  0.5573334E-07  0.3411449E+04  0.7818609E-02  0.8135102E-01
       -2   -1    0    0    0  501  0.00000000000E+00  0.00000000000E+00  0.11951108906E+04  0.11951108906E+04  0.25500000920E-02 0.  1.
        2   -1    0    0  501    0  0.00000000000E+00  0.00000000000E+00 -0.24344991342E+04  0.24344991342E+04  0.25500000920E-02 0. -1.
    10030    2    1    2    0    0  0.00000000000E+00  0.00000000000E+00 -0.12393882436E+04  0.36296100248E+04  0.34114492102E+04 0.  0.
        4    1    3    3  502    0 -0.92100064498E+03  0.13027182242E+04 -0.12617573872E+04  0.20340477568E+04  0.12699999809E+01 0. -1.
       -4    1    3    3    0  502  0.92100064498E+03 -0.13027182242E+04  0.22369143546E+02  0.15955622681E+04  0.12699999809E+01 0.  1.
</event>
<event>
 5   0  0.5573334E-07  0.3453111E+04  0.7818609E-02  0.8124993E-01
       -2   -1    0    0    0  501  0.00000000000E+00  0.00000000000E+00  0.14014479587E+04  0.14014479587E+04  0.25500000920E-02 0.  1.
        2   -1    0    0  501    0  0.00000000000E+00  0.00000000000E+00 -0.21270811065E+04  0.21270811065E+04  0.25500000920E-02 0. -1.
    10030    2    1    2    0    0  0.00000000000E+00  0.00000000000E+00 -0.72563314783E+03  0.35285290653E+04  0.34531107569E+04 0.  0.
        4    1    3    3  502    0  0.47683415112E+03 -0.91066694276E+03 -0.17803076880E+04  0.20557680232E+04  0.12699999809E+01 0. -1.
       -4    1    3    3    0  502 -0.47683415112E+03  0.91066694276E+03  0.10546745402E+04  0.14727610420E+04  0.12699999809E+01 0.  1.
</event>
<event>
 5   0  0.1897049E-07  0.3476442E+04  0.7818609E-02  0.8119396E-01
        1   -1    0    0  501    0  0.00000000000E+00  0.00000000000E+00  0.24505031691E+04  0.24505031691E+04  0.50400001928E-02 0.  1.
       -1   -1    0    0    0  501  0.00000000000E+00  0.00000000000E+00 -0.12329762232E+04  0.12329762232E+04  0.50400001928E-02 0. -1.
    10030    2    1    2    0    0  0.00000000000E+00  0.00000000000E+00  0.12175269459E+04  0.36834793923E+04  0.34764419411E+04 0.  0.
        2    1    3    3  502    0  0.52460225005E+03 -0.10918055920E+04  0.19296692809E+04  0.22783481967E+04  0.25500000920E-02 0.  1.
       -2    1    3    3    0  502 -0.52460225005E+03  0.10918055920E+04 -0.71214233505E+03  0.14051311956E+04  0.25500000920E-02 0. -1.
</event>
<event>
 5   0  0.5573334E-07  0.3511047E+04  0.7818609E-02  0.8111177E-01
       -2   -1    0    0    0  501  0.00000000000E+00  0.00000000000E+00  0.20707214369E+04  0.20707214369E+04  0.25500000920E-02 0.  1.
        2   -1    0    0  501    0  0.00000000000E+00  0.00000000000E+00 -0.14883038278E+04  0.14883038278E+04  0.25500000920E-02 0. -1.
    10030    2    1    2    0    0  0.00000000000E+00  0.00000000000E+00  0.58241760905E+03  0.35590252647E+04  0.35110469326E+04 0.  0.
        4    1    3    3  502    0 -0.14135059115E+04  0.79267203375E+03 -0.39294604849E+03  0.16675539346E+04  0.12699999809E+01 0. -1.
       -4    1    3    3    0  502  0.14135059115E+04 -0.79267203375E+03  0.97536365754E+03  0.18914713300E+04  0.12699999809E+01 0.  1.
</event>
<event>
 5   0  0.1908190E-07  0.3500707E+04  0.7818609E-02  0.8113622E-01
       -1   -1    0    0    0  501  0.00000000000E+00  0.00000000000E+00  0.18127959234E+04  0.18127959234E+04  0.50400001928E-02 0.  1.
        1   -1    0    0  501    0  0.00000000000E+00  0.00000000000E+00 -0.16900624025E+04  0.16900624025E+04  0.50400001928E-02 0. -1.
    10030    2    1    2    0    0  0.00000000000E+00  0.00000000000E+00  0.12273352086E+03  0.35028583259E+04  0.35007074905E+04 0.  0.
        5    1    3    3  502    0 -0.12328917666E+04 -0.11983729676E+04 -0.26685347161E+03  0.17399289477E+04  0.46999998093E+01 0.  1.
       -5    1    3    3    0  502  0.12328917666E+04  0.11983729676E+04  0.38958699247E+03  0.17629293782E+04  0.46999998093E+01 0. -1.
</event>
<event>
 5   0  0.1908190E-07  0.3475180E+04  0.7818609E-02  0.8119697E-01
        1   -1    0    0  501    0  0.00000000000E+00  0.00000000000E+00  0.21742038915E+04  0.21742038915E+04  0.50400001928E-02 0.  1.
       -1   -1    0    0    0  501  0.00000000000E+00  0.00000000000E+00 -0.13886548803E+04  0.13886548803E+04  0.50400001928E-02 0. -1.
    10030    2    1    2    0    0  0.00000000000E+00  0.00000000000E+00  0.78554901117E+03  0.35628587718E+04  0.34751799060E+04 0.  0.
        5    1    3    3  502    0 -0.14862333103E+04  0.61088035878E+03 -0.28506653213E+03  0.16319771087E+04  0.46999998093E+01 0. -1.
       -5    1    3    3    0  502  0.14862333103E+04 -0.61088035878E+03  0.10706155433E+04  0.19308816631E+04  0.46999998093E+01 0.  1.
</event>
<event>
 5   0  0.1908190E-07  0.3468020E+04  0.7818609E-02  0.8121411E-01
       -1   -1    0    0    0  501  0.00000000000E+00  0.00000000000E+00  0.15144642622E+04  0.15144642622E+04  0.50400001928E-02 0. -1.
        1   -1    0    0  501    0  0.00000000000E+00  0.00000000000E+00 -0.19853829634E+04  0.19853829634E+04  0.50400001928E-02 0.  1.
    10030    2    1    2    0    0  0.00000000000E+00  0.00000000000E+00 -0.47091870124E+03  0.34998472256E+04  0.34680204987E+04 0.  0.
        5    1    3    3  502    0  0.12890415469E+04 -0.10703155453E+04  0.21536844478E+03  0.16892628964E+04  0.46999998093E+01 0. -1.
       -5    1    3    3    0  502 -0.12890415469E+04  0.10703155453E+04 -0.68628714602E+03  0.18105843292E+04  0.46999998093E+01 0.  1.
</event>
<event>
 5   0  0.1897049E-07  0.3510701E+04  0.7818609E-02  0.8111259E-01
        1   -1    0    0  501    0  0.00000000000E+00  0.00000000000E+00  0.99390760286E+03  0.99390760287E+03  0.50400001928E-02 0.  1.
       -1   -1    0    0    0  501  0.00000000000E+00  0.00000000000E+00 -0.31001420880E+04  0.31001420880E+04  0.50400001928E-02 0. -1.
    10030    2    1    2    0    0  0.00000000000E+00  0.00000000000E+00 -0.21062344851E+04  0.40940496909E+04  0.35107006658E+04 0.  0.
        2    1    3    3  502    0  0.47121267876E+03 -0.16755810151E+04 -0.78810897472E+03  0.19106880653E+04  0.25500000920E-02 0.  1.
       -2    1    3    3    0  502 -0.47121267876E+03  0.16755810151E+04 -0.13181255104E+04  0.21833616256E+04  0.25500000920E-02 0. -1.
</event>
<event>
 5   0  0.5677193E-07  0.3520094E+04  0.7818609E-02  0.8109044E-01
        2   -1    0    0  501    0  0.00000000000E+00  0.00000000000E+00  0.21597714986E+04  0.21597714986E+04  0.25500000920E-02 0.  1.
       -2   -1    0    0    0  501  0.00000000000E+00  0.00000000000E+00 -0.14343021416E+04  0.14343021416E+04  0.25500000920E-02 0. -1.
    10030    2    1    2    0    0  0.00000000000E+00  0.00000000000E+00  0.72546935698E+03  0.35940736402E+04  0.35200936839E+04 0.  0.
        3    1    3    3  502    0 -0.62348140012E+03 -0.13578393334E+04 -0.58703467055E+03  0.16053243991E+04  0.10100000352E+00 0. -1.
       -3    1    3    3    0  502  0.62348140012E+03  0.13578393334E+04  0.13125040275E+04  0.19887492411E+04  0.10100000352E+00 0.  1.
</event>
<event>
 5   0  0.5554745E-07  0.3483487E+04  0.7818609E-02  0.8117714E-01
        2   -1    0    0  501    0  0.00000000000E+00  0.00000000000E+00  0.22808398301E+04  0.22808398301E+04  0.25500000920E-02 0. -1.
       -2   -1    0    0    0  501  0.00000000000E+00  0.00000000000E+00 -0.13300672322E+04  0.13300672322E+04  0.25500000920E-02 0.  1.
    10030    2    1    2    0    0  0.00000000000E+00  0.00000000000E+00  0.95077259791E+03  0.36109070623E+04  0.34834869426E+04 0.  0.
        5    1    3    3  502    0  0.70288923475E+03  0.80011437594E+03  0.19039897846E+04  0.21816130456E+04  0.46999998093E+01 0. -1.
       -5    1    3    3    0  502 -0.70288923475E+03 -0.80011437594E+03 -0.95321718672E+03  0.14292940166E+04  0.46999998093E+01 0.  1.
</event>
<event>
 5   0  0.5740827E-07  0.3497513E+04  0.7818609E-02  0.8114380E-01
        2   -1    0    0  501    0  0.00000000000E+00  0.00000000000E+00  0.24119247674E+04  0.24119247674E+04  0.25500000920E-02 0.  1.
       -2   -1    0    0    0  501  0.00000000000E+00  0.00000000000E+00 -0.12679288061E+04  0.12679288061E+04  0.25500000920E-02 0. -1.
    10030    2    1    2    0    0  0.00000000000E+00  0.00000000000E+00  0.11439959613E+04  0.36798535736E+04  0.34975127682E+04 0.  0.
        2    1    3    3  502    0  0.74572626270E+03 -0.99160061604E+03 -0.72463527372E+03  0.14368283546E+04  0.25500000920E-02 0. -1.
       -2    1    3    3    0  502 -0.74572626270E+03  0.99160061604E+03  0.18686312350E+04  0.22430252190E+04  0.25500000920E-02 0.  1.
</event>
<event>
 5   0  0.1933647E-07  0.3487405E+04  0.7818609E-02  0.8116781E-01
        1   -1    0    0  501    0  0.00000000000E+00  0.00000000000E+00  0.18824957576E+04  0.18824957576E+04  0.50400001928E-02 0.  1.
       -1   -1    0    0    0  501  0.00000000000E+00  0.00000000000E+00 -0.16151426638E+04  0.16151426638E+04  0.50400001928E-02 0. -1.
    10030    2    1    2    0    0  0.00000000000E+00  0.00000000000E+00  0.26735309379E+03  0.34976384215E+04  0.34874054611E+04 0.  0.
        4    1    3    3  502    0 -0.16165722829E+04 -0.64094433325E+03  0.26204435807E+03  0.17586314118E+04  0.12699999809E+01 0. -1.
       -4    1    3    3    0  502  0.16165722829E+04  0.64094433325E+03  0.53087357274E+01  0.17390070097E+04  0.12699999809E+01 0.  1.
</event>
<event>
 5   0  0.5707187E-07  0.3500087E+04  0.7818609E-02  0.8113769E-01
        2   -1    0    0  501    0  0.00000000000E+00  0.00000000000E+00  0.20680450810E+04  0.20680450810E+04  0.25500000920E-02 0.  1.
       -2   -1    0    0    0  501  0.00000000000E+00  0.00000000000E+00 -0.14809407303E+04  0.14809407303E+04  0.25500000920E-02 0. -1.
    10030    2    1    2    0    0  0.00000000000E+00  0.00000000000E+00  0.58710435075E+03  0.35489858113E+04  0.35000869661E+04 0.  0.
        1    1    3    3  502    0 -0.71676882684E+03 -0.86171281058E+03 -0.10692281637E+04  0.15490498330E+04  0.50400001928E-02 0. -1.
       -1    1    3    3    0  502  0.71676882684E+03  0.86171281058E+03  0.16563325144E+04  0.19999359783E+04  0.50400001928E-02 0.  1.
</event>
<event>
 5   0  0.1897049E-07  0.3459710E+04  0.7818609E-02  0.8123405E-01
       -1   -1    0    0    0  501  0.00000000000E+00  0.00000000000E+00  0.18457048058E+04  0.18457048058E+04  0.50400001928E-02 0.  1.
        1   -1    0    0  501    0  0.00000000000E+00  0.00000000000E+00 -0.16212765242E+04  0.16212765242E+04  0.50400001928E-02 0. -1.
    10030    2    1    2    0    0  0.00000000000E+00  0.00000000000E+00  0.22442828153E+03  0.34669813300E+04  0.34597097406E+04 0.  0.
        2    1    3    3  502    0  0.16667184299E+04 -0.25722215624E+03  0.49810051065E+03  0.17584702673E+04  0.25500000920E-02 0.  1.
       -2    1    3    3    0  502 -0.16667184299E+04  0.25722215624E+03 -0.27367222912E+03  0.17085110627E+04  0.25500000920E-02 0. -1.
</event>
<event>
 5   0  0.1866421E-07  0.3679046E+04  0.7818609E-02  0.8072621E-01
       -1   -1    0    0    0  501  0.00000000000E+00  0.00000000000E+00  0.26801665736E+04  0.26801665736E+04  0.50400001928E-02 0. -1.
        1   -1    0    0  501    0  0.00000000000E+00  0.00000000000E+00 -0.12625503351E+04  0.12625503351E+04  0.50400001928E-02 0.  1.
    10030    2    1    2    0    0  0.00000000000E+00  0.00000000000E+00  0.14176162384E+04  0.39427169087E+04  0.36790461838E+04 0.  0.
        1    1    3    3  502    0 -0.22779600170E+03 -0.19414516182E+03  0.26538968322E+04  0.26707212056E+04  0.50400001928E-02 0. -1.
       -1    1    3    3    0  502  0.22779600170E+03  0.19414516182E+03 -0.12362805937E+04  0.12719957031E+04  0.50400001928E-02 0.  1.
</event>
<event>
 5   0  0.1873457E-07  0.3472967E+04  0.7818609E-02  0.8120227E-01
        1   -1    0    0  501    0  0.00000000000E+00  0.00000000000E+00  0.23654866643E+04  0.23654866643E+04  0.50400001928E-02 0. -1.
       -1   -1    0    0    0  501  0.00000000000E+00  0.00000000000E+00 -0.12747374940E+04  0.12747374940E+04  0.50400001928E-02 0.  1.
    10030    2    1    2    0    0  0.00000000000E+00  0.00000000000E+00  0.10907491703E+04  0.36402241583E+04  0.34729667678E+04 0.  0.
        3    1    3    3  502    0  0.68012777851E+03 -0.14869485022E+04  0.11581536631E+04  0.20037239233E+04  0.10100000352E+00 0. -1.
       -3    1    3    3    0  502 -0.68012777851E+03  0.14869485022E+04 -0.67404492821E+02  0.16365002350E+04  0.10100000352E+00 0.  1.
</event>
<event>
 5   0  0.1897049E-07  0.3521123E+04  0.7818609E-02  0.8108802E-01
        1   -1    0    0  501    0  0.00000000000E+00  0.00000000000E+00  0.29003688172E+04  0.29003688172E+04  0.50400001928E-02 0. -1.
       -1   -1    0    0    0  501  0.00000000000E+00  0.00000000000E+00 -0.10686836965E+04  0.10686836965E+04  0.50400001928E-02 0.  1.
    10030    2    1    2    0    0  0.00000000000E+00  0.00000000000E+00  0.18316851207E+04  0.39690525137E+04  0.35211230417E+04 0.  0.
        2    1    3    3  502    0 -0.13497033506E+04 -0.58550718643E+03 -0.17415409930E+03  0.14815017551E+04  0.25500000920E-02 0.  1.
       -2    1    3    3    0  502  0.13497033506E+04  0.58550718643E+03  0.20058392200E+04  0.24875507586E+04  0.25500000920E-02 0. -1.
</event>
<event>
 5   0  0.1873457E-07  0.3484542E+04  0.7818609E-02  0.8117463E-01
       -1   -1    0    0    0  501  0.00000000000E+00  0.00000000000E+00  0.14912172186E+04  0.14912172187E+04  0.50400001928E-02 0. -1.
        1   -1    0    0  501    0  0.00000000000E+00  0.00000000000E+00 -0.20355908999E+04  0.20355908999E+04  0.50400001928E-02 0.  1.
    10030    2    1    2    0    0  0.00000000000E+00  0.00000000000E+00 -0.54437368124E+03  0.35268081185E+04  0.34845419785E+04 0.  0.
        3    1    3    3  502    0 -0.16506227569E+04 -0.51396107682E+03 -0.53237410975E+02  0.17296085413E+04  0.10100000352E+00 0. -1.
       -3    1    3    3    0  502  0.16506227569E+04  0.51396107682E+03 -0.49113627026E+03  0.17971995772E+04  0.10100000352E+00 0.  1.
</event>
<event>
 5   0  0.1866421E-07  0.3426313E+04  0.7818609E-02  0.8131478E-01
       -1   -1    0    0    0  501  0.00000000000E+00  0.00000000000E+00  0.12205806948E+04  0.12205806948E+04  0.50400001928E-02 0.  1.
        1   -1    0    0  501    0  0.00000000000E+00  0.00000000000E+00 -0.24045151008E+04  0.24045151008E+04  0.50400001928E-02 0. -1.
    10030    2    1    2    0    0  0.00000000000E+00  0.00000000000E+00 -0.11839344060E+04  0.36250957956E+04  0.34263127192E+04 0.  0.
        1    1    3    3  502    0 -0.10625829820E+04  0.29846952403E+03  0.79429220691E+03  0.13598039419E+04  0.50400001928E-02 0.  1.
       -1    1    3    3    0  502  0.10625829820E+04 -0.29846952403E+03 -0.19782266129E+04  0.22652918537E+04  0.50400001928E-02 0. -1.
</event>
<event>
 5   0  0.1897049E-07  0.3480504E+04  0.7818609E-02  0.8118426E-01
        1   -1    0    0  501    0  0.00000000000E+00  0.00000000000E+00  0.22342623719E+04  0.22342623719E+04  0.50400001928E-02 0.  1.
       -1   -1    0    0    0  501  0.00000000000E+00  0.00000000000E+00 -0.13554703932E+04  0.13554703932E+04  0.50400001928E-02 0. -1.
    10030    2    1    2    0    0  0.00000000000E+00  0.00000000000E+00  0.87879197871E+03  0.35897327650E+04  0.34805036967E+04 0.  0.
        2    1    3    3  502    0 -0.17327539315E+04 -0.52252463663E+02  0.28192844676E+03  0.17563172140E+04  0.25500000920E-02 0. -1.
       -2    1    3    3    0  502  0.17327539315E+04  0.52252463663E+02  0.59686353195E+03  0.18334155511E+04  0.25500000920E-02 0.  1.
</event>
<event>
 5   0  0.5740827E-07  0.3546733E+04  0.7818609E-02  0.8102803E-01
        2   -1    0    0  501    0  0.00000000000E+00  0.00000000000E+00  0.15099117425E+04  0.15099117425E+04  0.25500000920E-02 0.  1.
       -2   -1    0    0    0  501  0.00000000000E+00  0.00000000000E+00 -0.20827896703E+04  0.20827896703E+04  0.25500000920E-02 0. -1.
    10030    2    1    2    0    0  0.00000000000E+00  0.00000000000E+00 -0.57287792778E+03  0.35927014128E+04  0.35467329081E+04 0.  0.
        2    1    3    3  502    0 -0.12259486894E+04 -0.23831257793E+03 -0.15617584271E+04  0.19997080933E+04  0.25500000920E-02 0. -1.
       -2    1    3    3    0  502  0.12259486894E+04  0.23831257793E+03  0.98888049936E+03  0.15929933194E+04  0.25500000920E-02 0.  1.
</event>
<event>
 5   0  0.1897049E-07  0.3514117E+04  0.7818609E-02  0.8110453E-01
       -1   -1    0    0    0  501  0.00000000000E+00  0.00000000000E+00  0.17525701756E+04  0.17525701756E+04  0.50400001928E-02 0.  1.
        1   -1    0    0  501    0  0.00000000000E+00  0.00000000000E+00 -0.17615579005E+04  0.17615579005E+04  0.50400001928E-02 0. -1.
    10030    2    1    2    0    0  0.00000000000E+00  0.00000000000E+00 -0.89877248398E+01  0.35141280761E+04  0.35141165826E+04 0.  0.
        2    1    3    3  502    0  0.21447506119E+03  0.11907741343E+04 -0.12785903528E+04  0.17603226639E+04  0.25500000920E-02 0. -1.
       -2    1    3    3    0  502 -0.21447506119E+03 -0.11907741343E+04  0.12696026280E+04  0.17538054122E+04  0.25500000920E-02 0.  1.
</event>
<event>
 5   0  0.1908190E-07  0.3497575E+04  0.7818609E-02  0.8114365E-01
        1   -1    0    0  501    0  0.00000000000E+00  0.00000000000E+00  0.13543178431E+04  0.13543178431E+04  0.50400001928E-02 0. -1.
       -1   -1    0    0    0  501  0.00000000000E+00  0.00000000000E+00 -0.22581537678E+04  0.22581537678E+04  0.50400001928E-02 0.  1.
    10030    2    1    2    0    0  0.00000000000E+00  0.00000000000E+00 -0.90383592468E+03  0.36124716109E+04  0.34975751259E+04 0.  0.
        5    1    3    3  502    0 -0.56171007055E+03 -0.95986325232E+03 -0.18458374661E+04  0.21549927396E+04  0.46999998093E+01 0.  1.
       -5    1    3    3    0  502  0.56171007055E+03  0.95986325232E+03  0.94200154138E+03  0.14574788714E+04  0.46999998093E+01 0. -1.
</event>
<event>
 5   0  0.5677193E-07  0.3472832E+04  0.7818609E-02  0.8120259E-01
        2   -1    0    0  501    0  0.00000000000E+00  0.00000000000E+00  0.17456884787E+04  0.17456884787E+04  0.25500000920E-02 0.  1.
       -2   -1    0    0    0  501  0.00000000000E+00  0.00000000000E+00 -0.17271930754E+04  0.17271930754E+04  0.25500000920E-02 0. -1.
    10030    2    1    2    0    0  0.00000000000E+00  0.00000000000E+00  0.18495403281E+02  0.34728815541E+04  0.34728323036E+04 0.  0.
        3    1    3    3  502    0 -0.14954361001E+04  0.27745792058E+03  0.84701194136E+03  0.17409024286E+04  0.10100000352E+00 0.  1.
       -3    1    3    3    0  502  0.14954361001E+04 -0.27745792058E+03 -0.82851653808E+03  0.17319791255E+04  0.10100000352E+00 0. -1.
</event>
<event>
 5   0  0.5677193E-07  0.3501495E+04  0.7818609E-02  0.8113436E-01
       -2   -1    0    0    0  501  0.00000000000E+00  0.00000000000E+00  0.23834598552E+04  0.23834598552E+04  0.25500000920E-02 0. -1.
        2   -1    0    0  501    0  0.00000000000E+00  0.00000000000E+00 -0.12859950714E+04  0.12859950714E+04  0.25500000920E-02 0.  1.
    10030    2    1    2    0    0  0.00000000000E+00  0.00000000000E+00  0.10974647838E+04  0.36694549266E+04  0.35014954672E+04 0.  0.
        3    1    3    3  502    0  0.45911316141E+03  0.16864482564E+04  0.44276319415E+03  0.18030340742E+04  0.10100000352E+00 0.  1.
       -3    1    3    3    0  502 -0.45911316141E+03 -0.16864482564E+04  0.65470158961E+03  0.18664208524E+04  0.10100000352E+00 0. -1.
</event>
<event>
 5   0  0.5573334E-07  0.3457881E+04  0.7818609E-02  0.8123845E-01
       -2   -1    0    0    0  501  0.00000000000E+00  0.00000000000E+00  0.13032565410E+04  0.13032565410E+04  0.25500000920E-02 0. -1.
        2   -1    0    0  501    0  0.00000000000E+00  0.00000000000E+00 -0.22936659093E+04  0.22936659093E+04  0.25500000920E-02 0.  1.
    10030    2    1    2    0    0  0.00000000000E+00  0.00000000000E+00 -0.99040936829E+03  0.35969224504E+04  0.34578809114E+04 0.  0.
        4    1    3    3  502    0 -0.97967507211E+03 -0.12717927569E+04 -0.11628975330E+04  0.19823098518E+04  0.12699999809E+01 0.  1.
       -4    1    3    3    0  502  0.97967507211E+03  0.12717927569E+04  0.17248816473E+03  0.16146125985E+04  0.12699999809E+01 0. -1.
</event>
<event>
 5   0  0.5677193E-07  0.3484753E+04  0.7818609E-02  0.8117413E-01
       -2   -1    0    0    0  501  0.00000000000E+00  0.00000000000E+00  0.14056050356E+04  0.14056050356E+04  0.25500000920E-02 0. -1.
        2   -1    0    0  501    0  0.00000000000E+00  0.00000000000E+00 -0.21598356986E+04  0.21598356986E+04  0.25500000920E-02 0.  1.
    10030    2    1    2    0    0  0.00000000000E+00  0.00000000000E+00 -0.75423066307E+03  0.35654407342E+04  0.34847530380E+04 0.  0.
        3    1    3    3  502    0 -0.74389380276E+03 -0.39510310189E+03  0.11834523733E+04  0.14525990434E+04  0.10100000352E+00 0. -1.
       -3    1    3    3    0  502  0.74389380276E+03  0.39510310189E+03 -0.19376830363E+04  0.21128416908E+04  0.10100000352E+00 0.  1.
</event>
<event>
 5   0  0.5707187E-07  0.3466511E+04  0.7818609E-02  0.8121773E-01
        2   -1    0    0  501    0  0.00000000000E+00  0.00000000000E+00  0.16252573204E+04  0.16252573204E+04  0.25500000920E-02 0. -1.
       -2   -1    0    0    0  501  0.00000000000E+00  0.00000000000E+00 -0.18484303669E+04  0.18484303669E+04  0.25500000920E-02 0.  1.
    10030    2    1    2    0    0  0.00000000000E+00  0.00000000000E+00 -0.22317304648E+03  0.34736876873E+04  0.34665112059E+04 0.  0.
        1    1    3    3  502    0 -0.32270824953E+03  0.16925384673E+04 -0.29998614025E+03  0.17489479014E+04  0.50400001928E-02 0.  1.
       -1    1    3    3    0  502  0.32270824953E+03 -0.16925384673E+04  0.76813093770E+02  0.17247397859E+04  0.50400001928E-02 0. -1.
</event>
<event>
 5   0  0.5677193E-07  0.3494615E+04  0.7818609E-02  0.8115067E-01
        2   -1    0    0  501    0  0.00000000000E+00  0.00000000000E+00  0.14047036280E+04  0.14047036280E+04  0.25500000920E-02 0. -1.
       -2   -1    0    0    0  501  0.00000000000E+00  0.00000000000E+00 -0.21734718032E+04  0.21734718032E+04  0.25500000920E-02 0.  1.
    10030    2    1    2    0    0  0.00000000000E+00  0.00000000000E+00 -0.76876817527E+03  0.35781754312E+04  0.34946151303E+04 0.  0.
        3    1    3    3  502    0 -0.10671870855E+04 -0.32948201694E+03 -0.17602544141E+04  0.20846923724E+04  0.10100000352E+00 0.  1.
       -3    1    3    3    0  502  0.10671870855E+04  0.32948201694E+03  0.99148623878E+03  0.14934830588E+04  0.10100000352E+00 0. -1.
</event>
<event>
 5   0  0.5554745E-07  0.3521930E+04  0.7818609E-02  0.8108613E-01
        2   -1    0    0  501    0  0.00000000000E+00  0.00000000000E+00  0.22218286723E+04  0.22218286723E+04  0.25500000920E-02 0. -1.
       -2   -1    0    0    0  501  0.00000000000E+00  0.00000000000E+00 -0.13956958205E+04  0.13956958205E+04  0.25500000920E-02 0.  1.
    10030    2    1    2    0    0  0.00000000000E+00  0.00000000000E+00  0.82613285185E+03  0.36175244928E+04  0.35219295801E+04 0.  0.
        5    1    3    3  502    0  0.83135656169E+01 -0.17530494565E+04  0.58408921089E+03  0.18478186623E+04  0.46999998093E+01 0. -1.
       -5    1    3    3    0  502 -0.83135656169E+01  0.17530494565E+04  0.24204364096E+03  0.17697058305E+04  0.46999998093E+01 0.  1.
</event>
<event>
 5   0  0.1873457E-07  0.3416053E+04  0.7818609E-02  0.8133977E-01
       -1   -1    0    0    0  501  0.00000000000E+00  0.00000000000E+00  0.20245817497E+04  0.20245817497E+04  0.50400001928E-02 0. -1.
        1   -1    0    0  501    0  0.00000000000E+00  0.00000000000E+00 -0.14409669110E+04  0.14409669110E+04  0.50400001928E-02 0.  1.
    10030    2    1    2    0    0  0.00000000000E+00  0.00000000000E+00  0.58361483865E+03  0.34655486607E+04  0.34160534597E+04 0.  0.
        3    1    3    3  502    0 -0.58815513420E+03 -0.14460830130E+04  0.99486568588E+03  0.18511726785E+04  0.10100000352E+00 0. -1.
       -3    1    3    3    0  502  0.58815513420E+03  0.14460830130E+04 -0.41125084723E+03  0.16143759822E+04  0.10100000352E+00 0.  1.
</event>
<event>
 5   0  0.1866421E-07  0.3487977E+04  0.7818609E-02  0.8116645E-01
        1   -1    0    0  501    0  0.00000000000E+00  0.00000000000E+00  0.21484622105E+04  0.21484622105E+04  0.50400001928E-02 0. -1.
       -1   -1    0    0    0  501  0.00000000000E+00  0.00000000000E+00 -0.14156618046E+04  0.14156618046E+04  0.50400001928E-02 0.  1.
    10030    2    1    2    0    0  0.00000000000E+00  0.00000000000E+00  0.73280040596E+03  0.35641240151E+04  0.34879770011E+04 0.  0.
        1    1    3    3  502    0 -0.25806394637E+03  0.15105620124E+04  0.12171023913E+04  0.19569703178E+04  0.50400001928E-02 0. -1.
       -1    1    3    3    0  502  0.25806394637E+03 -0.15105620124E+04 -0.48430198533E+03  0.16071536973E+04  0.50400001928E-02 0.  1.
</event>
<event>
 5   0  0.1873457E-07  0.3460794E+04  0.7818609E-02  0.8123145E-01
        1   -1    0    0  501    0  0.00000000000E+00  0.00000000000E+00  0.20588426764E+04  0.20588426764E+04  0.50400001928E-02 0.  1.
       -1   -1    0    0    0  501  0.00000000000E+00  0.00000000000E+00 -0.14543478678E+04  0.14543478678E+04  0.50400001928E-02 0. -1.
    10030    2    1    2    0    0  0.00000000000E+00  0.00000000000E+00  0.60449480863E+03  0.35131905442E+04  0.34607938145E+04 0.  0.
        3    1    3    3  502    0  0.92122792217E+02 -0.13928134592E+04 -0.73590768659E+03  0.15779658026E+04  0.10100000352E+00 0. -1.
       -3    1    3    3    0  502 -0.92122792217E+02  0.13928134592E+04  0.13404024952E+04  0.19352247416E+04  0.10100000352E+00 0.  1.
</event>
<event>
 5   0  0.1866421E-07  0.3493634E+04  0.7818609E-02  0.8115300E-01
        1   -1    0    0  501    0  0.00000000000E+00  0.00000000000E+00  0.23936676867E+04  0.23936676867E+04  0.50400001928E-02 0.  1.
       -1   -1    0    0    0  501  0.00000000000E+00  0.00000000000E+00 -0.12747672384E+04  0.12747672384E+04  0.50400001928E-02 0. -1.
    10030    2    1    2    0    0  0.00000000000E+00  0.00000000000E+00  0.11189004483E+04  0.36684349251E+04  0.34936337224E+04 0.  0.
        1    1    3    3  502    0 -0.66828369175E+03 -0.20150053108E+03  0.22408706272E+04  0.23470634258E+04  0.50400001928E-02 0.  1.
       -1    1    3    3    0  502  0.66828369175E+03  0.20150053108E+03 -0.11219701789E+04  0.13213714993E+04  0.50400001928E-02 0. -1.
</event>
<event>
 5   0  0.1933647E-07  0.3469887E+04  0.7818609E-02  0.8120964E-01
       -1   -1    0    0    0  501  0.00000000000E+00  0.00000000000E+00  0.23938792282E+04  0.23938792282E+04  0.50400001928E-02 0. -1.
        1   -1    0    0  501    0  0.00000000000E+00  0.00000000000E+00 -0.12573852342E+04  0.12573852342E+04  0.50400001928E-02 0.  1.
    10030    2    1    2    0    0  0.00000000000E+00  0.00000000000E+00  0.11364939940E+04  0.36512644625E+04  0.34698866806E+04 0.  0.
        4    1    3    3  502    0 -0.33872043255E+03 -0.81196015832E+03  0.21417422862E+04  0.23153989858E+04  0.12699999809E+01 0. -1.
       -4    1    3    3    0  502  0.33872043255E+03  0.81196015832E+03 -0.10052482921E+04  0.13358654767E+04  0.12699999809E+01 0.  1.
</event>
<event>
 5   0  0.5573334E-07  0.3494863E+04  0.7818609E-02  0.8115008E-01
        2   -1    0    0  501    0  0.00000000000E+00  0.00000000000E+00  0.16595919128E+04  0.16595919129E+04  0.25500000920E-02 0. -1.
       -2   -1    0    0    0  501  0.00000000000E+00  0.00000000000E+00 -0.18399208067E+04  0.18399208067E+04  0.25500000920E-02 0.  1.
    10030    2    1    2    0    0  0.00000000000E+00  0.00000000000E+00 -0.18032889388E+03  0.34995127196E+04  0.34948634830E+04 0.  0.
        4    1    3    3  502    0 -0.91753554800E+03  0.14180909899E+04  0.35838519448E+03  0.17266427245E+04  0.12699999809E+01 0.  1.
       -4    1    3    3    0  502  0.91753554800E+03 -0.14180909899E+04 -0.53871408835E+03  0.17728699951E+04  0.12699999809E+01 0. -1.
</event>
<event>
 5   0  0.5554745E-07  0.3580658E+04  0.7818609E-02  0.8094937E-01
        2   -1    0    0  501    0  0.00000000000E+00  0.00000000000E+00  0.20679229248E+04  0.20679229248E+04  0.25500000920E-02 0. -1.
       -2   -1    0    0    0  501  0.00000000000E+00  0.00000000000E+00 -0.15499989845E+04  0.15499989845E+04  0.25500000920E-02 0.  1.
    10030    2    1    2    0    0  0.00000000000E+00  0.00000000000E+00  0.51792394029E+03  0.36179219093E+04  0.35806582822E+04 0.  0.
        5    1    3    3  502    0  0.39427218399E+03  0.17459149592E+04  0.29921047241E+03  0.18147227327E+04  0.46999998093E+01 0.  1.
       -5    1    3    3    0  502 -0.39427218399E+03 -0.17459149592E+04  0.21871346788E+03  0.18031991767E+04  0.46999998093E+01 0. -1.
</event>
<event>
 5   0  0.1866421E-07  0.3587131E+04  0.7818609E-02  0.8093446E-01
       -1   -1    0    0    0  501  0.00000000000E+00  0.00000000000E+00  0.13535216717E+04  0.13535216717E+04  0.50400001928E-02 0.  1.
        1   -1    0    0  501    0  0.00000000000E+00  0.00000000000E+00 -0.23766725020E+04  0.23766725020E+04  0.50400001928E-02 0. -1.
    10030    2    1    2    0    0  0.00000000000E+00  0.00000000000E+00 -0.10231508303E+04  0.37301941736E+04  0.35871312983E+04 0.  0.
        1    1    3    3  502    0  0.33085674803E+03  0.44503682543E+03 -0.22852846746E+04  0.23516058360E+04  0.50400001928E-02 0. -1.
       -1    1    3    3    0  502 -0.33085674803E+03 -0.44503682543E+03  0.12621338443E+04  0.13785883377E+04  0.50400001928E-02 0.  1.
</event>
<event>
 5   0  0.5677193E-07  0.3475407E+04  0.7818609E-02  0.8119643E-01
        2   -1    0    0  501    0  0.00000000000E+00  0.00000000000E+00  0.15094875820E+04  0.15094875820E+04  0.25500000920E-02 0. -1.
       -2   -1    0    0    0  501  0.00000000000E+00  0.00000000000E+00 -0.20004232417E+04  0.20004232417E+04  0.25500000920E-02 0.  1.
    10030    2    1    2    0    0  0.00000000000E+00  0.00000000000E+00 -0.49093565972E+03  0.35099108237E+04  0.34754073384E+04 0.  0.
        3    1    3    3  502    0 -0.26535340084E+03  0.40770134233E+03  0.14393211242E+04  0.15193018530E+04  0.10100000352E+00 0. -1.
       -3    1    3    3    0  502  0.26535340084E+03 -0.40770134233E+03 -0.19302567839E+04  0.19906089706E+04  0.10100000352E+00 0.  1.
</event>
<event>
 5   0  0.5707187E-07  0.3278349E+04  0.7818609E-02  0.8168426E-01
       -2   -1    0    0    0  501  0.00000000000E+00  0.00000000000E+00  0.18188381504E+04  0.18188381504E+04  0.25500000920E-02 0.  1.
        2   -1    0    0  501    0  0.00000000000E+00  0.00000000000E+00 -0.14772582191E+04  0.14772582191E+04  0.25500000920E-02 0. -1.
    10030    2    1    2    0    0  0.00000000000E+00  0.00000000000E+00  0.34157993132E+03  0.32960963695E+04  0.32783493449E+04 0.  0.
        1    1    3    3  502    0  0.13040484061E+04 -0.68929313660E+03  0.88966148581E+03  0.17225460322E+04  0.50400001928E-02 0.  1.
       -1    1    3    3    0  502 -0.13040484061E+04  0.68929313660E+03 -0.54808155449E+03  0.15735503373E+04  0.50400001928E-02 0. -1.
</event>
<event>
 5   0  0.5740827E-07  0.3483626E+04  0.7818609E-02  0.8117681E-01
        2   -1    0    0  501    0  0.00000000000E+00  0.00000000000E+00  0.23781579467E+04  0.23781579467E+04  0.25500000920E-02 0. -1.
       -2   -1    0    0    0  501  0.00000000000E+00  0.00000000000E+00 -0.12757402726E+04  0.12757402726E+04  0.25500000920E-02 0.  1.
    10030    2    1    2    0    0  0.00000000000E+00  0.00000000000E+00  0.11024176741E+04  0.36538982193E+04  0.34836256212E+04 0.  0.
        2    1    3    3  502    0  0.14669313039E+04  0.54891774502E+03  0.13505018479E+04  0.20681038132E+04  0.25500000920E-02 0. -1.
       -2    1    3    3    0  502 -0.14669313039E+04 -0.54891774502E+03 -0.24808417371E+03  0.15857944061E+04  0.25500000920E-02 0.  1.
</event>
<event>
 5   0  0.1897049E-07  0.3475148E+04  0.7818609E-02  0.8119705E-01
        1   -1    0    0  501    0  0.00000000000E+00  0.00000000000E+00  0.28790400464E+04  0.28790400464E+04  0.50400001928E-02 0.  1.
       -1   -1    0    0    0  501  0.00000000000E+00  0.00000000000E+00 -0.10486700250E+04  0.10486700250E+04  0.50400001928E-02 0. -1.
    10030    2    1    2    0    0  0.00000000000E+00  0.00000000000E+00  0.18303700214E+04  0.39277100714E+04  0.34751477652E+04 0.  0.
        2    1    3    3  502    0  0.61765684497E+03 -0.15036258002E+04  0.16089393763E+04  0.22871546607E+04  0.25500000920E-02 0.  1.
       -2    1    3    3    0  502 -0.61765684497E+03  0.15036258002E+04  0.22143064504E+03  0.16405554107E+04  0.25500000920E-02 0. -1.
</event>
<event>
 5   0  0.1933647E-07  0.3516278E+04  0.7818609E-02  0.8109943E-01
       -1   -1    0    0    0  501  0.00000000000E+00  0.00000000000E+00  0.24704172408E+04  0.24704172408E+04  0.50400001928E-02 0.  1.
        1   -1    0    0  501    0  0.00000000000E+00  0.00000000000E+00 -0.12512266502E+04  0.12512266502E+04  0.50400001928E-02 0. -1.
    10030    2    1    2    0    0  0.00000000000E+00  0.00000000000E+00  0.12191905906E+04  0.37216438910E+04  0.35162775140E+04 0.  0.
        4    1    3    3  502    0  0.14213095356E+04 -0.93965164075E+03  0.10684893500E+04  0.20111531782E+04  0.12699999809E+01 0.  1.
       -4    1    3    3    0  502 -0.14213095356E+04  0.93965164075E+03  0.15070124055E+03  0.17104907129E+04  0.12699999809E+01 0. -1.
</event>
<event>
 5   0  0.5554745E-07  0.3488269E+04  0.7818609E-02  0.8116576E-01
        2   -1    0    0  501    0  0.00000000000E+00  0.00000000000E+00  0.22543131851E+04  0.22543131851E+04  0.25500000920E-02 0. -1.
       -2   -1    0    0    0  501  0.00000000000E+00  0.00000000000E+00 -0.13494158361E+04  0.13494158361E+04  0.25500000920E-02 0.  1.
    10030    2    1    2    0    0  0.00000000000E+00  0.00000000000E+00  0.90489734896E+03  0.36037290212E+04  0.34882694343E+04 0.  0.
        5    1    3    3  502    0  0.12193814036E+04 -0.10532201419E+03  0.17361552476E+04  0.21242035844E+04  0.46999998093E+01 0. -1.
       -5    1    3    3    0  502 -0.12193814036E+04  0.10532201419E+03 -0.83125789862E+03  0.14795254368E+04  0.46999998093E+01 0.  1.
</event>
<event>
 5   0  0.1823000E-07  0.3554579E+04  0.7818609E-02  0.8100976E-01
        4   -1    0    0  501    0  0.00000000000E+00  0.00000000000E+00  0.16534328797E+04  0.16534333674E+04  0.12699999809E+01 0. -1.
       -4   -1    0    0    0  501  0.00000000000E+00  0.00000000000E+00 -0.19104234382E+04  0.19104238604E+04  0.12699999809E+01 0.  1.
    10030    2    1    2    0    0  0.00000000000E+00  0.00000000000E+00 -0.25699055854E+03  0.35638572278E+04  0.35545793271E+04 0.  0.
        2    1    3    3  502    0  0.11785839409E+04 -0.12855645675E+04 -0.47147322003E+03  0.18066608315E+04  0.25500000920E-02 0.  1.
       -2    1    3    3    0  502 -0.11785839409E+04  0.12855645675E+04  0.21448266149E+03  0.17571963963E+04  0.25500000920E-02 0. -1.
</event>
<event>
 5   0  0.1908190E-07  0.3503335E+04  0.7818609E-02  0.8113000E-01
        1   -1    0    0  501    0  0.00000000000E+00  0.00000000000E+00  0.19653087711E+04  0.19653087711E+04  0.50400001928E-02 0.  1.
       -1   -1    0    0    0  501  0.00000000000E+00  0.00000000000E+00 -0.15612500469E+04  0.15612500469E+04  0.50400001928E-02 0. -1.
    10030    2    1    2    0    0  0.00000000000E+00  0.00000000000E+00  0.40405872417E+03  0.35265588181E+04  0.35033346464E+04 0.  0.
        5    1    3    3  502    0 -0.15781895286E+04 -0.71054100192E+03 -0.69509890067E+02  0.17321675492E+04  0.46999998093E+01 0. -1.
       -5    1    3    3    0  502  0.15781895286E+04  0.71054100192E+03  0.47356861424E+03  0.17943912689E+04  0.46999998093E+01 0.  1.
</event>
<event>
 5   0  0.1933647E-07  0.3453013E+04  0.7818609E-02  0.8125016E-01
       -1   -1    0    0    0  501  0.00000000000E+00  0.00000000000E+00  0.97448275357E+03  0.97448275359E+03  0.50400001928E-02 0.  1.
        1   -1    0    0  501    0  0.00000000000E+00  0.00000000000E+00 -0.30588785741E+04  0.30588785741E+04  0.50400001928E-02 0. -1.
    10030    2    1    2    0    0  0.00000000000E+00  0.00000000000E+00 -0.20843958206E+04  0.40333613277E+04  0.34530128386E+04 0.  0.
        4    1    3    3  502    0  0.29315280860E+03 -0.11549718784E+04  0.41715336804E+03  0.12625043186E+04  0.12699999809E+01 0.  1.
       -4    1    3    3    0  502 -0.29315280860E+03  0.11549718784E+04 -0.25015491886E+04  0.27708570091E+04  0.12699999809E+01 0. -1.
</event>
<event>
 5   0  0.1873457E-07  0.3525669E+04  0.7818609E-02  0.8107734E-01
       -1   -1    0    0    0  501  0.00000000000E+00  0.00000000000E+00  0.21253489030E+04  0.21253489031E+04  0.50400001928E-02 0.  1.
        1   -1    0    0  501    0  0.00000000000E+00  0.00000000000E+00 -0.14621527710E+04  0.14621527711E+04  0.50400001928E-02 0. -1.
    10030    2    1    2    0    0  0.00000000000E+00  0.00000000000E+00  0.66319613200E+03  0.35875016741E+04  0.35256686107E+04 0.  0.
        3    1    3    3  502    0  0.15943457679E+04 -0.74091622935E+03  0.20014456016E+03  0.17694499546E+04  0.10100000352E+00 0. -1.
       -3    1    3    3    0  502 -0.15943457679E+04  0.74091622935E+03  0.46305157184E+03  0.18180517195E+04  0.10100000352E+00 0.  1.
</event>
<event>
 5   0  0.1908190E-07  0.3522007E+04  0.7818609E-02  0.8108594E-01
        1   -1    0    0  501    0  0.00000000000E+00  0.00000000000E+00  0.25701042825E+04  0.25701042825E+04  0.50400001928E-02 0.  1.
       -1   -1    0    0    0  501  0.00000000000E+00  0.00000000000E+00 -0.12066176595E+04  0.12066176595E+04  0.50400001928E-02 0. -1.
    10030    2    1    2    0    0  0.00000000000E+00  0.00000000000E+00  0.13634866230E+04  0.37767219420E+04  0.35220069358E+04 0.  0.
        5    1    3    3  502    0 -0.14720764083E+04 -0.82933886710E+03  0.12139205785E+04  0.20804896465E+04  0.46999998093E+01 0. -1.
       -5    1    3    3    0  502  0.14720764083E+04  0.82933886710E+03  0.14956604456E+03  0.16962322955E+04  0.46999998093E+01 0.  1.
</event>
<event>
 5   0  0.1866421E-07  0.3474991E+04  0.7818609E-02  0.8119742E-01
       -1   -1    0    0    0  501  0.00000000000E+00  0.00000000000E+00  0.12646889627E+04  0.12646889627E+04  0.50400001928E-02 0.  1.
        1   -1    0    0  501    0  0.00000000000E+00  0.00000000000E+00 -0.23870621713E+04  0.23870621713E+04  0.50400001928E-02 0. -1.
    10030    2    1    2    0    0  0.00000000000E+00  0.00000000000E+00 -0.11223732086E+04  0.36517511340E+04  0.34749913274E+04 0.  0.
        1    1    3    3  502    0  0.85527407630E+03  0.14882017429E+04 -0.27793378032E+03  0.17388172300E+04  0.50400001928E-02 0. -1.
       -1    1    3    3    0  502 -0.85527407630E+03 -0.14882017429E+04 -0.84443942824E+03  0.19129339040E+04  0.50400001928E-02 0.  1.
</event>
<event>
 5   0  0.5707187E-07  0.3426700E+04  0.7818609E-02  0.8131384E-01
       -2   -1    0    0    0  501  0.00000000000E+00  0.00000000000E+00  0.20001042049E+04  0.20001042049E+04  0.25500000920E-02 0. -1.
        2   -1    0    0  501    0  0.00000000000E+00  0.00000000000E+00 -0.14677075586E+04  0.14677075586E+04  0.25500000920E-02 0.  1.
    10030    2    1    2    0    0  0.00000000000E+00  0.00000000000E+00  0.53239664634E+03  0.34678117635E+04  0.34266999048E+04 0.  0.
        1    1    3    3  502    0 -0.30709480899E+03  0.86542727790E+03  0.17300297055E+04  0.19586409516E+04  0.50400001928E-02 0. -1.
       -1    1    3    3    0  502  0.30709480899E+03 -0.86542727790E+03 -0.11976330592E+04  0.15091708119E+04  0.50400001928E-02 0.  1.
</event>
<event>
 5   0  0.1866421E-07  0.3511547E+04  0.7818609E-02  0.8111059E-01
        1   -1    0    0  501    0  0.00000000000E+00  0.00000000000E+00  0.13547675193E+04  0.13547675193E+04  0.50400001928E-02 0. -1.
       -1   -1    0    0    0  501  0.00000000000E+00  0.00000000000E+00 -0.22754750949E+04  0.22754750949E+04  0.50400001928E-02 0.  1.
    10030    2    1    2    0    0  0.00000000000E+00  0.00000000000E+00 -0.92070757557E+03  0.36302426142E+04  0.35115465252E+04 0.  0.
        1    1    3    3  502    0 -0.40976633226E+03  0.23981287337E+03  0.12871444518E+04  0.13719181831E+04  0.50400001928E-02 0. -1.
       -1    1    3    3    0  502  0.40976633226E+03 -0.23981287337E+03 -0.22078520274E+04  0.22583244311E+04  0.50400001928E-02 0.  1.
</event>
<event>
 5   0  0.5573334E-07  0.3486241E+04  0.7818609E-02  0.8117058E-01
       -2   -1    0    0    0  501  0.00000000000E+00  0.00000000000E+00  0.20550178051E+04  0.20550178051E+04  0.25500000920E-02 0. -1.
        2   -1    0    0  501    0  0.00000000000E+00  0.00000000000E+00 -0.14785606208E+04  0.14785606208E+04  0.25500000920E-02 0.  1.
    10030    2    1    2    0    0  0.00000000000E+00  0.00000000000E+00  0.57645718432E+03  0.35335784259E+04  0.34862406123E+04 0.  0.
        4    1    3    3  502    0 -0.83746629620E+03  0.14927522434E+04 -0.46110573607E+02  0.17122461433E+04  0.12699999809E+01 0. -1.
       -4    1    3    3    0  502  0.83746629620E+03 -0.14927522434E+04  0.62256775793E+03  0.18213322826E+04  0.12699999809E+01 0.  1.
</event>
<event>
 5   0  0.5554745E-07  0.3312730E+04  0.7818609E-02  0.8159664E-01
        2   -1    0    0  501    0  0.00000000000E+00  0.00000000000E+00  0.11118195636E+04  0.11118195637E+04  0.25500000920E-02 0.  1.
       -2   -1    0    0    0  501  0.00000000000E+00  0.00000000000E+00 -0.24676176509E+04  0.24676176509E+04  0.25500000920E-02 0. -1.
    10030    2    1    2    0    0  0.00000000000E+00  0.00000000000E+00 -0.13557980872E+04  0.35794372145E+04  0.33127303421E+04 0.  0.
        5    1    3    3  502    0 -0.36462348214E+03  0.12671797501E+04 -0.17610143074E+04  0.21999746098E+04  0.46999998093E+01 0. -1.
       -5    1    3    3    0  502  0.36462348214E+03 -0.12671797501E+04  0.40521622019E+03  0.13794626047E+04  0.46999998093E+01 0.  1.
</event>
<event>
 5   0  0.1897049E-07  0.3152024E+04  0.7818609E-02  0.8201604E-01
       -1   -1    0    0    0  501  0.00000000000E+00  0.00000000000E+00  0.17297432190E+04  0.17297432190E+04  0.50400001928E-02 0. -1.
        1   -1    0    0  501    0  0.00000000000E+00  0.00000000000E+00 -0.14359432961E+04  0.14359432961E+04  0.50400001928E-02 0.  1.
    10030    2    1    2    0    0  0.00000000000E+00  0.00000000000E+00  0.29379992288E+03  0.31656865151E+04  0.31520235909E+04 0.  0.
        2    1    3    3  502    0 -0.17872974062E+03 -0.77529863835E+03  0.15132310472E+04  0.17096492334E+04  0.25500000920E-02 0. -1.
       -2    1    3    3    0  502  0.17872974062E+03  0.77529863835E+03 -0.12194311244E+04  0.14560372818E+04  0.25500000920E-02 0.  1.
</event>
<event>
 5   0  0.1866421E-07  0.3434594E+04  0.7818609E-02  0.8129468E-01
       -1   -1    0    0    0  501  0.00000000000E+00  0.00000000000E+00  0.15273601672E+04  0.15273601672E+04  0.50400001928E-02 0. -1.
        1   -1    0    0  501    0  0.00000000000E+00  0.00000000000E+00 -0.19308533608E+04  0.19308533608E+04  0.50400001928E-02 0.  1.
    10030    2    1    2    0    0  0.00000000000E+00  0.00000000000E+00 -0.40349319365E+03  0.34582135280E+04  0.34345937239E+04 0.  0.
        1    1    3    3  502    0  0.13526619963E+04 -0.87653300611E+03  0.39486855081E+03  0.16594956341E+04  0.50400001928E-02 0. -1.
       -1    1    3    3    0  502 -0.13526619963E+04  0.87653300611E+03 -0.79836174445E+03  0.17987178940E+04  0.50400001928E-02 0.  1.
</event>
<event>
 5   0  0.5740827E-07  0.3499565E+04  0.7818609E-02  0.8113893E-01
        2   -1    0    0  501    0  0.00000000000E+00  0.00000000000E+00  0.23674639533E+04  0.23674639533E+04  0.25500000920E-02 0. -1.
       -2   -1    0    0    0  501  0.00000000000E+00  0.00000000000E+00 -0.12932565259E+04  0.12932565259E+04  0.25500000920E-02 0.  1.
    10030    2    1    2    0    0  0.00000000000E+00  0.00000000000E+00  0.10742074274E+04  0.36607204792E+04  0.34995646629E+04 0.  0.
        2    1    3    3  502    0 -0.22797301228E+03 -0.11263457039E+04  0.19173795472E+04  0.22353904955E+04  0.25500000920E-02 0.  1.
       -2    1    3    3    0  502  0.22797301228E+03  0.11263457039E+04 -0.84317211982E+03  0.14253299838E+04  0.25500000920E-02 0. -1.
</event>
<event>
 5   0  0.1873457E-07  0.3467170E+04  0.7818609E-02  0.8121615E-01
        1   -1    0    0  501    0  0.00000000000E+00  0.00000000000E+00  0.22880803512E+04  0.22880803512E+04  0.50400001928E-02 0. -1.
       -1   -1    0    0    0  501  0.00000000000E+00  0.00000000000E+00 -0.13134663099E+04  0.13134663099E+04  0.50400001928E-02 0.  1.
    10030    2    1    2    0    0  0.00000000000E+00  0.00000000000E+00  0.97461404128E+03  0.36015466611E+04  0.34671697136E+04 0.  0.
        3    1    3    3  502    0 -0.97513569175E+02 -0.17185582629E+04  0.27350205433E+03  0.17429155983E+04  0.10100000352E+00 0. -1.
       -3    1    3    3    0  502  0.97513569175E+02  0.17185582629E+04  0.70111198696E+03  0.18586310628E+04  0.10100000352E+00 0.  1.
</event>
<event>
 5   0  0.1873457E-07  0.3239192E+04  0.7818609E-02  0.8178543E-01
       -1   -1    0    0    0  501  0.00000000000E+00  0.00000000000E+00  0.19443342791E+04  0.19443342791E+04  0.50400001928E-02 0. -1.
        1   -1    0    0  501    0  0.00000000000E+00  0.00000000000E+00 -0.13490946084E+04  0.13490946084E+04  0.50400001928E-02 0.  1.
    10030    2    1    2    0    0  0.00000000000E+00  0.00000000000E+00  0.59523967077E+03  0.32934288875E+04  0.32391918083E+04 0.  0.
        3    1    3    3  502    0  0.21786842350E+03 -0.95282290360E+03  0.16106583263E+04  0.18840271733E+04  0.10100000352E+00 0. -1.
       -3    1    3    3    0  502 -0.21786842350E+03  0.95282290360E+03 -0.10154186555E+04  0.14094017141E+04  0.10100000352E+00 0.  1.
</event>
<event>
 5   0  0.5740827E-07  0.3747309E+04  0.7818609E-02  0.8057558E-01
        2   -1    0    0  501    0  0.00000000000E+00  0.00000000000E+00  0.30024702128E+04  0.30024702128E+04  0.25500000920E-02 0. -1.
       -2   -1    0    0    0  501  0.00000000000E+00  0.00000000000E+00 -0.11692312472E+04  0.11692312472E+04  0.25500000920E-02 0.  1.
    10030    2    1    2    0    0  0.00000000000E+00  0.00000000000E+00  0.18332389656E+04  0.41717014601E+04  0.37473094304E+04 0.  0.
        2    1    3    3  502    0  0.17328925079E+04  0.59224864843E+03  0.47564349229E+03  0.18920654421E+04  0.25500000920E-02 0. -1.
       -2    1    3    3    0  502 -0.17328925079E+04 -0.59224864843E+03  0.13575954733E+04  0.22796360180E+04  0.25500000920E-02 0.  1.
</event>
<event>
 5   0  0.1908190E-07  0.3170487E+04  0.7818609E-02  0.8196655E-01
        1   -1    0    0  501    0  0.00000000000E+00  0.00000000000E+00  0.20111513299E+04  0.20111513299E+04  0.50400001928E-02 0. -1.
       -1   -1    0    0    0  501  0.00000000000E+00  0.00000000000E+00 -0.12495316187E+04  0.12495316187E+04  0.50400001928E-02 0.  1.
    10030    2    1    2    0    0  0.00000000000E+00  0.00000000000E+00  0.76161971118E+03  0.32606829486E+04  0.31704871403E+04 0.  0.
        5    1    3    3  502    0 -0.30841058009E+02  0.13572757730E+04 -0.46090250326E+03  0.14337370409E+04  0.46999998093E+01 0.  1.
       -5    1    3    3    0  502  0.30841058009E+02 -0.13572757730E+04  0.12225222144E+04  0.18269459077E+04  0.46999998093E+01 0. -1.
</event>
<event>
 5   0  0.5677193E-07  0.3441620E+04  0.7818609E-02  0.8127766E-01
        2   -1    0    0  501    0  0.00000000000E+00  0.00000000000E+00  0.23330563394E+04  0.23330563394E+04  0.25500000920E-02 0.  1.
       -2   -1    0    0    0  501  0.00000000000E+00  0.00000000000E+00 -0.12692311907E+04  0.12692311907E+04  0.25500000920E-02 0. -1.
    10030    2    1    2    0    0  0.00000000000E+00  0.00000000000E+00  0.10638251487E+04  0.36022875301E+04  0.34416204763E+04 0.  0.
        3    1    3    3  502    0 -0.97930710663E+03 -0.11770641783E+04  0.13538526959E+04  0.20438785731E+04  0.10100000352E+00 0.  1.
       -3    1    3    3    0  502  0.97930710663E+03  0.11770641783E+04 -0.29002754728E+03  0.15584089571E+04  0.10100000352E+00 0. -1.
</event>
<event>
 5   0  0.5677193E-07  0.3494598E+04  0.7818609E-02  0.8115071E-01
        2   -1    0    0  501    0  0.00000000000E+00  0.00000000000E+00  0.32549650564E+04  0.32549650564E+04  0.25500000920E-02 0.  1.
       -2   -1    0    0    0  501  0.00000000000E+00  0.00000000000E+00 -0.93796844717E+03  0.93796844717E+03  0.25500000920E-02 0. -1.
    10030    2    1    2    0    0  0.00000000000E+00  0.00000000000E+00  0.23169966093E+04  0.41929335036E+04  0.34945984144E+04 0.  0.
        3    1    3    3  502    0 -0.14043430434E+04  0.56098477735E+03  0.10827025713E+03  0.15161153527E+04  0.10100000352E+00 0. -1.
       -3    1    3    3    0  502  0.14043430434E+04 -0.56098477735E+03  0.22087263521E+04  0.26768181509E+04  0.10100000352E+00 0.  1.
</event>
<event>
 5   0  0.5740827E-07  0.3471221E+04  0.7818609E-02  0.8120644E-01
        2   -1    0    0  501    0  0.00000000000E+00  0.00000000000E+00  0.18245881487E+04  0.18245881487E+04  0.25500000920E-02 0. -1.
       -2   -1    0    0    0  501  0.00000000000E+00  0.00000000000E+00 -0.16509715369E+04  0.16509715369E+04  0.25500000920E-02 0.  1.
    10030    2    1    2    0    0  0.00000000000E+00  0.00000000000E+00  0.17361661182E+03  0.34755596855E+04  0.34712205922E+04 0.  0.
        2    1    3    3  502    0  0.68656766813E+03 -0.14569501583E+04  0.73435019926E+03  0.17701268716E+04  0.25500000920E-02 0. -1.
       -2    1    3    3    0  502 -0.68656766813E+03  0.14569501583E+04 -0.56073358744E+03  0.17054328139E+04  0.25500000920E-02 0.  1.
</event>
<event>
 5   0  0.1933647E-07  0.3495047E+04  0.7818609E-02  0.8114965E-01
        1   -1    0    0  501    0  0.00000000000E+00  0.00000000000E+00  0.21748622119E+04  0.21748622119E+04  0.50400001928E-02 0. -1.
       -1   -1    0    0    0  501  0.00000000000E+00  0.00000000000E+00 -0.14041523497E+04  0.14041523497E+04  0.50400001928E-02 0.  1.
    10030    2    1    2    0    0  0.00000000000E+00  0.00000000000E+00  0.77070986218E+03  0.35790145615E+04  0.34950467150E+04 0.  0.
        4    1    3    3  502    0 -0.23340867228E+03  0.46454835930E+03 -0.13231258972E+04  0.14216006961E+04  0.12699999809E+01 0.  1.
       -4    1    3    3    0  502  0.23340867228E+03 -0.46454835930E+03  0.20938357594E+04  0.21574138654E+04  0.12699999809E+01 0. -1.
</event>
<event>
 5   0  0.5707187E-07  0.3523420E+04  0.7818609E-02  0.8108262E-01
       -2   -1    0    0    0  501  0.00000000000E+00  0.00000000000E+00  0.32758997241E+04  0.32758997241E+04  0.25500000920E-02 0.  1.
        2   -1    0    0  501    0  0.00000000000E+00  0.00000000000E+00 -0.94741049716E+03  0.94741049716E+03  0.25500000920E-02 0. -1.
    10030    2    1    2    0    0  0.00000000000E+00  0.00000000000E+00  0.23284892269E+04  0.42233102212E+04  0.35234198082E+04 0.  0.
        1    1    3    3  502    0  0.63820761533E+03 -0.74633286673E+02  0.31304309653E+04  0.31956966559E+04  0.50400001928E-02 0.  1.
       -1    1    3    3    0  502 -0.63820761533E+03  0.74633286673E+02 -0.80194173844E+03  0.10276135653E+04  0.50400001928E-02 0. -1.
</event>
<event>
 5   0  0.5740827E-07  0.3474571E+04  0.7818609E-02  0.8119843E-01
        2   -1    0    0  501    0  0.00000000000E+00  0.00000000000E+00  0.24390236351E+04  0.24390236351E+04  0.25500000920E-02 0.  1.
       -2   -1    0    0    0  501  0.00000000000E+00  0.00000000000E+00 -0.12374464887E+04  0.12374464887E+04  0.25500000920E-02 0. -1.
    10030    2    1    2    0    0  0.00000000000E+00  0.00000000000E+00  0.12015771464E+04  0.36764701239E+04  0.34745711869E+04 0.  0.
        2    1    3    3  502    0 -0.11878641081E+04  0.53074213909E+03 -0.61739285189E+03  0.14400980144E+04  0.25500000920E-02 0. -1.
       -2    1    3    3    0  502  0.11878641081E+04 -0.53074213909E+03  0.18189699983E+04  0.22363721095E+04  0.25500000920E-02 0.  1.
</event>
<event>
 5   0  0.5707187E-07  0.3552238E+04  0.7818609E-02  0.8101521E-01
        2   -1    0    0  501    0  0.00000000000E+00  0.00000000000E+00  0.24191773253E+04  0.24191773253E+04  0.25500000920E-02 0. -1.
       -2   -1    0    0    0  501  0.00000000000E+00  0.00000000000E+00 -0.13039962990E+04  0.13039962990E+04  0.25500000920E-02 0.  1.
    10030    2    1    2    0    0  0.00000000000E+00  0.00000000000E+00  0.11151810263E+04  0.37231736244E+04  0.35522377617E+04 0.  0.
        1    1    3    3  502    0 -0.75061912602E+03  0.15099850622E+04  0.11422072738E+04  0.20366937464E+04  0.50400001928E-02 0. -1.
       -1    1    3    3    0  502  0.75061912602E+03 -0.15099850622E+04 -0.27026247500E+02  0.16864798779E+04  0.50400001928E-02 0.  1.
</event>
<event>
 5   0  0.5677193E-07  0.3540340E+04  0.7818609E-02  0.8104296E-01
        2   -1    0    0  501    0  0.00000000000E+00  0.00000000000E+00  0.10410580896E+04  0.10410580896E+04  0.25500000920E-02 0.  1.
       -2   -1    0    0    0  501  0.00000000000E+00  0.00000000000E+00 -0.30099196922E+04  0.30099196922E+04  0.25500000920E-02 0. -1.
    10030    2    1    2    0    0  0.00000000000E+00  0.00000000000E+00 -0.19688616026E+04  0.40509777818E+04  0.35403396698E+04 0.  0.
        3    1    3    3  502    0  0.16168233142E+04  0.71778367386E+03 -0.10583221339E+04  0.20614016545E+04  0.10100000352E+00 0. -1.
       -3    1    3    3    0  502 -0.16168233142E+04 -0.71778367386E+03 -0.91053946870E+03  0.19895761272E+04  0.10100000352E+00 0.  1.
</event>
<event>
 5   0  0.1897049E-07  0.3474691E+04  0.7818609E-02  0.8119814E-01
       -1   -1    0    0    0  501  0.00000000000E+00  0.00000000000E+00  0.11580901189E+04  0.11580901189E+04  0.50400001928E-02 0. -1.
        1   -1    0    0  501    0  0.00000000000E+00  0.00000000000E+00 -0.26063342228E+04  0.26063342228E+04  0.50400001928E-02 0.  1.
    10030    2    1    2    0    0  0.00000000000E+00  0.00000000000E+00 -0.14482441039E+04  0.37644243417E+04  0.34746913014E+04 0.  0.
        2    1    3    3  502    0  0.17221581912E+04 -0.21077377685E+03 -0.82171977939E+03  0.19197598330E+04  0.25500000920E-02 0.  1.
       -2    1    3    3    0  502 -0.17221581912E+04  0.21077377685E+03 -0.62652432454E+03  0.18446645087E+04  0.25500000920E-02 0. -1.
</event>
<event>
 5   0  0.5707187E-07  0.3490637E+04  0.7818609E-02  0.8116013E-01
       -2   -1    0    0    0  501  0.00000000000E+00  0.00000000000E+00  0.15832110015E+04  0.15832110016E+04  0.25500000920E-02 0.  1.
        2   -1    0    0  501    0  0.00000000000E+00  0.00000000000E+00 -0.19240240460E+04  0.19240240460E+04  0.25500000920E-02 0. -1.
    10030    2    1    2    0    0  0.00000000000E+00  0.00000000000E+00 -0.34081304444E+03  0.35072350475E+04  0.34906366393E+04 0.  0.
        1    1    3    3  502    0  0.62889377881E+03  0.13009984847E+04  0.81303863328E+03  0.16580519478E+04  0.50400001928E-02 0.  1.
       -1    1    3    3    0  502 -0.62889377881E+03 -0.13009984847E+04 -0.11538516777E+04  0.18491830998E+04  0.50400001928E-02 0. -1.
</event>
<event>
 5   0  0.5573334E-07  0.3493287E+04  0.7818609E-02  0.8115383E-01
       -2   -1    0    0    0  501  0.00000000000E+00  0.00000000000E+00  0.19822241535E+04  0.19822241535E+04  0.25500000920E-02 0.  1.
        2   -1    0    0  501    0  0.00000000000E+00  0.00000000000E+00 -0.15390611642E+04  0.15390611642E+04  0.25500000920E-02 0. -1.
    10030    2    1    2    0    0  0.00000000000E+00  0.00000000000E+00  0.44316298933E+03  0.35212853178E+04  0.34932873993E+04 0.  0.
        4    1    3    3  502    0 -0.10403196759E+04  0.70572699843E+03 -0.10007572640E+04  0.16068081214E+04  0.12699999809E+01 0. -1.
       -4    1    3    3    0  502  0.10403196759E+04 -0.70572699843E+03  0.14439202534E+04  0.19144771964E+04  0.12699999809E+01 0.  1.
</event>
<event>
 5   0  0.1866421E-07  0.3536589E+04  0.7818609E-02  0.8105173E-01
        1   -1    0    0  501    0  0.00000000000E+00  0.00000000000E+00  0.15890414229E+04  0.15890414229E+04  0.50400001928E-02 0. -1.
       -1   -1    0    0    0  501  0.00000000000E+00  0.00000000000E+00 -0.19677679098E+04  0.19677679098E+04  0.50400001928E-02 0.  1.
    10030    2    1    2    0    0  0.00000000000E+00  0.00000000000E+00 -0.37872648690E+03  0.35568093327E+04  0.35365885931E+04 0.  0.
        1    1    3    3  502    0 -0.67179790530E+03  0.15267364789E+03  0.14485191075E+04  0.16040041375E+04  0.50400001928E-02 0. -1.
       -1    1    3    3    0  502  0.67179790530E+03 -0.15267364789E+03 -0.18272455944E+04  0.19528051952E+04  0.50400001928E-02 0.  1.
</event>
<event>
 5   0  0.1897049E-07  0.3465857E+04  0.7818609E-02  0.8121929E-01
       -1   -1    0    0    0  501  0.00000000000E+00  0.00000000000E+00  0.12973884954E+04  0.12973884954E+04  0.50400001928E-02 0. -1.
        1   -1    0    0  501    0  0.00000000000E+00  0.00000000000E+00 -0.23146820219E+04  0.23146820219E+04  0.50400001928E-02 0.  1.
    10030    2    1    2    0    0  0.00000000000E+00  0.00000000000E+00 -0.10172935265E+04  0.36120705173E+04  0.34658573691E+04 0.  0.
        2    1    3    3  502    0  0.25478333509E+02 -0.17129507043E+04 -0.23649318602E+03  0.17293866797E+04  0.25500000920E-02 0. -1.
       -2    1    3    3    0  502 -0.25478333509E+02  0.17129507043E+04 -0.78080034047E+03  0.18826838376E+04  0.25500000920E-02 0.  1.
</event>
<event>
 5   0  0.1908190E-07  0.3379986E+04  0.7818609E-02  0.8142836E-01
        1   -1    0    0  501    0  0.00000000000E+00  0.00000000000E+00  0.16653722611E+04  0.16653722611E+04  0.50400001928E-02 0. -1.
       -1   -1    0    0    0  501  0.00000000000E+00  0.00000000000E+00 -0.17149779653E+04  0.17149779653E+04  0.50400001928E-02 0.  1.
    10030    2    1    2    0    0  0.00000000000E+00  0.00000000000E+00 -0.49605704169E+02  0.33803502264E+04  0.33799862318E+04 0.  0.
        5    1    3    3  502    0  0.11822521767E+04 -0.10321507448E+04  0.60216119945E+03  0.16809745892E+04  0.46999998093E+01 0. -1.
       -5    1    3    3    0  502 -0.11822521767E+04  0.10321507448E+04 -0.65176690362E+03  0.16993756371E+04  0.46999998093E+01 0.  1.
</event>
<event>
 5   0  0.1873457E-07  0.3515034E+04  0.7818609E-02  0.8110236E-01
       -1   -1    0    0    0  501  0.00000000000E+00  0.00000000000E+00  0.13086378601E+04  0.13086378602E+04  0.50400001928E-02 0.  1.
        1   -1    0    0  501    0  0.00000000000E+00  0.00000000000E+00 -0.23603670225E+04  0.23603670225E+04  0.50400001928E-02 0. -1.
    10030    2    1    2    0    0  0.00000000000E+00  0.00000000000E+00 -0.10517291624E+04  0.36690048827E+04  0.35150337976E+04 0.  0.
        3    1    3    3  502    0  0.15991363243E+04  0.63814651853E+03 -0.89401467777E+03  0.19400335608E+04  0.10100000352E+00 0. -1.
       -3    1    3    3    0  502 -0.15991363243E+04 -0.63814651853E+03 -0.15771448462E+03  0.17289713219E+04  0.10100000352E+00 0.  1.
</event>
<event>
 5   0  0.5573334E-07  0.3500568E+04  0.7818609E-02  0.8113655E-01
       -2   -1    0    0    0  501  0.00000000000E+00  0.00000000000E+00  0.23066555016E+04  0.23066555017E+04  0.25500000920E-02 0. -1.
        2   -1    0    0  501    0  0.00000000000E+00  0.00000000000E+00 -0.13281111298E+04  0.13281111298E+04  0.25500000920E-02 0.  1.
    10030    2    1    2    0    0  0.00000000000E+00  0.00000000000E+00  0.97854437184E+03  0.36347666315E+04  0.35005684363E+04 0.  0.
        4    1    3    3  502    0 -0.72563837116E+03 -0.41632061006E+03  0.20856170777E+04  0.22471479933E+04  0.12699999809E+01 0. -1.
       -4    1    3    3    0  502  0.72563837116E+03  0.41632061006E+03 -0.11070727059E+04  0.13876186382E+04  0.12699999809E+01 0.  1.
</event>
<event>
 5   0  0.1866421E-07  0.3501052E+04  0.7818609E-02  0.8113541E-01
       -1   -1    0    0    0  501  0.00000000000E+00  0.00000000000E+00  0.12780003831E+04  0.12780003831E+04  0.50400001928E-02 0. -1.
        1   -1    0    0  501    0  0.00000000000E+00  0.00000000000E+00 -0.23977621100E+04  0.23977621100E+04  0.50400001928E-02 0.  1.
    10030    2    1    2    0    0  0.00000000000E+00  0.00000000000E+00 -0.11197617269E+04  0.36757624932E+04  0.35010517821E+04 0.  0.
        1    1    3    3  502    0 -0.16729220823E+04  0.51449065586E+03 -0.59261301927E+03  0.18478525696E+04  0.50400001928E-02 0.  1.
       -1    1    3    3    0  502  0.16729220823E+04 -0.51449065586E+03 -0.52714870761E+03  0.18279099235E+04  0.50400001928E-02 0. -1.
</event>
<event>
 5   0  0.5554745E-07  0.3486932E+04  0.7818609E-02  0.8116894E-01
       -2   -1    0    0    0  501  0.00000000000E+00  0.00000000000E+00  0.13889817173E+04  0.13889817173E+04  0.25500000920E-02 0.  1.
        2   -1    0    0  501    0  0.00000000000E+00  0.00000000000E+00 -0.21884188079E+04  0.21884188079E+04  0.25500000920E-02 0. -1.
    10030    2    1    2    0    0  0.00000000000E+00  0.00000000000E+00 -0.79943709061E+03  0.35774005252E+04  0.34869320120E+04 0.  0.
        5    1    3    3  502    0  0.84801953186E+03  0.12672591138E+04 -0.12669721680E+04  0.19825043134E+04  0.46999998093E+01 0. -1.
       -5    1    3    3    0  502 -0.84801953186E+03 -0.12672591138E+04  0.46753507740E+03  0.15948962119E+04  0.46999998093E+01 0.  1.
</event>
<event>
 5   0  0.5554745E-07  0.3443293E+04  0.7818609E-02  0.8127362E-01
        2   -1    0    0  501    0  0.00000000000E+00  0.00000000000E+00  0.18318983732E+04  0.18318983732E+04  0.25500000920E-02 0. -1.
       -2   -1    0    0    0  501  0.00000000000E+00  0.00000000000E+00 -0.16180301658E+04  0.16180301658E+04  0.25500000920E-02 0.  1.
    10030    2    1    2    0    0  0.00000000000E+00  0.00000000000E+00  0.21386820746E+03  0.34499285390E+04  0.34432930915E+04 0.  0.
        5    1    3    3  502    0  0.99968375790E+03  0.70703591923E+03 -0.11056780402E+04  0.16497919340E+04  0.46999998093E+01 0.  1.
       -5    1    3    3    0  502 -0.99968375790E+03 -0.70703591923E+03  0.13195462477E+04  0.18001366050E+04  0.46999998093E+01 0. -1.
</event>
<event>
 5   0  0.5554745E-07  0.3485951E+04  0.7818609E-02  0.8117127E-01
        2   -1    0    0  501    0  0.00000000000E+00  0.00000000000E+00  0.22879128849E+04  0.22879128849E+04  0.25500000920E-02 0.  1.
       -2   -1    0    0    0  501  0.00000000000E+00  0.00000000000E+00 -0.13278321292E+04  0.13278321292E+04  0.25500000920E-02 0. -1.
    10030    2    1    2    0    0  0.00000000000E+00  0.00000000000E+00  0.96008075577E+03  0.36157450141E+04  0.34859513693E+04 0.  0.
        5    1    3    3  502    0  0.99800382116E+03 -0.12124261449E+04 -0.30439429357E+03  0.15995833082E+04  0.46999998093E+01 0. -1.
       -5    1    3    3    0  502 -0.99800382116E+03  0.12124261449E+04  0.12644750493E+04  0.20161617059E+04  0.46999998093E+01 0.  1.
</event>
<event>
 5   0  0.5740827E-07  0.3485112E+04  0.7818609E-02  0.8117327E-01
        2   -1    0    0  501    0  0.00000000000E+00  0.00000000000E+00  0.18986567734E+04  0.18986567734E+04  0.25500000920E-02 0. -1.
       -2   -1    0    0    0  501  0.00000000000E+00  0.00000000000E+00 -0.15992892954E+04  0.15992892955E+04  0.25500000920E-02 0.  1.
    10030    2    1    2    0    0  0.00000000000E+00  0.00000000000E+00  0.29936747792E+03  0.34979460688E+04  0.34851120231E+04 0.  0.
        2    1    3    3  502    0 -0.12359012079E+04 -0.97958069562E+03 -0.59430931492E+03  0.16852992899E+04  0.25500000920E-02 0.  1.
       -2    1    3    3    0  502  0.12359012079E+04  0.97958069562E+03  0.89367679284E+03  0.18126467789E+04  0.25500000920E-02 0. -1.
</event>
<event>
 5   0  0.1933647E-07  0.3428483E+04  0.7818609E-02  0.8130951E-01
       -1   -1    0    0    0  501  0.00000000000E+00  0.00000000000E+00  0.11719877635E+04  0.11719877635E+04  0.50400001928E-02 0. -1.
        1   -1    0    0  501    0  0.00000000000E+00  0.00000000000E+00 -0.25073844769E+04  0.25073844769E+04  0.50400001928E-02 0.  1.
    10030    2    1    2    0    0  0.00000000000E+00  0.00000000000E+00 -0.13353967133E+04  0.36793722404E+04  0.34284830030E+04 0.  0.
        4    1    3    3  502    0  0.10507638992E+04  0.58814782531E+03  0.64166651959E+03  0.13644633273E+04  0.12699999809E+01 0. -1.
       -4    1    3    3    0  502 -0.10507638992E+04 -0.58814782531E+03 -0.19770632329E+04  0.23149089131E+04  0.12699999809E+01 0.  1.
</event>
<event>
 5   0  0.5707187E-07  0.3461264E+04  0.7818609E-02  0.8123032E-01
        2   -1    0    0  501    0  0.00000000000E+00  0.00000000000E+00  0.13663104091E+04  0.13663104091E+04  0.25500000920E-02 0.  1.
       -2   -1    0    0    0  501  0.00000000000E+00  0.00000000000E+00 -0.21920984845E+04  0.21920984845E+04  0.25500000920E-02 0. -1.
    10030    2    1    2    0    0  0.00000000000E+00  0.00000000000E+00 -0.82578807541E+03  0.35584088936E+04  0.34612639178E+04 0.  0.
        1    1    3    3  502    0 -0.16578789844E+04 -0.68571788421E+02 -0.91844993875E+03  0.18965271174E+04  0.50400001928E-02 0.  1.
       -1    1    3    3    0  502  0.16578789844E+04  0.68571788421E+02  0.92661863348E+02  0.16618817762E+04  0.50400001928E-02 0. -1.
</event>
<event>
 5   0  0.5554745E-07  0.3497535E+04  0.7818609E-02  0.8114374E-01
       -2   -1    0    0    0  501  0.00000000000E+00  0.00000000000E+00  0.10533522857E+04  0.10533522857E+04  0.25500000920E-02 0.  1.
        2   -1    0    0  501    0  0.00000000000E+00  0.00000000000E+00 -0.29032909711E+04  0.29032909711E+04  0.25500000920E-02 0. -1.
    10030    2    1    2    0    0  0.00000000000E+00  0.00000000000E+00 -0.18499386854E+04  0.39566432568E+04  0.34975352353E+04 0.  0.
        5    1    3    3  502    0 -0.72742181006E+03 -0.60080913490E+03  0.74074161194E+03  0.11995142067E+04  0.46999998093E+01 0. -1.
       -5    1    3    3    0  502  0.72742181006E+03  0.60080913490E+03 -0.25906802973E+04  0.27571290501E+04  0.46999998093E+01 0.  1.
</event>
<event>
 5   0  0.5573334E-07  0.3505012E+04  0.7818609E-02  0.8112603E-01
       -2   -1    0    0    0  501  0.00000000000E+00  0.00000000000E+00  0.11415569717E+04  0.11415569717E+04  0.25500000920E-02 0. -1.
        2   -1    0    0  501    0  0.00000000000E+00  0.00000000000E+00 -0.26904278287E+04  0.26904278287E+04  0.25500000920E-02 0.  1.
    10030    2    1    2    0    0  0.00000000000E+00  0.00000000000E+00 -0.15488708569E+04  0.38319848004E+04  0.35050116375E+04 0.  0.
        4    1    3    3  502    0 -0.61823601743E+03 -0.84669453728E+02  0.10159841640E+04  0.11923129304E+04  0.12699999809E+01 0. -1.
       -4    1    3    3    0  502  0.61823601743E+03  0.84669453728E+02 -0.25648550210E+04  0.26396718700E+04  0.12699999809E+01 0.  1.
</event>
<event>
 5   0  0.5677193E-07  0.3560225E+04  0.7818609E-02  0.8099664E-01
       -2   -1    0    0    0  501  0.00000000000E+00  0.00000000000E+00  0.19059613176E+04  0.19059613176E+04  0.25500000920E-02 0. -1.
        2   -1    0    0  501    0  0.00000000000E+00  0.00000000000E+00 -0.16625730641E+04  0.16625730641E+04  0.25500000920E-02 0.  1.
    10030    2    1    2    0    0  0.00000000000E+00  0.00000000000E+00  0.24338825347E+03  0.35685343816E+04  0.35602246827E+04 0.  0.
        3    1    3    3  502    0  0.10444338768E+04  0.29644463290E+03 -0.12922998874E+04  0.16878271690E+04  0.10100000352E+00 0.  1.
       -3    1    3    3    0  502 -0.10444338768E+04 -0.29644463290E+03  0.15356881409E+04  0.18807072126E+04  0.10100000352E+00 0. -1.
</event>
<event>
 5   0  0.5554745E-07  0.3499532E+04  0.7818609E-02  0.8113901E-01
        2   -1    0    0  501    0  0.00000000000E+00  0.00000000000E+00  0.20171429305E+04  0.20171429305E+04  0.25500000920E-02 0.  1.
       -2   -1    0    0    0  501  0.00000000000E+00  0.00000000000E+00 -0.15178304582E+04  0.15178304582E+04  0.25500000920E-02 0. -1.
    10030    2    1    2    0    0  0.00000000000E+00  0.00000000000E+00  0.49931247231E+03  0.35349733886E+04  0.34995319563E+04 0.  0.
        5    1    3    3  502    0  0.11864317461E+04  0.58701803603E+03  0.14055565563E+04  0.19307567909E+04  0.46999998093E+01 0.  1.
       -5    1    3    3    0  502 -0.11864317461E+04 -0.58701803603E+03 -0.90624408399E+03  0.16042165977E+04  0.46999998093E+01 0. -1.
</event>
<event>
 5   0  0.1933647E-07  0.3463910E+04  0.7818609E-02  0.8122396E-01
        1   -1    0    0  501    0  0.00000000000E+00  0.00000000000E+00  0.17006569641E+04  0.17006569641E+04  0.50400001928E-02 0.  1.
       -1   -1    0    0    0  501  0.00000000000E+00  0.00000000000E+00 -0.17638294939E+04  0.17638294939E+04  0.50400001928E-02 0. -1.
    10030    2    1    2    0    0  0.00000000000E+00  0.00000000000E+00 -0.63172529805E+02  0.34644864580E+04  0.34639104562E+04 0.  0.
        4    1    3    3  502    0  0.14335246356E+04 -0.32050116034E+03  0.88614651705E+03  0.17155090024E+04  0.12699999809E+01 0.  1.
       -4    1    3    3    0  502 -0.14335246356E+04  0.32050116034E+03 -0.94931904685E+03  0.17489774556E+04  0.12699999809E+01 0. -1.
</event>
<event>
 5   0  0.1873457E-07  0.3492866E+04  0.7818609E-02  0.8115483E-01
        1   -1    0    0  501    0  0.00000000000E+00  0.00000000000E+00  0.15250202824E+04  0.15250202824E+04  0.50400001928E-02 0. -1.
       -1   -1    0    0    0  501  0.00000000000E+00  0.00000000000E+00 -0.19999921625E+04  0.19999921625E+04  0.50400001928E-02 0.  1.
    10030    2    1    2    0    0  0.00000000000E+00  0.00000000000E+00 -0.47497188007E+03  0.35250124449E+04  0.34928662227E+04 0.  0.
        3    1    3    3  502    0 -0.15321549240E+04 -0.25736549646E+03  0.56753511294E+03  0.16540350131E+04  0.10100000352E+00 0.  1.
       -3    1    3    3    0  502  0.15321549240E+04  0.25736549646E+03 -0.10425069930E+04  0.18709774318E+04  0.10100000352E+00 0. -1.
</event>
<event>
 5   0  0.1908190E-07  0.3441834E+04  0.7818609E-02  0.8127715E-01
        1   -1    0    0  501    0  0.00000000000E+00  0.00000000000E+00  0.24443059776E+04  0.24443059777E+04  0.50400001928E-02 0. -1.
       -1   -1    0    0    0  501  0.00000000000E+00  0.00000000000E+00 -0.12116137179E+04  0.12116137179E+04  0.50400001928E-02 0.  1.
    10030    2    1    2    0    0  0.00000000000E+00  0.00000000000E+00  0.12326922597E+04  0.36559196956E+04  0.34418336121E+04 0.  0.
        5    1    3    3  502    0 -0.44949864495E+03  0.11115262120E+04 -0.69494240473E+03  0.13858234330E+04  0.46999998093E+01 0.  1.
       -5    1    3    3    0  502  0.44949864495E+03 -0.11115262120E+04  0.19276346644E+04  0.22700962625E+04  0.46999998093E+01 0. -1.
</event>
<event>
 5   0  0.5707187E-07  0.3491732E+04  0.7818609E-02  0.8115752E-01
        2   -1    0    0  501    0  0.00000000000E+00  0.00000000000E+00  0.18581282432E+04  0.18581282432E+04  0.25500000920E-02 0.  1.
       -2   -1    0    0    0  501  0.00000000000E+00  0.00000000000E+00 -0.16403859186E+04  0.16403859186E+04  0.25500000920E-02 0. -1.
    10030    2    1    2    0    0  0.00000000000E+00  0.00000000000E+00  0.21774232464E+03  0.34985141618E+04  0.34917316077E+04 0.  0.
        1    1    3    3  502    0 -0.16273459222E+03  0.65339245959E+03 -0.15050473393E+04  0.16488091907E+04  0.50400001928E-02 0. -1.
       -1    1    3    3    0  502  0.16273459222E+03 -0.65339245959E+03  0.17227896640E+04  0.18497049711E+04  0.50400001928E-02 0.  1.
</event>
<event>
 5   0  0.5554745E-07  0.3499837E+04  0.7818609E-02  0.8113829E-01
        2   -1    0    0  501    0  0.00000000000E+00  0.00000000000E+00  0.21739536104E+04  0.21739536104E+04  0.25500000920E-02 0.  1.
       -2   -1    0    0    0  501  0.00000000000E+00  0.00000000000E+00 -0.14085925112E+04  0.14085925112E+04  0.25500000920E-02 0. -1.
    10030    2    1    2    0    0  0.00000000000E+00  0.00000000000E+00  0.76536109925E+03  0.35825461216E+04  0.34998370106E+04 0.  0.
        5    1    3    3  502    0 -0.75805857037E+03  0.12573459202E+04 -0.59198785533E+03  0.15830487263E+04  0.46999998093E+01 0. -1.
       -5    1    3    3    0  502  0.75805857037E+03 -0.12573459202E+04  0.13573489546E+04  0.19994973952E+04  0.46999998093E+01 0.  1.
</event>
<event>
 5   0  0.1908190E-07  0.3501774E+04  0.7818609E-02  0.8113370E-01
        1   -1    0    0  501    0  0.00000000000E+00  0.00000000000E+00  0.11322791795E+04  0.11322791796E+04  0.50400001928E-02 0.  1.
       -1   -1    0    0    0  501  0.00000000000E+00  0.00000000000E+00 -0.27074643657E+04  0.27074643657E+04  0.50400001928E-02 0. -1.
    10030    2    1    2    0    0  0.00000000000E+00  0.00000000000E+00 -0.15751851861E+04  0.38397435452E+04  0.35017741393E+04 0.  0.
        5    1    3    3  502    0 -0.68318312207E+03 -0.15965930910E+04 -0.54305585272E+03  0.18195550076E+04  0.46999998093E+01 0.  1.
       -5    1    3    3    0  502  0.68318312207E+03  0.15965930910E+04 -0.10321293334E+04  0.20201885376E+04  0.46999998093E+01 0. -1.
</event>
<event>
 5   0  0.1866421E-07  0.3570096E+04  0.7818609E-02  0.8097376E-01
        1   -1    0    0  501    0  0.00000000000E+00  0.00000000000E+00  0.26614761905E+04  0.26614761905E+04  0.50400001928E-02 0. -1.
       -1   -1    0    0    0  501  0.00000000000E+00  0.00000000000E+00 -0.11972291251E+04  0.11972291251E+04  0.50400001928E-02 0.  1.
    10030    2    1    2    0    0  0.00000000000E+00  0.00000000000E+00  0.14642470654E+04  0.38587053156E+04  0.35700962513E+04 0.  0.
        1    1    3    3  502    0 -0.14187937357E+04 -0.87486208040E+03  0.41706145141E+02  0.16673628060E+04  0.50400001928E-02 0.  1.
       -1    1    3    3    0  502  0.14187937357E+04  0.87486208040E+03  0.14225409203E+04  0.21913425095E+04  0.50400001928E-02 0. -1.
</event>
<event>
 5   0  0.5573334E-07  0.3495586E+04  0.7818609E-02  0.8114837E-01
        2   -1    0    0  501    0  0.00000000000E+00  0.00000000000E+00  0.22578870813E+04  0.22578870813E+04  0.25500000920E-02 0.  1.
       -2   -1    0    0    0  501  0.00000000000E+00  0.00000000000E+00 -0.13529373900E+04  0.13529373900E+04  0.25500000920E-02 0. -1.
    10030    2    1    2    0    0  0.00000000000E+00  0.00000000000E+00  0.90494969129E+03  0.36108244714E+04  0.34955857047E+04 0.  0.
        4    1    3    3  502    0  0.12062228527E+04 -0.75378258427E+03  0.15016441108E+04  0.20683564497E+04  0.12699999809E+01 0.  1.
       -4    1    3    3    0  502 -0.12062228527E+04  0.75378258427E+03 -0.59669441947E+03  0.15424680217E+04  0.12699999809E+01 0. -1.
</event>
<event>
 5   0  0.1866421E-07  0.3502198E+04  0.7818609E-02  0.8113269E-01
       -1   -1    0    0    0  501  0.00000000000E+00  0.00000000000E+00  0.16852349342E+04  0.16852349342E+04  0.50400001928E-02 0. -1.
        1   -1    0    0  501    0  0.00000000000E+00  0.00000000000E+00 -0.18195369418E+04  0.18195369418E+04  0.50400001928E-02 0.  1.
    10030    2    1    2    0    0  0.00000000000E+00  0.00000000000E+00 -0.13430200766E+03  0.35047718760E+04  0.35021977205E+04 0.  0.
        1    1    3    3  502    0 -0.48736570558E+03  0.11588933804E+04  0.11526739694E+04  0.17056425411E+04  0.50400001928E-02 0. -1.
       -1    1    3    3    0  502  0.48736570558E+03 -0.11588933804E+04 -0.12869759771E+04  0.17991293349E+04  0.50400001928E-02 0.  1.
</event>
<event>
 5   0  0.5573334E-07  0.3546175E+04  0.7818609E-02  0.8102933E-01
       -2   -1    0    0    0  501  0.00000000000E+00  0.00000000000E+00  0.24913556247E+04  0.24913556247E+04  0.25500000920E-02 0.  1.
        2   -1    0    0  501    0  0.00000000000E+00  0.00000000000E+00 -0.12618988381E+04  0.12618988381E+04  0.25500000920E-02 0. -1.
    10030    2    1    2    0    0  0.00000000000E+00  0.00000000000E+00  0.12294567866E+04  0.37532544627E+04  0.35461747097E+04 0.  0.
        4    1    3    3  502    0  0.24562055680E+02 -0.14685506661E+04  0.16660046422E+04  0.22209946947E+04  0.12699999809E+01 0.  1.
       -4    1    3    3    0  502 -0.24562055680E+02  0.14685506661E+04 -0.43654785555E+03  0.15322597680E+04  0.12699999809E+01 0. -1.
</event>
<event>
 5   0  0.5707187E-07  0.3477975E+04  0.7818609E-02  0.8119029E-01
       -2   -1    0    0    0  501  0.00000000000E+00  0.00000000000E+00  0.30123006942E+04  0.30123006942E+04  0.25500000920E-02 0.  1.
        2   -1    0    0  501    0  0.00000000000E+00  0.00000000000E+00 -0.10039097045E+04  0.10039097045E+04  0.25500000920E-02 0. -1.
    10030    2    1    2    0    0  0.00000000000E+00  0.00000000000E+00  0.20083909897E+04  0.40162103988E+04  0.34779752155E+04 0.  0.
        1    1    3    3  502    0 -0.39315106745E+02  0.17329545290E+04  0.11650377104E+04  0.20885377526E+04  0.50400001928E-02 0.  1.
       -1    1    3    3    0  502  0.39315106745E+02 -0.17329545290E+04  0.84335327933E+03  0.19276726462E+04  0.50400001928E-02 0. -1.
</event>
<event>
 5   0  0.5554745E-07  0.3512936E+04  0.7818609E-02  0.8110731E-01
       -2   -1    0    0    0  501  0.00000000000E+00  0.00000000000E+00  0.28266517015E+04  0.28266517015E+04  0.25500000920E-02 0.  1.
        2   -1    0    0  501    0  0.00000000000E+00  0.00000000000E+00 -0.10914608302E+04  0.10914608302E+04  0.25500000920E-02 0. -1.
    10030    2    1    2    0    0  0.00000000000E+00  0.00000000000E+00  0.17351908713E+04  0.39181125317E+04  0.35129358735E+04 0.  0.
        5    1    3    3  502    0 -0.12804342713E+04  0.34058893035E+03  0.21536947290E+04  0.25286233049E+04  0.46999998093E+01 0.  1.
       -5    1    3    3    0  502  0.12804342713E+04 -0.34058893035E+03 -0.41850385773E+03  0.13894892268E+04  0.46999998093E+01 0. -1.
</event>
<event>
 5   0  0.1866421E-07  0.3516056E+04  0.7818609E-02  0.8109995E-01
        1   -1    0    0  501    0  0.00000000000E+00  0.00000000000E+00  0.17054486990E+04  0.17054486990E+04  0.50400001928E-02 0. -1.
       -1   -1    0    0    0  501  0.00000000000E+00  0.00000000000E+00 -0.18122288317E+04  0.18122288317E+04  0.50400001928E-02 0.  1.
    10030    2    1    2    0    0  0.00000000000E+00  0.00000000000E+00 -0.10678013270E+03  0.35176775308E+04  0.35160564862E+04 0.  0.
        1    1    3    3  502    0  0.14258911345E+04 -0.81988675696E+03 -0.67438831615E+03  0.17776893493E+04  0.50400001928E-02 0.  1.
       -1    1    3    3    0  502 -0.14258911345E+04  0.81988675696E+03  0.56760818345E+03  0.17399881815E+04  0.50400001928E-02 0. -1.
</event>
<event>
 5   0  0.1823000E-07  0.3430554E+04  0.7818609E-02  0.8130448E-01
        3   -1    0    0  501    0  0.00000000000E+00  0.00000000000E+00  0.18933795459E+04  0.18933795486E+04  0.10100000352E+00 0. -1.
       -3   -1    0    0    0  501  0.00000000000E+00  0.00000000000E+00 -0.15539276810E+04  0.15539276842E+04  0.10100000352E+00 0.  1.
    10030    2    1    2    0    0  0.00000000000E+00  0.00000000000E+00  0.33945186496E+03  0.34473072328E+04  0.34305538312E+04 0.  0.
        5    1    3    3  502    0  0.56339880124E+03  0.72591793072E+03  0.16251698988E+04  0.18669692931E+04  0.46999998093E+01 0. -1.
       -5    1    3    3    0  502 -0.56339880124E+03 -0.72591793072E+03 -0.12857180338E+04  0.15803379398E+04  0.46999998093E+01 0.  1.
</event>
<event>
 5   0  0.5573334E-07  0.3483589E+04  0.7818609E-02  0.8117690E-01
        2   -1    0    0  501    0  0.00000000000E+00  0.00000000000E+00  0.23908005137E+04  0.23908005137E+04  0.25500000920E-02 0. -1.
       -2   -1    0    0    0  501  0.00000000000E+00  0.00000000000E+00 -0.12689672745E+04  0.12689672745E+04  0.25500000920E-02 0.  1.
    10030    2    1    2    0    0  0.00000000000E+00  0.00000000000E+00  0.11218332392E+04  0.36597677882E+04  0.34835887310E+04 0.  0.
        4    1    3    3  502    0 -0.39825568939E+03  0.16898909161E+04  0.41418525155E+03  0.17849061427E+04  0.12699999809E+01 0.  1.
       -4    1    3    3    0  502  0.39825568939E+03 -0.16898909161E+04  0.70764798767E+03  0.18748616455E+04  0.12699999809E+01 0. -1.
</event>
<event>
 5   0  0.1933647E-07  0.3500563E+04  0.7818609E-02  0.8113656E-01
        1   -1    0    0  501    0  0.00000000000E+00  0.00000000000E+00  0.20397194671E+04  0.20397194671E+04  0.50400001928E-02 0. -1.
       -1   -1    0    0    0  501  0.00000000000E+00  0.00000000000E+00 -0.15019154282E+04  0.15019154282E+04  0.50400001928E-02 0.  1.
    10030    2    1    2    0    0  0.00000000000E+00  0.00000000000E+00  0.53780403883E+03  0.35416348953E+04  0.35005634614E+04 0.  0.
        4    1    3    3  502    0 -0.27226163789E+03  0.41069629774E+03 -0.14302931165E+04  0.15127914134E+04  0.12699999809E+01 0.  1.
       -4    1    3    3    0  502  0.27226163789E+03 -0.41069629774E+03  0.19680971553E+04  0.20288434819E+04  0.12699999809E+01 0. -1.
</event>
<event>
 5   0  0.5573334E-07  0.3560023E+04  0.7818609E-02  0.8099711E-01
       -2   -1    0    0    0  501  0.00000000000E+00  0.00000000000E+00  0.20944286030E+04  0.20944286030E+04  0.25500000920E-02 0.  1.
        2   -1    0    0  501    0  0.00000000000E+00  0.00000000000E+00 -0.15127952555E+04  0.15127952555E+04  0.25500000920E-02 0. -1.
    10030    2    1    2    0    0  0.00000000000E+00  0.00000000000E+00  0.58163334748E+03  0.36072238585E+04  0.35600234008E+04 0.  0.
        4    1    3    3  502    0 -0.47201957280E+02  0.11905377787E+04 -0.10491508251E+04  0.15875538712E+04  0.12699999809E+01 0. -1.
       -4    1    3    3    0  502  0.47201957280E+02 -0.11905377787E+04  0.16307841726E+04  0.20196699873E+04  0.12699999809E+01 0.  1.
</event>
<event>
 5   0  0.1897049E-07  0.3495130E+04  0.7818609E-02  0.8114945E-01
       -1   -1    0    0    0  501  0.00000000000E+00  0.00000000000E+00  0.12700818039E+04  0.12700818040E+04  0.50400001928E-02 0.  1.
        1   -1    0    0  501    0  0.00000000000E+00  0.00000000000E+00 -0.24045563871E+04  0.24045563871E+04  0.50400001928E-02 0. -1.
    10030    2    1    2    0    0  0.00000000000E+00  0.00000000000E+00 -0.11344745832E+04  0.36746381911E+04  0.34951299340E+04 0.  0.
        2    1    3    3  502    0  0.33665956071E+03 -0.84908936355E+03  0.99914408249E+03  0.13537286673E+04  0.25500000920E-02 0.  1.
       -2    1    3    3    0  502 -0.33665956071E+03  0.84908936355E+03 -0.21336186657E+04  0.23209095238E+04  0.25500000920E-02 0. -1.
</event>
<event>
 5   0  0.5707187E-07  0.3502754E+04  0.7818609E-02  0.8113137E-01
       -2   -1    0    0    0  501  0.00000000000E+00  0.00000000000E+00  0.17123973376E+04  0.17123973376E+04  0.25500000920E-02 0. -1.
        2   -1    0    0  501    0  0.00000000000E+00  0.00000000000E+00 -0.17912443691E+04  0.17912443691E+04  0.25500000920E-02 0.  1.
    10030    2    1    2    0    0  0.00000000000E+00  0.00000000000E+00 -0.78847031511E+02  0.35036417068E+04  0.35027543955E+04 0.  0.
        1    1    3    3  502    0  0.14644123602E+04 -0.87293587294E+03 -0.44052570724E+03  0.17608473806E+04  0.50400001928E-02 0.  1.
       -1    1    3    3    0  502 -0.14644123602E+04  0.87293587294E+03  0.36167867573E+03  0.17427943262E+04  0.50400001928E-02 0. -1.
</event>
<event>
 5   0  0.1873457E-07  0.3444090E+04  0.7818609E-02  0.8127169E-01
       -1   -1    0    0    0  501  0.00000000000E+00  0.00000000000E+00  0.12177887491E+04  0.12177887491E+04  0.50400001928E-02 0. -1.
        1   -1    0    0  501    0  0.00000000000E+00  0.00000000000E+00 -0.24351018807E+04  0.24351018807E+04  0.50400001928E-02 0.  1.
    10030    2    1    2    0    0  0.00000000000E+00  0.00000000000E+00 -0.12173131316E+04  0.36528906297E+04  0.34440904013E+04 0.  0.
        3    1    3    3  502    0  0.32255578162E+03  0.39180146552E+03 -0.23539865884E+04  0.24080704909E+04  0.10100000352E+00 0.  1.
       -3    1    3    3    0  502 -0.32255578162E+03 -0.39180146552E+03  0.11366734568E+04  0.12448201389E+04  0.10100000352E+00 0. -1.
</event>
<event>
 5   0  0.1866421E-07  0.3590335E+04  0.7818609E-02  0.8092709E-01
       -1   -1    0    0    0  501  0.00000000000E+00  0.00000000000E+00  0.20968525853E+04  0.20968525853E+04  0.50400001928E-02 0.  1.
        1   -1    0    0  501    0  0.00000000000E+00  0.00000000000E+00 -0.15368878006E+04  0.15368878006E+04  0.50400001928E-02 0. -1.
    10030    2    1    2    0    0  0.00000000000E+00  0.00000000000E+00  0.55996478470E+03  0.36337403859E+04  0.35903354484E+04 0.  0.
        1    1    3    3  502    0 -0.17322926017E+04  0.47092726710E+03  0.28415644626E+03  0.18175134208E+04  0.50400001928E-02 0. -1.
       -1    1    3    3    0  502  0.17322926017E+04 -0.47092726710E+03  0.27580833844E+03  0.18162269650E+04  0.50400001928E-02 0.  1.
</event>
<event>
 5   0  0.1873457E-07  0.3618628E+04  0.7818609E-02  0.8086238E-01
        1   -1    0    0  501    0  0.00000000000E+00  0.00000000000E+00  0.17807389284E+04  0.17807389284E+04  0.50400001928E-02 0. -1.
       -1   -1    0    0    0  501  0.00000000000E+00  0.00000000000E+00 -0.18383480018E+04  0.18383480018E+04  0.50400001928E-02 0.  1.
    10030    2    1    2    0    0  0.00000000000E+00  0.00000000000E+00 -0.57609073421E+02  0.36190869302E+04  0.36186283869E+04 0.  0.
        3    1    3    3  502    0  0.15342354978E+04 -0.53785340927E+03  0.76530677588E+03  0.17969027030E+04  0.10100000352E+00 0. -1.
       -3    1    3    3    0  502 -0.15342354978E+04  0.53785340927E+03 -0.82291584930E+03  0.18221842272E+04  0.10100000352E+00 0.  1.
</event>
<event>
 5   0  0.5677193E-07  0.3452894E+04  0.7818609E-02  0.8125045E-01
       -2   -1    0    0    0  501  0.00000000000E+00  0.00000000000E+00  0.10590632180E+04  0.10590632180E+04  0.25500000920E-02 0. -1.
        2   -1    0    0  501    0  0.00000000000E+00  0.00000000000E+00 -0.28143927106E+04  0.28143927106E+04  0.25500000920E-02 0.  1.
    10030    2    1    2    0    0  0.00000000000E+00  0.00000000000E+00 -0.17553294926E+04  0.38734559286E+04  0.34528943226E+04 0.  0.
        3    1    3    3  502    0  0.12589280644E+04 -0.26728880223E+02 -0.22026263411E+04  0.25371592605E+04  0.10100000352E+00 0.  1.
       -3    1    3    3    0  502 -0.12589280644E+04  0.26728880223E+02  0.44729684848E+03  0.13362966681E+04  0.10100000352E+00 0. -1.
</event>
<event>
 5   0  0.5740827E-07  0.3497842E+04  0.7818609E-02  0.8114302E-01
       -2   -1    0    0    0  501  0.00000000000E+00  0.00000000000E+00  0.17382334638E+04  0.17382334638E+04  0.25500000920E-02 0.  1.
        2   -1    0    0  501    0  0.00000000000E+00  0.00000000000E+00 -0.17596744049E+04  0.17596744049E+04  0.25500000920E-02 0. -1.
    10030    2    1    2    0    0  0.00000000000E+00  0.00000000000E+00 -0.21440941121E+02  0.34979078687E+04  0.34978421554E+04 0.  0.
        2    1    3    3  502    0 -0.74177767524E+03 -0.33053274066E+03 -0.15596972531E+04  0.17584486155E+04  0.25500000920E-02 0. -1.
       -2    1    3    3    0  502  0.74177767524E+03  0.33053274066E+03  0.15382563120E+04  0.17394592532E+04  0.25500000920E-02 0.  1.
</event>
<event>
 5   0  0.1933647E-07  0.3424452E+04  0.7818609E-02  0.8131931E-01
        1   -1    0    0  501    0  0.00000000000E+00  0.00000000000E+00  0.15819480923E+04  0.15819480923E+04  0.50400001928E-02 0.  1.
       -1   -1    0    0    0  501  0.00000000000E+00  0.00000000000E+00 -0.18532324079E+04  0.18532324079E+04  0.50400001928E-02 0. -1.
    10030    2    1    2    0    0  0.00000000000E+00  0.00000000000E+00 -0.27128431558E+03  0.34351805002E+04  0.34244517647E+04 0.  0.
        4    1    3    3  502    0  0.55676167019E+03  0.11428953455E+04 -0.12861978725E+04  0.18084523517E+04  0.12699999809E+01 0. -1.
       -4    1    3    3    0  502 -0.55676167019E+03 -0.11428953455E+04  0.10149135569E+04  0.16267281485E+04  0.12699999809E+01 0.  1.
</event>
<event>
 5   0  0.5707187E-07  0.3536283E+04  0.7818609E-02  0.8105245E-01
       -2   -1    0    0    0  501  0.00000000000E+00  0.00000000000E+00  0.16952941563E+04  0.16952941563E+04  0.25500000920E-02 0. -1.
        2   -1    0    0  501    0  0.00000000000E+00  0.00000000000E+00 -0.18441194002E+04  0.18441194002E+04  0.25500000920E-02 0.  1.
    10030    2    1    2    0    0  0.00000000000E+00  0.00000000000E+00 -0.14882524390E+03  0.35394135565E+04  0.35362832707E+04 0.  0.
        1    1    3    3  502    0  0.61906293715E+03  0.86776373208E+02  0.15810030072E+04  0.17000998700E+04  0.50400001928E-02 0. -1.
       -1    1    3    3    0  502 -0.61906293715E+03 -0.86776373208E+02 -0.17298282511E+04  0.18393136865E+04  0.50400001928E-02 0.  1.
</event>
<event>
 5   0  0.5554745E-07  0.3483491E+04  0.7818609E-02  0.8117714E-01
        2   -1    0    0  501    0  0.00000000000E+00  0.00000000000E+00  0.17086907803E+04  0.17086907803E+04  0.25500000920E-02 0.  1.
       -2   -1    0    0    0  501  0.00000000000E+00  0.00000000000E+00 -0.17754398022E+04  0.17754398022E+04  0.25500000920E-02 0. -1.
    10030    2    1    2    0    0  0.00000000000E+00  0.00000000000E+00 -0.66749021931E+02  0.34841305825E+04  0.34834911345E+04 0.  0.
        5    1    3    3  502    0 -0.11784503461E+04 -0.58414185732E+03  0.11086269213E+04  0.17201868120E+04  0.46999998093E+01 0.  1.
       -5    1    3    3    0  502  0.11784503461E+04  0.58414185732E+03 -0.11753759432E+04  0.17639437705E+04  0.46999998093E+01 0. -1.
</event>
<event>
 5   0  0.1933647E-07  0.3498198E+04  0.7818609E-02  0.8114217E-01
       -1   -1    0    0    0  501  0.00000000000E+00  0.00000000000E+00  0.11818561742E+04  0.11818561743E+04  0.50400001928E-02 0.  1.
        1   -1    0    0  501    0  0.00000000000E+00  0.00000000000E+00 -0.25885958593E+04  0.25885958593E+04  0.50400001928E-02 0. -1.
    10030    2    1    2    0    0  0.00000000000E+00  0.00000000000E+00 -0.14067396850E+04  0.37704520335E+04  0.34981983928E+04 0.  0.
        4    1    3    3  502    0 -0.92244045980E+03 -0.42076681640E+03 -0.22395681126E+04  0.24583750852E+04  0.12699999809E+01 0. -1.
       -4    1    3    3    0  502  0.92244045980E+03  0.42076681640E+03  0.83282842757E+03  0.13120769483E+04  0.12699999809E+01 0.  1.
</event>
<event>
 5   0  0.5707187E-07  0.3496743E+04  0.7818609E-02  0.8114562E-01
       -2   -1    0    0    0  501  0.00000000000E+00  0.00000000000E+00  0.14251426562E+04  0.14251426562E+04  0.25500000920E-02 0. -1.
        2   -1    0    0  501    0  0.00000000000E+00  0.00000000000E+00 -0.21449102137E+04  0.21449102137E+04  0.25500000920E-02 0.  1.
    10030    2    1    2    0    0  0.00000000000E+00  0.00000000000E+00 -0.71976755757E+03  0.35700528699E+04  0.34967430785E+04 0.  0.
        1    1    3    3  502    0 -0.12071743135E+04 -0.26328252669E+03  0.90306932946E+03  0.15303992047E+04  0.50400001928E-02 0. -1.
       -1    1    3    3    0  502  0.12071743135E+04  0.26328252669E+03 -0.16228368870E+04  0.20396536652E+04  0.50400001928E-02 0.  1.
</event>
<event>
 5   0  0.1866421E-07  0.3531436E+04  0.7818609E-02  0.8106380E-01
       -1   -1    0    0    0  501  0.00000000000E+00  0.00000000000E+00  0.16371404185E+04  0.16371404185E+04  0.50400001928E-02 0.  1.
        1   -1    0    0  501    0  0.00000000000E+00  0.00000000000E+00 -0.19043940650E+04  0.19043940650E+04  0.50400001928E-02 0. -1.
    10030    2    1    2    0    0  0.00000000000E+00  0.00000000000E+00 -0.26725364655E+03  0.35415344835E+04  0.35314362498E+04 0.  0.
        1    1    3    3  502    0 -0.58433122389E+03 -0.76077478197E+03 -0.16202757592E+04  0.18829537392E+04  0.50400001928E-02 0. -1.
       -1    1    3    3    0  502  0.58433122389E+03  0.76077478197E+03  0.13530221127E+04  0.16585807443E+04  0.50400001928E-02 0.  1.
</event>
<event>
 5   0  0.5707187E-07  0.3496885E+04  0.7818609E-02  0.8114529E-01
       -2   -1    0    0    0  501  0.00000000000E+00  0.00000000000E+00  0.13524840209E+04  0.13524840209E+04  0.25500000920E-02 0. -1.
        2   -1    0    0  501    0  0.00000000000E+00  0.00000000000E+00 -0.22603232808E+04  0.22603232808E+04  0.25500000920E-02 0.  1.
    10030    2    1    2    0    0  0.00000000000E+00  0.00000000000E+00 -0.90783925990E+03  0.36128073016E+04  0.34968849676E+04 0.  0.
        1    1    3    3  502    0  0.10527411503E+04 -0.13676228251E+04 -0.74319244914E+03  0.18790931690E+04  0.50400001928E-02 0. -1.
       -1    1    3    3    0  502 -0.10527411503E+04  0.13676228251E+04 -0.16464681076E+03  0.17337141326E+04  0.50400001928E-02 0.  1.
</event>
<event>
 5   0  0.1933647E-07  0.3457711E+04  0.7818609E-02  0.8123886E-01
       -1   -1    0    0    0  501  0.00000000000E+00  0.00000000000E+00  0.18734689078E+04  0.18734689078E+04  0.50400001928E-02 0.  1.
        1   -1    0    0  501    0  0.00000000000E+00  0.00000000000E+00 -0.15954050888E+04  0.15954050888E+04  0.50400001928E-02 0. -1.
    10030    2    1    2    0    0  0.00000000000E+00  0.00000000000E+00  0.27806381892E+03  0.34688739966E+04  0.34577112830E+04 0.  0.
        4    1    3    3  502    0  0.11442166848E+04 -0.59897898421E+03  0.12920606221E+04  0.18268634074E+04  0.12699999809E+01 0.  1.
       -4    1    3    3    0  502 -0.11442166848E+04  0.59897898421E+03 -0.10139968031E+04  0.16420105892E+04  0.12699999809E+01 0. -1.
</event>
<event>
 5   0  0.5740827E-07  0.3479665E+04  0.7818609E-02  0.8118626E-01
        2   -1    0    0  501    0  0.00000000000E+00  0.00000000000E+00  0.25710059474E+04  0.25710059474E+04  0.25500000920E-02 0. -1.
       -2   -1    0    0    0  501  0.00000000000E+00  0.00000000000E+00 -0.11773671376E+04  0.11773671376E+04  0.25500000920E-02 0.  1.
    10030    2    1    2    0    0  0.00000000000E+00  0.00000000000E+00  0.13936388097E+04  0.37483730850E+04  0.34796654512E+04 0.  0.
        2    1    3    3  502    0 -0.10797636848E+04 -0.19302575858E+03 -0.75797687805E+03  0.13332957309E+04  0.25500000920E-02 0.  1.
       -2    1    3    3    0  502  0.10797636848E+04  0.19302575858E+03  0.21516156878E+04  0.24150773541E+04  0.25500000920E-02 0. -1.
</event>
<event>
 5   0  0.5740827E-07  0.3504436E+04  0.7818609E-02  0.8112739E-01
        2   -1    0    0  501    0  0.00000000000E+00  0.00000000000E+00  0.22648358714E+04  0.22648358714E+04  0.25500000920E-02 0. -1.
       -2   -1    0    0    0  501  0.00000000000E+00  0.00000000000E+00 -0.13556252450E+04  0.13556252450E+04  0.25500000920E-02 0.  1.
    10030    2    1    2    0    0  0.00000000000E+00  0.00000000000E+00  0.90921062645E+03  0.36204611164E+04  0.35044364357E+04 0.  0.
        2    1    3    3  502    0  0.11986610647E+04  0.55253943714E+03  0.16452282677E+04  0.21092330906E+04  0.25500000920E-02 0. -1.
       -2    1    3    3    0  502 -0.11986610647E+04 -0.55253943714E+03 -0.73601764124E+03  0.15112280258E+04  0.25500000920E-02 0.  1.
</event>
<event>
 5   0  0.1933647E-07  0.3526492E+04  0.7818609E-02  0.8107540E-01
       -1   -1    0    0    0  501  0.00000000000E+00  0.00000000000E+00  0.18110934556E+04  0.18110934556E+04  0.50400001928E-02 0. -1.
        1   -1    0    0  501    0  0.00000000000E+00  0.00000000000E+00 -0.17166630847E+04  0.17166630847E+04  0.50400001928E-02 0.  1.
    10030    2    1    2    0    0  0.00000000000E+00  0.00000000000E+00  0.94430370867E+02  0.35277565403E+04  0.35264924660E+04 0.  0.
        4    1    3    3  502    0  0.62410076145E+02 -0.17542986175E+04  0.21333797724E+03  0.17683250160E+04  0.12699999809E+01 0. -1.
       -4    1    3    3    0  502 -0.62410076145E+02  0.17542986175E+04 -0.11890760637E+03  0.17594315243E+04  0.12699999809E+01 0.  1.
</event>
<event>
 5   0  0.1908190E-07  0.3490748E+04  0.7818609E-02  0.8115986E-01
       -1   -1    0    0    0  501  0.00000000000E+00  0.00000000000E+00  0.15539995363E+04  0.15539995363E+04  0.50400001928E-02 0.  1.
        1   -1    0    0  501    0  0.00000000000E+00  0.00000000000E+00 -0.19603167005E+04  0.19603167005E+04  0.50400001928E-02 0. -1.
    10030    2    1    2    0    0  0.00000000000E+00  0.00000000000E+00 -0.40631716418E+03  0.35143162369E+04  0.34907484835E+04 0.  0.
        5    1    3    3  502    0  0.69587540252E+03 -0.11102390336E+04 -0.13639547792E+04  0.18913667062E+04  0.46999998093E+01 0.  1.
       -5    1    3    3    0  502 -0.69587540252E+03  0.11102390336E+04  0.95763761499E+03  0.16229495307E+04  0.46999998093E+01 0. -1.
</event>
<event>
 5   0  0.1897049E-07  0.3512022E+04  0.7818609E-02  0.8110947E-01
       -1   -1    0    0    0  501  0.00000000000E+00  0.00000000000E+00  0.24981101819E+04  0.24981101819E+04  0.50400001928E-02 0. -1.
        1   -1    0    0  501    0  0.00000000000E+00  0.00000000000E+00 -0.12343631371E+04  0.12343631371E+04  0.50400001928E-02 0.  1.
    10030    2    1    2    0    0  0.00000000000E+00  0.00000000000E+00  0.12637470448E+04  0.37324733190E+04  0.35120222784E+04 0.  0.
        2    1    3    3  502    0 -0.62699535061E+03  0.81611040083E+02 -0.11091869009E+04  0.12767455160E+04  0.25500000920E-02 0.  1.
       -2    1    3    3    0  502  0.62699535061E+03 -0.81611040083E+02  0.23729339458E+04  0.24557278030E+04  0.25500000920E-02 0. -1.
</event>
<event>
 5   0  0.5677193E-07  0.3513693E+04  0.7818609E-02  0.8110552E-01
       -2   -1    0    0    0  501  0.00000000000E+00  0.00000000000E+00  0.11859546856E+04  0.11859546856E+04  0.25500000920E-02 0. -1.
        2   -1    0    0  501    0  0.00000000000E+00  0.00000000000E+00 -0.26025534856E+04  0.26025534856E+04  0.25500000920E-02 0.  1.
    10030    2    1    2    0    0  0.00000000000E+00  0.00000000000E+00 -0.14165988000E+04  0.37885081712E+04  0.35136934988E+04 0.  0.
        3    1    3    3  502    0 -0.65685302418E+03  0.28783461041E+03 -0.24375471231E+04  0.25408543142E+04  0.10100000352E+00 0.  1.
       -3    1    3    3    0  502  0.65685302418E+03 -0.28783461041E+03  0.10209483231E+04  0.12476538570E+04  0.10100000352E+00 0. -1.
</event>
<event>
 5   0  0.1897049E-07  0.3489763E+04  0.7818609E-02  0.8116220E-01
        1   -1    0    0  501    0  0.00000000000E+00  0.00000000000E+00  0.19189927876E+04  0.19189927876E+04  0.50400001928E-02 0. -1.
       -1   -1    0    0    0  501  0.00000000000E+00  0.00000000000E+00 -0.15865670028E+04  0.15865670028E+04  0.50400001928E-02 0.  1.
    10030    2    1    2    0    0  0.00000000000E+00  0.00000000000E+00  0.33242578482E+03  0.35055597905E+04  0.34897625338E+04 0.  0.
        2    1    3    3  502    0 -0.12128664476E+04  0.32025435070E+03  0.13845521766E+04  0.18683127679E+04  0.25500000920E-02 0. -1.
       -2    1    3    3    0  502  0.12128664476E+04 -0.32025435070E+03 -0.10521263918E+04  0.16372470226E+04  0.25500000920E-02 0.  1.
</event>
<event>
 5   0  0.1866421E-07  0.3483476E+04  0.7818609E-02  0.8117717E-01
        1   -1    0    0  501    0  0.00000000000E+00  0.00000000000E+00  0.17166501724E+04  0.17166501724E+04  0.50400001928E-02 0. -1.
       -1   -1    0    0    0  501  0.00000000000E+00  0.00000000000E+00 -0.17671924873E+04  0.17671924873E+04  0.50400001928E-02 0.  1.
    10030    2    1    2    0    0  0.00000000000E+00  0.00000000000E+00 -0.50542314889E+02  0.34838426597E+04  0.34834760157E+04 0.  0.
        1    1    3    3  502    0  0.14714016148E+04  0.31377056149E+03 -0.90296059276E+03  0.17546545271E+04  0.50400001928E-02 0.  1.
       -1    1    3    3    0  502 -0.14714016148E+04 -0.31377056149E+03  0.85241827787E+03  0.17291881326E+04  0.50400001928E-02 0. -1.
</event>
<event>
 5   0  0.5707187E-07  0.3656542E+04  0.7818609E-02  0.8077662E-01
        2   -1    0    0  501    0  0.00000000000E+00  0.00000000000E+00  0.22014493056E+04  0.22014493056E+04  0.25500000920E-02 0. -1.
       -2   -1    0    0    0  501  0.00000000000E+00  0.00000000000E+00 -0.15183516388E+04  0.15183516388E+04  0.25500000920E-02 0.  1.
    10030    2    1    2    0    0  0.00000000000E+00  0.00000000000E+00  0.68309766680E+03  0.37198009444E+04  0.36565416234E+04 0.  0.
        1    1    3    3  502    0  0.12694518510E+04 -0.16597910462E+02  0.16799042205E+04  0.21056736886E+04  0.50400001928E-02 0. -1.
       -1    1    3    3    0  502 -0.12694518510E+04  0.16597910462E+02 -0.99680655374E+03  0.16141272559E+04  0.50400001928E-02 0.  1.
</event>
<event>
 5   0  0.1823000E-07  0.3491737E+04  0.7818609E-02  0.8115751E-01
       -3   -1    0    0    0  501  0.00000000000E+00  0.00000000000E+00  0.17126578792E+04  0.17126578822E+04  0.10100000352E+00 0. -1.
        3   -1    0    0  501    0  0.00000000000E+00  0.00000000000E+00 -0.17797226920E+04  0.17797226949E+04  0.10100000352E+00 0.  1.
    10030    2    1    2    0    0  0.00000000000E+00  0.00000000000E+00 -0.67064812801E+02  0.34923805771E+04  0.34917365889E+04 0.  0.
        4    1    3    3  502    0 -0.63533060964E+03  0.68273541142E+03 -0.15097049665E+04  0.17745374959E+04  0.12699999809E+01 0.  1.
       -4    1    3    3    0  502  0.63533060964E+03 -0.68273541142E+03  0.14426401537E+04  0.17178430812E+04  0.12699999809E+01 0. -1.
</event>
<event>
 5   0  0.1908190E-07  0.3533518E+04  0.7818609E-02  0.8105892E-01
       -1   -1    0    0    0  501  0.00000000000E+00  0.00000000000E+00  0.21536152382E+04  0.21536152382E+04  0.50400001928E-02 0. -1.
        1   -1    0    0  501    0  0.00000000000E+00  0.00000000000E+00 -0.14493944771E+04  0.14493944771E+04  0.50400001928E-02 0.  1.
    10030    2    1    2    0    0  0.00000000000E+00  0.00000000000E+00  0.70422076114E+03  0.36030097153E+04  0.35335183780E+04 0.  0.
        5    1    3    3  502    0 -0.85173893231E+02  0.12679751078E+04 -0.89938226213E+03  0.15568962745E+04  0.46999998093E+01 0.  1.
       -5    1    3    3    0  502  0.85173893231E+02 -0.12679751078E+04  0.16036030233E+04  0.20461134407E+04  0.46999998093E+01 0. -1.
</event>
<event>
 5   0  0.5740827E-07  0.3503672E+04  0.7818609E-02  0.8112920E-01
        2   -1    0    0  501    0  0.00000000000E+00  0.00000000000E+00  0.15853819603E+04  0.15853819603E+04  0.25500000920E-02 0. -1.
       -2   -1    0    0    0  501  0.00000000000E+00  0.00000000000E+00 -0.19357660341E+04  0.19357660341E+04  0.25500000920E-02 0.  1.
    10030    2    1    2    0    0  0.00000000000E+00  0.00000000000E+00 -0.35038407379E+03  0.35211479944E+04  0.35036715313E+04 0.  0.
        2    1    3    3  502    0  0.48397147192E+03 -0.76946140453E+03  0.13298188502E+04  0.16108126561E+04  0.25500000920E-02 0. -1.
       -2    1    3    3    0  502 -0.48397147192E+03  0.76946140453E+03 -0.16802029240E+04  0.19103353383E+04  0.25500000920E-02 0.  1.
</event>
<event>
 5   0  0.5740827E-07  0.3329315E+04  0.7818609E-02  0.8155476E-01
        2   -1    0    0  501    0  0.00000000000E+00  0.00000000000E+00  0.20877042283E+04  0.20877042283E+04  0.25500000920E-02 0. -1.
       -2   -1    0    0    0  501  0.00000000000E+00  0.00000000000E+00 -0.13273358049E+04  0.13273358049E+04  0.25500000920E-02 0.  1.
    10030    2    1    2    0    0  0.00000000000E+00  0.00000000000E+00  0.76036842339E+03  0.34150400333E+04  0.33293149880E+04 0.  0.
        2    1    3    3  502    0  0.10423940804E+03 -0.11426576492E+04  0.16172863889E+04  0.19829643519E+04  0.25500000920E-02 0. -1.
       -2    1    3    3    0  502 -0.10423940804E+03  0.11426576492E+04 -0.85691796547E+03  0.14320756813E+04  0.25500000920E-02 0.  1.
</event>
<event>
 5   0  0.1873457E-07  0.3500179E+04  0.7818609E-02  0.8113748E-01
        1   -1    0    0  501    0  0.00000000000E+00  0.00000000000E+00  0.30090609058E+04  0.30090609058E+04  0.50400001928E-02 0. -1.
       -1   -1    0    0    0  501  0.00000000000E+00  0.00000000000E+00 -0.10178633768E+04  0.10178633768E+04  0.50400001928E-02 0.  1.
    10030    2    1    2    0    0  0.00000000000E+00  0.00000000000E+00  0.19911975290E+04  0.40269242826E+04  0.35001787923E+04 0.  0.
        3    1    3    3  502    0  0.69559666372E+03 -0.15883870967E+04  0.12678171862E+04  0.21480662736E+04  0.10100000352E+00 0.  1.
       -3    1    3    3    0  502 -0.69559666372E+03  0.15883870967E+04  0.72338034273E+03  0.18788580090E+04  0.10100000352E+00 0. -1.
</event>
<event>
 5   0  0.5554745E-07  0.3425488E+04  0.7818609E-02  0.8131679E-01
        2   -1    0    0  501    0  0.00000000000E+00  0.00000000000E+00  0.19258706892E+04  0.19258706892E+04  0.25500000920E-02 0.  1.
       -2   -1    0    0    0  501  0.00000000000E+00  0.00000000000E+00 -0.15232031753E+04  0.15232031753E+04  0.25500000920E-02 0. -1.
    10030    2    1    2    0    0  0.00000000000E+00  0.00000000000E+00  0.40266751381E+03  0.34490738645E+04  0.34254881982E+04 0.  0.
        5    1    3    3  502    0  0.10402259732E+04 -0.16382369982E+03  0.15613977089E+04  0.18833197220E+04  0.46999998093E+01 0.  1.
       -5    1    3    3    0  502 -0.10402259732E+04  0.16382369982E+03 -0.11587301951E+04  0.15657541425E+04  0.46999998093E+01 0. -1.
</event>
<event>
 5   0  0.1933647E-07  0.3502697E+04  0.7818609E-02  0.8113151E-01
       -1   -1    0    0    0  501  0.00000000000E+00  0.00000000000E+00  0.22017739438E+04  0.22017739438E+04  0.50400001928E-02 0. -1.
        1   -1    0    0  501    0  0.00000000000E+00  0.00000000000E+00 -0.13930683284E+04  0.13930683284E+04  0.50400001928E-02 0.  1.
    10030    2    1    2    0    0  0.00000000000E+00  0.00000000000E+00  0.80870561540E+03  0.35948422722E+04  0.35026969880E+04 0.  0.
        4    1    3    3  502    0 -0.51429192409E+03  0.10415020304E+03  0.21191997823E+04  0.21831978331E+04  0.12699999809E+01 0. -1.
       -4    1    3    3    0  502  0.51429192409E+03 -0.10415020304E+03 -0.13104941669E+04  0.14116444391E+04  0.12699999809E+01 0.  1.
</event>
<event>
 5   0  0.5740827E-07  0.3498058E+04  0.7818609E-02  0.8114250E-01
       -2   -1    0    0    0  501  0.00000000000E+00  0.00000000000E+00  0.16961469715E+04  0.16961469715E+04  0.25500000920E-02 0. -1.
        2   -1    0    0  501    0  0.00000000000E+00  0.00000000000E+00 -0.18035602663E+04  0.18035602663E+04  0.25500000920E-02 0.  1.
    10030    2    1    2    0    0  0.00000000000E+00  0.00000000000E+00 -0.10741329472E+03  0.34997072378E+04  0.34980584807E+04 0.  0.
        2    1    3    3  502    0 -0.15616234802E+04  0.53033077451E+03 -0.63637677157E+03  0.17677369770E+04  0.25500000920E-02 0.  1.
       -2    1    3    3    0  502  0.15616234802E+04 -0.53033077451E+03  0.52896347685E+03  0.17319702608E+04  0.25500000920E-02 0. -1.
</event>
<event>
 5   0  0.1908190E-07  0.3519130E+04  0.7818609E-02  0.8109271E-01
        1   -1    0    0  501    0  0.00000000000E+00  0.00000000000E+00  0.17679809296E+04  0.17679809296E+04  0.50400001928E-02 0. -1.
       -1   -1    0    0    0  501  0.00000000000E+00  0.00000000000E+00 -0.17511891474E+04  0.17511891474E+04  0.50400001928E-02 0.  1.
    10030    2    1    2    0    0  0.00000000000E+00  0.00000000000E+00  0.16791782200E+02  0.35191700770E+04  0.35191300157E+04 0.  0.
        5    1    3    3  502    0  0.81801027087E+03  0.14322309561E+04 -0.60449003965E+03  0.17566606425E+04  0.46999998093E+01 0. -1.
       -5    1    3    3    0  502 -0.81801027087E+03 -0.14322309561E+04  0.62128182185E+03  0.17625094346E+04  0.46999998093E+01 0.  1.
</event>
<event>
 5   0  0.1823000E-07  0.3486295E+04  0.7818609E-02  0.8117046E-01
       -3   -1    0    0    0  501  0.00000000000E+00  0.00000000000E+00  0.11933870281E+04  0.11933870324E+04  0.10100000352E+00 0.  1.
        3   -1    0    0  501    0  0.00000000000E+00  0.00000000000E+00 -0.25461674531E+04  0.25461674551E+04  0.10100000352E+00 0. -1.
    10030    2    1    2    0    0  0.00000000000E+00  0.00000000000E+00 -0.13527804249E+04  0.37395544875E+04  0.34862950086E+04 0.  0.
        1    1    3    3  502    0 -0.99281966823E+03 -0.84682699211E+03  0.56331765958E+03  0.14213140518E+04  0.50400001928E-02 0.  1.
       -1    1    3    3    0  502  0.99281966823E+03  0.84682699211E+03 -0.19160980845E+04  0.23182404357E+04  0.50400001928E-02 0. -1.
</event>
<event>
 5   0  0.1897049E-07  0.3452382E+04  0.7818609E-02  0.8125168E-01
       -1   -1    0    0    0  501  0.00000000000E+00  0.00000000000E+00  0.26322916766E+04  0.26322916766E+04  0.50400001928E-02 0. -1.
        1   -1    0    0  501    0  0.00000000000E+00  0.00000000000E+00 -0.11319928139E+04  0.11319928139E+04  0.50400001928E-02 0.  1.
    10030    2    1    2    0    0  0.00000000000E+00  0.00000000000E+00  0.15002988626E+04  0.37642844905E+04  0.34523819383E+04 0.  0.
        2    1    3    3  502    0  0.15251204330E+04  0.35686432713E+03 -0.40925712626E+02  0.15668501514E+04  0.25500000920E-02 0. -1.
       -2    1    3    3    0  502 -0.15251204330E+04 -0.35686432713E+03  0.15412245753E+04  0.21974343391E+04  0.25500000920E-02 0.  1.
</event>
<event>
 5   0  0.1908190E-07  0.3520523E+04  0.7818609E-02  0.8108943E-01
        1   -1    0    0  501    0  0.00000000000E+00  0.00000000000E+00  0.22936613644E+04  0.22936613644E+04  0.50400001928E-02 0. -1.
       -1   -1    0    0    0  501  0.00000000000E+00  0.00000000000E+00 -0.13509058342E+04  0.13509058342E+04  0.50400001928E-02 0.  1.
    10030    2    1    2    0    0  0.00000000000E+00  0.00000000000E+00  0.94275553015E+03  0.36445671986E+04  0.35205229832E+04 0.  0.
        5    1    3    3  502    0 -0.94268355073E+03 -0.24512777739E+03 -0.10464888823E+04  0.14296506479E+04  0.46999998093E+01 0.  1.
       -5    1    3    3    0  502  0.94268355073E+03  0.24512777739E+03  0.19892444125E+04  0.22149165507E+04  0.46999998093E+01 0. -1.
</event>
<event>
 5   0  0.5740827E-07  0.3503837E+04  0.7818609E-02  0.8112881E-01
       -2   -1    0    0    0  501  0.00000000000E+00  0.00000000000E+00  0.26241274519E+04  0.26241274519E+04  0.25500000920E-02 0. -1.
        2   -1    0    0  501    0  0.00000000000E+00  0.00000000000E+00 -0.11696145567E+04  0.11696145567E+04  0.25500000920E-02 0.  1.
    10030    2    1    2    0    0  0.00000000000E+00  0.00000000000E+00  0.14545128953E+04  0.37937420086E+04  0.35038365637E+04 0.  0.
        2    1    3    3  502    0  0.76312531356E+03 -0.62573669743E+03 -0.84002935865E+03  0.12959768447E+04  0.25500000920E-02 0.  1.
       -2    1    3    3    0  502 -0.76312531356E+03  0.62573669743E+03  0.22945422539E+04  0.24977651638E+04  0.25500000920E-02 0. -1.
</event>
<event>
 5   0  0.5740827E-07  0.3501650E+04  0.7818609E-02  0.8113399E-01
       -2   -1    0    0    0  501  0.00000000000E+00  0.00000000000E+00  0.16846065759E+04  0.16846065759E+04  0.25500000920E-02 0. -1.
        2   -1    0    0  501    0  0.00000000000E+00  0.00000000000E+00 -0.18196460735E+04  0.18196460735E+04  0.25500000920E-02 0.  1.
    10030    2    1    2    0    0  0.00000000000E+00  0.00000000000E+00 -0.13503949764E+03  0.35042526494E+04  0.35016497490E+04 0.  0.
        2    1    3    3  502    0 -0.19702692894E+03  0.88676548969E+03 -0.15653671366E+04  0.18098472082E+04  0.25500000920E-02 0.  1.
       -2    1    3    3    0  502  0.19702692894E+03 -0.88676548969E+03  0.14303276390E+04  0.16944054412E+04  0.25500000920E-02 0. -1.
</event>
<event>
 5   0  0.1933647E-07  0.3490143E+04  0.7818609E-02  0.8116130E-01
       -1   -1    0    0    0  501  0.00000000000E+00  0.00000000000E+00  0.23019746319E+04  0.23019746319E+04  0.50400001928E-02 0. -1.
        1   -1    0    0  501    0  0.00000000000E+00  0.00000000000E+00 -0.13228969332E+04  0.13228969332E+04  0.50400001928E-02 0.  1.
    10030    2    1    2    0    0  0.00000000000E+00  0.00000000000E+00  0.97907769871E+03  0.36248715651E+04  0.34901433671E+04 0.  0.
        4    1    3    3  502    0  0.67527234468E+03 -0.12967518177E+04  0.14790580926E+04  0.20797048998E+04  0.12699999809E+01 0. -1.
       -4    1    3    3    0  502 -0.67527234468E+03  0.12967518177E+04 -0.49998039387E+03  0.15451666652E+04  0.12699999809E+01 0.  1.
</event>
<event>
 5   0  0.5573334E-07  0.3502798E+04  0.7818609E-02  0.8113127E-01
        2   -1    0    0  501    0  0.00000000000E+00  0.00000000000E+00  0.11329197748E+04  0.11329197748E+04  0.25500000920E-02 0.  1.
       -2   -1    0    0    0  501  0.00000000000E+00  0.00000000000E+00 -0.27075166670E+04  0.27075166670E+04  0.25500000920E-02 0. -1.
    10030    2    1    2    0    0  0.00000000000E+00  0.00000000000E+00 -0.15745968922E+04  0.38404364418E+04  0.35027984085E+04 0.  0.
        4    1    3    3  502    0  0.14081012873E+04 -0.10408665736E+04 -0.74861121560E+03  0.19043562756E+04  0.12699999809E+01 0.  1.
       -4    1    3    3    0  502 -0.14081012873E+04  0.10408665736E+04 -0.82598567663E+03  0.19360801663E+04  0.12699999809E+01 0. -1.
</event>
<event>
 5   0  0.1823000E-07  0.3492447E+04  0.7818609E-02  0.8115582E-01
        3   -1    0    0  501    0  0.00000000000E+00  0.00000000000E+00  0.14344148295E+04  0.14344148330E+04  0.10100000352E+00 0.  1.
       -3   -1    0    0    0  501  0.00000000000E+00  0.00000000000E+00 -0.21258122027E+04  0.21258122051E+04  0.10100000352E+00 0. -1.
    10030    2    1    2    0    0  0.00000000000E+00  0.00000000000E+00 -0.69139737328E+03  0.35602270381E+04  0.34924470269E+04 0.  0.
        1    1    3    3  502    0 -0.45788553279E+03 -0.12013471792E+04  0.85892986535E+03  0.15461742203E+04  0.50400001928E-02 0.  1.
       -1    1    3    3    0  502  0.45788553279E+03  0.12013471792E+04 -0.15503272386E+04  0.20140528178E+04  0.50400001928E-02 0. -1.
</event>
<event>
 5   0  0.1873457E-07  0.3498760E+04  0.7818609E-02  0.8114084E-01
       -1   -1    0    0    0  501  0.00000000000E+00  0.00000000000E+00  0.20009603443E+04  0.20009603443E+04  0.50400001928E-02 0.  1.
        1   -1    0    0  501    0  0.00000000000E+00  0.00000000000E+00 -0.15294311648E+04  0.15294311648E+04  0.50400001928E-02 0. -1.
    10030    2    1    2    0    0  0.00000000000E+00  0.00000000000E+00  0.47152917955E+03  0.35303915091E+04  0.34987604148E+04 0.  0.
        3    1    3    3  502    0 -0.13332043085E+04  0.11322807169E+04  0.20655901075E+03  0.17612949739E+04  0.10100000352E+00 0. -1.
       -3    1    3    3    0  502  0.13332043085E+04 -0.11322807169E+04  0.26497016880E+03  0.17690965351E+04  0.10100000352E+00 0.  1.
</event>
<event>
 5   0  0.5740827E-07  0.3505524E+04  0.7818609E-02  0.8112482E-01
       -2   -1    0    0    0  501  0.00000000000E+00  0.00000000000E+00  0.16436648952E+04  0.16436648952E+04  0.25500000920E-02 0.  1.
        2   -1    0    0  501    0  0.00000000000E+00  0.00000000000E+00 -0.18691002334E+04  0.18691002334E+04  0.25500000920E-02 0. -1.
    10030    2    1    2    0    0  0.00000000000E+00  0.00000000000E+00 -0.22543533821E+03  0.35127651285E+04  0.35055238919E+04 0.  0.
        2    1    3    3  502    0 -0.13403338873E+04 -0.10554542505E+04 -0.51566250825E+03  0.17822419664E+04  0.25500000920E-02 0.  1.
       -2    1    3    3    0  502  0.13403338873E+04  0.10554542505E+04  0.29022717004E+03  0.17305231621E+04  0.25500000920E-02 0. -1.
</event>
<event>
 5   0  0.1866421E-07  0.3490572E+04  0.7818609E-02  0.8116028E-01
       -1   -1    0    0    0  501  0.00000000000E+00  0.00000000000E+00  0.12493162317E+04  0.12493162317E+04  0.50400001928E-02 0.  1.
        1   -1    0    0  501    0  0.00000000000E+00  0.00000000000E+00 -0.24381522033E+04  0.24381522033E+04  0.50400001928E-02 0. -1.
    10030    2    1    2    0    0  0.00000000000E+00  0.00000000000E+00 -0.11888359716E+04  0.36874684350E+04  0.34905719433E+04 0.  0.
        1    1    3    3  502    0  0.12022962066E+03  0.17286209492E+04 -0.81459121077E+03  0.19147178352E+04  0.50400001928E-02 0. -1.
       -1    1    3    3    0  502 -0.12022962066E+03 -0.17286209492E+04 -0.37424476088E+03  0.17727505997E+04  0.50400001928E-02 0.  1.
</event>
<event>
 5   0  0.5740827E-07  0.3523429E+04  0.7818609E-02  0.8108260E-01
       -2   -1    0    0    0  501  0.00000000000E+00  0.00000000000E+00  0.23076352280E+04  0.23076352280E+04  0.25500000920E-02 0. -1.
        2   -1    0    0  501    0  0.00000000000E+00  0.00000000000E+00 -0.13449427004E+04  0.13449427004E+04  0.25500000920E-02 0.  1.
    10030    2    1    2    0    0  0.00000000000E+00  0.00000000000E+00  0.96269252758E+03  0.36525779285E+04  0.35234285321E+04 0.  0.
        2    1    3    3  502    0 -0.50587573813E+03 -0.12479229256E+04 -0.69625637320E+03  0.15159138590E+04  0.25500000920E-02 0.  1.
       -2    1    3    3    0  502  0.50587573813E+03  0.12479229256E+04  0.16589489008E+04  0.21366640695E+04  0.25500000920E-02 0. -1.
</event>
<event>
 5   0  0.5740827E-07  0.3509297E+04  0.7818609E-02  0.8111590E-01
        2   -1    0    0  501    0  0.00000000000E+00  0.00000000000E+00  0.28908104935E+04  0.28908104935E+04  0.25500000920E-02 0.  1.
       -2   -1    0    0    0  501  0.00000000000E+00  0.00000000000E+00 -0.10650269543E+04  0.10650269543E+04  0.25500000920E-02 0. -1.
    10030    2    1    2    0    0  0.00000000000E+00  0.00000000000E+00  0.18257835392E+04  0.39558374478E+04  0.35092968499E+04 0.  0.
        2    1    3    3  502    0  0.10683854545E+04 -0.58382052359E+03 -0.51141130916E+03  0.13205436041E+04  0.25500000920E-02 0. -1.
       -2    1    3    3    0  502 -0.10683854545E+04  0.58382052359E+03  0.23371948484E+04  0.26352938437E+04  0.25500000920E-02 0.  1.
</event>
<event>
 5   0  0.1873457E-07  0.3503597E+04  0.7818609E-02  0.8112938E-01
       -1   -1    0    0    0  501  0.00000000000E+00  0.00000000000E+00  0.28528903479E+04  0.28528903479E+04  0.50400001928E-02 0.  1.
        1   -1    0    0  501    0  0.00000000000E+00  0.00000000000E+00 -0.10756806167E+04  0.10756806167E+04  0.50400001928E-02 0. -1.
    10030    2    1    2    0    0  0.00000000000E+00  0.00000000000E+00  0.17772097313E+04  0.39285709646E+04  0.35035974933E+04 0.  0.
        3    1    3    3  502    0 -0.11223930185E+04 -0.97612052502E+03  0.19261654205E+04  0.24336578652E+04  0.10100000352E+00 0.  1.
       -3    1    3    3    0  502  0.11223930185E+04  0.97612052502E+03 -0.14895568920E+03  0.14949130995E+04  0.10100000352E+00 0. -1.
</event>
<event>
 5   0  0.1866421E-07  0.3538447E+04  0.7818609E-02  0.8104738E-01
        1   -1    0    0  501    0  0.00000000000E+00  0.00000000000E+00  0.12142189496E+04  0.12142189496E+04  0.50400001928E-02 0. -1.
       -1   -1    0    0    0  501  0.00000000000E+00  0.00000000000E+00 -0.25779140878E+04  0.25779140878E+04  0.50400001928E-02 0.  1.
    10030    2    1    2    0    0  0.00000000000E+00  0.00000000000E+00 -0.13636951381E+04  0.37921330374E+04  0.35384471938E+04 0.  0.
        1    1    3    3  502    0 -0.58617439757E+03 -0.15333841608E+04 -0.13889096724E+04  0.21503342733E+04  0.50400001928E-02 0.  1.
       -1    1    3    3    0  502  0.58617439757E+03  0.15333841608E+04  0.25214534230E+02  0.16417987641E+04  0.50400001928E-02 0. -1.
</event>
<event>
 5   0  0.1873457E-07  0.3431246E+04  0.7818609E-02  0.8130280E-01
        1   -1    0    0  501    0  0.00000000000E+00  0.00000000000E+00  0.11503060172E+04  0.11503060172E+04  0.50400001928E-02 0. -1.
       -1   -1    0    0    0  501  0.00000000000E+00  0.00000000000E+00 -0.25587652931E+04  0.25587652931E+04  0.50400001928E-02 0.  1.
    10030    2    1    2    0    0  0.00000000000E+00  0.00000000000E+00 -0.14084592759E+04  0.37090713103E+04  0.34312464867E+04 0.  0.
        3    1    3    3  502    0 -0.14335426654E+04  0.32614872445E+03  0.25164627758E+03  0.14915573818E+04  0.10100000352E+00 0. -1.
       -3    1    3    3    0  502  0.14335426654E+04 -0.32614872445E+03 -0.16601055535E+04  0.22175139285E+04  0.10100000352E+00 0.  1.
</event>
<event>
 5   0  0.1823000E-07  0.3493853E+04  0.7818609E-02  0.8115248E-01
       -3   -1    0    0    0  501  0.00000000000E+00  0.00000000000E+00  0.13451837767E+04  0.13451837805E+04  0.10100000352E+00 0. -1.
        3   -1    0    0  501    0  0.00000000000E+00  0.00000000000E+00 -0.22686510649E+04  0.22686510671E+04  0.10100000352E+00 0.  1.
    10030    2    1    2    0    0  0.00000000000E+00  0.00000000000E+00 -0.92346728818E+03  0.36138348476E+04  0.34938532415E+04 0.  0.
        5    1    3    3  502    0  0.13360111689E+04  0.26973789847E+03 -0.15919828207E+04  0.20957375238E+04  0.46999998093E+01 0.  1.
       -5    1    3    3    0  502 -0.13360111689E+04 -0.26973789847E+03  0.66851553253E+03  0.15180973238E+04  0.46999998093E+01 0. -1.
</event>
<event>
 5   0  0.1933647E-07  0.3505895E+04  0.7818609E-02  0.8112394E-01
        1   -1    0    0  501    0  0.00000000000E+00  0.00000000000E+00  0.24178861824E+04  0.24178861824E+04  0.50400001928E-02 0. -1.
       -1   -1    0    0    0  501  0.00000000000E+00  0.00000000000E+00 -0.12708727275E+04  0.12708727275E+04  0.50400001928E-02 0.  1.
    10030    2    1    2    0    0  0.00000000000E+00  0.00000000000E+00  0.11470134549E+04  0.36887589100E+04  0.35058953821E+04 0.  0.
        4    1    3    3  502    0  0.35013868030E+02 -0.82570955343E+03 -0.10530239441E+04  0.13386124448E+04  0.12699999809E+01 0.  1.
       -4    1    3    3    0  502 -0.35013868030E+02  0.82570955343E+03  0.22000373991E+04  0.23501464652E+04  0.12699999809E+01 0. -1.
</event>
<event>
 5   0  0.1933647E-07  0.3511852E+04  0.7818609E-02  0.8110987E-01
        1   -1    0    0  501    0  0.00000000000E+00  0.00000000000E+00  0.17004130963E+04  0.17004130963E+04  0.50400001928E-02 0. -1.
       -1   -1    0    0    0  501  0.00000000000E+00  0.00000000000E+00 -0.18132507121E+04  0.18132507121E+04  0.50400001928E-02 0.  1.
    10030    2    1    2    0    0  0.00000000000E+00  0.00000000000E+00 -0.11283761578E+03  0.35136638084E+04  0.35118515103E+04 0.  0.
        4    1    3    3  502    0 -0.15244464270E+04 -0.43903297849E+03 -0.80952683934E+03  0.17810171761E+04  0.12699999809E+01 0. -1.
       -4    1    3    3    0  502  0.15244464270E+04  0.43903297849E+03  0.69668922356E+03  0.17326466322E+04  0.12699999809E+01 0.  1.
</event>
<event>
 5   0  0.5707187E-07  0.3462940E+04  0.7818609E-02  0.8122629E-01
        2   -1    0    0  501    0  0.00000000000E+00  0.00000000000E+00  0.18233117042E+04  0.18233117042E+04  0.25500000920E-02 0.  1.
       -2   -1    0    0    0  501  0.00000000000E+00  0.00000000000E+00 -0.16442543907E+04  0.16442543907E+04  0.25500000920E-02 0. -1.
    10030    2    1    2    0    0  0.00000000000E+00  0.00000000000E+00  0.17905731357E+03  0.34675660949E+04  0.34629399505E+04 0.  0.
        1    1    3    3  502    0 -0.12836109255E+04 -0.63565097030E+03  0.10635969655E+04  0.17840817440E+04  0.50400001928E-02 0.  1.
       -1    1    3    3    0  502  0.12836109255E+04  0.63565097030E+03 -0.88453965198E+03  0.16834843510E+04  0.50400001928E-02 0. -1.
</event>
<event>
 5   0  0.5677193E-07  0.3490894E+04  0.7818609E-02  0.8115951E-01
        2   -1    0    0  501    0  0.00000000000E+00  0.00000000000E+00  0.26010173107E+04  0.26010173107E+04  0.25500000920E-02 0. -1.
       -2   -1    0    0    0  501  0.00000000000E+00  0.00000000000E+00 -0.11713049844E+04  0.11713049844E+04  0.25500000920E-02 0.  1.
    10030    2    1    2    0    0  0.00000000000E+00  0.00000000000E+00  0.14297123264E+04  0.37723222951E+04  0.34908936051E+04 0.  0.
        3    1    3    3  502    0  0.17334485447E+04 -0.12618143818E+03  0.88849273161E+03  0.19519695072E+04  0.10100000352E+00 0.  1.
       -3    1    3    3    0  502 -0.17334485447E+04  0.12618143818E+03  0.54121959475E+03  0.18203527879E+04  0.10100000352E+00 0. -1.
</event>
<event>
 5   0  0.1823000E-07  0.3482998E+04  0.7818609E-02  0.8117831E-01
       -3   -1    0    0    0  501  0.00000000000E+00  0.00000000000E+00  0.14622550640E+04  0.14622550675E+04  0.10100000352E+00 0.  1.
        3   -1    0    0  501    0  0.00000000000E+00  0.00000000000E+00 -0.20740699718E+04  0.20740699743E+04  0.10100000352E+00 0. -1.
    10030    2    1    2    0    0  0.00000000000E+00  0.00000000000E+00 -0.61181490781E+03  0.35363250418E+04  0.34829983233E+04 0.  0.
        1    1    3    3  502    0 -0.16602805914E+04 -0.49434005324E+03 -0.12452285232E+03  0.17367814114E+04  0.50400001928E-02 0.  1.
       -1    1    3    3    0  502  0.16602805914E+04  0.49434005324E+03 -0.48729205549E+03  0.17995436304E+04  0.50400001928E-02 0. -1.
</event>
<event>
 5   0  0.5740827E-07  0.3501201E+04  0.7818609E-02  0.8113505E-01
        2   -1    0    0  501    0  0.00000000000E+00  0.00000000000E+00  0.13240063360E+04  0.13240063360E+04  0.25500000920E-02 0. -1.
       -2   -1    0    0    0  501  0.00000000000E+00  0.00000000000E+00 -0.23146425185E+04  0.23146425185E+04  0.25500000920E-02 0.  1.
    10030    2    1    2    0    0  0.00000000000E+00  0.00000000000E+00 -0.99063618253E+03  0.36386488545E+04  0.35012005713E+04 0.  0.
        2    1    3    3  502    0 -0.15479551399E+04  0.16721350778E+03 -0.13270331176E+04  0.20457620506E+04  0.25500000920E-02 0.  1.
       -2    1    3    3    0  502  0.15479551399E+04 -0.16721350778E+03  0.33639693503E+03  0.15928868040E+04  0.25500000920E-02 0. -1.
</event>
<event>
 5   0  0.5573334E-07  0.3516981E+04  0.7818609E-02  0.8109777E-01
       -2   -1    0    0    0  501  0.00000000000E+00  0.00000000000E+00  0.27792587030E+04  0.27792587030E+04  0.25500000920E-02 0.  1.
        2   -1    0    0  501    0  0.00000000000E+00  0.00000000000E+00 -0.11126307557E+04  0.11126307557E+04  0.25500000920E-02 0. -1.
    10030    2    1    2    0    0  0.00000000000E+00  0.00000000000E+00  0.16666279473E+04  0.38918894587E+04  0.35169809274E+04 0.  0.
        4    1    3    3  502    0  0.19844649794E+03  0.50383637636E+03 -0.10180687161E+04  0.11531251581E+04  0.12699999809E+01 0. -1.
       -4    1    3    3    0  502 -0.19844649794E+03 -0.50383637636E+03  0.26846966634E+04  0.27387643006E+04  0.12699999809E+01 0.  1.
</event>
<event>
 5   0  0.1933647E-07  0.3457190E+04  0.7818609E-02  0.8124011E-01
       -1   -1    0    0    0  501  0.00000000000E+00  0.00000000000E+00  0.13461229154E+04  0.13461229154E+04  0.50400001928E-02 0. -1.
        1   -1    0    0  501    0  0.00000000000E+00  0.00000000000E+00 -0.22197378837E+04  0.22197378837E+04  0.50400001928E-02 0.  1.
    10030    2    1    2    0    0  0.00000000000E+00  0.00000000000E+00 -0.87361496833E+03  0.35658607991E+04  0.34571896283E+04 0.  0.
        4    1    3    3  502    0  0.49256742973E+03 -0.19471672098E+03 -0.21339781180E+04  0.21987272444E+04  0.12699999809E+01 0.  1.
       -4    1    3    3    0  502 -0.49256742973E+03  0.19471672098E+03  0.12603631497E+04  0.13671335547E+04  0.12699999809E+01 0. -1.
</event>
<event>
 5   0  0.5554745E-07  0.3502564E+04  0.7818609E-02  0.8113182E-01
        2   -1    0    0  501    0  0.00000000000E+00  0.00000000000E+00  0.90485527955E+03  0.90485527955E+03  0.25500000920E-02 0.  1.
       -2   -1    0    0    0  501  0.00000000000E+00  0.00000000000E+00 -0.33894805839E+04  0.33894805839E+04  0.25500000920E-02 0. -1.
    10030    2    1    2    0    0  0.00000000000E+00  0.00000000000E+00 -0.24846253044E+04  0.42943358635E+04  0.35025644327E+04 0.  0.
        5    1    3    3  502    0 -0.16716120587E+04  0.18056198751E+03 -0.18430517260E+04  0.24947447286E+04  0.46999998093E+01 0.  1.
       -5    1    3    3    0  502  0.16716120587E+04 -0.18056198751E+03 -0.64157357841E+03  0.17995911349E+04  0.46999998093E+01 0. -1.
</event>
<event>
 5   0  0.5707187E-07  0.3455155E+04  0.7818609E-02  0.8124501E-01
       -2   -1    0    0    0  501  0.00000000000E+00  0.00000000000E+00  0.12770570548E+04  0.12770570548E+04  0.25500000920E-02 0. -1.
        2   -1    0    0  501    0  0.00000000000E+00  0.00000000000E+00 -0.23370331417E+04  0.23370331417E+04  0.25500000920E-02 0.  1.
    10030    2    1    2    0    0  0.00000000000E+00  0.00000000000E+00 -0.10599760869E+04  0.36140901965E+04  0.34551553718E+04 0.  0.
        1    1    3    3  502    0 -0.78774669267E+03 -0.15374178596E+04 -0.54887793620E+03  0.18125853127E+04  0.50400001928E-02 0. -1.
       -1    1    3    3    0  502  0.78774669267E+03  0.15374178596E+04 -0.51109815075E+03  0.18015048838E+04  0.50400001928E-02 0.  1.
</event>
<event>
 5   0  0.1933647E-07  0.3524022E+04  0.7818609E-02  0.8108121E-01
        1   -1    0    0  501    0  0.00000000000E+00  0.00000000000E+00  0.26536856138E+04  0.26536856138E+04  0.50400001928E-02 0. -1.
       -1   -1    0    0    0  501  0.00000000000E+00  0.00000000000E+00 -0.11699510925E+04  0.11699510925E+04  0.50400001928E-02 0.  1.
    10030    2    1    2    0    0  0.00000000000E+00  0.00000000000E+00  0.14837345212E+04  0.38236367063E+04  0.35240217837E+04 0.  0.
        4    1    3    3  502    0  0.81106731914E+03 -0.14042660314E+04  0.14895776256E+04  0.22019619430E+04  0.12699999809E+01 0. -1.
       -4    1    3    3    0  502 -0.81106731914E+03  0.14042660314E+04 -0.58431043860E+01  0.16216747633E+04  0.12699999809E+01 0.  1.
</event>
<event>
 5   0  0.1873457E-07  0.3507422E+04  0.7818609E-02  0.8112033E-01
        1   -1    0    0  501    0  0.00000000000E+00  0.00000000000E+00  0.22868061292E+04  0.22868061292E+04  0.50400001928E-02 0. -1.
       -1   -1    0    0    0  501  0.00000000000E+00  0.00000000000E+00 -0.13448899355E+04  0.13448899355E+04  0.50400001928E-02 0.  1.
    10030    2    1    2    0    0  0.00000000000E+00  0.00000000000E+00  0.94191619368E+03  0.36316960647E+04  0.35074221574E+04 0.  0.
        3    1    3    3  502    0  0.74206840551E+03  0.15424180298E+04  0.86630273146E+03  0.19183845626E+04  0.10100000352E+00 0. -1.
       -3    1    3    3    0  502 -0.74206840551E+03 -0.15424180298E+04  0.75613462221E+02  0.17133115021E+04  0.10100000352E+00 0.  1.
</event>
<event>
 5   0  0.5573334E-07  0.3498391E+04  0.7818609E-02  0.8114171E-01
       -2   -1    0    0    0  501  0.00000000000E+00  0.00000000000E+00  0.12126912698E+04  0.12126912698E+04  0.25500000920E-02 0.  1.
        2   -1    0    0  501    0  0.00000000000E+00  0.00000000000E+00 -0.25230536195E+04  0.25230536195E+04  0.25500000920E-02 0. -1.
    10030    2    1    2    0    0  0.00000000000E+00  0.00000000000E+00 -0.13103623498E+04  0.37357448893E+04  0.34983911145E+04 0.  0.
        4    1    3    3  502    0 -0.86911088412E+03  0.12783981656E+03 -0.22704157449E+04  0.24344375152E+04  0.12699999809E+01 0. -1.
       -4    1    3    3    0  502  0.86911088412E+03 -0.12783981656E+03  0.96005339515E+03  0.13013073742E+04  0.12699999809E+01 0.  1.
</event>
<event>
 5   0  0.5677193E-07  0.3535746E+04  0.7818609E-02  0.8105370E-01
        2   -1    0    0  501    0  0.00000000000E+00  0.00000000000E+00  0.16753407413E+04  0.16753407413E+04  0.25500000920E-02 0.  1.
       -2   -1    0    0    0  501  0.00000000000E+00  0.00000000000E+00 -0.18655162111E+04  0.18655162111E+04  0.25500000920E-02 0. -1.
    10030    2    1    2    0    0  0.00000000000E+00  0.00000000000E+00 -0.19017546978E+03  0.35408569525E+04  0.35357462082E+04 0.  0.
        3    1    3    3  502    0  0.16324570637E+04  0.56773130640E+03  0.27712193676E+03  0.17504375107E+04  0.10100000352E+00 0.  1.
       -3    1    3    3    0  502 -0.16324570637E+04 -0.56773130640E+03 -0.46729740654E+03  0.17904194417E+04  0.10100000352E+00 0. -1.
</event>
<event>
 5   0  0.5740827E-07  0.3506230E+04  0.7818609E-02  0.8112315E-01
       -2   -1    0    0    0  501  0.00000000000E+00  0.00000000000E+00  0.13046589427E+04  0.13046589428E+04  0.25500000920E-02 0. -1.
        2   -1    0    0  501    0  0.00000000000E+00  0.00000000000E+00 -0.23557213263E+04  0.23557213263E+04  0.25500000920E-02 0.  1.
    10030    2    1    2    0    0  0.00000000000E+00  0.00000000000E+00 -0.10510623835E+04  0.36603802690E+04  0.35062303946E+04 0.  0.
        2    1    3    3  502    0  0.17507773093E+04  0.32512138793E+02 -0.43735066906E+03  0.18048694783E+04  0.25500000920E-02 0. -1.
       -2    1    3    3    0  502 -0.17507773093E+04 -0.32512138793E+02 -0.61371171446E+03  0.18555107907E+04  0.25500000920E-02 0.  1.
</event>
<event>
 5   0  0.5740827E-07  0.3497139E+04  0.7818609E-02  0.8114468E-01
       -2   -1    0    0    0  501  0.00000000000E+00  0.00000000000E+00  0.26777275179E+04  0.26777275179E+04  0.25500000920E-02 0.  1.
        2   -1    0    0  501    0  0.00000000000E+00  0.00000000000E+00 -0.11418249090E+04  0.11418249090E+04  0.25500000920E-02 0. -1.
    10030    2    1    2    0    0  0.00000000000E+00  0.00000000000E+00  0.15359026089E+04  0.38195524270E+04  0.34971393908E+04 0.  0.
        2    1    3    3  502    0  0.50255063203E+03 -0.46474748452E+03  0.25253133725E+04  0.26164393727E+04  0.25500000920E-02 0.  1.
       -2    1    3    3    0  502 -0.50255063203E+03  0.46474748452E+03 -0.98941076359E+03  0.12031130542E+04  0.25500000920E-02 0. -1.
</event>
<event>
 5   0  0.5573334E-07  0.3515516E+04  0.7818609E-02  0.8110123E-01
        2   -1    0    0  501    0  0.00000000000E+00  0.00000000000E+00  0.19577033159E+04  0.19577033159E+04  0.25500000920E-02 0. -1.
       -2   -1    0    0    0  501  0.00000000000E+00  0.00000000000E+00 -0.15782335916E+04  0.15782335916E+04  0.25500000920E-02 0.  1.
    10030    2    1    2    0    0  0.00000000000E+00  0.00000000000E+00  0.37946972424E+03  0.35359369075E+04  0.35155159710E+04 0.  0.
        4    1    3    3  502    0  0.17440084419E+04  0.36959932266E+02  0.40727817025E+03  0.17913147694E+04  0.12699999809E+01 0. -1.
       -4    1    3    3    0  502 -0.17440084419E+04 -0.36959932266E+02 -0.27808446011E+02  0.17446221381E+04  0.12699999809E+01 0.  1.
</event>
<event>
 5   0  0.5554745E-07  0.3494899E+04  0.7818609E-02  0.8115000E-01
       -2   -1    0    0    0  501  0.00000000000E+00  0.00000000000E+00  0.13752273806E+04  0.13752273806E+04  0.25500000920E-02 0. -1.
        2   -1    0    0  501    0  0.00000000000E+00  0.00000000000E+00 -0.22204179184E+04  0.22204179184E+04  0.25500000920E-02 0.  1.
    10030    2    1    2    0    0  0.00000000000E+00  0.00000000000E+00 -0.84519053774E+03  0.35956452990E+04  0.34948988642E+04 0.  0.
        5    1    3    3  502    0 -0.13586903345E+04  0.26036921515E+03 -0.15209495181E+04  0.20560012353E+04  0.46999998093E+01 0.  1.
       -5    1    3    3    0  502  0.13586903345E+04 -0.26036921515E+03  0.67575898032E+03  0.15396440636E+04  0.46999998093E+01 0. -1.
</event>
<event>
 5   0  0.5554745E-07  0.3444107E+04  0.7818609E-02  0.8127165E-01
       -2   -1    0    0    0  501  0.00000000000E+00  0.00000000000E+00  0.12132841118E+04  0.12132841118E+04  0.25500000920E-02 0. -1.
        2   -1    0    0  501    0  0.00000000000E+00  0.00000000000E+00 -0.24441663834E+04  0.24441663834E+04  0.25500000920E-02 0.  1.
    10030    2    1    2    0    0  0.00000000000E+00  0.00000000000E+00 -0.12308822716E+04  0.36574504952E+04  0.34441069900E+04 0.  0.
        5    1    3    3  502    0 -0.12375402458E+04  0.72811102374E+02 -0.18847375342E+04  0.22558956047E+04  0.46999998093E+01 0.  1.
       -5    1    3    3    0  502  0.12375402458E+04 -0.72811102374E+02  0.65385526261E+03  0.14015548905E+04  0.46999998093E+01 0. -1.
</event>
<event>
 5   0  0.5677193E-07  0.3487960E+04  0.7818609E-02  0.8116649E-01
        2   -1    0    0  501    0  0.00000000000E+00  0.00000000000E+00  0.24382136701E+04  0.24382136701E+04  0.25500000920E-02 0.  1.
       -2   -1    0    0    0  501  0.00000000000E+00  0.00000000000E+00 -0.12474160737E+04  0.12474160737E+04  0.25500000920E-02 0. -1.
    10030    2    1    2    0    0  0.00000000000E+00  0.00000000000E+00  0.11907975964E+04  0.36856297438E+04  0.34879603915E+04 0.  0.
        3    1    3    3  502    0  0.44973615906E+02 -0.14699086299E+04 -0.39517850483E+03  0.15227672400E+04  0.10100000352E+00 0. -1.
       -3    1    3    3    0  502 -0.44973615906E+02  0.14699086299E+04  0.15859761012E+04  0.21628625038E+04  0.10100000352E+00 0.  1.
</event>
<event>
 5   0  0.1866421E-07  0.3527394E+04  0.7818609E-02  0.8107328E-01
       -1   -1    0    0    0  501  0.00000000000E+00  0.00000000000E+00  0.14369721177E+04  0.14369721177E+04  0.50400001928E-02 0. -1.
        1   -1    0    0  501    0  0.00000000000E+00  0.00000000000E+00 -0.21647093134E+04  0.21647093134E+04  0.50400001928E-02 0.  1.
    10030    2    1    2    0    0  0.00000000000E+00  0.00000000000E+00 -0.72773719569E+03  0.36016814311E+04  0.35273938971E+04 0.  0.
        1    1    3    3  502    0 -0.14871936829E+04 -0.63486704892E+03  0.35510982519E+03  0.16555676393E+04  0.50400001928E-02 0.  1.
       -1    1    3    3    0  502  0.14871936829E+04  0.63486704892E+03 -0.10828470209E+04  0.19461137919E+04  0.50400001928E-02 0. -1.
</event>
<event>
 5   0  0.1866421E-07  0.3519579E+04  0.7818609E-02  0.8109166E-01
        1   -1    0    0  501    0  0.00000000000E+00  0.00000000000E+00  0.10714265918E+04  0.10714265918E+04  0.50400001928E-02 0.  1.
       -1   -1    0    0    0  501  0.00000000000E+00  0.00000000000E+00 -0.28904072105E+04  0.28904072105E+04  0.50400001928E-02 0. -1.
    10030    2    1    2    0    0  0.00000000000E+00  0.00000000000E+00 -0.18189806187E+04  0.39618338023E+04  0.35195790353E+04 0.  0.
        1    1    3    3  502    0 -0.14482877025E+04  0.70124713932E+02  0.21301150067E+03  0.14655472166E+04  0.50400001928E-02 0.  1.
       -1    1    3    3    0  502  0.14482877025E+04 -0.70124713932E+02 -0.20319921194E+04  0.24962865857E+04  0.50400001928E-02 0. -1.
</event>
<event>
 5   0  0.5740827E-07  0.3491219E+04  0.7818609E-02  0.8115874E-01
       -2   -1    0    0    0  501  0.00000000000E+00  0.00000000000E+00  0.15696697303E+04  0.15696697303E+04  0.25500000920E-02 0.  1.
        2   -1    0    0  501    0  0.00000000000E+00  0.00000000000E+00 -0.19412700291E+04  0.19412700291E+04  0.25500000920E-02 0. -1.
    10030    2    1    2    0    0  0.00000000000E+00  0.00000000000E+00 -0.37160029872E+03  0.35109397594E+04  0.34912191584E+04 0.  0.
        2    1    3    3  502    0  0.48284568761E+03 -0.14167180479E+04 -0.10891630770E+04  0.18510824384E+04  0.25500000920E-02 0. -1.
       -2    1    3    3    0  502 -0.48284568761E+03  0.14167180479E+04  0.71756277825E+03  0.16598573210E+04  0.25500000920E-02 0.  1.
</event>
<event>
 5   0  0.5573334E-07  0.3512427E+04  0.7818609E-02  0.8110851E-01
       -2   -1    0    0    0  501  0.00000000000E+00  0.00000000000E+00  0.19659831659E+04  0.19659831659E+04  0.25500000920E-02 0.  1.
        2   -1    0    0  501    0  0.00000000000E+00  0.00000000000E+00 -0.15688257970E+04  0.15688257970E+04  0.25500000920E-02 0. -1.
    10030    2    1    2    0    0  0.00000000000E+00  0.00000000000E+00  0.39715736889E+03  0.35348089628E+04  0.35124265726E+04 0.  0.
        4    1    3    3  502    0 -0.85378162400E+03 -0.12441096254E+04 -0.70577534080E+03  0.16657947851E+04  0.12699999809E+01 0.  1.
       -4    1    3    3    0  502  0.85378162400E+03  0.12441096254E+04  0.11029327097E+04  0.18690141777E+04  0.12699999809E+01 0. -1.
</event>
<event>
 5   0  0.1908190E-07  0.3523904E+04  0.7818609E-02  0.8108148E-01
       -1   -1    0    0    0  501  0.00000000000E+00  0.00000000000E+00  0.20932281195E+04  0.20932281195E+04  0.50400001928E-02 0. -1.
        1   -1    0    0  501    0  0.00000000000E+00  0.00000000000E+00 -0.14831040901E+04  0.14831040901E+04  0.50400001928E-02 0.  1.
    10030    2    1    2    0    0  0.00000000000E+00  0.00000000000E+00  0.61012402942E+03  0.35763322095E+04  0.35239041902E+04 0.  0.
        5    1    3    3  502    0 -0.97666592296E+03 -0.14055650486E+03  0.17865127348E+04  0.20409023244E+04  0.46999998093E+01 0. -1.
       -5    1    3    3    0  502  0.97666592296E+03  0.14055650486E+03 -0.11763887054E+04  0.15354298852E+04  0.46999998093E+01 0.  1.
</event>
<event>
 5   0  0.5707187E-07  0.3480041E+04  0.7818609E-02  0.8118536E-01
       -2   -1    0    0    0  501  0.00000000000E+00  0.00000000000E+00  0.30099646330E+04  0.30099646330E+04  0.25500000920E-02 0. -1.
        2   -1    0    0  501    0  0.00000000000E+00  0.00000000000E+00 -0.10058828672E+04  0.10058828672E+04  0.25500000920E-02 0.  1.
    10030    2    1    2    0    0  0.00000000000E+00  0.00000000000E+00  0.20040817658E+04  0.40158475003E+04  0.34800412960E+04 0.  0.
        1    1    3    3  502    0  0.97428912597E+02 -0.37808780003E+03  0.29587624901E+04  0.29844125470E+04  0.50400001928E-02 0. -1.
       -1    1    3    3    0  502 -0.97428912597E+02  0.37808780003E+03 -0.95468072432E+03  0.10314349533E+04  0.50400001928E-02 0.  1.
</event>
<event>
 5   0  0.1908190E-07  0.3425244E+04  0.7818609E-02  0.8131738E-01
        1   -1    0    0  501    0  0.00000000000E+00  0.00000000000E+00  0.25070621933E+04  0.25070621933E+04  0.50400001928E-02 0. -1.
       -1   -1    0    0    0  501  0.00000000000E+00  0.00000000000E+00 -0.11699249978E+04  0.11699249978E+04  0.50400001928E-02 0.  1.
    10030    2    1    2    0    0  0.00000000000E+00  0.00000000000E+00  0.13371371956E+04  0.36769871911E+04  0.34252443598E+04 0.  0.
        5    1    3    3  502    0  0.19640656626E+03  0.16895948595E+04  0.88258594560E+03  0.19163210509E+04  0.46999998093E+01 0. -1.
       -5    1    3    3    0  502 -0.19640656626E+03 -0.16895948595E+04  0.45455124996E+03  0.17606661403E+04  0.46999998093E+01 0.  1.
</event>
<event>
 5   0  0.1933647E-07  0.3497996E+04  0.7818609E-02  0.8114265E-01
       -1   -1    0    0    0  501  0.00000000000E+00  0.00000000000E+00  0.13522339273E+04  0.13522339273E+04  0.50400001928E-02 0. -1.
        1   -1    0    0  501    0  0.00000000000E+00  0.00000000000E+00 -0.22621779789E+04  0.22621779789E+04  0.50400001928E-02 0.  1.
    10030    2    1    2    0    0  0.00000000000E+00  0.00000000000E+00 -0.90994405163E+03  0.36144119062E+04  0.34979958906E+04 0.  0.
        4    1    3    3  502    0  0.83103188732E+03  0.15033690385E+04 -0.11499322987E+03  0.17216148000E+04  0.12699999809E+01 0.  1.
       -4    1    3    3    0  502 -0.83103188732E+03 -0.15033690385E+04 -0.79495082176E+03  0.18927971063E+04  0.12699999809E+01 0. -1.
</event>
<event>
 5   0  0.1866421E-07  0.3506638E+04  0.7818609E-02  0.8112219E-01
        1   -1    0    0  501    0  0.00000000000E+00  0.00000000000E+00  0.11815163963E+04  0.11815163963E+04  0.50400001928E-02 0. -1.
       -1   -1    0    0    0  501  0.00000000000E+00  0.00000000000E+00 -0.26018494068E+04  0.26018494068E+04  0.50400001928E-02 0.  1.
    10030    2    1    2    0    0  0.00000000000E+00  0.00000000000E+00 -0.14203330105E+04  0.37833658031E+04  0.35066381250E+04 0.  0.
        1    1    3    3  502    0  0.86505478097E+03  0.12704062403E+04  0.20014397541E+03  0.15499385150E+04  0.50400001928E-02 0.  1.
       -1    1    3    3    0  502 -0.86505478097E+03 -0.12704062403E+04 -0.16204769860E+04  0.22334272881E+04  0.50400001928E-02 0. -1.
</event>
<event>
 5   0  0.1866421E-07  0.3527444E+04  0.7818609E-02  0.8107317E-01
       -1   -1    0    0    0  501  0.00000000000E+00  0.00000000000E+00  0.17912194436E+04  0.17912194436E+04  0.50400001928E-02 0. -1.
        1   -1    0    0  501    0  0.00000000000E+00  0.00000000000E+00 -0.17366467143E+04  0.17366467144E+04  0.50400001928E-02 0.  1.
    10030    2    1    2    0    0  0.00000000000E+00  0.00000000000E+00  0.54572729232E+02  0.35278661579E+04  0.35274440386E+04 0.  0.
        1    1    3    3  502    0  0.10356568739E+02 -0.14375971822E+04  0.10491338611E+04  0.17797400864E+04  0.50400001928E-02 0. -1.
       -1    1    3    3    0  502 -0.10356568739E+02  0.14375971822E+04 -0.99456113182E+03  0.17481260715E+04  0.50400001928E-02 0.  1.
</event>
<event>
 5   0  0.1866421E-07  0.3517064E+04  0.7818609E-02  0.8109758E-01
       -1   -1    0    0    0  501  0.00000000000E+00  0.00000000000E+00  0.18553648107E+04  0.18553648107E+04  0.50400001928E-02 0. -1.
        1   -1    0    0  501    0  0.00000000000E+00  0.00000000000E+00 -0.16667528422E+04  0.16667528422E+04  0.50400001928E-02 0.  1.
    10030    2    1    2    0    0  0.00000000000E+00  0.00000000000E+00  0.18861196851E+03  0.35221176530E+04  0.35170638730E+04 0.  0.
        1    1    3    3  502    0 -0.15388573059E+04 -0.68016595188E+03  0.60663375998E+03  0.17884943524E+04  0.50400001928E-02 0. -1.
       -1    1    3    3    0  502  0.15388573059E+04  0.68016595188E+03 -0.41802179147E+03  0.17336233005E+04  0.50400001928E-02 0.  1.
</event>
<event>
 5   0  0.1897049E-07  0.3509274E+04  0.7818609E-02  0.8111596E-01
        1   -1    0    0  501    0  0.00000000000E+00  0.00000000000E+00  0.15278108976E+04  0.15278108977E+04  0.50400001928E-02 0. -1.
       -1   -1    0    0    0  501  0.00000000000E+00  0.00000000000E+00 -0.20151392149E+04  0.20151392149E+04  0.50400001928E-02 0.  1.
    10030    2    1    2    0    0  0.00000000000E+00  0.00000000000E+00 -0.48732831726E+03  0.35429501126E+04  0.35092743711E+04 0.  0.
        2    1    3    3  502    0 -0.41322867029E+03  0.15544795980E+04  0.46419664091E+03  0.16741096965E+04  0.25500000920E-02 0. -1.
       -2    1    3    3    0  502  0.41322867029E+03 -0.15544795980E+04 -0.95152495817E+03  0.18688404160E+04  0.25500000920E-02 0.  1.
</event>
<event>
 5   0  0.1908190E-07  0.3494629E+04  0.7818609E-02  0.8115064E-01
        1   -1    0    0  501    0  0.00000000000E+00  0.00000000000E+00  0.96898562149E+03  0.96898562151E+03  0.50400001928E-02 0.  1.
       -1   -1    0    0    0  501  0.00000000000E+00  0.00000000000E+00 -0.31508295973E+04  0.31508295973E+04  0.50400001928E-02 0. -1.
    10030    2    1    2    0    0  0.00000000000E+00  0.00000000000E+00 -0.21818439758E+04  0.41198152188E+04  0.34946293512E+04 0.  0.
        5    1    3    3  502    0  0.13431322634E+04 -0.11030000419E+04 -0.13033631166E+04  0.21724159071E+04  0.46999998093E+01 0.  1.
       -5    1    3    3    0  502 -0.13431322634E+04  0.11030000419E+04 -0.87848085916E+03  0.19473993117E+04  0.46999998093E+01 0. -1.
</event>
<event>
 5   0  0.5677193E-07  0.3493695E+04  0.7818609E-02  0.8115286E-01
       -2   -1    0    0    0  501  0.00000000000E+00  0.00000000000E+00  0.16892153399E+04  0.16892153399E+04  0.25500000920E-02 0. -1.
        2   -1    0    0  501    0  0.00000000000E+00  0.00000000000E+00 -0.18064459371E+04  0.18064459371E+04  0.25500000920E-02 0.  1.
    10030    2    1    2    0    0  0.00000000000E+00  0.00000000000E+00 -0.11723059721E+03  0.34956612771E+04  0.34936949997E+04 0.  0.
        3    1    3    3  502    0 -0.17296158382E+04 -0.10827684872E+03 -0.27824135039E+03  0.17551960241E+04  0.10100000352E+00 0.  1.
       -3    1    3    3    0  502  0.17296158382E+04  0.10827684872E+03  0.16101075318E+03  0.17404652529E+04  0.10100000352E+00 0. -1.
</event>
<event>
 5   0  0.1873457E-07  0.3522840E+04  0.7818609E-02  0.8108398E-01
       -1   -1    0    0    0  501  0.00000000000E+00  0.00000000000E+00  0.12702854237E+04  0.12702854237E+04  0.50400001928E-02 0.  1.
        1   -1    0    0  501    0  0.00000000000E+00  0.00000000000E+00 -0.24424431300E+04  0.24424431300E+04  0.50400001928E-02 0. -1.
    10030    2    1    2    0    0  0.00000000000E+00  0.00000000000E+00 -0.11721577062E+04  0.37127285537E+04  0.35228397104E+04 0.  0.
        3    1    3    3  502    0 -0.97941557971E+03  0.38914063327E+02  0.95630647710E+03  0.13694127466E+04  0.10100000352E+00 0.  1.
       -3    1    3    3    0  502  0.97941557971E+03 -0.38914063327E+02 -0.21284641833E+04  0.23433158072E+04  0.10100000352E+00 0. -1.
</event>
<event>
 5   0  0.1897049E-07  0.3508547E+04  0.7818609E-02  0.8111767E-01
       -1   -1    0    0    0  501  0.00000000000E+00  0.00000000000E+00  0.24972529847E+04  0.24972529847E+04  0.50400001928E-02 0.  1.
        1   -1    0    0  501    0  0.00000000000E+00  0.00000000000E+00 -0.12323443415E+04  0.12323443415E+04  0.50400001928E-02 0. -1.
    10030    2    1    2    0    0  0.00000000000E+00  0.00000000000E+00  0.12649086432E+04  0.37295973263E+04  0.35085470412E+04 0.  0.
        2    1    3    3  502    0  0.16894044632E+04  0.11354834346E+03  0.11201573465E+04  0.20302051983E+04  0.25500000920E-02 0.  1.
       -2    1    3    3    0  502 -0.16894044632E+04 -0.11354834346E+03  0.14475129673E+03  0.16993921279E+04  0.25500000920E-02 0. -1.
</event>
<event>
 5   0  0.5554745E-07  0.3503524E+04  0.7818609E-02  0.8112955E-01
        2   -1    0    0  501    0  0.00000000000E+00  0.00000000000E+00  0.18327592020E+04  0.18327592020E+04  0.25500000920E-02 0.  1.
       -2   -1    0    0    0  501  0.00000000000E+00  0.00000000000E+00 -0.16743447113E+04  0.16743447113E+04  0.25500000920E-02 0. -1.
    10030    2    1    2    0    0  0.00000000000E+00  0.00000000000E+00  0.15841449071E+03  0.35071039133E+04  0.35035243267E+04 0.  0.
        5    1    3    3  502    0 -0.13983126570E+04 -0.15557889234E+03 -0.96548996843E+03  0.17063633984E+04  0.46999998093E+01 0. -1.
       -5    1    3    3    0  502  0.13983126570E+04  0.15557889234E+03  0.11239044591E+04  0.18007405148E+04  0.46999998093E+01 0.  1.
</event>
<event>
 5   0  0.5677193E-07  0.3505053E+04  0.7818609E-02  0.8112594E-01
        2   -1    0    0  501    0  0.00000000000E+00  0.00000000000E+00  0.11597369729E+04  0.11597369729E+04  0.25500000920E-02 0. -1.
       -2   -1    0    0    0  501  0.00000000000E+00  0.00000000000E+00 -0.26483147482E+04  0.26483147482E+04  0.25500000920E-02 0.  1.
    10030    2    1    2    0    0  0.00000000000E+00  0.00000000000E+00 -0.14885777752E+04  0.38080517211E+04  0.35050526555E+04 0.  0.
        3    1    3    3  502    0 -0.60507761892E+03  0.14674000885E+04  0.62880497224E+02  0.15885011526E+04  0.10100000352E+00 0.  1.
       -3    1    3    3    0  502  0.60507761892E+03 -0.14674000885E+04 -0.15514582725E+04  0.22195505685E+04  0.10100000352E+00 0. -1.
</event>
<event>
 5   0  0.1866421E-07  0.3468240E+04  0.7818609E-02  0.8121358E-01
        1   -1    0    0  501    0  0.00000000000E+00  0.00000000000E+00  0.32452767332E+04  0.32452767332E+04  0.50400001928E-02 0.  1.
       -1   -1    0    0    0  501  0.00000000000E+00  0.00000000000E+00 -0.92663055963E+03  0.92663055964E+03  0.50400001928E-02 0. -1.
    10030    2    1    2    0    0  0.00000000000E+00  0.00000000000E+00  0.23186461736E+04  0.41719072929E+04  0.34682402428E+04 0.  0.
        1    1    3    3  502    0 -0.61173329722E+03 -0.13444320295E+04  0.22522039751E+04  0.26933506742E+04  0.50400001928E-02 0.  1.
       -1    1    3    3    0  502  0.61173329722E+03  0.13444320295E+04  0.66442198472E+02  0.14785566186E+04  0.50400001928E-02 0. -1.
</event>
<event>
 5   0  0.5573334E-07  0.3531620E+04  0.7818609E-02  0.8106337E-01
        2   -1    0    0  501    0  0.00000000000E+00  0.00000000000E+00  0.27097192343E+04  0.27097192343E+04  0.25500000920E-02 0. -1.
       -2   -1    0    0    0  501  0.00000000000E+00  0.00000000000E+00 -0.11507041171E+04  0.11507041171E+04  0.25500000920E-02 0.  1.
    10030    2    1    2    0    0  0.00000000000E+00  0.00000000000E+00  0.15590151171E+04  0.38604233514E+04  0.35316200696E+04 0.  0.
        4    1    3    3  502    0 -0.21315541918E+03  0.11372054163E+04  0.22376475607E+04  0.25190751498E+04  0.12699999809E+01 0. -1.
       -4    1    3    3    0  502  0.21315541918E+03 -0.11372054163E+04 -0.67863244355E+03  0.13413482016E+04  0.12699999809E+01 0.  1.
</event>
<event>
 5   0  0.5707187E-07  0.3499579E+04  0.7818609E-02  0.8113890E-01
       -2   -1    0    0    0  501  0.00000000000E+00  0.00000000000E+00  0.24447691385E+04  0.24447691385E+04  0.25500000920E-02 0. -1.
        2   -1    0    0  501    0  0.00000000000E+00  0.00000000000E+00 -0.12523732476E+04  0.12523732476E+04  0.25500000920E-02 0.  1.
    10030    2    1    2    0    0  0.00000000000E+00  0.00000000000E+00  0.11923958909E+04  0.36971423862E+04  0.34995790980E+04 0.  0.
        1    1    3    3  502    0 -0.65705840568E+03  0.14185492069E+04  0.14265433785E+04  0.21163727487E+04  0.50400001928E-02 0. -1.
       -1    1    3    3    0  502  0.65705840568E+03 -0.14185492069E+04 -0.23414748758E+03  0.15807696375E+04  0.50400001928E-02 0.  1.
</event>
<event>
 5   0  0.5677193E-07  0.3516413E+04  0.7818609E-02  0.8109911E-01
       -2   -1    0    0    0  501  0.00000000000E+00  0.00000000000E+00  0.29673416811E+04  0.29673416811E+04  0.25500000920E-02 0.  1.
        2   -1    0    0  501    0  0.00000000000E+00  0.00000000000E+00 -0.10417710297E+04  0.10417710297E+04  0.25500000920E-02 0. -1.
    10030    2    1    2    0    0  0.00000000000E+00  0.00000000000E+00  0.19255706515E+04  0.40091127108E+04  0.35164132855E+04 0.  0.
        3    1    3    3  502    0 -0.59626169985E+03  0.71852873931E+03  0.26613178851E+04  0.28203589239E+04  0.10100000352E+00 0.  1.
       -3    1    3    3    0  502  0.59626169985E+03 -0.71852873931E+03 -0.73574723363E+03  0.11887537869E+04  0.10100000352E+00 0. -1.
</event>
<event>
 5   0  0.1908190E-07  0.3500659E+04  0.7818609E-02  0.8113634E-01
        1   -1    0    0  501    0  0.00000000000E+00  0.00000000000E+00  0.19896439256E+04  0.19896439256E+04  0.50400001928E-02 0. -1.
       -1   -1    0    0    0  501  0.00000000000E+00  0.00000000000E+00 -0.15397998246E+04  0.15397998246E+04  0.50400001928E-02 0.  1.
    10030    2    1    2    0    0  0.00000000000E+00  0.00000000000E+00  0.44984410101E+03  0.35294437501E+04  0.35006590051E+04 0.  0.
        5    1    3    3  502    0 -0.12377071515E+04 -0.65328373925E+03  0.12847231303E+04  0.18997984757E+04  0.46999998093E+01 0. -1.
       -5    1    3    3    0  502  0.12377071515E+04  0.65328373925E+03 -0.83487902928E+03  0.16296452744E+04  0.46999998093E+01 0.  1.
</event>
<event>
 5   0  0.1897049E-07  0.3490386E+04  0.7818609E-02  0.8116072E-01
        1   -1    0    0  501    0  0.00000000000E+00  0.00000000000E+00  0.31662470631E+04  0.31662470631E+04  0.50400001928E-02 0. -1.
       -1   -1    0    0    0  501  0.00000000000E+00  0.00000000000E+00 -0.96192706352E+03  0.96192706354E+03  0.50400001928E-02 0.  1.
    10030    2    1    2    0    0  0.00000000000E+00  0.00000000000E+00  0.22043199995E+04  0.41281741266E+04  0.34903860760E+04 0.  0.
        2    1    3    3  502    0 -0.10318739373E+04  0.53909821572E+03 -0.43552531781E+03  0.12430096585E+04  0.25500000920E-02 0.  1.
       -2    1    3    3    0  502  0.10318739373E+04 -0.53909821572E+03  0.26398453174E+04  0.28851644681E+04  0.25500000920E-02 0. -1.
</event>
<event>
 5   0  0.1873457E-07  0.3297242E+04  0.7818609E-02  0.8163598E-01
       -1   -1    0    0    0  501  0.00000000000E+00  0.00000000000E+00  0.19433322039E+04  0.19433322039E+04  0.50400001928E-02 0. -1.
        1   -1    0    0  501    0  0.00000000000E+00  0.00000000000E+00 -0.13986031773E+04  0.13986031774E+04  0.50400001928E-02 0.  1.
    10030    2    1    2    0    0  0.00000000000E+00  0.00000000000E+00  0.54472902651E+03  0.33419353812E+04  0.32972416320E+04 0.  0.
        3    1    3    3  502    0  0.15413909372E+04  0.52585481210E+03  0.12884008988E+02  0.16286728685E+04  0.10100000352E+00 0.  1.
       -3    1    3    3    0  502 -0.15413909372E+04 -0.52585481210E+03  0.53184501752E+03  0.17132625127E+04  0.10100000352E+00 0. -1.
</event>
<event>
 5   0  0.5740827E-07  0.3534210E+04  0.7818609E-02  0.8105730E-01
        2   -1    0    0  501    0  0.00000000000E+00  0.00000000000E+00  0.29378730604E+04  0.29378730604E+04  0.25500000920E-02 0. -1.
       -2   -1    0    0    0  501  0.00000000000E+00  0.00000000000E+00 -0.10628985083E+04  0.10628985083E+04  0.25500000920E-02 0.  1.
    10030    2    1    2    0    0  0.00000000000E+00  0.00000000000E+00  0.18749745520E+04  0.40007715687E+04  0.35342104598E+04 0.  0.
        2    1    3    3  502    0 -0.70340612910E+03 -0.10605417589E+04 -0.45038624991E+03  0.13499543618E+04  0.25500000920E-02 0.  1.
       -2    1    3    3    0  502  0.70340612910E+03  0.10605417589E+04  0.23253608019E+04  0.26508172068E+04  0.25500000920E-02 0. -1.
</event>
<event>
 5   0  0.5573334E-07  0.3476864E+04  0.7818609E-02  0.8119295E-01
       -2   -1    0    0    0  501  0.00000000000E+00  0.00000000000E+00  0.10682393860E+04  0.10682393860E+04  0.25500000920E-02 0. -1.
        2   -1    0    0  501    0  0.00000000000E+00  0.00000000000E+00 -0.28290910897E+04  0.28290910897E+04  0.25500000920E-02 0.  1.
    10030    2    1    2    0    0  0.00000000000E+00  0.00000000000E+00 -0.17608517037E+04  0.38973304757E+04  0.34768644084E+04 0.  0.
        4    1    3    3  502    0 -0.21955907235E+03  0.17198032395E+04 -0.10231657158E+04  0.20131564926E+04  0.12699999809E+01 0. -1.
       -4    1    3    3    0  502  0.21955907235E+03 -0.17198032395E+04 -0.73768598788E+03  0.18841739831E+04  0.12699999809E+01 0.  1.
</event>
<event>
 5   0  0.1897049E-07  0.3501649E+04  0.7818609E-02  0.8113399E-01
       -1   -1    0    0    0  501  0.00000000000E+00  0.00000000000E+00  0.15944755779E+04  0.15944755779E+04  0.50400001928E-02 0. -1.
        1   -1    0    0  501    0  0.00000000000E+00  0.00000000000E+00 -0.19225049873E+04  0.19225049873E+04  0.50400001928E-02 0.  1.
    10030    2    1    2    0    0  0.00000000000E+00  0.00000000000E+00 -0.32802940931E+03  0.35169805652E+04  0.35016494688E+04 0.  0.
        2    1    3    3  502    0 -0.13548717753E+04  0.56855817718E+03 -0.11202605094E+04  0.18476795006E+04  0.25500000920E-02 0.  1.
       -2    1    3    3    0  502  0.13548717753E+04 -0.56855817718E+03  0.79223110006E+03  0.16693010646E+04  0.25500000920E-02 0. -1.
</event>
<event>
 5   0  0.1908190E-07  0.3488080E+04  0.7818609E-02  0.8116621E-01
        1   -1    0    0  501    0  0.00000000000E+00  0.00000000000E+00  0.13968835516E+04  0.13968835516E+04  0.50400001928E-02 0. -1.
       -1   -1    0    0    0  501  0.00000000000E+00  0.00000000000E+00 -0.21774727921E+04  0.21774727921E+04  0.50400001928E-02 0.  1.
    10030    2    1    2    0    0  0.00000000000E+00  0.00000000000E+00 -0.78058924044E+03  0.35743563437E+04  0.34880802326E+04 0.  0.
        5    1    3    3  502    0 -0.13952529218E+04 -0.10273368162E+04 -0.18662701637E+03  0.17427000267E+04  0.46999998093E+01 0.  1.
       -5    1    3    3    0  502  0.13952529218E+04  0.10273368162E+04 -0.59396222407E+03  0.18316563170E+04  0.46999998093E+01 0. -1.
</event>
<event>
 5   0  0.1897049E-07  0.3512864E+04  0.7818609E-02  0.8110748E-01
       -1   -1    0    0    0  501  0.00000000000E+00  0.00000000000E+00  0.17858066065E+04  0.17858066065E+04  0.50400001928E-02 0. -1.
        1   -1    0    0  501    0  0.00000000000E+00  0.00000000000E+00 -0.17275406778E+04  0.17275406778E+04  0.50400001928E-02 0.  1.
    10030    2    1    2    0    0  0.00000000000E+00  0.00000000000E+00  0.58265928711E+02  0.35133472843E+04  0.35128641052E+04 0.  0.
        2    1    3    3  502    0 -0.12067050644E+04 -0.10881079126E+04  0.69626115329E+03  0.17677374057E+04  0.25500000920E-02 0. -1.
       -2    1    3    3    0  502  0.12067050644E+04  0.10881079126E+04 -0.63799522458E+03  0.17456098786E+04  0.25500000920E-02 0.  1.
</event>
<event>
 5   0  0.5740827E-07  0.3470184E+04  0.7818609E-02  0.8120893E-01
       -2   -1    0    0    0  501  0.00000000000E+00  0.00000000000E+00  0.19958406167E+04  0.19958406167E+04  0.25500000920E-02 0.  1.
        2   -1    0    0  501    0  0.00000000000E+00  0.00000000000E+00 -0.15084088028E+04  0.15084088028E+04  0.25500000920E-02 0. -1.
    10030    2    1    2    0    0  0.00000000000E+00  0.00000000000E+00  0.48743181398E+03  0.35042494195E+04  0.34701836004E+04 0.  0.
        2    1    3    3  502    0 -0.11075265374E+04  0.46641234274E+03  0.15075563180E+04  0.19279215639E+04  0.25500000920E-02 0.  1.
       -2    1    3    3    0  502  0.11075265374E+04 -0.46641234274E+03 -0.10201245040E+04  0.15763278556E+04  0.25500000920E-02 0. -1.
</event>
<event>
 5   0  0.5677193E-07  0.3514474E+04  0.7818609E-02  0.8110368E-01
        2   -1    0    0  501    0  0.00000000000E+00  0.00000000000E+00  0.17469599747E+04  0.17469599747E+04  0.25500000920E-02 0. -1.
       -2   -1    0    0    0  501  0.00000000000E+00  0.00000000000E+00 -0.17675743146E+04  0.17675743146E+04  0.25500000920E-02 0.  1.
    10030    2    1    2    0    0  0.00000000000E+00  0.00000000000E+00 -0.20614339815E+02  0.35145342893E+04  0.35144738326E+04 0.  0.
        3    1    3    3  502    0 -0.39416834395E+03  0.13986917227E+03  0.16964586958E+04  0.17472561877E+04  0.10100000352E+00 0. -1.
       -3    1    3    3    0  502  0.39416834395E+03 -0.13986917227E+03 -0.17170730356E+04  0.17672781016E+04  0.10100000352E+00 0.  1.
</event>
<event>
 5   0  0.5740827E-07  0.3481546E+04  0.7818609E-02  0.8118177E-01
       -2   -1    0    0    0  501  0.00000000000E+00  0.00000000000E+00  0.96397642895E+03  0.96397642895E+03  0.25500000920E-02 0. -1.
        2   -1    0    0  501    0  0.00000000000E+00  0.00000000000E+00 -0.31435312183E+04  0.31435312183E+04  0.25500000920E-02 0.  1.
    10030    2    1    2    0    0  0.00000000000E+00  0.00000000000E+00 -0.21795547893E+04  0.41075076472E+04  0.34815456327E+04 0.  0.
        2    1    3    3  502    0 -0.96535018611E+03 -0.14362605548E+04 -0.13122073722E+04  0.21717811931E+04  0.25500000920E-02 0.  1.
       -2    1    3    3    0  502  0.96535018611E+03  0.14362605548E+04 -0.86734741711E+03  0.19357264541E+04  0.25500000920E-02 0. -1.
</event>
<event>
 5   0  0.1873457E-07  0.3498277E+04  0.7818609E-02  0.8114198E-01
        1   -1    0    0  501    0  0.00000000000E+00  0.00000000000E+00  0.15813360283E+04  0.15813360283E+04  0.50400001928E-02 0.  1.
       -1   -1    0    0    0  501  0.00000000000E+00  0.00000000000E+00 -0.19347471474E+04  0.19347471474E+04  0.50400001928E-02 0. -1.
    10030    2    1    2    0    0  0.00000000000E+00  0.00000000000E+00 -0.35341111905E+03  0.35160831757E+04  0.34982769301E+04 0.  0.
        3    1    3    3  502    0 -0.98546296797E+03 -0.11963796707E+04  0.63799028097E+03  0.16761542848E+04  0.10100000352E+00 0. -1.
       -3    1    3    3    0  502  0.98546296797E+03  0.11963796707E+04 -0.99140140002E+03  0.18399288910E+04  0.10100000352E+00 0.  1.
</event>
<event>
 5   0  0.1908190E-07  0.3494079E+04  0.7818609E-02  0.8115194E-01
        1   -1    0    0  501    0  0.00000000000E+00  0.00000000000E+00  0.19704080748E+04  0.19704080748E+04  0.50400001928E-02 0.  1.
       -1   -1    0    0    0  501  0.00000000000E+00  0.00000000000E+00 -0.15489926207E+04  0.15489926207E+04  0.50400001928E-02 0. -1.
    10030    2    1    2    0    0  0.00000000000E+00  0.00000000000E+00  0.42141545411E+03  0.35194006956E+04  0.34940793166E+04 0.  0.
        5    1    3    3  502    0  0.60523411497E+03 -0.51310620072E+03 -0.13570226018E+04  0.15719792425E+04  0.46999998093E+01 0. -1.
       -5    1    3    3    0  502 -0.60523411497E+03  0.51310620072E+03  0.17784380559E+04  0.19474214531E+04  0.46999998093E+01 0.  1.
</event>
<event>
 5   0  0.5554745E-07  0.3499686E+04  0.7818609E-02  0.8113864E-01
        2   -1    0    0  501    0  0.00000000000E+00  0.00000000000E+00  0.16132736397E+04  0.16132736397E+04  0.25500000920E-02 0.  1.
       -2   -1    0    0    0  501  0.00000000000E+00  0.00000000000E+00 -0.18979731540E+04  0.18979731540E+04  0.25500000920E-02 0. -1.
    10030    2    1    2    0    0  0.00000000000E+00  0.00000000000E+00 -0.28469951428E+03  0.35112467937E+04  0.34996857335E+04 0.  0.
        5    1    3    3  502    0 -0.15641647413E+04  0.78147410210E+03 -0.74192598045E+02  0.17500970664E+04  0.46999998093E+01 0.  1.
       -5    1    3    3    0  502  0.15641647413E+04 -0.78147410210E+03 -0.21050691623E+03  0.17611497273E+04  0.46999998093E+01 0. -1.
</event>
<event>
 5   0  0.1908190E-07  0.3505035E+04  0.7818609E-02  0.8112598E-01
        1   -1    0    0  501    0  0.00000000000E+00  0.00000000000E+00  0.98316535724E+03  0.98316535725E+03  0.50400001928E-02 0. -1.
       -1   -1    0    0    0  501  0.00000000000E+00  0.00000000000E+00 -0.31239070383E+04  0.31239070383E+04  0.50400001928E-02 0.  1.
    10030    2    1    2    0    0  0.00000000000E+00  0.00000000000E+00 -0.21407416811E+04  0.41070723956E+04  0.35050347669E+04 0.  0.
        5    1    3    3  502    0  0.98847114616E+03  0.14461081641E+04 -0.11344552830E+04  0.20869391242E+04  0.46999998093E+01 0. -1.
       -5    1    3    3    0  502 -0.98847114616E+03 -0.14461081641E+04 -0.10062863980E+04  0.20201332713E+04  0.46999998093E+01 0.  1.
</event>
<event>
 5   0  0.1897049E-07  0.3521265E+04  0.7818609E-02  0.8108769E-01
        1   -1    0    0  501    0  0.00000000000E+00  0.00000000000E+00  0.19858419805E+04  0.19858419805E+04  0.50400001928E-02 0. -1.
       -1   -1    0    0    0  501  0.00000000000E+00  0.00000000000E+00 -0.15609633771E+04  0.15609633771E+04  0.50400001928E-02 0.  1.
    10030    2    1    2    0    0  0.00000000000E+00  0.00000000000E+00  0.42487860342E+03  0.35468053576E+04  0.35212648888E+04 0.  0.
        2    1    3    3  502    0 -0.12199121000E+04  0.64129317935E+02  0.14895189988E+04  0.19263865004E+04  0.25500000920E-02 0. -1.
       -2    1    3    3    0  502  0.12199121000E+04 -0.64129317935E+02 -0.10646403954E+04  0.16204188572E+04  0.25500000920E-02 0.  1.
</event>
<event>
 5   0  0.5554745E-07  0.3439206E+04  0.7818609E-02  0.8128350E-01
        2   -1    0    0  501    0  0.00000000000E+00  0.00000000000E+00  0.25589708719E+04  0.25589708719E+04  0.25500000920E-02 0. -1.
       -2   -1    0    0    0  501  0.00000000000E+00  0.00000000000E+00 -0.11555559735E+04  0.11555559735E+04  0.25500000920E-02 0.  1.
    10030    2    1    2    0    0  0.00000000000E+00  0.00000000000E+00  0.14034148984E+04  0.37145268454E+04  0.34392057671E+04 0.  0.
        5    1    3    3  502    0  0.10528031487E+04 -0.95777134809E+03  0.17439964988E+04  0.22510589293E+04  0.46999998093E+01 0. -1.
       -5    1    3    3    0  502 -0.10528031487E+04  0.95777134809E+03 -0.34058160039E+03  0.14634679162E+04  0.46999998093E+01 0.  1.
</event>
<event>
 5   0  0.1866421E-07  0.3203831E+04  0.7818609E-02  0.8187806E-01
        1   -1    0    0  501    0  0.00000000000E+00  0.00000000000E+00  0.10223700658E+04  0.10223700658E+04  0.50400001928E-02 0.  1.
       -1   -1    0    0    0  501  0.00000000000E+00  0.00000000000E+00 -0.25099852652E+04  0.25099852652E+04  0.50400001928E-02 0. -1.
    10030    2    1    2    0    0  0.00000000000E+00  0.00000000000E+00 -0.14876151994E+04  0.35323553310E+04  0.32038313318E+04 0.  0.
        1    1    3    3  502    0 -0.63323060143E+03  0.57111797069E+03 -0.22389511680E+04  0.23958420365E+04  0.50400001928E-02 0. -1.
       -1    1    3    3    0  502  0.63323060143E+03 -0.57111797069E+03  0.75133596854E+03  0.11365132945E+04  0.50400001928E-02 0.  1.
</event>
<event>
 5   0  0.5677193E-07  0.3511406E+04  0.7818609E-02  0.8111092E-01
       -2   -1    0    0    0  501  0.00000000000E+00  0.00000000000E+00  0.19807672171E+04  0.19807672171E+04  0.25500000920E-02 0.  1.
        2   -1    0    0  501    0  0.00000000000E+00  0.00000000000E+00 -0.15562117544E+04  0.15562117544E+04  0.25500000920E-02 0. -1.
    10030    2    1    2    0    0  0.00000000000E+00  0.00000000000E+00  0.42455546274E+03  0.35369789715E+04  0.35114061149E+04 0.  0.
        3    1    3    3  502    0  0.31799840196E+03  0.15889987828E+04 -0.46825575092E+03  0.16868027667E+04  0.10100000352E+00 0. -1.
       -3    1    3    3    0  502 -0.31799840196E+03 -0.15889987828E+04  0.89281121366E+03  0.18501762048E+04  0.10100000352E+00 0.  1.
</event>
<event>
 5   0  0.5707187E-07  0.3470611E+04  0.7818609E-02  0.8120790E-01
        2   -1    0    0  501    0  0.00000000000E+00  0.00000000000E+00  0.87213864282E+03  0.87213864282E+03  0.25500000920E-02 0.  1.
       -2   -1    0    0    0  501  0.00000000000E+00  0.00000000000E+00 -0.34527604035E+04  0.34527604035E+04  0.25500000920E-02 0. -1.
    10030    2    1    2    0    0  0.00000000000E+00  0.00000000000E+00 -0.25806217606E+04  0.43248990463E+04  0.34706113423E+04 0.  0.
        1    1    3    3  502    0  0.65490120301E+03  0.12860916546E+04 -0.24909924333E+04  0.28788835740E+04  0.50400001928E-02 0. -1.
       -1    1    3    3    0  502 -0.65490120301E+03 -0.12860916546E+04 -0.89629327361E+02  0.14460154723E+04  0.50400001928E-02 0.  1.
</event>
<event>
 5   0  0.5677193E-07  0.3504809E+04  0.7818609E-02  0.8112651E-01
        2   -1    0    0  501    0  0.00000000000E+00  0.00000000000E+00  0.18161805709E+04  0.18161805709E+04  0.25500000920E-02 0.  1.
       -2   -1    0    0    0  501  0.00000000000E+00  0.00000000000E+00 -0.16908681815E+04  0.16908681815E+04  0.25500000920E-02 0. -1.
    10030    2    1    2    0    0  0.00000000000E+00  0.00000000000E+00  0.12531238937E+03  0.35070487524E+04  0.35048092326E+04 0.  0.
        3    1    3    3  502    0 -0.12432671132E+03  0.74004506105E+03 -0.15219585910E+04  0.16969035879E+04  0.10100000352E+00 0. -1.
       -3    1    3    3    0  502  0.12432671132E+03 -0.74004506105E+03  0.16472709804E+04  0.18101451645E+04  0.10100000352E+00 0.  1.
</event>
<event>
 5   0  0.1897049E-07  0.3515234E+04  0.7818609E-02  0.8110189E-01
        1   -1    0    0  501    0  0.00000000000E+00  0.00000000000E+00  0.11064653995E+04  0.11064653995E+04  0.50400001928E-02 0.  1.
       -1   -1    0    0    0  501  0.00000000000E+00  0.00000000000E+00 -0.27919689135E+04  0.27919689135E+04  0.50400001928E-02 0. -1.
    10030    2    1    2    0    0  0.00000000000E+00  0.00000000000E+00 -0.16855035140E+04  0.38984343130E+04  0.35152337045E+04 0.  0.
        2    1    3    3  502    0  0.61341839365E+03  0.15030792052E+04 -0.15897413589E+04  0.22721810691E+04  0.25500000920E-02 0.  1.
       -2    1    3    3    0  502 -0.61341839365E+03 -0.15030792052E+04 -0.95762155128E+02  0.16262532439E+04  0.25500000920E-02 0. -1.
</event>
<event>
 5   0  0.5573334E-07  0.3510347E+04  0.7818609E-02  0.8111342E-01
        2   -1    0    0  501    0  0.00000000000E+00  0.00000000000E+00  0.15705295147E+04  0.15705295147E+04  0.25500000920E-02 0.  1.
       -2   -1    0    0    0  501  0.00000000000E+00  0.00000000000E+00 -0.19615254349E+04  0.19615254349E+04  0.25500000920E-02 0. -1.
    10030    2    1    2    0    0  0.00000000000E+00  0.00000000000E+00 -0.39099592021E+03  0.35320549496E+04  0.35103467574E+04 0.  0.
        4    1    3    3  502    0  0.16288935621E+04  0.65130885062E+03 -0.25183097794E+03  0.17722634990E+04  0.12699999809E+01 0.  1.
       -4    1    3    3    0  502 -0.16288935621E+04 -0.65130885062E+03 -0.13916494227E+03  0.17597914506E+04  0.12699999809E+01 0. -1.
</event>
<event>
 5   0  0.1908190E-07  0.3488192E+04  0.7818609E-02  0.8116594E-01
       -1   -1    0    0    0  501  0.00000000000E+00  0.00000000000E+00  0.12822231997E+04  0.12822231997E+04  0.50400001928E-02 0.  1.
        1   -1    0    0  501    0  0.00000000000E+00  0.00000000000E+00 -0.23723408893E+04  0.23723408893E+04  0.50400001928E-02 0. -1.
    10030    2    1    2    0    0  0.00000000000E+00  0.00000000000E+00 -0.10901176896E+04  0.36545640891E+04  0.34881918101E+04 0.  0.
        5    1    3    3  502    0 -0.14950239414E+02 -0.15330447531E+04 -0.14162220161E+04  0.20871407747E+04  0.46999998093E+01 0. -1.
       -5    1    3    3    0  502  0.14950239414E+02  0.15330447531E+04  0.32610432652E+03  0.15674233143E+04  0.46999998093E+01 0.  1.
</event>
<event>
 5   0  0.1823000E-07  0.3543657E+04  0.7818609E-02  0.8103521E-01
        4   -1    0    0  501    0  0.00000000000E+00  0.00000000000E+00  0.12135045802E+04  0.12135052447E+04  0.12699999809E+01 0. -1.
       -4   -1    0    0    0  501  0.00000000000E+00  0.00000000000E+00 -0.25870306187E+04  0.25870309304E+04  0.12699999809E+01 0.  1.
    10030    2    1    2    0    0  0.00000000000E+00  0.00000000000E+00 -0.13735260385E+04  0.38005361752E+04  0.35436565071E+04 0.  0.
        5    1    3    3  502    0  0.17239572809E+04  0.27804227631E+03 -0.36498553250E+03  0.17839766654E+04  0.46999998093E+01 0. -1.
       -5    1    3    3    0  502 -0.17239572809E+04 -0.27804227631E+03 -0.10085405060E+04  0.20165595097E+04  0.46999998093E+01 0.  1.
</event>
<event>
 5   0  0.1897049E-07  0.3479924E+04  0.7818609E-02  0.8118564E-01
       -1   -1    0    0    0  501  0.00000000000E+00  0.00000000000E+00  0.12475224726E+04  0.12475224726E+04  0.50400001928E-02 0.  1.
        1   -1    0    0  501    0  0.00000000000E+00  0.00000000000E+00 -0.24267837984E+04  0.24267837984E+04  0.50400001928E-02 0. -1.
    10030    2    1    2    0    0  0.00000000000E+00  0.00000000000E+00 -0.11792613258E+04  0.36743062710E+04  0.34799237490E+04 0.  0.
        2    1    3    3  502    0  0.12255850036E+04 -0.19656255549E+03  0.69781170223E+03  0.14239510564E+04  0.25500000920E-02 0. -1.
       -2    1    3    3    0  502 -0.12255850036E+04  0.19656255549E+03 -0.18770730280E+04  0.22503552146E+04  0.25500000920E-02 0.  1.
</event>
<event>
 5   0  0.1873457E-07  0.3414029E+04  0.7818609E-02  0.8134472E-01
        1   -1    0    0  501    0  0.00000000000E+00  0.00000000000E+00  0.28142092000E+04  0.28142092000E+04  0.50400001928E-02 0. -1.
       -1   -1    0    0    0  501  0.00000000000E+00  0.00000000000E+00 -0.10354234056E+04  0.10354234056E+04  0.50400001928E-02 0.  1.
    10030    2    1    2    0    0  0.00000000000E+00  0.00000000000E+00  0.17787857944E+04  0.38496326056E+04  0.34140287485E+04 0.  0.
        3    1    3    3  502    0  0.16167056809E+04 -0.33911556100E+03  0.40418552974E+03  0.17006182920E+04  0.10100000352E+00 0.  1.
       -3    1    3    3    0  502 -0.16167056809E+04  0.33911556100E+03  0.13746002647E+04  0.21490143136E+04  0.10100000352E+00 0. -1.
</event>
<event>
 5   0  0.1908190E-07  0.3526315E+04  0.7818609E-02  0.8107582E-01
       -1   -1    0    0    0  501  0.00000000000E+00  0.00000000000E+00  0.34728830895E+04  0.34728830896E+04  0.50400001928E-02 0. -1.
        1   -1    0    0  501    0  0.00000000000E+00  0.00000000000E+00 -0.89514218103E+03  0.89514218105E+03  0.50400001928E-02 0.  1.
    10030    2    1    2    0    0  0.00000000000E+00  0.00000000000E+00  0.25777409085E+04  0.43680252706E+04  0.35263148715E+04 0.  0.
        5    1    3    3  502    0 -0.84447854550E+03  0.23684903053E+03 -0.60574868008E+03  0.10659244957E+04  0.46999998093E+01 0.  1.
       -5    1    3    3    0  502  0.84447854550E+03 -0.23684903053E+03  0.31834895886E+04  0.33021007749E+04  0.46999998093E+01 0. -1.
</event>
<event>
 5   0  0.5554745E-07  0.3483027E+04  0.7818609E-02  0.8117824E-01
       -2   -1    0    0    0  501  0.00000000000E+00  0.00000000000E+00  0.15449369681E+04  0.15449369681E+04  0.25500000920E-02 0. -1.
        2   -1    0    0  501    0  0.00000000000E+00  0.00000000000E+00 -0.19631023263E+04  0.19631023263E+04  0.25500000920E-02 0.  1.
    10030    2    1    2    0    0  0.00000000000E+00  0.00000000000E+00 -0.41816535818E+03  0.35080392944E+04  0.34830270490E+04 0.  0.
        5    1    3    3  502    0 -0.14011939225E+04  0.10262126118E+04 -0.33802757031E+03  0.17693901383E+04  0.46999998093E+01 0.  1.
       -5    1    3    3    0  502  0.14011939225E+04 -0.10262126118E+04 -0.80137787875E+02  0.17386491561E+04  0.46999998093E+01 0. -1.
</event>
<event>
 5   0  0.1873457E-07  0.3494865E+04  0.7818609E-02  0.8115008E-01
       -1   -1    0    0    0  501  0.00000000000E+00  0.00000000000E+00  0.20908894621E+04  0.20908894621E+04  0.50400001928E-02 0.  1.
        1   -1    0    0  501    0  0.00000000000E+00  0.00000000000E+00 -0.14603931871E+04  0.14603931871E+04  0.50400001928E-02 0. -1.
    10030    2    1    2    0    0  0.00000000000E+00  0.00000000000E+00  0.63049627502E+03  0.35512826492E+04  0.34948652194E+04 0.  0.
        3    1    3    3  502    0 -0.15590319749E+04  0.49157342763E+03  0.94270763036E+03  0.18870407574E+04  0.10100000352E+00 0.  1.
       -3    1    3    3    0  502  0.15590319749E+04 -0.49157342763E+03 -0.31221135534E+03  0.16642418917E+04  0.10100000352E+00 0. -1.
</event>
<event>
 5   0  0.1908190E-07  0.3484641E+04  0.7818609E-02  0.8117439E-01
        1   -1    0    0  501    0  0.00000000000E+00  0.00000000000E+00  0.96615807102E+03  0.96615807104E+03  0.50400001928E-02 0.  1.
       -1   -1    0    0    0  501  0.00000000000E+00  0.00000000000E+00 -0.31420127391E+04  0.31420127391E+04  0.50400001928E-02 0. -1.
    10030    2    1    2    0    0  0.00000000000E+00  0.00000000000E+00 -0.21758546681E+04  0.41081708102E+04  0.34846411392E+04 0.  0.
        5    1    3    3  502    0 -0.95083320124E+03  0.14438580702E+04 -0.13431037149E+04  0.21892372148E+04  0.46999998093E+01 0. -1.
       -5    1    3    3    0  502  0.95083320124E+03 -0.14438580702E+04 -0.83275095316E+03  0.19189335954E+04  0.46999998093E+01 0.  1.
</event>
<event>
 5   0  0.1933647E-07  0.3504684E+04  0.7818609E-02  0.8112681E-01
        1   -1    0    0  501    0  0.00000000000E+00  0.00000000000E+00  0.24834124168E+04  0.24834124168E+04  0.50400001928E-02 0. -1.
       -1   -1    0    0    0  501  0.00000000000E+00  0.00000000000E+00 -0.12364854210E+04  0.12364854210E+04  0.50400001928E-02 0.  1.
    10030    2    1    2    0    0  0.00000000000E+00  0.00000000000E+00  0.12469269958E+04  0.37198978378E+04  0.35046844353E+04 0.  0.
        4    1    3    3  502    0  0.74929918174E+03  0.59547015377E+03  0.21814806706E+04  0.23822034961E+04  0.12699999809E+01 0. -1.
       -4    1    3    3    0  502 -0.74929918174E+03 -0.59547015377E+03 -0.93455367481E+03  0.13376943417E+04  0.12699999809E+01 0.  1.
</event>
<event>
 5   0  0.1897049E-07  0.3470232E+04  0.7818609E-02  0.8120881E-01
       -1   -1    0    0    0  501  0.00000000000E+00  0.00000000000E+00  0.13581526450E+04  0.13581526450E+04  0.50400001928E-02 0. -1.
        1   -1    0    0  501    0  0.00000000000E+00  0.00000000000E+00 -0.22167076240E+04  0.22167076240E+04  0.50400001928E-02 0.  1.
    10030    2    1    2    0    0  0.00000000000E+00  0.00000000000E+00 -0.85855497903E+03  0.35748602690E+04  0.34702318786E+04 0.  0.
        2    1    3    3  502    0  0.80670294088E+03  0.42391242531E+03 -0.19503305201E+04  0.21527332665E+04  0.25500000920E-02 0.  1.
       -2    1    3    3    0  502 -0.80670294088E+03 -0.42391242531E+03  0.10917755411E+04  0.14221270025E+04  0.25500000920E-02 0. -1.
</event>
<event>
 5   0  0.5740827E-07  0.3492138E+04  0.7818609E-02  0.8115656E-01
        2   -1    0    0  501    0  0.00000000000E+00  0.00000000000E+00  0.21496685569E+04  0.21496685569E+04  0.25500000920E-02 0.  1.
       -2   -1    0    0    0  501  0.00000000000E+00  0.00000000000E+00 -0.14182447946E+04  0.14182447946E+04  0.25500000920E-02 0. -1.
    10030    2    1    2    0    0  0.00000000000E+00  0.00000000000E+00  0.73142376234E+03  0.35679133515E+04  0.34921375923E+04 0.  0.
        2    1    3    3  502    0  0.90262537507E+03 -0.36914745181E+03  0.18455023082E+04  0.20873143459E+04  0.25500000920E-02 0.  1.
       -2    1    3    3    0  502 -0.90262537507E+03  0.36914745181E+03 -0.11140785459E+04  0.14805990056E+04  0.25500000920E-02 0. -1.
</event>
<event>
 5   0  0.5677193E-07  0.3472656E+04  0.7818609E-02  0.8120301E-01
        2   -1    0    0  501    0  0.00000000000E+00  0.00000000000E+00  0.24381856607E+04  0.24381856607E+04  0.25500000920E-02 0.  1.
       -2   -1    0    0    0  501  0.00000000000E+00  0.00000000000E+00 -0.12365076550E+04  0.12365076550E+04  0.25500000920E-02 0. -1.
    10030    2    1    2    0    0  0.00000000000E+00  0.00000000000E+00  0.12016780057E+04  0.36746933157E+04  0.34726561787E+04 0.  0.
        3    1    3    3  502    0  0.16875772371E+04  0.38880669383E+03  0.73362954818E+03  0.18807710920E+04  0.10100000352E+00 0.  1.
       -3    1    3    3    0  502 -0.16875772371E+04 -0.38880669383E+03  0.46804845749E+03  0.17939222238E+04  0.10100000352E+00 0. -1.
</event>
<event>
 5   0  0.5573334E-07  0.3499129E+04  0.7818609E-02  0.8113996E-01
       -2   -1    0    0    0  501  0.00000000000E+00  0.00000000000E+00  0.12203510660E+04  0.12203510660E+04  0.25500000920E-02 0.  1.
        2   -1    0    0  501    0  0.00000000000E+00  0.00000000000E+00 -0.25082747149E+04  0.25082747149E+04  0.25500000920E-02 0. -1.
    10030    2    1    2    0    0  0.00000000000E+00  0.00000000000E+00 -0.12879236489E+04  0.37286257809E+04  0.34991288756E+04 0.  0.
        4    1    3    3  502    0  0.14949503480E+04  0.17026812540E+03 -0.15953264286E+04  0.21929285908E+04  0.12699999809E+01 0. -1.
       -4    1    3    3    0  502 -0.14949503480E+04 -0.17026812540E+03  0.30740277973E+03  0.15356971900E+04  0.12699999809E+01 0.  1.
</event>
<event>
 5   0  0.1908190E-07  0.3494146E+04  0.7818609E-02  0.8115179E-01
        1   -1    0    0  501    0  0.00000000000E+00  0.00000000000E+00  0.21321847438E+04  0.21321847438E+04  0.50400001928E-02 0.  1.
       -1   -1    0    0    0  501  0.00000000000E+00  0.00000000000E+00 -0.14315199093E+04  0.14315199093E+04  0.50400001928E-02 0. -1.
    10030    2    1    2    0    0  0.00000000000E+00  0.00000000000E+00  0.70066483450E+03  0.35637046532E+04  0.34941464830E+04 0.  0.
        5    1    3    3  502    0 -0.11210950154E+03  0.10398033028E+04 -0.10769849189E+04  0.15012255175E+04  0.46999998093E+01 0. -1.
       -5    1    3    3    0  502  0.11210950154E+03 -0.10398033028E+04  0.17776497534E+04  0.20624791356E+04  0.46999998093E+01 0.  1.
</event>
<event>
 5   0  0.5707187E-07  0.3483394E+04  0.7818609E-02  0.8117737E-01
        2   -1    0    0  501    0  0.00000000000E+00  0.00000000000E+00  0.21931635892E+04  0.21931635892E+04  0.25500000920E-02 0. -1.
       -2   -1    0    0    0  501  0.00000000000E+00  0.00000000000E+00 -0.13831654260E+04  0.13831654260E+04  0.25500000920E-02 0.  1.
    10030    2    1    2    0    0  0.00000000000E+00  0.00000000000E+00  0.80999816316E+03  0.35763290153E+04  0.34833937763E+04 0.  0.
        1    1    3    3  502    0 -0.48108737945E+03  0.67593361876E+03 -0.11672548248E+04  0.14320667407E+04  0.50400001928E-02 0.  1.
       -1    1    3    3    0  502  0.48108737945E+03 -0.67593361876E+03  0.19772529880E+04  0.21442622746E+04  0.50400001928E-02 0. -1.
</event>
<event>
 5   0  0.5554745E-07  0.3564734E+04  0.7818609E-02  0.8098618E-01
       -2   -1    0    0    0  501  0.00000000000E+00  0.00000000000E+00  0.16939633016E+04  0.16939633016E+04  0.25500000920E-02 0. -1.
        2   -1    0    0  501    0  0.00000000000E+00  0.00000000000E+00 -0.18753840818E+04  0.18753840818E+04  0.25500000920E-02 0.  1.
    10030    2    1    2    0    0  0.00000000000E+00  0.00000000000E+00 -0.18142078019E+03  0.35693473835E+04  0.35647338252E+04 0.  0.
        5    1    3    3  502    0  0.22602943922E+03  0.14962816220E+03 -0.18546179353E+04  0.18743285918E+04  0.46999998093E+01 0.  1.
       -5    1    3    3    0  502 -0.22602943922E+03 -0.14962816220E+03  0.16731971551E+04  0.16950187917E+04  0.46999998093E+01 0. -1.
</event>
<event>
 5   0  0.1933647E-07  0.3514615E+04  0.7818609E-02  0.8110335E-01
       -1   -1    0    0    0  501  0.00000000000E+00  0.00000000000E+00  0.10051510356E+04  0.10051510356E+04  0.50400001928E-02 0. -1.
        1   -1    0    0  501    0  0.00000000000E+00  0.00000000000E+00 -0.30723033222E+04  0.30723033222E+04  0.50400001928E-02 0.  1.
    10030    2    1    2    0    0  0.00000000000E+00  0.00000000000E+00 -0.20671522866E+04  0.40774543578E+04  0.35146145540E+04 0.  0.
        4    1    3    3  502    0  0.23363365166E+03  0.60926186647E+03  0.85939228911E+03  0.10790465350E+04  0.12699999809E+01 0. -1.
       -4    1    3    3    0  502 -0.23363365166E+03 -0.60926186647E+03 -0.29265445758E+04  0.29984078228E+04  0.12699999809E+01 0.  1.
</event>
<event>
 5   0  0.1897049E-07  0.3483866E+04  0.7818609E-02  0.8117624E-01
        1   -1    0    0  501    0  0.00000000000E+00  0.00000000000E+00  0.19994719509E+04  0.19994719509E+04  0.50400001928E-02 0.  1.
       -1   -1    0    0    0  501  0.00000000000E+00  0.00000000000E+00 -0.15175657469E+04  0.15175657469E+04  0.50400001928E-02 0. -1.
    10030    2    1    2    0    0  0.00000000000E+00  0.00000000000E+00  0.48190620401E+03  0.35170376979E+04  0.34838657521E+04 0.  0.
        2    1    3    3  502    0 -0.85877159958E+03 -0.59782117897E+03 -0.11649489145E+04  0.15658814756E+04  0.25500000920E-02 0. -1.
       -2    1    3    3    0  502  0.85877159958E+03  0.59782117897E+03  0.16468551185E+04  0.19511562223E+04  0.25500000920E-02 0.  1.
</event>
<event>
 5   0  0.1897049E-07  0.3532595E+04  0.7818609E-02  0.8106109E-01
       -1   -1    0    0    0  501  0.00000000000E+00  0.00000000000E+00  0.16323667531E+04  0.16323667531E+04  0.50400001928E-02 0.  1.
        1   -1    0    0  501    0  0.00000000000E+00  0.00000000000E+00 -0.19112166248E+04  0.19112166249E+04  0.50400001928E-02 0. -1.
    10030    2    1    2    0    0  0.00000000000E+00  0.00000000000E+00 -0.27884987178E+03  0.35435833779E+04  0.35325947836E+04 0.  0.
        2    1    3    3  502    0 -0.14763299909E+04 -0.62848474245E+02  0.83121421827E+03  0.16954106433E+04  0.25500000920E-02 0.  1.
       -2    1    3    3    0  502  0.14763299909E+04  0.62848474245E+02 -0.11100640901E+04  0.18481727346E+04  0.25500000920E-02 0. -1.
</event>
<event>
 5   0  0.1908190E-07  0.3502456E+04  0.7818609E-02  0.8113208E-01
        1   -1    0    0  501    0  0.00000000000E+00  0.00000000000E+00  0.24605654485E+04  0.24605654485E+04  0.50400001928E-02 0. -1.
       -1   -1    0    0    0  501  0.00000000000E+00  0.00000000000E+00 -0.12463803016E+04  0.12463803017E+04  0.50400001928E-02 0.  1.
    10030    2    1    2    0    0  0.00000000000E+00  0.00000000000E+00  0.12141851468E+04  0.37069457501E+04  0.35024564556E+04 0.  0.
        5    1    3    3  502    0 -0.11695106962E+04 -0.21734976601E+03  0.19673460788E+04  0.22990147614E+04  0.46999998093E+01 0. -1.
       -5    1    3    3    0  502  0.11695106962E+04  0.21734976601E+03 -0.75316093201E+03  0.14079309887E+04  0.46999998093E+01 0.  1.
</event>
<event>
 5   0  0.1897049E-07  0.3564995E+04  0.7818609E-02  0.8098557E-01
       -1   -1    0    0    0  501  0.00000000000E+00  0.00000000000E+00  0.11073153150E+04  0.11073153150E+04  0.50400001928E-02 0.  1.
        1   -1    0    0  501    0  0.00000000000E+00  0.00000000000E+00 -0.28693702346E+04  0.28693702346E+04  0.50400001928E-02 0. -1.
    10030    2    1    2    0    0  0.00000000000E+00  0.00000000000E+00 -0.17620549195E+04  0.39766855496E+04  0.35649951502E+04 0.  0.
        2    1    3    3  502    0  0.95779503282E+03  0.14018052161E+04 -0.14867537679E+04  0.22567379013E+04  0.25500000920E-02 0.  1.
       -2    1    3    3    0  502 -0.95779503282E+03 -0.14018052161E+04 -0.27530115161E+03  0.17199476483E+04  0.25500000920E-02 0. -1.
</event>
<event>
 5   0  0.5740827E-07  0.3440503E+04  0.7818609E-02  0.8128036E-01
        2   -1    0    0  501    0  0.00000000000E+00  0.00000000000E+00  0.25202688341E+04  0.25202688341E+04  0.25500000920E-02 0.  1.
       -2   -1    0    0    0  501  0.00000000000E+00  0.00000000000E+00 -0.11741863930E+04  0.11741863930E+04  0.25500000920E-02 0. -1.
    10030    2    1    2    0    0  0.00000000000E+00  0.00000000000E+00  0.13460824411E+04  0.36944552271E+04  0.34405030863E+04 0.  0.
        2    1    3    3  502    0 -0.32020243266E+03 -0.16901878952E+04  0.67390884884E+03  0.18475437357E+04  0.25500000920E-02 0. -1.
       -2    1    3    3    0  502  0.32020243266E+03  0.16901878952E+04  0.67217359223E+03  0.18469114914E+04  0.25500000920E-02 0.  1.
</event>
<event>
 5   0  0.5740827E-07  0.3491948E+04  0.7818609E-02  0.8115701E-01
       -2   -1    0    0    0  501  0.00000000000E+00  0.00000000000E+00  0.13612081861E+04  0.13612081861E+04  0.25500000920E-02 0.  1.
        2   -1    0    0  501    0  0.00000000000E+00  0.00000000000E+00 -0.22394998531E+04  0.22394998531E+04  0.25500000920E-02 0. -1.
    10030    2    1    2    0    0  0.00000000000E+00  0.00000000000E+00 -0.87829166693E+03  0.36007080392E+04  0.34919481857E+04 0.  0.
        2    1    3    3  502    0 -0.43406262307E+03  0.16375070455E+04 -0.87490209648E+03  0.19066445298E+04  0.25500000920E-02 0. -1.
       -2    1    3    3    0  502  0.43406262307E+03 -0.16375070455E+04 -0.33895704437E+01  0.16940635094E+04  0.25500000920E-02 0.  1.
</event>
<event>
 5   0  0.5677193E-07  0.3498880E+04  0.7818609E-02  0.8114055E-01
       -2   -1    0    0    0  501  0.00000000000E+00  0.00000000000E+00  0.12674673677E+04  0.12674673677E+04  0.25500000920E-02 0. -1.
        2   -1    0    0  501    0  0.00000000000E+00  0.00000000000E+00 -0.24146897177E+04  0.24146897177E+04  0.25500000920E-02 0.  1.
    10030    2    1    2    0    0  0.00000000000E+00  0.00000000000E+00 -0.11472223500E+04  0.36821570854E+04  0.34988800610E+04 0.  0.
        3    1    3    3  502    0  0.11194335129E+04  0.13442053251E+04 -0.59763371616E+03  0.18485630675E+04  0.10100000352E+00 0. -1.
       -3    1    3    3    0  502 -0.11194335129E+04 -0.13442053251E+04 -0.54958863385E+03  0.18335940179E+04  0.10100000352E+00 0.  1.
</event>
<event>
 5   0  0.1866421E-07  0.3498629E+04  0.7818609E-02  0.8114115E-01
       -1   -1    0    0    0  501  0.00000000000E+00  0.00000000000E+00  0.14188352104E+04  0.14188352104E+04  0.50400001928E-02 0. -1.
        1   -1    0    0  501    0  0.00000000000E+00  0.00000000000E+00 -0.21567704355E+04  0.21567704355E+04  0.50400001928E-02 0.  1.
    10030    2    1    2    0    0  0.00000000000E+00  0.00000000000E+00 -0.73793522512E+03  0.35756056460E+04  0.34986293515E+04 0.  0.
        1    1    3    3  502    0 -0.12784250470E+04 -0.11908967663E+04 -0.45745270746E+03  0.18060644197E+04  0.50400001928E-02 0. -1.
       -1    1    3    3    0  502  0.12784250470E+04  0.11908967663E+04 -0.28048251766E+03  0.17695412262E+04  0.50400001928E-02 0.  1.
</event>
<event>
 5   0  0.1897049E-07  0.3503019E+04  0.7818609E-02  0.8113075E-01
       -1   -1    0    0    0  501  0.00000000000E+00  0.00000000000E+00  0.12617571868E+04  0.12617571868E+04  0.50400001928E-02 0. -1.
        1   -1    0    0  501    0  0.00000000000E+00  0.00000000000E+00 -0.24313595499E+04  0.24313595499E+04  0.50400001928E-02 0.  1.
    10030    2    1    2    0    0  0.00000000000E+00  0.00000000000E+00 -0.11696023631E+04  0.36931167367E+04  0.35030189184E+04 0.  0.
        2    1    3    3  502    0 -0.11516112073E+03 -0.83271281960E+02 -0.24252712776E+04  0.24294314068E+04  0.25500000920E-02 0.  1.
       -2    1    3    3    0  502  0.11516112073E+03  0.83271281960E+02  0.12556689145E+04  0.12636853299E+04  0.25500000920E-02 0. -1.
</event>
<event>
 5   0  0.1897049E-07  0.3513560E+04  0.7818609E-02  0.8110584E-01
        1   -1    0    0  501    0  0.00000000000E+00  0.00000000000E+00  0.16803469403E+04  0.16803469403E+04  0.50400001928E-02 0. -1.
       -1   -1    0    0    0  501  0.00000000000E+00  0.00000000000E+00 -0.18366892240E+04  0.18366892240E+04  0.50400001928E-02 0.  1.
    10030    2    1    2    0    0  0.00000000000E+00  0.00000000000E+00 -0.15634228370E+03  0.35170361644E+04  0.35135595159E+04 0.  0.
        2    1    3    3  502    0 -0.11684547528E+04 -0.19006265306E+03 -0.13774789482E+04  0.18162760182E+04  0.25500000920E-02 0.  1.
       -2    1    3    3    0  502  0.11684547528E+04  0.19006265306E+03  0.12211366645E+04  0.17007601462E+04  0.25500000920E-02 0. -1.
</event>
<event>
 5   0  0.5677193E-07  0.3501385E+04  0.7818609E-02  0.8113462E-01
        2   -1    0    0  501    0  0.00000000000E+00  0.00000000000E+00  0.24651201609E+04  0.24651201609E+04  0.25500000920E-02 0.  1.
       -2   -1    0    0    0  501  0.00000000000E+00  0.00000000000E+00 -0.12433167162E+04  0.12433167162E+04  0.25500000920E-02 0. -1.
    10030    2    1    2    0    0  0.00000000000E+00  0.00000000000E+00  0.12218034447E+04  0.37084368771E+04  0.35013854992E+04 0.  0.
        3    1    3    3  502    0  0.12781832969E+04 -0.18762258449E+03 -0.64047783051E+03  0.14419315643E+04  0.10100000352E+00 0. -1.
       -3    1    3    3    0  502 -0.12781832969E+04  0.18762258449E+03  0.18622812752E+04  0.22665053128E+04  0.10100000352E+00 0.  1.
</event>
<event>
 5   0  0.5740827E-07  0.3504973E+04  0.7818609E-02  0.8112612E-01
       -2   -1    0    0    0  501  0.00000000000E+00  0.00000000000E+00  0.15480486016E+04  0.15480486016E+04  0.25500000920E-02 0. -1.
        2   -1    0    0  501    0  0.00000000000E+00  0.00000000000E+00 -0.19839228069E+04  0.19839228069E+04  0.25500000920E-02 0.  1.
    10030    2    1    2    0    0  0.00000000000E+00  0.00000000000E+00 -0.43587420529E+03  0.35319714085E+04  0.35049729967E+04 0.  0.
        2    1    3    3  502    0  0.10095378127E+04  0.86899209977E+03  0.92964805138E+03  0.16243642954E+04  0.25500000920E-02 0. -1.
       -2    1    3    3    0  502 -0.10095378127E+04 -0.86899209977E+03 -0.13655222567E+04  0.19076071132E+04  0.25500000920E-02 0.  1.
</event>
<event>
 5   0  0.5740827E-07  0.3486916E+04  0.7818609E-02  0.8116898E-01
        2   -1    0    0  501    0  0.00000000000E+00  0.00000000000E+00  0.19944958656E+04  0.19944958656E+04  0.25500000920E-02 0.  1.
       -2   -1    0    0    0  501  0.00000000000E+00  0.00000000000E+00 -0.15240171864E+04  0.15240171864E+04  0.25500000920E-02 0. -1.
    10030    2    1    2    0    0  0.00000000000E+00  0.00000000000E+00  0.47047867912E+03  0.35185130520E+04  0.34869161030E+04 0.  0.
        2    1    3    3  502    0  0.11589713872E+04 -0.79699162957E+03 -0.80425847898E+03  0.16202598665E+04  0.25500000920E-02 0. -1.
       -2    1    3    3    0  502 -0.11589713872E+04  0.79699162957E+03  0.12747371581E+04  0.18982531855E+04  0.25500000920E-02 0.  1.
</event>
<event>
 5   0  0.1933647E-07  0.3325653E+04  0.7818609E-02  0.8156398E-01
       -1   -1    0    0    0  501  0.00000000000E+00  0.00000000000E+00  0.15090517784E+04  0.15090517784E+04  0.50400001928E-02 0. -1.
        1   -1    0    0  501    0  0.00000000000E+00  0.00000000000E+00 -0.18322715339E+04  0.18322715339E+04  0.50400001928E-02 0.  1.
    10030    2    1    2    0    0  0.00000000000E+00  0.00000000000E+00 -0.32321975551E+03  0.33413233123E+04  0.33256533895E+04 0.  0.
        4    1    3    3  502    0  0.64054552884E+03  0.91861351028E+03 -0.13965644751E+04  0.17901238230E+04  0.12699999809E+01 0.  1.
       -4    1    3    3    0  502 -0.64054552884E+03 -0.91861351028E+03  0.10733447195E+04  0.15511994893E+04  0.12699999809E+01 0. -1.
</event>
<event>
 5   0  0.1823000E-07  0.3458438E+04  0.7818609E-02  0.8123711E-01
        3   -1    0    0  501    0  0.00000000000E+00  0.00000000000E+00  0.20872687651E+04  0.20872687676E+04  0.10100000352E+00 0.  1.
       -3   -1    0    0    0  501  0.00000000000E+00  0.00000000000E+00 -0.14325887774E+04  0.14325887809E+04  0.10100000352E+00 0. -1.
    10030    2    1    2    0    0  0.00000000000E+00  0.00000000000E+00  0.65467998775E+03  0.35198575485E+04  0.34584376929E+04 0.  0.
        5    1    3    3  502    0 -0.17033210526E+04 -0.25931719596E+03  0.47701539320E+03  0.17877678238E+04  0.46999998093E+01 0. -1.
       -5    1    3    3    0  502  0.17033210526E+04  0.25931719596E+03  0.17766459455E+03  0.17320897247E+04  0.46999998093E+01 0.  1.
</event>
<event>
 5   0  0.5707187E-07  0.3484230E+04  0.7818609E-02  0.8117538E-01
        2   -1    0    0  501    0  0.00000000000E+00  0.00000000000E+00  0.20693038814E+04  0.20693038814E+04  0.25500000920E-02 0.  1.
       -2   -1    0    0    0  501  0.00000000000E+00  0.00000000000E+00 -0.14666593110E+04  0.14666593110E+04  0.25500000920E-02 0. -1.
    10030    2    1    2    0    0  0.00000000000E+00  0.00000000000E+00  0.60264457043E+03  0.35359631924E+04  0.34842295016E+04 0.  0.
        1    1    3    3  502    0  0.48382824356E+03  0.14320568218E+04 -0.57761297331E+03  0.16181820840E+04  0.50400001928E-02 0.  1.
       -1    1    3    3    0  502 -0.48382824356E+03 -0.14320568218E+04  0.11802575437E+04  0.19177811084E+04  0.50400001928E-02 0. -1.
</event>
<event>
 5   0  0.5677193E-07  0.3511031E+04  0.7818609E-02  0.8111181E-01
        2   -1    0    0  501    0  0.00000000000E+00  0.00000000000E+00  0.16372272363E+04  0.16372272363E+04  0.25500000920E-02 0.  1.
       -2   -1    0    0    0  501  0.00000000000E+00  0.00000000000E+00 -0.18823500299E+04  0.18823500299E+04  0.25500000920E-02 0. -1.
    10030    2    1    2    0    0  0.00000000000E+00  0.00000000000E+00 -0.24512279364E+03  0.35195772662E+04  0.35110310379E+04 0.  0.
        3    1    3    3  502    0  0.12171341002E+04  0.93322397273E+02 -0.13872623334E+04  0.18478693892E+04  0.10100000352E+00 0. -1.
       -3    1    3    3    0  502 -0.12171341002E+04 -0.93322397273E+02  0.11421395397E+04  0.16717078770E+04  0.10100000352E+00 0.  1.
</event>
<event>
 5   0  0.1897049E-07  0.3500960E+04  0.7818609E-02  0.8113562E-01
        1   -1    0    0  501    0  0.00000000000E+00  0.00000000000E+00  0.21739019047E+04  0.21739019047E+04  0.50400001928E-02 0.  1.
       -1   -1    0    0    0  501  0.00000000000E+00  0.00000000000E+00 -0.14095302480E+04  0.14095302480E+04  0.50400001928E-02 0. -1.
    10030    2    1    2    0    0  0.00000000000E+00  0.00000000000E+00  0.76437165673E+03  0.35834321527E+04  0.35009601488E+04 0.  0.
        2    1    3    3  502    0  0.89255952649E+02  0.10654796045E+04 -0.10364534490E+04  0.14891101922E+04  0.25500000920E-02 0. -1.
       -2    1    3    3    0  502 -0.89255952649E+02 -0.10654796045E+04  0.18008251057E+04  0.20943219604E+04  0.25500000920E-02 0.  1.
</event>
<event>
 5   0  0.5677193E-07  0.3551550E+04  0.7818609E-02  0.8101681E-01
       -2   -1    0    0    0  501  0.00000000000E+00  0.00000000000E+00  0.20528144537E+04  0.20528144537E+04  0.25500000920E-02 0. -1.
        2   -1    0    0  501    0  0.00000000000E+00  0.00000000000E+00 -0.15361233918E+04  0.15361233918E+04  0.25500000920E-02 0.  1.
    10030    2    1    2    0    0  0.00000000000E+00  0.00000000000E+00  0.51669106194E+03  0.35889378454E+04  0.35515496906E+04 0.  0.
        3    1    3    3  502    0  0.15835392105E+03  0.17578789190E+04  0.45575309603E+03  0.18228892322E+04  0.10100000352E+00 0. -1.
       -3    1    3    3    0  502 -0.15835392105E+03 -0.17578789190E+04  0.60937965912E+02  0.17660486132E+04  0.10100000352E+00 0.  1.
</event>
<event>
 5   0  0.5740827E-07  0.3494658E+04  0.7818609E-02  0.8115057E-01
        2   -1    0    0  501    0  0.00000000000E+00  0.00000000000E+00  0.15388812824E+04  0.15388812824E+04  0.25500000920E-02 0.  1.
       -2   -1    0    0    0  501  0.00000000000E+00  0.00000000000E+00 -0.19840122806E+04  0.19840122806E+04  0.25500000920E-02 0. -1.
    10030    2    1    2    0    0  0.00000000000E+00  0.00000000000E+00 -0.44513099817E+03  0.35228935630E+04  0.34946584169E+04 0.  0.
        2    1    3    3  502    0 -0.19397921471E+03 -0.14577508246E+04 -0.11738496889E+04  0.18816451563E+04  0.25500000920E-02 0. -1.
       -2    1    3    3    0  502  0.19397921471E+03  0.14577508246E+04  0.72871869072E+03  0.16412484067E+04  0.25500000920E-02 0.  1.
</event>
<event>
 5   0  0.5677193E-07  0.3497074E+04  0.7818609E-02  0.8114484E-01
       -2   -1    0    0    0  501  0.00000000000E+00  0.00000000000E+00  0.13207713643E+04  0.13207713643E+04  0.25500000920E-02 0.  1.
        2   -1    0    0  501    0  0.00000000000E+00  0.00000000000E+00 -0.23148453787E+04  0.23148453787E+04  0.25500000920E-02 0. -1.
    10030    2    1    2    0    0  0.00000000000E+00  0.00000000000E+00 -0.99407401441E+03  0.36356167430E+04  0.34970739134E+04 0.  0.
        3    1    3    3  502    0 -0.38515843357E+03  0.34972939162E+03 -0.22325195424E+04  0.22923353122E+04  0.10100000352E+00 0. -1.
       -3    1    3    3    0  502  0.38515843357E+03 -0.34972939162E+03  0.12384455280E+04  0.13432814308E+04  0.10100000352E+00 0.  1.
</event>
<event>
 5   0  0.1908190E-07  0.3495109E+04  0.7818609E-02  0.8114950E-01
       -1   -1    0    0    0  501  0.00000000000E+00  0.00000000000E+00  0.20774285134E+04  0.20774285134E+04  0.50400001928E-02 0. -1.
        1   -1    0    0  501    0  0.00000000000E+00  0.00000000000E+00 -0.14700606827E+04  0.14700606827E+04  0.50400001928E-02 0.  1.
    10030    2    1    2    0    0  0.00000000000E+00  0.00000000000E+00  0.60736783075E+03  0.35474891961E+04  0.34951085698E+04 0.  0.
        5    1    3    3  502    0 -0.22204613009E+03 -0.13501716460E+04 -0.79964736296E+03  0.15848425639E+04  0.46999998093E+01 0.  1.
       -5    1    3    3    0  502  0.22204613009E+03  0.13501716460E+04  0.14070151937E+04  0.19626466322E+04  0.46999998093E+01 0. -1.
</event>
<event>
 5   0  0.1908190E-07  0.3518940E+04  0.7818609E-02  0.8109316E-01
       -1   -1    0    0    0  501  0.00000000000E+00  0.00000000000E+00  0.18556965026E+04  0.18556965026E+04  0.50400001928E-02 0. -1.
        1   -1    0    0  501    0  0.00000000000E+00  0.00000000000E+00 -0.16682330119E+04  0.16682330119E+04  0.50400001928E-02 0.  1.
    10030    2    1    2    0    0  0.00000000000E+00  0.00000000000E+00  0.18746349062E+03  0.35239295145E+04  0.35189397072E+04 0.  0.
        5    1    3    3  502    0 -0.40928300606E+02 -0.17576457199E+04  0.24943199367E+02  0.17583053932E+04  0.46999998093E+01 0. -1.
       -5    1    3    3    0  502  0.40928300606E+02  0.17576457199E+04  0.16252029126E+03  0.17656241213E+04  0.46999998093E+01 0.  1.
</event>
<event>
 5   0  0.5707187E-07  0.3494182E+04  0.7818609E-02  0.8115170E-01
       -2   -1    0    0    0  501  0.00000000000E+00  0.00000000000E+00  0.15133773855E+04  0.15133773855E+04  0.25500000920E-02 0. -1.
        2   -1    0    0  501    0  0.00000000000E+00  0.00000000000E+00 -0.20168969817E+04  0.20168969817E+04  0.25500000920E-02 0.  1.
    10030    2    1    2    0    0  0.00000000000E+00  0.00000000000E+00 -0.50351959622E+03  0.35302743672E+04  0.34941816101E+04 0.  0.
        1    1    3    3  502    0  0.11198203245E+04  0.11143219943E+04 -0.10055327033E+04  0.18726470793E+04  0.50400001928E-02 0.  1.
       -1    1    3    3    0  502 -0.11198203245E+04 -0.11143219943E+04  0.50201310705E+03  0.16576272880E+04  0.50400001928E-02 0. -1.
</event>
<event>
 5   0  0.1933647E-07  0.3508435E+04  0.7818609E-02  0.8111794E-01
        1   -1    0    0  501    0  0.00000000000E+00  0.00000000000E+00  0.20260195984E+04  0.20260195984E+04  0.50400001928E-02 0.  1.
       -1   -1    0    0    0  501  0.00000000000E+00  0.00000000000E+00 -0.15188787965E+04  0.15188787965E+04  0.50400001928E-02 0. -1.
    10030    2    1    2    0    0  0.00000000000E+00  0.00000000000E+00  0.50714080186E+03  0.35448983949E+04  0.35084345280E+04 0.  0.
        4    1    3    3  502    0  0.14106258966E+03  0.14623424338E+04  0.12221431203E+04  0.19110152975E+04  0.12699999809E+01 0.  1.
       -4    1    3    3    0  502 -0.14106258966E+03 -0.14623424338E+04 -0.71500231842E+03  0.16338830974E+04  0.12699999809E+01 0. -1.
</event>
<event>
 5   0  0.5740827E-07  0.3482779E+04  0.7818609E-02  0.8117883E-01
        2   -1    0    0  501    0  0.00000000000E+00  0.00000000000E+00  0.24253175581E+04  0.24253175581E+04  0.25500000920E-02 0. -1.
       -2   -1    0    0    0  501  0.00000000000E+00  0.00000000000E+00 -0.12503258942E+04  0.12503258942E+04  0.25500000920E-02 0.  1.
    10030    2    1    2    0    0  0.00000000000E+00  0.00000000000E+00  0.11749916640E+04  0.36756434523E+04  0.34827789734E+04 0.  0.
        2    1    3    3  502    0 -0.40035963674E+03  0.11618983948E+04  0.18895678160E+04  0.22540546244E+04  0.25500000920E-02 0. -1.
       -2    1    3    3    0  502  0.40035963674E+03 -0.11618983948E+04 -0.71457615201E+03  0.14215888279E+04  0.25500000920E-02 0.  1.
</event>
<event>
 5   0  0.1866421E-07  0.3663790E+04  0.7818609E-02  0.8076034E-01
        1   -1    0    0  501    0  0.00000000000E+00  0.00000000000E+00  0.20875272577E+04  0.20875272577E+04  0.50400001928E-02 0.  1.
       -1   -1    0    0    0  501  0.00000000000E+00  0.00000000000E+00 -0.16075663402E+04  0.16075663402E+04  0.50400001928E-02 0. -1.
    10030    2    1    2    0    0  0.00000000000E+00  0.00000000000E+00  0.47996091754E+03  0.36950935979E+04  0.36637895975E+04 0.  0.
        1    1    3    3  502    0  0.10685902829E+04  0.10490570092E+04 -0.82422850974E+03  0.17093151955E+04  0.50400001928E-02 0. -1.
       -1    1    3    3    0  502 -0.10685902829E+04 -0.10490570092E+04  0.13041894273E+04  0.19857784024E+04  0.50400001928E-02 0.  1.
</event>
<event>
 5   0  0.5573334E-07  0.3499012E+04  0.7818609E-02  0.8114024E-01
       -2   -1    0    0    0  501  0.00000000000E+00  0.00000000000E+00  0.13570410927E+04  0.13570410927E+04  0.25500000920E-02 0. -1.
        2   -1    0    0  501    0  0.00000000000E+00  0.00000000000E+00 -0.22554746195E+04  0.22554746195E+04  0.25500000920E-02 0.  1.
    10030    2    1    2    0    0  0.00000000000E+00  0.00000000000E+00 -0.89843352674E+03  0.36125157122E+04  0.34990122847E+04 0.  0.
        4    1    3    3  502    0  0.86441318759E+02  0.72813298887E+03  0.11907432656E+04  0.13983994023E+04  0.12699999809E+01 0. -1.
       -4    1    3    3    0  502 -0.86441318759E+02 -0.72813298887E+03 -0.20891767923E+04  0.22141163098E+04  0.12699999809E+01 0.  1.
</event>
<event>
 5   0  0.1933647E-07  0.3511815E+04  0.7818609E-02  0.8110996E-01
       -1   -1    0    0    0  501  0.00000000000E+00  0.00000000000E+00  0.14955954305E+04  0.14955954305E+04  0.50400001928E-02 0.  1.
        1   -1    0    0  501    0  0.00000000000E+00  0.00000000000E+00 -0.20615270121E+04  0.20615270121E+04  0.50400001928E-02 0. -1.
    10030    2    1    2    0    0  0.00000000000E+00  0.00000000000E+00 -0.56593158161E+03  0.35571224427E+04  0.35118145619E+04 0.  0.
        4    1    3    3  502    0  0.28252020747E+03 -0.16924399580E+04 -0.66065461287E+03  0.18386508123E+04  0.12699999809E+01 0. -1.
       -4    1    3    3    0  502 -0.28252020747E+03  0.16924399580E+04  0.94723031260E+02  0.17184716304E+04  0.12699999809E+01 0.  1.
</event>
<event>
 5   0  0.5554745E-07  0.3496234E+04  0.7818609E-02  0.8114683E-01
       -2   -1    0    0    0  501  0.00000000000E+00  0.00000000000E+00  0.16304893908E+04  0.16304893908E+04  0.25500000920E-02 0.  1.
        2   -1    0    0  501    0  0.00000000000E+00  0.00000000000E+00 -0.18742309343E+04  0.18742309343E+04  0.25500000920E-02 0. -1.
    10030    2    1    2    0    0  0.00000000000E+00  0.00000000000E+00 -0.24374154341E+03  0.35047203251E+04  0.34962343482E+04 0.  0.
        5    1    3    3  502    0 -0.16431499186E+04 -0.48101743143E+03  0.23193368137E+03  0.17277542495E+04  0.46999998093E+01 0. -1.
       -5    1    3    3    0  502  0.16431499186E+04  0.48101743143E+03 -0.47567522478E+03  0.17769660756E+04  0.46999998093E+01 0.  1.
</event>
<event>
 5   0  0.1933647E-07  0.3519020E+04  0.7818609E-02  0.8109297E-01
        1   -1    0    0  501    0  0.00000000000E+00  0.00000000000E+00  0.11068552291E+04  0.11068552291E+04  0.50400001928E-02 0.  1.
       -1   -1    0    0    0  501  0.00000000000E+00  0.00000000000E+00 -0.27970008684E+04  0.27970008684E+04  0.50400001928E-02 0. -1.
    10030    2    1    2    0    0  0.00000000000E+00  0.00000000000E+00 -0.16901456392E+04  0.39038560975E+04  0.35190197709E+04 0.  0.
        4    1    3    3  502    0 -0.23174030625E+03  0.15069782961E+04 -0.18192809238E+04  0.23737042459E+04  0.12699999809E+01 0.  1.
       -4    1    3    3    0  502  0.23174030625E+03 -0.15069782961E+04  0.12913528460E+03  0.15301518516E+04  0.12699999809E+01 0. -1.
</event>
<event>
 5   0  0.1908190E-07  0.3441935E+04  0.7818609E-02  0.8127690E-01
       -1   -1    0    0    0  501  0.00000000000E+00  0.00000000000E+00  0.11061588361E+04  0.11061588361E+04  0.50400001928E-02 0. -1.
        1   -1    0    0  501    0  0.00000000000E+00  0.00000000000E+00 -0.26774896272E+04  0.26774896272E+04  0.50400001928E-02 0.  1.
    10030    2    1    2    0    0  0.00000000000E+00  0.00000000000E+00 -0.15713307910E+04  0.37836484633E+04  0.34419348104E+04 0.  0.
        5    1    3    3  502    0  0.44423241940E+03  0.11164202735E+04  0.56871213596E+03  0.13293578349E+04  0.46999998093E+01 0. -1.
       -5    1    3    3    0  502 -0.44423241940E+03 -0.11164202735E+04 -0.21400429270E+04  0.24542906284E+04  0.46999998093E+01 0.  1.
</event>
<event>
 5   0  0.5707187E-07  0.3493504E+04  0.7818609E-02  0.8115331E-01
        2   -1    0    0  501    0  0.00000000000E+00  0.00000000000E+00  0.24757035782E+04  0.24757035782E+04  0.25500000920E-02 0.  1.
       -2   -1    0    0    0  501  0.00000000000E+00  0.00000000000E+00 -0.12324341884E+04  0.12324341884E+04  0.25500000920E-02 0. -1.
    10030    2    1    2    0    0  0.00000000000E+00  0.00000000000E+00  0.12432693898E+04  0.37081377666E+04  0.34935035309E+04 0.  0.
        1    1    3    3  502    0 -0.40737329231E+03  0.16692369026E+04  0.95533316686E+03  0.19659517533E+04  0.50400001928E-02 0. -1.
       -1    1    3    3    0  502  0.40737329231E+03 -0.16692369026E+04  0.28793622290E+03  0.17421860133E+04  0.50400001928E-02 0.  1.
</event>
<event>
 5   0  0.1908190E-07  0.3470475E+04  0.7818609E-02  0.8120823E-01
       -1   -1    0    0    0  501  0.00000000000E+00  0.00000000000E+00  0.13456707514E+04  0.13456707514E+04  0.50400001928E-02 0.  1.
        1   -1    0    0  501    0  0.00000000000E+00  0.00000000000E+00 -0.22375821765E+04  0.22375821766E+04  0.50400001928E-02 0. -1.
    10030    2    1    2    0    0  0.00000000000E+00  0.00000000000E+00 -0.89191142517E+03  0.35832529279E+04  0.34704748314E+04 0.  0.
        5    1    3    3  502    0 -0.11563957598E+03 -0.87849182750E+03 -0.19863858759E+04  0.21750566292E+04  0.46999998093E+01 0. -1.
       -5    1    3    3    0  502  0.11563957598E+03  0.87849182750E+03  0.10944744507E+04  0.14081962987E+04  0.46999998093E+01 0.  1.
</event>
<event>
 5   0  0.5707187E-07  0.3506452E+04  0.7818609E-02  0.8112263E-01
       -2   -1    0    0    0  501  0.00000000000E+00  0.00000000000E+00  0.19212810610E+04  0.19212810610E+04  0.25500000920E-02 0.  1.
        2   -1    0    0  501    0  0.00000000000E+00  0.00000000000E+00 -0.15998709104E+04  0.15998709104E+04  0.25500000920E-02 0. -1.
    10030    2    1    2    0    0  0.00000000000E+00  0.00000000000E+00  0.32141015059E+03  0.35211519714E+04  0.35064521558E+04 0.  0.
        1    1    3    3  502    0  0.27166573047E+03  0.12137149393E+04 -0.10801512630E+04  0.16473108311E+04  0.50400001928E-02 0. -1.
       -1    1    3    3    0  502 -0.27166573047E+03 -0.12137149393E+04  0.14015614136E+04  0.18738411403E+04  0.50400001928E-02 0.  1.
</event>
<event>
 5   0  0.1873457E-07  0.3531783E+04  0.7818609E-02  0.8106299E-01
       -1   -1    0    0    0  501  0.00000000000E+00  0.00000000000E+00  0.10256612199E+04  0.10256612199E+04  0.50400001928E-02 0.  1.
        1   -1    0    0  501    0  0.00000000000E+00  0.00000000000E+00 -0.30403528983E+04  0.30403528983E+04  0.50400001928E-02 0. -1.
    10030    2    1    2    0    0  0.00000000000E+00  0.00000000000E+00 -0.20146916784E+04  0.40660141182E+04  0.35317825882E+04 0.  0.
        3    1    3    3  502    0 -0.12477784195E+04 -0.12491357053E+04 -0.10451987606E+04  0.20517630111E+04  0.10100000352E+00 0. -1.
       -3    1    3    3    0  502  0.12477784195E+04  0.12491357053E+04 -0.96949291777E+03  0.20142511071E+04  0.10100000352E+00 0.  1.
</event>
<event>
 5   0  0.1908190E-07  0.3468958E+04  0.7818609E-02  0.8121186E-01
       -1   -1    0    0    0  501  0.00000000000E+00  0.00000000000E+00  0.17068874162E+04  0.17068874162E+04  0.50400001928E-02 0.  1.
        1   -1    0    0  501    0  0.00000000000E+00  0.00000000000E+00 -0.17625162529E+04  0.17625162529E+04  0.50400001928E-02 0. -1.
    10030    2    1    2    0    0  0.00000000000E+00  0.00000000000E+00 -0.55628836696E+02  0.34694036691E+04  0.34689576607E+04 0.  0.
        5    1    3    3  502    0 -0.17877014916E+03 -0.64344591229E+03 -0.16287742126E+04  0.17603718169E+04  0.46999998093E+01 0. -1.
       -5    1    3    3    0  502  0.17877014916E+03  0.64344591229E+03  0.15731453759E+04  0.17090318522E+04  0.46999998093E+01 0.  1.
</event>
<event>
 5   0  0.5573334E-07  0.3503854E+04  0.7818609E-02  0.8112877E-01
        2   -1    0    0  501    0  0.00000000000E+00  0.00000000000E+00  0.20392486876E+04  0.20392486876E+04  0.25500000920E-02 0.  1.
       -2   -1    0    0    0  501  0.00000000000E+00  0.00000000000E+00 -0.15050880983E+04  0.15050880983E+04  0.25500000920E-02 0. -1.
    10030    2    1    2    0    0  0.00000000000E+00  0.00000000000E+00  0.53416058933E+03  0.35443367859E+04  0.35038544086E+04 0.  0.
        4    1    3    3  502    0  0.14872324234E+04  0.57128155961E+03 -0.47005324907E+03  0.16610763292E+04  0.12699999809E+01 0. -1.
       -4    1    3    3    0  502 -0.14872324234E+04 -0.57128155961E+03  0.10042138384E+04  0.18832604567E+04  0.12699999809E+01 0.  1.
</event>
<event>
 5   0  0.5740827E-07  0.3486240E+04  0.7818609E-02  0.8117059E-01
       -2   -1    0    0    0  501  0.00000000000E+00  0.00000000000E+00  0.14515522906E+04  0.14515522906E+04  0.25500000920E-02 0.  1.
        2   -1    0    0  501    0  0.00000000000E+00  0.00000000000E+00 -0.20932543093E+04  0.20932543093E+04  0.25500000920E-02 0. -1.
    10030    2    1    2    0    0  0.00000000000E+00  0.00000000000E+00 -0.64170201868E+03  0.35448065999E+04  0.34862404320E+04 0.  0.
        2    1    3    3  502    0  0.11148938561E+04  0.10256482162E+04 -0.11976158952E+04  0.19311205053E+04  0.25500000920E-02 0. -1.
       -2    1    3    3    0  502 -0.11148938561E+04 -0.10256482162E+04  0.55591387648E+03  0.16136860946E+04  0.25500000920E-02 0.  1.
</event>
<event>
 5   0  0.1933647E-07  0.3716473E+04  0.7818609E-02  0.8064321E-01
       -1   -1    0    0    0  501  0.00000000000E+00  0.00000000000E+00  0.18575353146E+04  0.18575353146E+04  0.50400001928E-02 0.  1.
        1   -1    0    0  501    0  0.00000000000E+00  0.00000000000E+00 -0.18589374865E+04  0.18589374865E+04  0.50400001928E-02 0. -1.
    10030    2    1    2    0    0  0.00000000000E+00  0.00000000000E+00 -0.14021719098E+01  0.37164728011E+04  0.37164725366E+04 0.  0.
        4    1    3    3  502    0 -0.16514590274E+03 -0.18507735121E+04 -0.20817088642E+02  0.18582439900E+04  0.12699999809E+01 0. -1.
       -4    1    3    3    0  502  0.16514590274E+03  0.18507735121E+04  0.19414916732E+02  0.18582288111E+04  0.12699999809E+01 0.  1.
</event>
<event>
 5   0  0.5554745E-07  0.3506365E+04  0.7818609E-02  0.8112283E-01
       -2   -1    0    0    0  501  0.00000000000E+00  0.00000000000E+00  0.18421261214E+04  0.18421261214E+04  0.25500000920E-02 0. -1.
        2   -1    0    0  501    0  0.00000000000E+00  0.00000000000E+00 -0.16685331418E+04  0.16685331418E+04  0.25500000920E-02 0.  1.
    10030    2    1    2    0    0  0.00000000000E+00  0.00000000000E+00  0.17359297956E+03  0.35106592632E+04  0.35063647756E+04 0.  0.
        5    1    3    3  502    0  0.27577877602E+03 -0.17110607445E+04 -0.17780657077E+03  0.17422456977E+04  0.46999998093E+01 0.  1.
       -5    1    3    3    0  502 -0.27577877602E+03  0.17110607445E+04  0.35139955032E+03  0.17684135655E+04  0.46999998093E+01 0. -1.
</event>
<event>
 5   0  0.1866421E-07  0.3496303E+04  0.7818609E-02  0.8114667E-01
       -1   -1    0    0    0  501  0.00000000000E+00  0.00000000000E+00  0.27096555889E+04  0.27096555889E+04  0.50400001928E-02 0. -1.
        1   -1    0    0  501    0  0.00000000000E+00  0.00000000000E+00 -0.11278310639E+04  0.11278310639E+04  0.50400001928E-02 0.  1.
    10030    2    1    2    0    0  0.00000000000E+00  0.00000000000E+00  0.15818245250E+04  0.38374866529E+04  0.34963030451E+04 0.  0.
        1    1    3    3  502    0  0.16377254399E+04 -0.37165809358E+03  0.13238448900E+04  0.21384198952E+04  0.50400001928E-02 0. -1.
       -1    1    3    3    0  502 -0.16377254399E+04  0.37165809358E+03  0.25797963498E+03  0.16990667577E+04  0.50400001928E-02 0.  1.
</event>
<event>
 5   0  0.5573334E-07  0.3508904E+04  0.7818609E-02  0.8111683E-01
       -2   -1    0    0    0  501  0.00000000000E+00  0.00000000000E+00  0.32273743909E+04  0.32273743909E+04  0.25500000920E-02 0. -1.
        2   -1    0    0  501    0  0.00000000000E+00  0.00000000000E+00 -0.95374793153E+03  0.95374793153E+03  0.25500000920E-02 0.  1.
    10030    2    1    2    0    0  0.00000000000E+00  0.00000000000E+00  0.22736264594E+04  0.41811223225E+04  0.35089039027E+04 0.  0.
        4    1    3    3  502    0 -0.99178288654E+03  0.41766149370E+03 -0.51429259976E+03  0.11927166086E+04  0.12699999809E+01 0.  1.
       -4    1    3    3    0  502  0.99178288654E+03 -0.41766149370E+03  0.27879190592E+04  0.29884057139E+04  0.12699999809E+01 0. -1.
</event>
<event>
 5   0  0.1897049E-07  0.3340518E+04  0.7818609E-02  0.8152661E-01
       -1   -1    0    0    0  501  0.00000000000E+00  0.00000000000E+00  0.19232308123E+04  0.19232308123E+04  0.50400001928E-02 0.  1.
        1   -1    0    0  501    0  0.00000000000E+00  0.00000000000E+00 -0.14505616488E+04  0.14505616488E+04  0.50400001928E-02 0. -1.
    10030    2    1    2    0    0  0.00000000000E+00  0.00000000000E+00  0.47266916347E+03  0.33737924611E+04  0.33405178389E+04 0.  0.
        2    1    3    3  502    0  0.14167242135E+04 -0.79734991375E+03  0.62341516543E+03  0.17411263166E+04  0.25500000920E-02 0.  1.
       -2    1    3    3    0  502 -0.14167242135E+04  0.79734991375E+03 -0.15074600196E+03  0.16326661444E+04  0.25500000920E-02 0. -1.
</event>
<event>
 5   0  0.1897049E-07  0.3510873E+04  0.7818609E-02  0.8111218E-01
       -1   -1    0    0    0  501  0.00000000000E+00  0.00000000000E+00  0.13388804598E+04  0.13388804599E+04  0.50400001928E-02 0.  1.
        1   -1    0    0  501    0  0.00000000000E+00  0.00000000000E+00 -0.23015931548E+04  0.23015931548E+04  0.50400001928E-02 0. -1.
    10030    2    1    2    0    0  0.00000000000E+00  0.00000000000E+00 -0.96271269498E+03  0.36404736147E+04  0.35108734534E+04 0.  0.
        2    1    3    3  502    0 -0.17510484868E+04 -0.69744360075E+02 -0.37498786432E+03  0.17921079703E+04  0.25500000920E-02 0.  1.
       -2    1    3    3    0  502  0.17510484868E+04  0.69744360075E+02 -0.58772483067E+03  0.18483656444E+04  0.25500000920E-02 0. -1.
</event>
<event>
 5   0  0.5740827E-07  0.3532128E+04  0.7818609E-02  0.8106218E-01
        2   -1    0    0  501    0  0.00000000000E+00  0.00000000000E+00  0.21459098572E+04  0.21459098572E+04  0.25500000920E-02 0.  1.
       -2   -1    0    0    0  501  0.00000000000E+00  0.00000000000E+00 -0.14534540495E+04  0.14534540495E+04  0.25500000920E-02 0. -1.
    10030    2    1    2    0    0  0.00000000000E+00  0.00000000000E+00  0.69245580768E+03  0.35993639067E+04  0.35321276148E+04 0.  0.
        2    1    3    3  502    0 -0.65434830956E+03 -0.13264737448E+04  0.13296247819E+04  0.19888706259E+04  0.25500000920E-02 0.  1.
       -2    1    3    3    0  502  0.65434830956E+03  0.13264737448E+04 -0.63716897423E+03  0.16104932808E+04  0.25500000920E-02 0. -1.
</event>
<event>
 5   0  0.1908190E-07  0.3516193E+04  0.7818609E-02  0.8109963E-01
        1   -1    0    0  501    0  0.00000000000E+00  0.00000000000E+00  0.15866984816E+04  0.15866984816E+04  0.50400001928E-02 0.  1.
       -1   -1    0    0    0  501  0.00000000000E+00  0.00000000000E+00 -0.19480089584E+04  0.19480089584E+04  0.50400001928E-02 0. -1.
    10030    2    1    2    0    0  0.00000000000E+00  0.00000000000E+00 -0.36131047681E+03  0.35347074401E+04  0.35161927459E+04 0.  0.
        5    1    3    3  502    0  0.72352851484E+03  0.15952959240E+04 -0.30139858966E+02  0.17519683496E+04  0.46999998093E+01 0.  1.
       -5    1    3    3    0  502 -0.72352851484E+03 -0.15952959240E+04 -0.33117061785E+03  0.17827390905E+04  0.46999998093E+01 0. -1.
</event>
<event>
 5   0  0.1866421E-07  0.3488432E+04  0.7818609E-02  0.8116537E-01
       -1   -1    0    0    0  501  0.00000000000E+00  0.00000000000E+00  0.17131466594E+04  0.17131466594E+04  0.50400001928E-02 0.  1.
        1   -1    0    0  501    0  0.00000000000E+00  0.00000000000E+00 -0.17758490587E+04  0.17758490587E+04  0.50400001928E-02 0. -1.
    10030    2    1    2    0    0  0.00000000000E+00  0.00000000000E+00 -0.62702399307E+02  0.34889957182E+04  0.34884322454E+04 0.  0.
        1    1    3    3  502    0  0.60077668481E+03  0.12052268332E+04  0.10773338467E+04  0.17245731535E+04  0.50400001928E-02 0.  1.
       -1    1    3    3    0  502 -0.60077668481E+03 -0.12052268332E+04 -0.11400362460E+04  0.17644225647E+04  0.50400001928E-02 0. -1.
</event>
<event>
 5   0  0.1908190E-07  0.3485987E+04  0.7818609E-02  0.8117119E-01
       -1   -1    0    0    0  501  0.00000000000E+00  0.00000000000E+00  0.11298465102E+04  0.11298465102E+04  0.50400001928E-02 0.  1.
        1   -1    0    0  501    0  0.00000000000E+00  0.00000000000E+00 -0.26888836112E+04  0.26888836112E+04  0.50400001928E-02 0. -1.
    10030    2    1    2    0    0  0.00000000000E+00  0.00000000000E+00 -0.15590371010E+04  0.38187301214E+04  0.34859866691E+04 0.  0.
        5    1    3    3  502    0 -0.52449474446E+03 -0.15774407351E+04 -0.13535495393E+04  0.21437193042E+04  0.46999998093E+01 0.  1.
       -5    1    3    3    0  502  0.52449474446E+03  0.15774407351E+04 -0.20548756171E+03  0.16750108172E+04  0.46999998093E+01 0. -1.
</event>
<event>
 5   0  0.5740827E-07  0.3500434E+04  0.7818609E-02  0.8113687E-01
       -2   -1    0    0    0  501  0.00000000000E+00  0.00000000000E+00  0.30300281102E+04  0.30300281102E+04  0.25500000920E-02 0. -1.
        2   -1    0    0  501    0  0.00000000000E+00  0.00000000000E+00 -0.10109673035E+04  0.10109673035E+04  0.25500000920E-02 0.  1.
    10030    2    1    2    0    0  0.00000000000E+00  0.00000000000E+00  0.20190608067E+04  0.40409954137E+04  0.35004338863E+04 0.  0.
        2    1    3    3  502    0  0.15462907262E+03 -0.91029615852E+02 -0.10003209837E+04  0.10162866778E+04  0.25500000920E-02 0.  1.
       -2    1    3    3    0  502 -0.15462907262E+03  0.91029615852E+02  0.30193817904E+04  0.30247087360E+04  0.25500000920E-02 0. -1.
</event>
<event>
 5   0  0.5740827E-07  0.3480935E+04  0.7818609E-02  0.8118323E-01
        2   -1    0    0  501    0  0.00000000000E+00  0.00000000000E+00  0.25693137654E+04  0.25693137654E+04  0.25500000920E-02 0.  1.
       -2   -1    0    0    0  501  0.00000000000E+00  0.00000000000E+00 -0.11790026366E+04  0.11790026366E+04  0.25500000920E-02 0. -1.
    10030    2    1    2    0    0  0.00000000000E+00  0.00000000000E+00  0.13903111289E+04  0.37483164020E+04  0.34809353361E+04 0.  0.
        2    1    3    3  502    0 -0.18391864655E+03  0.76004328612E+03  0.23694996475E+04  0.24951994799E+04  0.25500000920E-02 0.  1.
       -2    1    3    3    0  502  0.18391864655E+03 -0.76004328612E+03 -0.97918851860E+03  0.12531169220E+04  0.25500000920E-02 0. -1.
</event>
<event>
 5   0  0.1866421E-07  0.3524857E+04  0.7818609E-02  0.8107924E-01
       -1   -1    0    0    0  501  0.00000000000E+00  0.00000000000E+00  0.31216144121E+04  0.31216144121E+04  0.50400001928E-02 0. -1.
        1   -1    0    0  501    0  0.00000000000E+00  0.00000000000E+00 -0.99504740668E+03  0.99504740670E+03  0.50400001928E-02 0.  1.
    10030    2    1    2    0    0  0.00000000000E+00  0.00000000000E+00  0.21265670054E+04  0.41166618188E+04  0.35248570612E+04 0.  0.
        1    1    3    3  502    0 -0.14182175841E+04  0.83440340979E+03  0.32595045683E+03  0.16774426566E+04  0.50400001928E-02 0.  1.
       -1    1    3    3    0  502  0.14182175841E+04 -0.83440340979E+03  0.18006165486E+04  0.24392191622E+04  0.50400001928E-02 0. -1.
</event>
<event>
 5   0  0.5677193E-07  0.3492285E+04  0.7818609E-02  0.8115621E-01
        2   -1    0    0  501    0  0.00000000000E+00  0.00000000000E+00  0.16489572730E+04  0.16489572730E+04  0.25500000920E-02 0. -1.
       -2   -1    0    0    0  501  0.00000000000E+00  0.00000000000E+00 -0.18490559083E+04  0.18490559083E+04  0.25500000920E-02 0.  1.
    10030    2    1    2    0    0  0.00000000000E+00  0.00000000000E+00 -0.20009863530E+03  0.34980131812E+04  0.34922853194E+04 0.  0.
        3    1    3    3  502    0  0.11731031360E+04  0.29511537277E+03  0.11612817728E+04  0.16768540238E+04  0.10100000352E+00 0. -1.
       -3    1    3    3    0  502 -0.11731031360E+04 -0.29511537277E+03 -0.13613804081E+04  0.18211591575E+04  0.10100000352E+00 0.  1.
</event>
<event>
 5   0  0.5677193E-07  0.3439975E+04  0.7818609E-02  0.8128164E-01
       -2   -1    0    0    0  501  0.00000000000E+00  0.00000000000E+00  0.13398260024E+04  0.13398260024E+04  0.25500000920E-02 0.  1.
        2   -1    0    0  501    0  0.00000000000E+00  0.00000000000E+00 -0.22080159503E+04  0.22080159503E+04  0.25500000920E-02 0. -1.
    10030    2    1    2    0    0  0.00000000000E+00  0.00000000000E+00 -0.86818994786E+03  0.35478419527E+04  0.34399751069E+04 0.  0.
        3    1    3    3  502    0  0.80369048613E+03 -0.20729674520E+03 -0.19878082811E+04  0.21541290840E+04  0.10100000352E+00 0. -1.
       -3    1    3    3    0  502 -0.80369048613E+03  0.20729674520E+03  0.11196183332E+04  0.13937128687E+04  0.10100000352E+00 0.  1.
</event>
<event>
 5   0  0.5573334E-07  0.3509158E+04  0.7818609E-02  0.8111623E-01
       -2   -1    0    0    0  501  0.00000000000E+00  0.00000000000E+00  0.13379658905E+04  0.13379658905E+04  0.25500000920E-02 0. -1.
        2   -1    0    0  501    0  0.00000000000E+00  0.00000000000E+00 -0.23009165454E+04  0.23009165455E+04  0.25500000920E-02 0.  1.
    10030    2    1    2    0    0  0.00000000000E+00  0.00000000000E+00 -0.96295065500E+03  0.36388824359E+04  0.35091582208E+04 0.  0.
        4    1    3    3  502    0 -0.16995348827E+04  0.43114373664E+03 -0.54901767196E+03  0.18373148223E+04  0.12699999809E+01 0.  1.
       -4    1    3    3    0  502  0.16995348827E+04 -0.43114373664E+03 -0.41393298304E+03  0.18015676136E+04  0.12699999809E+01 0. -1.
</event>
<event>
 5   0  0.1933647E-07  0.3516493E+04  0.7818609E-02  0.8109892E-01
       -1   -1    0    0    0  501  0.00000000000E+00  0.00000000000E+00  0.16007105059E+04  0.16007105059E+04  0.50400001928E-02 0.  1.
        1   -1    0    0  501    0  0.00000000000E+00  0.00000000000E+00 -0.19312864102E+04  0.19312864102E+04  0.50400001928E-02 0. -1.
    10030    2    1    2    0    0  0.00000000000E+00  0.00000000000E+00 -0.33057590427E+03  0.35319969161E+04  0.35164928248E+04 0.  0.
        4    1    3    3  502    0 -0.29193354227E+02  0.15253292053E+04  0.71260650683E+03  0.16838322610E+04  0.12699999809E+01 0.  1.
       -4    1    3    3    0  502  0.29193354227E+02 -0.15253292053E+04 -0.10431824111E+04  0.18481646551E+04  0.12699999809E+01 0. -1.
</event>
<event>
 5   0  0.1933647E-07  0.3521309E+04  0.7818609E-02  0.8108759E-01
        1   -1    0    0  501    0  0.00000000000E+00  0.00000000000E+00  0.20266441190E+04  0.20266441190E+04  0.50400001928E-02 0. -1.
       -1   -1    0    0    0  501  0.00000000000E+00  0.00000000000E+00 -0.15295746777E+04  0.15295746777E+04  0.50400001928E-02 0.  1.
    10030    2    1    2    0    0  0.00000000000E+00  0.00000000000E+00  0.49706944130E+03  0.35562187966E+04  0.35213085778E+04 0.  0.
        4    1    3    3  502    0  0.13343656977E+04 -0.16794580944E+02  0.14084366735E+04  0.19402343542E+04  0.12699999809E+01 0. -1.
       -4    1    3    3    0  502 -0.13343656977E+04  0.16794580944E+02 -0.91136723219E+03  0.16159844424E+04  0.12699999809E+01 0.  1.
</event>
<event>
 5   0  0.5554745E-07  0.3495766E+04  0.7818609E-02  0.8114794E-01
        2   -1    0    0  501    0  0.00000000000E+00  0.00000000000E+00  0.15839478671E+04  0.15839478671E+04  0.25500000920E-02 0. -1.
       -2   -1    0    0    0  501  0.00000000000E+00  0.00000000000E+00 -0.19287848927E+04  0.19287848927E+04  0.25500000920E-02 0.  1.
    10030    2    1    2    0    0  0.00000000000E+00  0.00000000000E+00 -0.34483702568E+03  0.35127327598E+04  0.34957658485E+04 0.  0.
        5    1    3    3  502    0  0.14227153989E+04 -0.23650486653E+03 -0.11646415546E+04  0.18537706705E+04  0.46999998093E+01 0.  1.
       -5    1    3    3    0  502 -0.14227153989E+04  0.23650486653E+03  0.81980452889E+03  0.16589620893E+04  0.46999998093E+01 0. -1.
</event>
<event>
 5   0  0.1933647E-07  0.3491563E+04  0.7818609E-02  0.8115792E-01
        1   -1    0    0  501    0  0.00000000000E+00  0.00000000000E+00  0.18752976248E+04  0.18752976248E+04  0.50400001928E-02 0. -1.
       -1   -1    0    0    0  501  0.00000000000E+00  0.00000000000E+00 -0.16252102243E+04  0.16252102243E+04  0.50400001928E-02 0.  1.
    10030    2    1    2    0    0  0.00000000000E+00  0.00000000000E+00  0.25008740053E+03  0.35005078492E+04  0.34915629014E+04 0.  0.
        4    1    3    3  502    0  0.15107616687E+04 -0.43259417032E+03  0.88739475941E+03  0.18047187059E+04  0.12699999809E+01 0. -1.
       -4    1    3    3    0  502 -0.15107616687E+04  0.43259417032E+03 -0.63730735888E+03  0.16957891432E+04  0.12699999809E+01 0.  1.
</event>
<event>
 5   0  0.5677193E-07  0.3487118E+04  0.7818609E-02  0.8116850E-01
       -2   -1    0    0    0  501  0.00000000000E+00  0.00000000000E+00  0.11204868830E+04  0.11204868830E+04  0.25500000920E-02 0. -1.
        2   -1    0    0  501    0  0.00000000000E+00  0.00000000000E+00 -0.27131042816E+04  0.27131042816E+04  0.25500000920E-02 0.  1.
    10030    2    1    2    0    0  0.00000000000E+00  0.00000000000E+00 -0.15926173986E+04  0.38335911647E+04  0.34871178700E+04 0.  0.
        3    1    3    3  502    0  0.41661528667E+03  0.11158959740E+03 -0.26535332617E+04  0.26883562481E+04  0.10100000352E+00 0.  1.
       -3    1    3    3    0  502 -0.41661528667E+03 -0.11158959740E+03  0.10609158631E+04  0.11452349166E+04  0.10100000352E+00 0. -1.
</event>
<event>
 5   0  0.5677193E-07  0.3495289E+04  0.7818609E-02  0.8114907E-01
        2   -1    0    0  501    0  0.00000000000E+00  0.00000000000E+00  0.15873757883E+04  0.15873757883E+04  0.25500000920E-02 0. -1.
       -2   -1    0    0    0  501  0.00000000000E+00  0.00000000000E+00 -0.19240942739E+04  0.19240942739E+04  0.25500000920E-02 0.  1.
    10030    2    1    2    0    0  0.00000000000E+00  0.00000000000E+00 -0.33671848562E+03  0.35114700622E+04  0.34952886375E+04 0.  0.
        3    1    3    3  502    0 -0.17388273704E+04  0.19836518115E+02 -0.34336830574E+03  0.17725168306E+04  0.10100000352E+00 0. -1.
       -3    1    3    3    0  502  0.17388273704E+04 -0.19836518115E+02  0.66498201204E+01  0.17389532316E+04  0.10100000352E+00 0.  1.
</event>
<event>
 5   0  0.1933647E-07  0.3500955E+04  0.7818609E-02  0.8113564E-01
        1   -1    0    0  501    0  0.00000000000E+00  0.00000000000E+00  0.96993867795E+03  0.96993867797E+03  0.50400001928E-02 0.  1.
       -1   -1    0    0    0  501  0.00000000000E+00  0.00000000000E+00 -0.31591388475E+04  0.31591388476E+04  0.50400001928E-02 0. -1.
    10030    2    1    2    0    0  0.00000000000E+00  0.00000000000E+00 -0.21892001696E+04  0.41290775255E+04  0.35009547025E+04 0.  0.
        4    1    3    3  502    0 -0.53926216977E+03 -0.70337050022E+01  0.86951186715E+03  0.10231840796E+04  0.12699999809E+01 0.  1.
       -4    1    3    3    0  502  0.53926216977E+03  0.70337050022E+01 -0.30587120367E+04  0.31058934459E+04  0.12699999809E+01 0. -1.
</event>
<event>
 5   0  0.1873457E-07  0.3500439E+04  0.7818609E-02  0.8113686E-01
        1   -1    0    0  501    0  0.00000000000E+00  0.00000000000E+00  0.21641581456E+04  0.21641581456E+04  0.50400001928E-02 0.  1.
       -1   -1    0    0    0  501  0.00000000000E+00  0.00000000000E+00 -0.14154549110E+04  0.14154549110E+04  0.50400001928E-02 0. -1.
    10030    2    1    2    0    0  0.00000000000E+00  0.00000000000E+00  0.74870323459E+03  0.35796130567E+04  0.35004389870E+04 0.  0.
        3    1    3    3  502    0  0.13108209793E+04 -0.79618308155E+02  0.15575336375E+04  0.20372780264E+04  0.10100000352E+00 0.  1.
       -3    1    3    3    0  502 -0.13108209793E+04  0.79618308155E+02 -0.80883040292E+03  0.15423350303E+04  0.10100000352E+00 0. -1.
</event>
<event>
 5   0  0.1933647E-07  0.3503445E+04  0.7818609E-02  0.8112974E-01
       -1   -1    0    0    0  501  0.00000000000E+00  0.00000000000E+00  0.25022962815E+04  0.25022962815E+04  0.50400001928E-02 0. -1.
        1   -1    0    0  501    0  0.00000000000E+00  0.00000000000E+00 -0.12262864797E+04  0.12262864797E+04  0.50400001928E-02 0.  1.
    10030    2    1    2    0    0  0.00000000000E+00  0.00000000000E+00  0.12760098019E+04  0.37285827612E+04  0.35034452176E+04 0.  0.
        4    1    3    3  502    0 -0.13351804774E+04 -0.36281039334E+03 -0.50536702186E+03  0.14730022839E+04  0.12699999809E+01 0.  1.
       -4    1    3    3    0  502  0.13351804774E+04  0.36281039334E+03  0.17813768237E+04  0.22555804773E+04  0.12699999809E+01 0. -1.
</event>
<event>
 5   0  0.5554745E-07  0.3527856E+04  0.7818609E-02  0.8107220E-01
       -2   -1    0    0    0  501  0.00000000000E+00  0.00000000000E+00  0.11892591845E+04  0.11892591845E+04  0.25500000920E-02 0.  1.
        2   -1    0    0  501    0  0.00000000000E+00  0.00000000000E+00 -0.26162859667E+04  0.26162859667E+04  0.25500000920E-02 0. -1.
    10030    2    1    2    0    0  0.00000000000E+00  0.00000000000E+00 -0.14270267822E+04  0.38055451513E+04  0.35278560715E+04 0.  0.
        5    1    3    3  502    0 -0.43240400224E+03  0.83803739749E+03  0.89450770147E+03  0.12997869128E+04  0.46999998093E+01 0.  1.
       -5    1    3    3    0  502  0.43240400224E+03 -0.83803739749E+03 -0.23215344837E+04  0.25057582385E+04  0.46999998093E+01 0. -1.
</event>
<event>
 5   0  0.1933647E-07  0.3486739E+04  0.7818609E-02  0.8116940E-01
        1   -1    0    0  501    0  0.00000000000E+00  0.00000000000E+00  0.16651776156E+04  0.16651776156E+04  0.50400001928E-02 0.  1.
       -1   -1    0    0    0  501  0.00000000000E+00  0.00000000000E+00 -0.18252330448E+04  0.18252330448E+04  0.50400001928E-02 0. -1.
    10030    2    1    2    0    0  0.00000000000E+00  0.00000000000E+00 -0.16005542916E+03  0.34904106604E+04  0.34867389977E+04 0.  0.
        4    1    3    3  502    0  0.16297637333E+04  0.61378244188E+03  0.53612363844E+00  0.17415110143E+04  0.12699999809E+01 0.  1.
       -4    1    3    3    0  502 -0.16297637333E+04 -0.61378244188E+03 -0.16059155280E+03  0.17488996461E+04  0.12699999809E+01 0. -1.
</event>
<event>
 5   0  0.1897049E-07  0.3502337E+04  0.7818609E-02  0.8113236E-01
        1   -1    0    0  501    0  0.00000000000E+00  0.00000000000E+00  0.14920638985E+04  0.14920638985E+04  0.50400001928E-02 0.  1.
       -1   -1    0    0    0  501  0.00000000000E+00  0.00000000000E+00 -0.20552674632E+04  0.20552674632E+04  0.50400001928E-02 0. -1.
    10030    2    1    2    0    0  0.00000000000E+00  0.00000000000E+00 -0.56320356466E+03  0.35473313617E+04  0.35023365821E+04 0.  0.
        2    1    3    3  502    0  0.16947557035E+04  0.20998757392E+03  0.11106259327E+03  0.17113230482E+04  0.25500000920E-02 0.  1.
       -2    1    3    3    0  502 -0.16947557035E+04 -0.20998757392E+03 -0.67426615794E+03  0.18360083135E+04  0.25500000920E-02 0. -1.
</event>
<event>
 5   0  0.1908190E-07  0.3472642E+04  0.7818609E-02  0.8120304E-01
       -1   -1    0    0    0  501  0.00000000000E+00  0.00000000000E+00  0.16651887563E+04  0.16651887563E+04  0.50400001928E-02 0.  1.
        1   -1    0    0  501    0  0.00000000000E+00  0.00000000000E+00 -0.18104922929E+04  0.18104922929E+04  0.50400001928E-02 0. -1.
    10030    2    1    2    0    0  0.00000000000E+00  0.00000000000E+00 -0.14530353663E+03  0.34756810493E+04  0.34726424576E+04 0.  0.
        5    1    3    3  502    0 -0.29386844234E+03  0.93797756190E+03 -0.15052073362E+04  0.17977296190E+04  0.46999998093E+01 0. -1.
       -5    1    3    3    0  502  0.29386844234E+03 -0.93797756190E+03  0.13599037996E+04  0.16779514302E+04  0.46999998093E+01 0.  1.
</event>
<event>
 5   0  0.5740827E-07  0.3414352E+04  0.7818609E-02  0.8134393E-01
       -2   -1    0    0    0  501  0.00000000000E+00  0.00000000000E+00  0.15911849807E+04  0.15911849807E+04  0.25500000920E-02 0. -1.
        2   -1    0    0  501    0  0.00000000000E+00  0.00000000000E+00 -0.18316225628E+04  0.18316225628E+04  0.25500000920E-02 0.  1.
    10030    2    1    2    0    0  0.00000000000E+00  0.00000000000E+00 -0.24043758210E+03  0.34228075434E+04  0.34143522443E+04 0.  0.
        2    1    3    3  502    0 -0.14401558645E+04 -0.85363881897E+03  0.21482760595E+03  0.16878681962E+04  0.25500000920E-02 0. -1.
       -2    1    3    3    0  502  0.14401558645E+04  0.85363881897E+03 -0.45526518805E+03  0.17349393473E+04  0.25500000920E-02 0.  1.
</event>
<event>
 5   0  0.5573334E-07  0.3506631E+04  0.7818609E-02  0.8112220E-01
        2   -1    0    0  501    0  0.00000000000E+00  0.00000000000E+00  0.20680491010E+04  0.20680491010E+04  0.25500000920E-02 0.  1.
       -2   -1    0    0    0  501  0.00000000000E+00  0.00000000000E+00 -0.14864807287E+04  0.14864807287E+04  0.25500000920E-02 0. -1.
    10030    2    1    2    0    0  0.00000000000E+00  0.00000000000E+00  0.58156837223E+03  0.35545298297E+04  0.35066309385E+04 0.  0.
        4    1    3    3  502    0  0.71442089138E+03 -0.11790200735E+04  0.13889232225E+04  0.19569350717E+04  0.12699999809E+01 0.  1.
       -4    1    3    3    0  502 -0.71442089138E+03  0.11790200735E+04 -0.80735485031E+03  0.15975947580E+04  0.12699999809E+01 0. -1.
</event>
<event>
 5   0  0.5677193E-07  0.3440748E+04  0.7818609E-02  0.8127977E-01
        2   -1    0    0  501    0  0.00000000000E+00  0.00000000000E+00  0.16063083664E+04  0.16063083664E+04  0.25500000920E-02 0. -1.
       -2   -1    0    0    0  501  0.00000000000E+00  0.00000000000E+00 -0.18425393421E+04  0.18425393421E+04  0.25500000920E-02 0.  1.
    10030    2    1    2    0    0  0.00000000000E+00  0.00000000000E+00 -0.23623097574E+03  0.34488477085E+04  0.34407478028E+04 0.  0.
        3    1    3    3  502    0  0.14572578235E+04  0.48341034460E+03 -0.89608720937E+03  0.17777115127E+04  0.10100000352E+00 0.  1.
       -3    1    3    3    0  502 -0.14572578235E+04 -0.48341034460E+03  0.65985623363E+03  0.16711361958E+04  0.10100000352E+00 0. -1.
</event>
<event>
 5   0  0.1866421E-07  0.3581537E+04  0.7818609E-02  0.8094734E-01
       -1   -1    0    0    0  501  0.00000000000E+00  0.00000000000E+00  0.13444014560E+04  0.13444014560E+04  0.50400001928E-02 0.  1.
        1   -1    0    0  501    0  0.00000000000E+00  0.00000000000E+00 -0.23853378320E+04  0.23853378320E+04  0.50400001928E-02 0. -1.
    10030    2    1    2    0    0  0.00000000000E+00  0.00000000000E+00 -0.10409363760E+04  0.37297392879E+04  0.35815369071E+04 0.  0.
        1    1    3    3  502    0 -0.11603824438E+04  0.13236287141E+04 -0.86328816145E+03  0.19605475864E+04  0.50400001928E-02 0. -1.
       -1    1    3    3    0  502  0.11603824438E+04 -0.13236287141E+04 -0.17764821456E+03  0.17691917016E+04  0.50400001928E-02 0.  1.
</event>
<event>
 5   0  0.1873457E-07  0.3492812E+04  0.7818609E-02  0.8115495E-01
       -1   -1    0    0    0  501  0.00000000000E+00  0.00000000000E+00  0.12807725972E+04  0.12807725972E+04  0.50400001928E-02 0. -1.
        1   -1    0    0  501    0  0.00000000000E+00  0.00000000000E+00 -0.23813238894E+04  0.23813238894E+04  0.50400001928E-02 0.  1.
    10030    2    1    2    0    0  0.00000000000E+00  0.00000000000E+00 -0.11005512922E+04  0.36620964866E+04  0.34928122667E+04 0.  0.
        3    1    3    3  502    0 -0.72179777787E+03 -0.14279536112E+03 -0.22108796391E+04  0.23301011429E+04  0.10100000352E+00 0.  1.
       -3    1    3    3    0  502  0.72179777787E+03  0.14279536112E+03  0.11103283470E+04  0.13319953437E+04  0.10100000352E+00 0. -1.
</event>
<event>
 5   0  0.1908190E-07  0.3521792E+04  0.7818609E-02  0.8108645E-01
       -1   -1    0    0    0  501  0.00000000000E+00  0.00000000000E+00  0.16595868213E+04  0.16595868213E+04  0.50400001928E-02 0.  1.
        1   -1    0    0  501    0  0.00000000000E+00  0.00000000000E+00 -0.18683891643E+04  0.18683891643E+04  0.50400001928E-02 0. -1.
    10030    2    1    2    0    0  0.00000000000E+00  0.00000000000E+00 -0.20880234297E+03  0.35279759856E+04  0.35217916089E+04 0.  0.
        5    1    3    3  502    0  0.69910332388E+03 -0.16153049470E+04 -0.15718539499E+03  0.17671120134E+04  0.46999998093E+01 0. -1.
       -5    1    3    3    0  502 -0.69910332388E+03  0.16153049470E+04 -0.51616947977E+02  0.17608639722E+04  0.46999998093E+01 0.  1.
</event>
<event>
 5   0  0.1908190E-07  0.3536264E+04  0.7818609E-02  0.8105249E-01
       -1   -1    0    0    0  501  0.00000000000E+00  0.00000000000E+00  0.15094344024E+04  0.15094344024E+04  0.50400001928E-02 0. -1.
        1   -1    0    0  501    0  0.00000000000E+00  0.00000000000E+00 -0.20711667815E+04  0.20711667815E+04  0.50400001928E-02 0.  1.
    10030    2    1    2    0    0  0.00000000000E+00  0.00000000000E+00 -0.56173237911E+03  0.35806011839E+04  0.35362637872E+04 0.  0.
        5    1    3    3  502    0 -0.12564929176E+04 -0.11553988516E+04  0.18594272303E+03  0.17170666104E+04  0.46999998093E+01 0.  1.
       -5    1    3    3    0  502  0.12564929176E+04  0.11553988516E+04 -0.74767510215E+03  0.18635345735E+04  0.46999998093E+01 0. -1.
</event>
<event>
 5   0  0.5740827E-07  0.3550112E+04  0.7818609E-02  0.8102016E-01
        2   -1    0    0  501    0  0.00000000000E+00  0.00000000000E+00  0.18099149205E+04  0.18099149205E+04  0.25500000920E-02 0. -1.
       -2   -1    0    0    0  501  0.00000000000E+00  0.00000000000E+00 -0.17408681569E+04  0.17408681569E+04  0.25500000920E-02 0.  1.
    10030    2    1    2    0    0  0.00000000000E+00  0.00000000000E+00  0.69046763530E+02  0.35507830774E+04  0.35501116894E+04 0.  0.
        2    1    3    3  502    0  0.10635252466E+04  0.54447914534E+03  0.13475091502E+04  0.18009232076E+04  0.25500000920E-02 0. -1.
       -2    1    3    3    0  502 -0.10635252466E+04 -0.54447914534E+03 -0.12784623866E+04  0.17498598698E+04  0.25500000920E-02 0.  1.
</event>
<event>
 5   0  0.5740827E-07  0.3498720E+04  0.7818609E-02  0.8114093E-01
        2   -1    0    0  501    0  0.00000000000E+00  0.00000000000E+00  0.18781486047E+04  0.18781486047E+04  0.25500000920E-02 0.  1.
       -2   -1    0    0    0  501  0.00000000000E+00  0.00000000000E+00 -0.16294026023E+04  0.16294026023E+04  0.25500000920E-02 0. -1.
    10030    2    1    2    0    0  0.00000000000E+00  0.00000000000E+00  0.24874600240E+03  0.35075512071E+04  0.34987198940E+04 0.  0.
        2    1    3    3  502    0  0.13206716452E+04 -0.51063503042E+03 -0.90551674842E+03  0.16807386205E+04  0.25500000920E-02 0. -1.
       -2    1    3    3    0  502 -0.13206716452E+04  0.51063503042E+03  0.11542627508E+04  0.18268125866E+04  0.25500000920E-02 0.  1.
</event>
<event>
 5   0  0.1873457E-07  0.3493757E+04  0.7818609E-02  0.8115271E-01
        1   -1    0    0  501    0  0.00000000000E+00  0.00000000000E+00  0.25010366387E+04  0.25010366387E+04  0.50400001928E-02 0. -1.
       -1   -1    0    0    0  501  0.00000000000E+00  0.00000000000E+00 -0.12201277198E+04  0.12201277198E+04  0.50400001928E-02 0.  1.
    10030    2    1    2    0    0  0.00000000000E+00  0.00000000000E+00  0.12809089189E+04  0.37211643586E+04  0.34937567925E+04 0.  0.
        3    1    3    3  502    0 -0.24007000937E+03 -0.87104508107E+03 -0.95192800681E+03  0.13124481258E+04  0.10100000352E+00 0.  1.
       -3    1    3    3    0  502  0.24007000937E+03  0.87104508107E+03  0.22328369257E+04  0.24087162327E+04  0.10100000352E+00 0. -1.
</event>
<event>
 5   0  0.1866421E-07  0.3509091E+04  0.7818609E-02  0.8111639E-01
        1   -1    0    0  501    0  0.00000000000E+00  0.00000000000E+00  0.19899551584E+04  0.19899551584E+04  0.50400001928E-02 0. -1.
       -1   -1    0    0    0  501  0.00000000000E+00  0.00000000000E+00 -0.15469844270E+04  0.15469844270E+04  0.50400001928E-02 0.  1.
    10030    2    1    2    0    0  0.00000000000E+00  0.00000000000E+00  0.44297073146E+03  0.35369395854E+04  0.35090908455E+04 0.  0.
        1    1    3    3  502    0 -0.11373542502E+04 -0.12861955022E+04  0.58567835491E+03  0.18140817776E+04  0.50400001928E-02 0.  1.
       -1    1    3    3    0  502  0.11373542502E+04  0.12861955022E+04 -0.14270762346E+03  0.17228578078E+04  0.50400001928E-02 0. -1.
</event>
<event>
 5   0  0.5707187E-07  0.3452099E+04  0.7818609E-02  0.8125237E-01
        2   -1    0    0  501    0  0.00000000000E+00  0.00000000000E+00  0.18065295966E+04  0.18065295966E+04  0.25500000920E-02 0. -1.
       -2   -1    0    0    0  501  0.00000000000E+00  0.00000000000E+00 -0.16491548807E+04  0.16491548807E+04  0.25500000920E-02 0.  1.
    10030    2    1    2    0    0  0.00000000000E+00  0.00000000000E+00  0.15737471592E+03  0.34556844772E+04  0.34520991302E+04 0.  0.
        1    1    3    3  502    0 -0.11962903508E+04  0.12088814921E+04 -0.21613853985E+03  0.17144156245E+04  0.50400001928E-02 0.  1.
       -1    1    3    3    0  502  0.11962903508E+04 -0.12088814921E+04  0.37351325577E+03  0.17412688527E+04  0.50400001928E-02 0. -1.
</event>
<event>
 5   0  0.5554745E-07  0.3500462E+04  0.7818609E-02  0.8113680E-01
        2   -1    0    0  501    0  0.00000000000E+00  0.00000000000E+00  0.97842098760E+03  0.97842098761E+03  0.25500000920E-02 0.  1.
       -2   -1    0    0    0  501  0.00000000000E+00  0.00000000000E+00 -0.31308695241E+04  0.31308695241E+04  0.25500000920E-02 0. -1.
    10030    2    1    2    0    0  0.00000000000E+00  0.00000000000E+00 -0.21524485365E+04  0.41092905117E+04  0.35004619420E+04 0.  0.
        5    1    3    3  502    0 -0.62606025837E+03  0.12647593434E+03 -0.29891647243E+04  0.30566444753E+04  0.46999998093E+01 0. -1.
       -5    1    3    3    0  502  0.62606025837E+03 -0.12647593434E+03  0.83671618782E+03  0.10526460364E+04  0.46999998093E+01 0.  1.
</event>
<event>
 5   0  0.1897049E-07  0.3495914E+04  0.7818609E-02  0.8114759E-01
        1   -1    0    0  501    0  0.00000000000E+00  0.00000000000E+00  0.19631181062E+04  0.19631181062E+04  0.50400001928E-02 0.  1.
       -1   -1    0    0    0  501  0.00000000000E+00  0.00000000000E+00 -0.15563780859E+04  0.15563780859E+04  0.50400001928E-02 0. -1.
    10030    2    1    2    0    0  0.00000000000E+00  0.00000000000E+00  0.40674002031E+03  0.35194961922E+04  0.34959141870E+04 0.  0.
        2    1    3    3  502    0 -0.34389687652E+02  0.11810824719E+04  0.15001644506E+04  0.19096156249E+04  0.25500000920E-02 0. -1.
       -2    1    3    3    0  502  0.34389687652E+02 -0.11810824719E+04 -0.10934244303E+04  0.16098805673E+04  0.25500000920E-02 0.  1.
</event>
<event>
 5   0  0.1897049E-07  0.3486692E+04  0.7818609E-02  0.8116951E-01
       -1   -1    0    0    0  501  0.00000000000E+00  0.00000000000E+00  0.22642556715E+04  0.22642556715E+04  0.50400001928E-02 0. -1.
        1   -1    0    0  501    0  0.00000000000E+00  0.00000000000E+00 -0.13422758040E+04  0.13422758040E+04  0.50400001928E-02 0.  1.
    10030    2    1    2    0    0  0.00000000000E+00  0.00000000000E+00  0.92197986754E+03  0.36065314755E+04  0.34866921871E+04 0.  0.
        2    1    3    3  502    0 -0.14677931278E+04 -0.25180992060E+02  0.14336309178E+04  0.20519133405E+04  0.25500000920E-02 0. -1.
       -2    1    3    3    0  502  0.14677931278E+04  0.25180992060E+02 -0.51165105025E+03  0.15546181350E+04  0.25500000920E-02 0.  1.
</event>
<event>
 5   0  0.1873457E-07  0.3430349E+04  0.7818609E-02  0.8130498E-01
       -1   -1    0    0    0  501  0.00000000000E+00  0.00000000000E+00  0.23860518466E+04  0.23860518466E+04  0.50400001928E-02 0.  1.
        1   -1    0    0  501    0  0.00000000000E+00  0.00000000000E+00 -0.12329249650E+04  0.12329249650E+04  0.50400001928E-02 0. -1.
    10030    2    1    2    0    0  0.00000000000E+00  0.00000000000E+00  0.11531268816E+04  0.36189768116E+04  0.34303486059E+04 0.  0.
        3    1    3    3  502    0  0.83046493296E+03 -0.11935683879E+04  0.15362810247E+04  0.21152864814E+04  0.10100000352E+00 0.  1.
       -3    1    3    3    0  502 -0.83046493296E+03  0.11935683879E+04 -0.38315414314E+03  0.15036903302E+04  0.10100000352E+00 0. -1.
</event>
<event>
 5   0  0.5677193E-07  0.3407935E+04  0.7818609E-02  0.8135961E-01
       -2   -1    0    0    0  501  0.00000000000E+00  0.00000000000E+00  0.10973509226E+04  0.10973509226E+04  0.25500000920E-02 0.  1.
        2   -1    0    0  501    0  0.00000000000E+00  0.00000000000E+00 -0.26459227201E+04  0.26459227201E+04  0.25500000920E-02 0. -1.
    10030    2    1    2    0    0  0.00000000000E+00  0.00000000000E+00 -0.15485717975E+04  0.37432736426E+04  0.34079352916E+04 0.  0.
        3    1    3    3  502    0  0.13626257740E+04  0.12362210468E+03  0.34126513443E+03  0.14101394707E+04  0.10100000352E+00 0. -1.
       -3    1    3    3    0  502 -0.13626257740E+04 -0.12362210468E+03 -0.18898369319E+04  0.23331341719E+04  0.10100000352E+00 0.  1.
</event>
<event>
 5   0  0.1908190E-07  0.3498262E+04  0.7818609E-02  0.8114202E-01
        1   -1    0    0  501    0  0.00000000000E+00  0.00000000000E+00  0.13898610557E+04  0.13898610557E+04  0.50400001928E-02 0.  1.
       -1   -1    0    0    0  501  0.00000000000E+00  0.00000000000E+00 -0.22012698853E+04  0.22012698853E+04  0.50400001928E-02 0. -1.
    10030    2    1    2    0    0  0.00000000000E+00  0.00000000000E+00 -0.81140882961E+03  0.35911309410E+04  0.34982620180E+04 0.  0.
        5    1    3    3  502    0  0.15325183048E+04 -0.71429109370E+02  0.45667018610E+03  0.16007136600E+04  0.46999998093E+01 0.  1.
       -5    1    3    3    0  502 -0.15325183048E+04  0.71429109370E+02 -0.12680790157E+04  0.19904172810E+04  0.46999998093E+01 0. -1.
</event>
<event>
 5   0  0.1897049E-07  0.3515219E+04  0.7818609E-02  0.8110193E-01
       -1   -1    0    0    0  501  0.00000000000E+00  0.00000000000E+00  0.26797148426E+04  0.26797148426E+04  0.50400001928E-02 0. -1.
        1   -1    0    0  501    0  0.00000000000E+00  0.00000000000E+00 -0.11528058439E+04  0.11528058439E+04  0.50400001928E-02 0.  1.
    10030    2    1    2    0    0  0.00000000000E+00  0.00000000000E+00  0.15269089987E+04  0.38325206865E+04  0.35152188726E+04 0.  0.
        2    1    3    3  502    0  0.37035964587E+03  0.14416471375E+03 -0.11031740954E+04  0.11725795567E+04  0.25500000920E-02 0.  1.
       -2    1    3    3    0  502 -0.37035964587E+03 -0.14416471375E+03  0.26300830941E+04  0.26599411298E+04  0.25500000920E-02 0. -1.
</event>
<event>
 5   0  0.5677193E-07  0.3481653E+04  0.7818609E-02  0.8118152E-01
        2   -1    0    0  501    0  0.00000000000E+00  0.00000000000E+00  0.25435542095E+04  0.25435542095E+04  0.25500000920E-02 0. -1.
       -2   -1    0    0    0  501  0.00000000000E+00  0.00000000000E+00 -0.11914338307E+04  0.11914338307E+04  0.25500000920E-02 0.  1.
    10030    2    1    2    0    0  0.00000000000E+00  0.00000000000E+00  0.13521203787E+04  0.37349880402E+04  0.34816527888E+04 0.  0.
        3    1    3    3  502    0 -0.73017627999E+02  0.14902562377E+04 -0.28601217979E+03  0.15192097305E+04  0.10100000352E+00 0.  1.
       -3    1    3    3    0  502  0.73017627999E+02 -0.14902562377E+04  0.16381325585E+04  0.22157783097E+04  0.10100000352E+00 0. -1.
</event>
<event>
 5   0  0.5554745E-07  0.3530227E+04  0.7818609E-02  0.8106664E-01
        2   -1    0    0  501    0  0.00000000000E+00  0.00000000000E+00  0.22101611317E+04  0.22101611317E+04  0.25500000920E-02 0.  1.
       -2   -1    0    0    0  501  0.00000000000E+00  0.00000000000E+00 -0.14096824156E+04  0.14096824156E+04  0.25500000920E-02 0. -1.
    10030    2    1    2    0    0  0.00000000000E+00  0.00000000000E+00  0.80047871611E+03  0.36198435472E+04  0.35302267819E+04 0.  0.
        5    1    3    3  502    0  0.10953500549E+04 -0.52673177631E+03  0.17127188836E+04  0.21001586062E+04  0.46999998093E+01 0.  1.
       -5    1    3    3    0  502 -0.10953500549E+04  0.52673177631E+03 -0.91224016749E+03  0.15196849411E+04  0.46999998093E+01 0. -1.
</event>
<event>
 5   0  0.5554745E-07  0.3481269E+04  0.7818609E-02  0.8118243E-01
       -2   -1    0    0    0  501  0.00000000000E+00  0.00000000000E+00  0.12306180301E+04  0.12306180301E+04  0.25500000920E-02 0.  1.
        2   -1    0    0  501    0  0.00000000000E+00  0.00000000000E+00 -0.24620211834E+04  0.24620211834E+04  0.25500000920E-02 0. -1.
    10030    2    1    2    0    0  0.00000000000E+00  0.00000000000E+00 -0.12314031532E+04  0.36926392135E+04  0.34812685382E+04 0.  0.
        5    1    3    3  502    0  0.58769749984E+03 -0.10200807483E+04 -0.19756678286E+04  0.22998344600E+04  0.46999998093E+01 0. -1.
       -5    1    3    3    0  502 -0.58769749984E+03  0.10200807483E+04  0.74426467543E+03  0.13928047535E+04  0.46999998093E+01 0.  1.
</event>
<event>
 5   0  0.5554745E-07  0.3201286E+04  0.7818609E-02  0.8188478E-01
       -2   -1    0    0    0  501  0.00000000000E+00  0.00000000000E+00  0.21359789456E+04  0.21359789456E+04  0.25500000920E-02 0. -1.
        2   -1    0    0  501    0  0.00000000000E+00  0.00000000000E+00 -0.11994772465E+04  0.11994772465E+04  0.25500000920E-02 0.  1.
    10030    2    1    2    0    0  0.00000000000E+00  0.00000000000E+00  0.93650169913E+03  0.33354561921E+04  0.32012860817E+04 0.  0.
        5    1    3    3  502    0 -0.65090899383E+03  0.14352809157E+04  0.17666041448E+03  0.15858577544E+04  0.46999998093E+01 0. -1.
       -5    1    3    3    0  502  0.65090899383E+03 -0.14352809157E+04  0.75984128466E+03  0.17495984377E+04  0.46999998093E+01 0.  1.
</event>
<event>
 5   0  0.5740827E-07  0.3494631E+04  0.7818609E-02  0.8115063E-01
       -2   -1    0    0    0  501  0.00000000000E+00  0.00000000000E+00  0.14436042664E+04  0.14436042664E+04  0.25500000920E-02 0. -1.
        2   -1    0    0  501    0  0.00000000000E+00  0.00000000000E+00 -0.21149232330E+04  0.21149232330E+04  0.25500000920E-02 0.  1.
    10030    2    1    2    0    0  0.00000000000E+00  0.00000000000E+00 -0.67131896659E+03  0.35585274995E+04  0.34946314269E+04 0.  0.
        2    1    3    3  502    0  0.14598863520E+04  0.77110676863E+02  0.63886442888E+03  0.15954190596E+04  0.25500000920E-02 0. -1.
       -2    1    3    3    0  502 -0.14598863520E+04 -0.77110676863E+02 -0.13101833955E+04  0.19631084399E+04  0.25500000920E-02 0.  1.
</event>
<event>
 5   0  0.5573334E-07  0.3556783E+04  0.7818609E-02  0.8100463E-01
        2   -1    0    0  501    0  0.00000000000E+00  0.00000000000E+00  0.11796185164E+04  0.11796185164E+04  0.25500000920E-02 0.  1.
       -2   -1    0    0    0  501  0.00000000000E+00  0.00000000000E+00 -0.26811009568E+04  0.26811009568E+04  0.25500000920E-02 0. -1.
    10030    2    1    2    0    0  0.00000000000E+00  0.00000000000E+00 -0.15014824404E+04  0.38607194732E+04  0.35567830032E+04 0.  0.
        4    1    3    3  502    0  0.12259900313E+04 -0.80700825943E+03  0.33923961069E+03  0.15064524599E+04  0.12699999809E+01 0.  1.
       -4    1    3    3    0  502 -0.12259900313E+04  0.80700825943E+03 -0.18407220511E+04  0.23542670133E+04  0.12699999809E+01 0. -1.
</event>
<event>
 5   0  0.5677193E-07  0.3503326E+04  0.7818609E-02  0.8113002E-01
        2   -1    0    0  501    0  0.00000000000E+00  0.00000000000E+00  0.23019437962E+04  0.23019437962E+04  0.25500000920E-02 0.  1.
       -2   -1    0    0    0  501  0.00000000000E+00  0.00000000000E+00 -0.13329274678E+04  0.13329274678E+04  0.25500000920E-02 0. -1.
    10030    2    1    2    0    0  0.00000000000E+00  0.00000000000E+00  0.96901632841E+03  0.36348712640E+04  0.35033264851E+04 0.  0.
        3    1    3    3  502    0  0.12221564492E+04  0.11978711357E+04  0.96622533666E+02  0.17140296288E+04  0.10100000352E+00 0. -1.
       -3    1    3    3    0  502 -0.12221564492E+04 -0.11978711357E+04  0.87239379474E+03  0.19208416352E+04  0.10100000352E+00 0.  1.
</event>
<event>
 5   0  0.5554745E-07  0.3517893E+04  0.7818609E-02  0.8109562E-01
        2   -1    0    0  501    0  0.00000000000E+00  0.00000000000E+00  0.23742536009E+04  0.23742536009E+04  0.25500000920E-02 0. -1.
       -2   -1    0    0    0  501  0.00000000000E+00  0.00000000000E+00 -0.13031015880E+04  0.13031015880E+04  0.25500000920E-02 0.  1.
    10030    2    1    2    0    0  0.00000000000E+00  0.00000000000E+00  0.10711520130E+04  0.36773551889E+04  0.35178934820E+04 0.  0.
        5    1    3    3  502    0  0.14712864833E+04  0.96197134227E+03  0.60000395366E+03  0.18574443770E+04  0.46999998093E+01 0.  1.
       -5    1    3    3    0  502 -0.14712864833E+04 -0.96197134227E+03  0.47114805931E+03  0.18199108119E+04  0.46999998093E+01 0. -1.
</event>
<event>
 5   0  0.5573334E-07  0.3483751E+04  0.7818609E-02  0.8117652E-01
       -2   -1    0    0    0  501  0.00000000000E+00  0.00000000000E+00  0.15031361327E+04  0.15031361327E+04  0.25500000920E-02 0. -1.
        2   -1    0    0  501    0  0.00000000000E+00  0.00000000000E+00 -0.20185328759E+04  0.20185328759E+04  0.25500000920E-02 0.  1.
    10030    2    1    2    0    0  0.00000000000E+00  0.00000000000E+00 -0.51539674316E+03  0.35216690086E+04  0.34837506804E+04 0.  0.
        4    1    3    3  502    0 -0.13009054931E+04  0.10692840542E+04 -0.70797285276E+03  0.18267322365E+04  0.12699999809E+01 0. -1.
       -4    1    3    3    0  502  0.13009054931E+04 -0.10692840542E+04  0.19257610960E+03  0.16949367721E+04  0.12699999809E+01 0.  1.
</event>
<event>
 5   0  0.5707187E-07  0.3087952E+04  0.7818609E-02  0.8219052E-01
       -2   -1    0    0    0  501  0.00000000000E+00  0.00000000000E+00  0.10662251794E+04  0.10662251794E+04  0.25500000920E-02 0. -1.
        2   -1    0    0  501    0  0.00000000000E+00  0.00000000000E+00 -0.22357961828E+04  0.22357961828E+04  0.25500000920E-02 0.  1.
    10030    2    1    2    0    0  0.00000000000E+00  0.00000000000E+00 -0.11695710034E+04  0.33020213622E+04  0.30879521927E+04 0.  0.
        1    1    3    3  502    0  0.99087640168E+03 -0.20612414178E+03 -0.18316094709E+04  0.20926338569E+04  0.50400001928E-02 0.  1.
       -1    1    3    3    0  502 -0.99087640168E+03  0.20612414178E+03  0.66203846753E+03  0.12093875052E+04  0.50400001928E-02 0. -1.
</event>
<event>
 5   0  0.1897049E-07  0.3529027E+04  0.7818609E-02  0.8106945E-01
       -1   -1    0    0    0  501  0.00000000000E+00  0.00000000000E+00  0.17779372220E+04  0.17779372220E+04  0.50400001928E-02 0. -1.
        1   -1    0    0  501    0  0.00000000000E+00  0.00000000000E+00 -0.17511909938E+04  0.17511909938E+04  0.50400001928E-02 0.  1.
    10030    2    1    2    0    0  0.00000000000E+00  0.00000000000E+00  0.26746228224E+02  0.35291282158E+04  0.35290268634E+04 0.  0.
        2    1    3    3  502    0 -0.79034266345E+03  0.70517319433E+03  0.14246531319E+04  0.17752597854E+04  0.25500000920E-02 0. -1.
       -2    1    3    3    0  502  0.79034266345E+03 -0.70517319433E+03 -0.13979069036E+04  0.17538684303E+04  0.25500000920E-02 0.  1.
</event>
<event>
 5   0  0.5677193E-07  0.3492556E+04  0.7818609E-02  0.8115556E-01
       -2   -1    0    0    0  501  0.00000000000E+00  0.00000000000E+00  0.11423823445E+04  0.11423823445E+04  0.25500000920E-02 0.  1.
        2   -1    0    0  501    0  0.00000000000E+00  0.00000000000E+00 -0.26694103229E+04  0.26694103229E+04  0.25500000920E-02 0. -1.
    10030    2    1    2    0    0  0.00000000000E+00  0.00000000000E+00 -0.15270279784E+04  0.38117926674E+04  0.34925562118E+04 0.  0.
        3    1    3    3  502    0 -0.35984062074E+03  0.10651111724E+04 -0.22218939004E+04  0.24901324457E+04  0.10100000352E+00 0. -1.
       -3    1    3    3    0  502  0.35984062074E+03 -0.10651111724E+04  0.69486592201E+03  0.13216602217E+04  0.10100000352E+00 0.  1.
</event>
<event>
 5   0  0.1933647E-07  0.3476931E+04  0.7818609E-02  0.8119279E-01
        1   -1    0    0  501    0  0.00000000000E+00  0.00000000000E+00  0.13195180407E+04  0.13195180407E+04  0.50400001928E-02 0. -1.
       -1   -1    0    0    0  501  0.00000000000E+00  0.00000000000E+00 -0.22904295150E+04  0.22904295150E+04  0.50400001928E-02 0.  1.
    10030    2    1    2    0    0  0.00000000000E+00  0.00000000000E+00 -0.97091147432E+03  0.36099475557E+04  0.34769314436E+04 0.  0.
        4    1    3    3  502    0 -0.26074326984E+03 -0.87787097800E+03  0.10487831741E+04  0.13923333889E+04  0.12699999809E+01 0. -1.
       -4    1    3    3    0  502  0.26074326984E+03  0.87787097800E+03 -0.20196946484E+04  0.22176141667E+04  0.12699999809E+01 0.  1.
</event>
<event>
 5   0  0.1866421E-07  0.3519946E+04  0.7818609E-02  0.8109079E-01
        1   -1    0    0  501    0  0.00000000000E+00  0.00000000000E+00  0.21058937696E+04  0.21058937696E+04  0.50400001928E-02 0.  1.
       -1   -1    0    0    0  501  0.00000000000E+00  0.00000000000E+00 -0.14708739138E+04  0.14708739138E+04  0.50400001928E-02 0. -1.
    10030    2    1    2    0    0  0.00000000000E+00  0.00000000000E+00  0.63501985585E+03  0.35767676834E+04  0.35199455740E+04 0.  0.
        1    1    3    3  502    0  0.13264107552E+04 -0.68851522362E+03  0.12620777460E+04  0.19560825498E+04  0.50400001928E-02 0.  1.
       -1    1    3    3    0  502 -0.13264107552E+04  0.68851522362E+03 -0.62705789017E+03  0.16206851336E+04  0.50400001928E-02 0. -1.
</event>
<event>
 5   0  0.1908190E-07  0.3494744E+04  0.7818609E-02  0.8115037E-01
       -1   -1    0    0    0  501  0.00000000000E+00  0.00000000000E+00  0.11613259445E+04  0.11613259445E+04  0.50400001928E-02 0. -1.
        1   -1    0    0  501    0  0.00000000000E+00  0.00000000000E+00 -0.26291583164E+04  0.26291583164E+04  0.50400001928E-02 0.  1.
    10030    2    1    2    0    0  0.00000000000E+00  0.00000000000E+00 -0.14678323719E+04  0.37904842609E+04  0.34947444914E+04 0.  0.
        5    1    3    3  502    0  0.15216763391E+04 -0.65584063292E+03 -0.13230472924E+03  0.16622732772E+04  0.46999998093E+01 0. -1.
       -5    1    3    3    0  502 -0.15216763391E+04  0.65584063292E+03 -0.13355276427E+04  0.21282109837E+04  0.46999998093E+01 0.  1.
</event>
<event>
 5   0  0.5573334E-07  0.3378490E+04  0.7818609E-02  0.8143206E-01
        2   -1    0    0  501    0  0.00000000000E+00  0.00000000000E+00  0.80853595874E+03  0.80853595875E+03  0.25500000920E-02 0.  1.
       -2   -1    0    0    0  501  0.00000000000E+00  0.00000000000E+00 -0.35292782313E+04  0.35292782313E+04  0.25500000920E-02 0. -1.
    10030    2    1    2    0    0  0.00000000000E+00  0.00000000000E+00 -0.27207422726E+04  0.43378141901E+04  0.33784898156E+04 0.  0.
        4    1    3    3  502    0  0.13061345285E+04  0.15273947795E+03 -0.27217403162E+04  0.30227783108E+04  0.12699999809E+01 0. -1.
       -4    1    3    3    0  502 -0.13061345285E+04 -0.15273947795E+03  0.99804356573E+00  0.13150358793E+04  0.12699999809E+01 0.  1.
</event>
<event>
 5   0  0.1897049E-07  0.3488400E+04  0.7818609E-02  0.8116544E-01
        1   -1    0    0  501    0  0.00000000000E+00  0.00000000000E+00  0.29912098412E+04  0.29912098412E+04  0.50400001928E-02 0.  1.
       -1   -1    0    0    0  501  0.00000000000E+00  0.00000000000E+00 -0.10170581591E+04  0.10170581592E+04  0.50400001928E-02 0. -1.
    10030    2    1    2    0    0  0.00000000000E+00  0.00000000000E+00  0.19741516820E+04  0.40082680004E+04  0.34884004212E+04 0.  0.
        2    1    3    3  502    0  0.35995833931E+03  0.24325741814E+03 -0.95389322435E+03  0.10481681454E+04  0.25500000920E-02 0. -1.
       -2    1    3    3    0  502 -0.35995833931E+03 -0.24325741814E+03  0.29280449064E+04  0.29600998550E+04  0.25500000920E-02 0.  1.
</event>
<event>
 5   0  0.5740827E-07  0.3514494E+04  0.7818609E-02  0.8110364E-01
       -2   -1    0    0    0  501  0.00000000000E+00  0.00000000000E+00  0.18726362018E+04  0.18726362018E+04  0.25500000920E-02 0. -1.
        2   -1    0    0  501    0  0.00000000000E+00  0.00000000000E+00 -0.16489675369E+04  0.16489675369E+04  0.25500000920E-02 0.  1.
    10030    2    1    2    0    0  0.00000000000E+00  0.00000000000E+00  0.22366866491E+03  0.35216037387E+04  0.35144935937E+04 0.  0.
        2    1    3    3  502    0  0.43407788273E+03  0.10290840116E+04  0.14712214163E+04  0.18471410252E+04  0.25500000920E-02 0. -1.
       -2    1    3    3    0  502 -0.43407788273E+03 -0.10290840116E+04 -0.12475527514E+04  0.16744627134E+04  0.25500000920E-02 0.  1.
</event>
<event>
 5   0  0.5707187E-07  0.3499353E+04  0.7818609E-02  0.8113943E-01
       -2   -1    0    0    0  501  0.00000000000E+00  0.00000000000E+00  0.17810575155E+04  0.17810575155E+04  0.25500000920E-02 0. -1.
        2   -1    0    0  501    0  0.00000000000E+00  0.00000000000E+00 -0.17188486360E+04  0.17188486360E+04  0.25500000920E-02 0.  1.
    10030    2    1    2    0    0  0.00000000000E+00  0.00000000000E+00  0.62208879474E+02  0.34999061515E+04  0.34993532437E+04 0.  0.
        1    1    3    3  502    0 -0.97953098298E+03  0.62591032465E+03  0.13390280046E+04  0.17732006875E+04  0.50400001928E-02 0. -1.
       -1    1    3    3    0  502  0.97953098298E+03 -0.62591032465E+03 -0.12768191251E+04  0.17267054640E+04  0.50400001928E-02 0.  1.
</event>
<event>
 5   0  0.5554745E-07  0.3422969E+04  0.7818609E-02  0.8132292E-01
       -2   -1    0    0    0  501  0.00000000000E+00  0.00000000000E+00  0.12707383429E+04  0.12707383429E+04  0.25500000920E-02 0. -1.
        2   -1    0    0  501    0  0.00000000000E+00  0.00000000000E+00 -0.23050999213E+04  0.23050999213E+04  0.25500000920E-02 0.  1.
    10030    2    1    2    0    0  0.00000000000E+00  0.00000000000E+00 -0.10343615784E+04  0.35758382643E+04  0.34229688017E+04 0.  0.
        5    1    3    3  502    0 -0.71683095399E+02 -0.10603137984E+04 -0.19186429398E+04  0.21933117968E+04  0.46999998093E+01 0.  1.
       -5    1    3    3    0  502  0.71683095399E+02  0.10603137984E+04  0.88428136142E+03  0.13825264675E+04  0.46999998093E+01 0. -1.
</event>
<event>
 5   0  0.1897049E-07  0.3507859E+04  0.7818609E-02  0.8111930E-01
        1   -1    0    0  501    0  0.00000000000E+00  0.00000000000E+00  0.18122050639E+04  0.18122050639E+04  0.50400001928E-02 0. -1.
       -1   -1    0    0    0  501  0.00000000000E+00  0.00000000000E+00 -0.16975283731E+04  0.16975283731E+04  0.50400001928E-02 0.  1.
    10030    2    1    2    0    0  0.00000000000E+00  0.00000000000E+00  0.11467669084E+03  0.35097334370E+04  0.35078594691E+04 0.  0.
        2    1    3    3  502    0  0.12509315497E+04 -0.84589010426E+03 -0.83527596752E+03  0.17257015248E+04  0.25500000920E-02 0. -1.
       -2    1    3    3    0  502 -0.12509315497E+04  0.84589010426E+03  0.94995265836E+03  0.17840319122E+04  0.25500000920E-02 0.  1.
</event>
<event>
 5   0  0.1933647E-07  0.3508495E+04  0.7818609E-02  0.8111780E-01
        1   -1    0    0  501    0  0.00000000000E+00  0.00000000000E+00  0.26545493998E+04  0.26545493998E+04  0.50400001928E-02 0. -1.
       -1   -1    0    0    0  501  0.00000000000E+00  0.00000000000E+00 -0.11592867832E+04  0.11592867832E+04  0.50400001928E-02 0.  1.
    10030    2    1    2    0    0  0.00000000000E+00  0.00000000000E+00  0.14952626166E+04  0.38138361829E+04  0.35084948536E+04 0.  0.
        4    1    3    3  502    0  0.12677486508E+04  0.11871501182E+04  0.10158222995E+04  0.20120657549E+04  0.12699999809E+01 0. -1.
       -4    1    3    3    0  502 -0.12677486508E+04 -0.11871501182E+04  0.47944031712E+03  0.18017704281E+04  0.12699999809E+01 0.  1.
</event>
<event>
 5   0  0.5573334E-07  0.3485010E+04  0.7818609E-02  0.8117352E-01
        2   -1    0    0  501    0  0.00000000000E+00  0.00000000000E+00  0.18944025580E+04  0.18944025580E+04  0.25500000920E-02 0.  1.
       -2   -1    0    0    0  501  0.00000000000E+00  0.00000000000E+00 -0.16027867548E+04  0.16027867549E+04  0.25500000920E-02 0. -1.
    10030    2    1    2    0    0  0.00000000000E+00  0.00000000000E+00  0.29161580315E+03  0.34971893129E+04  0.34850098010E+04 0.  0.
        4    1    3    3  502    0  0.37525738214E+03 -0.16887202642E+04 -0.64034077273E+02  0.17310968227E+04  0.12699999809E+01 0.  1.
       -4    1    3    3    0  502 -0.37525738214E+03  0.16887202642E+04  0.35564988043E+03  0.17660924902E+04  0.12699999809E+01 0. -1.
</event>
<event>
 5   0  0.5677193E-07  0.3477761E+04  0.7818609E-02  0.8119080E-01
        2   -1    0    0  501    0  0.00000000000E+00  0.00000000000E+00  0.12255177280E+04  0.12255177280E+04  0.25500000920E-02 0. -1.
       -2   -1    0    0    0  501  0.00000000000E+00  0.00000000000E+00 -0.24672887707E+04  0.24672887707E+04  0.25500000920E-02 0.  1.
    10030    2    1    2    0    0  0.00000000000E+00  0.00000000000E+00 -0.12417710428E+04  0.36928064987E+04  0.34777614228E+04 0.  0.
        3    1    3    3  502    0 -0.78300829661E+03  0.84300717919E+03 -0.20053249141E+04  0.23119453104E+04  0.10100000352E+00 0.  1.
       -3    1    3    3    0  502  0.78300829661E+03 -0.84300717919E+03  0.76355387136E+03  0.13808611883E+04  0.10100000352E+00 0. -1.
</event>
<event>
 5   0  0.1866421E-07  0.3488341E+04  0.7818609E-02  0.8116559E-01
        1   -1    0    0  501    0  0.00000000000E+00  0.00000000000E+00  0.14636912044E+04  0.14636912044E+04  0.50400001928E-02 0. -1.
       -1   -1    0    0    0  501  0.00000000000E+00  0.00000000000E+00 -0.20783960197E+04  0.20783960197E+04  0.50400001928E-02 0.  1.
    10030    2    1    2    0    0  0.00000000000E+00  0.00000000000E+00 -0.61470481535E+03  0.35420872241E+04  0.34883405644E+04 0.  0.
        1    1    3    3  502    0  0.28363947232E+03 -0.54425793618E+03 -0.19651313342E+04  0.20587397145E+04  0.50400001928E-02 0.  1.
       -1    1    3    3    0  502 -0.28363947232E+03  0.54425793618E+03  0.13504265189E+04  0.14833475096E+04  0.50400001928E-02 0. -1.
</event>
<event>
 5   0  0.1873457E-07  0.3414742E+04  0.7818609E-02  0.8134297E-01
       -1   -1    0    0    0  501  0.00000000000E+00  0.00000000000E+00  0.22534512725E+04  0.22534512725E+04  0.50400001928E-02 0. -1.
        1   -1    0    0  501    0  0.00000000000E+00  0.00000000000E+00 -0.12936230602E+04  0.12936230602E+04  0.50400001928E-02 0.  1.
    10030    2    1    2    0    0  0.00000000000E+00  0.00000000000E+00  0.95982821236E+03  0.35470743327E+04  0.34147424683E+04 0.  0.
        3    1    3    3  502    0 -0.15744390042E+04  0.12189649999E+03  0.11542237739E+04  0.19560034420E+04  0.10100000352E+00 0. -1.
       -3    1    3    3    0  502  0.15744390042E+04 -0.12189649999E+03 -0.19439556153E+03  0.15910708907E+04  0.10100000352E+00 0.  1.
</event>
<event>
 5   0  0.1897049E-07  0.3491605E+04  0.7818609E-02  0.8115782E-01
       -1   -1    0    0    0  501  0.00000000000E+00  0.00000000000E+00  0.28105908272E+04  0.28105908272E+04  0.50400001928E-02 0.  1.
        1   -1    0    0  501    0  0.00000000000E+00  0.00000000000E+00 -0.10844079248E+04  0.10844079248E+04  0.50400001928E-02 0. -1.
    10030    2    1    2    0    0  0.00000000000E+00  0.00000000000E+00  0.17261829024E+04  0.38949987520E+04  0.34916053422E+04 0.  0.
        2    1    3    3  502    0  0.29783086038E+03  0.81562079168E+03  0.25526301098E+04  0.26962679716E+04  0.25500000920E-02 0.  1.
       -2    1    3    3    0  502 -0.29783086038E+03 -0.81562079168E+03 -0.82644720741E+03  0.11987307804E+04  0.25500000920E-02 0. -1.
</event>
<event>
 5   0  0.1897049E-07  0.3277352E+04  0.7818609E-02  0.8168682E-01
       -1   -1    0    0    0  501  0.00000000000E+00  0.00000000000E+00  0.12655979530E+04  0.12655979530E+04  0.50400001928E-02 0. -1.
        1   -1    0    0  501    0  0.00000000000E+00  0.00000000000E+00 -0.21217316582E+04  0.21217316582E+04  0.50400001928E-02 0.  1.
    10030    2    1    2    0    0  0.00000000000E+00  0.00000000000E+00 -0.85613370524E+03  0.33873296112E+04  0.32773521285E+04 0.  0.
        2    1    3    3  502    0  0.10818086746E+04 -0.11522557118E+04  0.19185089493E+02  0.15806237065E+04  0.25500000920E-02 0.  1.
       -2    1    3    3    0  502 -0.10818086746E+04  0.11522557118E+04 -0.87531879473E+03  0.18067059048E+04  0.25500000920E-02 0. -1.
</event>
<event>
 5   0  0.5554745E-07  0.3480966E+04  0.7818609E-02  0.8118316E-01
        2   -1    0    0  501    0  0.00000000000E+00  0.00000000000E+00  0.20099687864E+04  0.20099687864E+04  0.25500000920E-02 0.  1.
       -2   -1    0    0    0  501  0.00000000000E+00  0.00000000000E+00 -0.15071284610E+04  0.15071284610E+04  0.25500000920E-02 0. -1.
    10030    2    1    2    0    0  0.00000000000E+00  0.00000000000E+00  0.50284032539E+03  0.35170972475E+04  0.34809660520E+04 0.  0.
        5    1    3    3  502    0 -0.17033871626E+04  0.35051766299E+03  0.18092044828E+03  0.17484692609E+04  0.46999998093E+01 0.  1.
       -5    1    3    3    0  502  0.17033871626E+04 -0.35051766299E+03  0.32191987711E+03  0.17686279866E+04  0.46999998093E+01 0. -1.
</event>
<event>
 5   0  0.1908190E-07  0.3601776E+04  0.7818609E-02  0.8090085E-01
        1   -1    0    0  501    0  0.00000000000E+00  0.00000000000E+00  0.13236456846E+04  0.13236456846E+04  0.50400001928E-02 0.  1.
       -1   -1    0    0    0  501  0.00000000000E+00  0.00000000000E+00 -0.24502008118E+04  0.24502008118E+04  0.50400001928E-02 0. -1.
    10030    2    1    2    0    0  0.00000000000E+00  0.00000000000E+00 -0.11265551272E+04  0.37738464964E+04  0.36017760791E+04 0.  0.
        5    1    3    3  502    0  0.33052943011E+03  0.17689910102E+04 -0.63431587191E+03  0.19081293493E+04  0.46999998093E+01 0. -1.
       -5    1    3    3    0  502 -0.33052943011E+03 -0.17689910102E+04 -0.49223925527E+03  0.18657171471E+04  0.46999998093E+01 0.  1.
</event>
<event>
 5   0  0.1873457E-07  0.3392908E+04  0.7818609E-02  0.8139649E-01
       -1   -1    0    0    0  501  0.00000000000E+00  0.00000000000E+00  0.20039180903E+04  0.20039180903E+04  0.50400001928E-02 0. -1.
        1   -1    0    0  501    0  0.00000000000E+00  0.00000000000E+00 -0.14361642096E+04  0.14361642096E+04  0.50400001928E-02 0.  1.
    10030    2    1    2    0    0  0.00000000000E+00  0.00000000000E+00  0.56775388070E+03  0.34400823000E+04  0.33929075675E+04 0.  0.
        3    1    3    3  502    0  0.13993302739E+04  0.72129181368E+03  0.92477998674E+03  0.18258162914E+04  0.10100000352E+00 0. -1.
       -3    1    3    3    0  502 -0.13993302739E+04 -0.72129181368E+03 -0.35702610605E+03  0.16142660086E+04  0.10100000352E+00 0.  1.
</event>
<event>
 5   0  0.1908190E-07  0.3466972E+04  0.7818609E-02  0.8121662E-01
       -1   -1    0    0    0  501  0.00000000000E+00  0.00000000000E+00  0.22929552146E+04  0.22929552146E+04  0.50400001928E-02 0. -1.
        1   -1    0    0  501    0  0.00000000000E+00  0.00000000000E+00 -0.13105245741E+04  0.13105245741E+04  0.50400001928E-02 0.  1.
    10030    2    1    2    0    0  0.00000000000E+00  0.00000000000E+00  0.98243064046E+03  0.36034797887E+04  0.34669722560E+04 0.  0.
        5    1    3    3  502    0  0.21431492964E+03  0.98509867676E+02  0.22761916033E+04  0.22883848864E+04  0.46999998093E+01 0. -1.
       -5    1    3    3    0  502 -0.21431492964E+03 -0.98509867676E+02 -0.12937609629E+04  0.13150949023E+04  0.46999998093E+01 0.  1.
</event>
<event>
 5   0  0.1866421E-07  0.3495387E+04  0.7818609E-02  0.8114884E-01
        1   -1    0    0  501    0  0.00000000000E+00  0.00000000000E+00  0.22571668777E+04  0.22571668777E+04  0.50400001928E-02 0. -1.
       -1   -1    0    0    0  501  0.00000000000E+00  0.00000000000E+00 -0.13532148515E+04  0.13532148515E+04  0.50400001928E-02 0.  1.
    10030    2    1    2    0    0  0.00000000000E+00  0.00000000000E+00  0.90395202617E+03  0.36103817292E+04  0.34953865258E+04 0.  0.
        1    1    3    3  502    0 -0.18188437868E+03 -0.16652759496E+04 -0.62617017900E+02  0.16763492495E+04  0.50400001928E-02 0.  1.
       -1    1    3    3    0  502  0.18188437868E+03  0.16652759496E+04  0.96656904407E+03  0.19340324797E+04  0.50400001928E-02 0. -1.
</event>
<event>
 5   0  0.5740827E-07  0.3511212E+04  0.7818609E-02  0.8111138E-01
        2   -1    0    0  501    0  0.00000000000E+00  0.00000000000E+00  0.17442506347E+04  0.17442506347E+04  0.25500000920E-02 0. -1.
       -2   -1    0    0    0  501  0.00000000000E+00  0.00000000000E+00 -0.17670351710E+04  0.17670351710E+04  0.25500000920E-02 0.  1.
    10030    2    1    2    0    0  0.00000000000E+00  0.00000000000E+00 -0.22784536268E+02  0.35112858058E+04  0.35112118812E+04 0.  0.
        2    1    3    3  502    0 -0.89898711841E+03  0.14702746104E+04 -0.34646192794E+03  0.17578171511E+04  0.25500000920E-02 0.  1.
       -2    1    3    3    0  502  0.89898711841E+03 -0.14702746104E+04  0.32367739168E+03  0.17534686547E+04  0.25500000920E-02 0. -1.
</event>
<event>
 5   0  0.5707187E-07  0.3516439E+04  0.7818609E-02  0.8109905E-01
        2   -1    0    0  501    0  0.00000000000E+00  0.00000000000E+00  0.22941234574E+04  0.22941234574E+04  0.25500000920E-02 0. -1.
       -2   -1    0    0    0  501  0.00000000000E+00  0.00000000000E+00 -0.13475017773E+04  0.13475017773E+04  0.25500000920E-02 0.  1.
    10030    2    1    2    0    0  0.00000000000E+00  0.00000000000E+00  0.94662168003E+03  0.36416252347E+04  0.35164387873E+04 0.  0.
        1    1    3    3  502    0  0.51550660580E+03 -0.16757372492E+04  0.61028067209E+03  0.18564172181E+04  0.50400001928E-02 0.  1.
       -1    1    3    3    0  502 -0.51550660580E+03  0.16757372492E+04  0.33634100795E+03  0.17852080166E+04  0.50400001928E-02 0. -1.
</event>
<event>
 5   0  0.1823000E-07  0.3318489E+04  0.7818609E-02  0.8158207E-01
       -3   -1    0    0    0  501  0.00000000000E+00  0.00000000000E+00  0.12671409060E+04  0.12671409101E+04  0.10100000352E+00 0.  1.
        3   -1    0    0  501    0  0.00000000000E+00  0.00000000000E+00 -0.21726806076E+04  0.21726806099E+04  0.10100000352E+00 0. -1.
    10030    2    1    2    0    0  0.00000000000E+00  0.00000000000E+00 -0.90553970151E+03  0.34398215200E+04  0.33184891047E+04 0.  0.
        4    1    3    3  502    0  0.37316197079E+03  0.11558722008E+04  0.71895876131E+03  0.14114509252E+04  0.12699999809E+01 0.  1.
       -4    1    3    3    0  502 -0.37316197079E+03 -0.11558722008E+04 -0.16244984628E+04  0.20283705947E+04  0.12699999809E+01 0. -1.
</event>
<event>
 5   0  0.1897049E-07  0.3499389E+04  0.7818609E-02  0.8113935E-01
        1   -1    0    0  501    0  0.00000000000E+00  0.00000000000E+00  0.21070215612E+04  0.21070215612E+04  0.50400001928E-02 0.  1.
       -1   -1    0    0    0  501  0.00000000000E+00  0.00000000000E+00 -0.14529662347E+04  0.14529662347E+04  0.50400001928E-02 0. -1.
    10030    2    1    2    0    0  0.00000000000E+00  0.00000000000E+00  0.65405532654E+03  0.35599877959E+04  0.34993891948E+04 0.  0.
        2    1    3    3  502    0  0.12050488652E+04 -0.58301043857E+03 -0.81915366073E+03  0.15694128389E+04  0.25500000920E-02 0. -1.
       -2    1    3    3    0  502 -0.12050488652E+04  0.58301043857E+03  0.14732089873E+04  0.19905749570E+04  0.25500000920E-02 0.  1.
</event>
<event>
 5   0  0.1873457E-07  0.3489021E+04  0.7818609E-02  0.8116397E-01
        1   -1    0    0  501    0  0.00000000000E+00  0.00000000000E+00  0.93895432981E+03  0.93895432983E+03  0.50400001928E-02 0. -1.
       -1   -1    0    0    0  501  0.00000000000E+00  0.00000000000E+00 -0.32411768623E+04  0.32411768623E+04  0.50400001928E-02 0.  1.
    10030    2    1    2    0    0  0.00000000000E+00  0.00000000000E+00 -0.23022225324E+04  0.41801311921E+04  0.34890210940E+04 0.  0.
        3    1    3    3  502    0 -0.62008559484E+03 -0.10990828295E+04 -0.25942040517E+04  0.28848542222E+04  0.10100000352E+00 0.  1.
       -3    1    3    3    0  502  0.62008559484E+03  0.10990828295E+04  0.29198151926E+03  0.12952769699E+04  0.10100000352E+00 0. -1.
</event>
<event>
 5   0  0.5740827E-07  0.3507700E+04  0.7818609E-02  0.8111968E-01
        2   -1    0    0  501    0  0.00000000000E+00  0.00000000000E+00  0.26927278827E+04  0.26927278828E+04  0.25500000920E-02 0. -1.
       -2   -1    0    0    0  501  0.00000000000E+00  0.00000000000E+00 -0.11423322889E+04  0.11423322889E+04  0.25500000920E-02 0.  1.
    10030    2    1    2    0    0  0.00000000000E+00  0.00000000000E+00  0.15503955939E+04  0.38350601717E+04  0.35077001044E+04 0.  0.
        2    1    3    3  502    0  0.10269339324E+04 -0.13492735275E+04  0.28520023662E+03  0.17194393064E+04  0.25500000920E-02 0.  1.
       -2    1    3    3    0  502 -0.10269339324E+04  0.13492735275E+04  0.12651953572E+04  0.21156208652E+04  0.25500000920E-02 0. -1.
</event>
<event>
 5   0  0.5707187E-07  0.3486651E+04  0.7818609E-02  0.8116961E-01
       -2   -1    0    0    0  501  0.00000000000E+00  0.00000000000E+00  0.96591753778E+03  0.96591753778E+03  0.25500000920E-02 0. -1.
        2   -1    0    0  501    0  0.00000000000E+00  0.00000000000E+00 -0.31464220181E+04  0.31464220181E+04  0.25500000920E-02 0.  1.
    10030    2    1    2    0    0  0.00000000000E+00  0.00000000000E+00 -0.21805044803E+04  0.41123395559E+04  0.34866512350E+04 0.  0.
        1    1    3    3  502    0  0.32021319036E+03 -0.16443160034E+04 -0.52108531130E+03  0.17543778122E+04  0.50400001928E-02 0. -1.
       -1    1    3    3    0  502 -0.32021319036E+03  0.16443160034E+04 -0.16594191690E+04  0.23579617437E+04  0.50400001928E-02 0.  1.
</event>
<event>
 5   0  0.1866421E-07  0.3568117E+04  0.7818609E-02  0.8097834E-01
        1   -1    0    0  501    0  0.00000000000E+00  0.00000000000E+00  0.18174612588E+04  0.18174612588E+04  0.50400001928E-02 0.  1.
       -1   -1    0    0    0  501  0.00000000000E+00  0.00000000000E+00 -0.17512695138E+04  0.17512695138E+04  0.50400001928E-02 0. -1.
    10030    2    1    2    0    0  0.00000000000E+00  0.00000000000E+00  0.66191744994E+02  0.35687307727E+04  0.35681168676E+04 0.  0.
        1    1    3    3  502    0 -0.14507415328E+04  0.23074377221E+03  0.10456784818E+04  0.18031464640E+04  0.50400001928E-02 0. -1.
       -1    1    3    3    0  502  0.14507415328E+04 -0.23074377221E+03 -0.97948673682E+03  0.17655843087E+04  0.50400001928E-02 0.  1.
</event>
<event>
 5   0  0.5740827E-07  0.3491292E+04  0.7818609E-02  0.8115857E-01
       -2   -1    0    0    0  501  0.00000000000E+00  0.00000000000E+00  0.14039896763E+04  0.14039896763E+04  0.25500000920E-02 0.  1.
        2   -1    0    0  501    0  0.00000000000E+00  0.00000000000E+00 -0.21704434235E+04  0.21704434235E+04  0.25500000920E-02 0. -1.
    10030    2    1    2    0    0  0.00000000000E+00  0.00000000000E+00 -0.76645374713E+03  0.35744330998E+04  0.34912921159E+04 0.  0.
        2    1    3    3  502    0 -0.39132616594E+03 -0.13816944661E+04  0.63291253803E+03  0.15693291709E+04  0.25500000920E-02 0.  1.
       -2    1    3    3    0  502  0.39132616594E+03  0.13816944661E+04 -0.13993662852E+04  0.20051039289E+04  0.25500000920E-02 0. -1.
</event>
<event>
 5   0  0.1933647E-07  0.3487011E+04  0.7818609E-02  0.8116875E-01
        1   -1    0    0  501    0  0.00000000000E+00  0.00000000000E+00  0.15142505852E+04  0.15142505852E+04  0.50400001928E-02 0.  1.
       -1   -1    0    0    0  501  0.00000000000E+00  0.00000000000E+00 -0.20074692319E+04  0.20074692319E+04  0.50400001928E-02 0. -1.
    10030    2    1    2    0    0  0.00000000000E+00  0.00000000000E+00 -0.49321864667E+03  0.35217198171E+04  0.34870110176E+04 0.  0.
        4    1    3    3  502    0  0.12100128397E+04  0.37596299345E+03  0.96294704872E+03  0.15914609251E+04  0.12699999809E+01 0.  1.
       -4    1    3    3    0  502 -0.12100128397E+04 -0.37596299345E+03 -0.14561656954E+04  0.19302588920E+04  0.12699999809E+01 0. -1.
</event>
<event>
 5   0  0.1873457E-07  0.3527791E+04  0.7818609E-02  0.8107235E-01
       -1   -1    0    0    0  501  0.00000000000E+00  0.00000000000E+00  0.31254332915E+04  0.31254332915E+04  0.50400001928E-02 0. -1.
        1   -1    0    0  501    0  0.00000000000E+00  0.00000000000E+00 -0.99548683715E+03  0.99548683716E+03  0.50400001928E-02 0.  1.
    10030    2    1    2    0    0  0.00000000000E+00  0.00000000000E+00  0.21299464544E+04  0.41209201287E+04  0.35277912082E+04 0.  0.
        3    1    3    3  502    0 -0.24731842860E+03 -0.16469456249E+04  0.17438282580E+04  0.24113343402E+04  0.10100000352E+00 0. -1.
       -3    1    3    3    0  502  0.24731842860E+03  0.16469456249E+04  0.38611819634E+03  0.17095857885E+04  0.10100000352E+00 0.  1.
</event>
<event>
 5   0  0.5554745E-07  0.3507094E+04  0.7818609E-02  0.8112111E-01
        2   -1    0    0  501    0  0.00000000000E+00  0.00000000000E+00  0.20341221689E+04  0.20341221689E+04  0.25500000920E-02 0. -1.
       -2   -1    0    0    0  501  0.00000000000E+00  0.00000000000E+00 -0.15116728717E+04  0.15116728717E+04  0.25500000920E-02 0.  1.
    10030    2    1    2    0    0  0.00000000000E+00  0.00000000000E+00  0.52244929715E+03  0.35457950406E+04  0.35070941251E+04 0.  0.
        5    1    3    3  502    0 -0.12868156133E+04 -0.80559946299E+03  0.11484159841E+04  0.19036192581E+04  0.46999998093E+01 0. -1.
       -5    1    3    3    0  502  0.12868156133E+04  0.80559946299E+03 -0.62596668699E+03  0.16421757825E+04  0.46999998093E+01 0.  1.
</event>
<event>
 5   0  0.5740827E-07  0.3455356E+04  0.7818609E-02  0.8124452E-01
        2   -1    0    0  501    0  0.00000000000E+00  0.00000000000E+00  0.21957649043E+04  0.21957649043E+04  0.25500000920E-02 0.  1.
       -2   -1    0    0    0  501  0.00000000000E+00  0.00000000000E+00 -0.13593766376E+04  0.13593766376E+04  0.25500000920E-02 0. -1.
    10030    2    1    2    0    0  0.00000000000E+00  0.00000000000E+00  0.83638826666E+03  0.35551415419E+04  0.34553561394E+04 0.  0.
        2    1    3    3  502    0 -0.11998556977E+04  0.12427675542E+04  0.39008063530E+03  0.17709567446E+04  0.25500000920E-02 0. -1.
       -2    1    3    3    0  502  0.11998556977E+04 -0.12427675542E+04  0.44630763136E+03  0.17841847973E+04  0.25500000920E-02 0.  1.
</event>
<event>
 5   0  0.1823000E-07  0.3483927E+04  0.7818609E-02  0.8117610E-01
       -3   -1    0    0    0  501  0.00000000000E+00  0.00000000000E+00  0.16083373393E+04  0.16083373425E+04  0.10100000352E+00 0.  1.
        3   -1    0    0  501    0  0.00000000000E+00  0.00000000000E+00 -0.18866915512E+04  0.18866915539E+04  0.10100000352E+00 0. -1.
    10030    2    1    2    0    0  0.00000000000E+00  0.00000000000E+00 -0.27835421188E+03  0.34950288963E+04  0.34839267959E+04 0.  0.
        2    1    3    3  502    0  0.94696434225E+03  0.12135990336E+04 -0.95717258272E+03  0.18126619743E+04  0.25500000920E-02 0. -1.
       -2    1    3    3    0  502 -0.94696434225E+03 -0.12135990336E+04  0.67881837084E+03  0.16823669221E+04  0.25500000920E-02 0.  1.
</event>
<event>
 5   0  0.1897049E-07  0.3573126E+04  0.7818609E-02  0.8096675E-01
       -1   -1    0    0    0  501  0.00000000000E+00  0.00000000000E+00  0.12224623303E+04  0.12224623303E+04  0.50400001928E-02 0. -1.
        1   -1    0    0  501    0  0.00000000000E+00  0.00000000000E+00 -0.26109663125E+04  0.26109663125E+04  0.50400001928E-02 0.  1.
    10030    2    1    2    0    0  0.00000000000E+00  0.00000000000E+00 -0.13885039822E+04  0.38334286429E+04  0.35731263414E+04 0.  0.
        2    1    3    3  502    0 -0.45721686040E+03 -0.56160911950E+03  0.10579311380E+04  0.12820570788E+04  0.25500000920E-02 0. -1.
       -2    1    3    3    0  502  0.45721686040E+03  0.56160911950E+03 -0.24464351202E+04  0.25513715641E+04  0.25500000920E-02 0.  1.
</event>
<event>
 5   0  0.1866421E-07  0.3341209E+04  0.7818609E-02  0.8152488E-01
        1   -1    0    0  501    0  0.00000000000E+00  0.00000000000E+00  0.21913864887E+04  0.21913864887E+04  0.50400001928E-02 0. -1.
       -1   -1    0    0    0  501  0.00000000000E+00  0.00000000000E+00 -0.12735862505E+04  0.12735862505E+04  0.50400001928E-02 0.  1.
    10030    2    1    2    0    0  0.00000000000E+00  0.00000000000E+00  0.91780023819E+03  0.34649727393E+04  0.33412091833E+04 0.  0.
        1    1    3    3  502    0  0.40588969700E+03  0.53161112017E+03  0.20464758831E+04  0.21530026403E+04  0.50400001928E-02 0. -1.
       -1    1    3    3    0  502 -0.40588969700E+03 -0.53161112017E+03 -0.11286756449E+04  0.13119700990E+04  0.50400001928E-02 0.  1.
</event>
<event>
 5   0  0.5740827E-07  0.3508685E+04  0.7818609E-02  0.8111735E-01
        2   -1    0    0  501    0  0.00000000000E+00  0.00000000000E+00  0.28127261236E+04  0.28127261236E+04  0.25500000920E-02 0.  1.
       -2   -1    0    0    0  501  0.00000000000E+00  0.00000000000E+00 -0.10942116420E+04  0.10942116420E+04  0.25500000920E-02 0. -1.
    10030    2    1    2    0    0  0.00000000000E+00  0.00000000000E+00  0.17185144816E+04  0.39069377657E+04  0.35086850359E+04 0.  0.
        2    1    3    3  502    0 -0.13395234609E+04  0.11255547503E+04  0.71613365025E+03  0.18905142166E+04  0.25500000920E-02 0. -1.
       -2    1    3    3    0  502  0.13395234609E+04 -0.11255547503E+04  0.10023808314E+04  0.20164235491E+04  0.25500000920E-02 0.  1.
</event>
<event>
 5   0  0.1866421E-07  0.3505606E+04  0.7818609E-02  0.8112463E-01
       -1   -1    0    0    0  501  0.00000000000E+00  0.00000000000E+00  0.13676643908E+04  0.13676643908E+04  0.50400001928E-02 0.  1.
        1   -1    0    0  501    0  0.00000000000E+00  0.00000000000E+00 -0.22463973772E+04  0.22463973772E+04  0.50400001928E-02 0. -1.
    10030    2    1    2    0    0  0.00000000000E+00  0.00000000000E+00 -0.87873298636E+03  0.36140617680E+04  0.35056056255E+04 0.  0.
        1    1    3    3  502    0  0.16747482559E+04 -0.25460653949E+03  0.24797765980E+02  0.16941727007E+04  0.50400001928E-02 0.  1.
       -1    1    3    3    0  502 -0.16747482559E+04  0.25460653949E+03 -0.90353075234E+03  0.19198890673E+04  0.50400001928E-02 0. -1.
</event>
<event>
 5   0  0.5554745E-07  0.3533367E+04  0.7818609E-02  0.8105928E-01
       -2   -1    0    0    0  501  0.00000000000E+00  0.00000000000E+00  0.17518054489E+04  0.17518054489E+04  0.25500000920E-02 0. -1.
        2   -1    0    0  501    0  0.00000000000E+00  0.00000000000E+00 -0.17816879586E+04  0.17816879586E+04  0.25500000920E-02 0.  1.
    10030    2    1    2    0    0  0.00000000000E+00  0.00000000000E+00 -0.29882509716E+02  0.35334934075E+04  0.35333670481E+04 0.  0.
        5    1    3    3  502    0  0.80671762156E+03  0.54693506691E+03  0.14586165457E+04  0.17542849272E+04  0.46999998093E+01 0. -1.
       -5    1    3    3    0  502 -0.80671762156E+03 -0.54693506691E+03 -0.14884990554E+04  0.17792084803E+04  0.46999998093E+01 0.  1.
</event>
<event>
 5   0  0.1873457E-07  0.3175955E+04  0.7818609E-02  0.8195196E-01
        1   -1    0    0  501    0  0.00000000000E+00  0.00000000000E+00  0.16614866871E+04  0.16614866872E+04  0.50400001928E-02 0. -1.
       -1   -1    0    0    0  501  0.00000000000E+00  0.00000000000E+00 -0.15177205325E+04  0.15177205325E+04  0.50400001928E-02 0.  1.
    10030    2    1    2    0    0  0.00000000000E+00  0.00000000000E+00  0.14376615463E+03  0.31792072197E+04  0.31759549491E+04 0.  0.
        3    1    3    3  502    0 -0.11164546445E+04  0.32303445262E+03  0.11550494616E+04  0.16385852128E+04  0.10100000352E+00 0. -1.
       -3    1    3    3    0  502  0.11164546445E+04 -0.32303445262E+03 -0.10112833069E+04  0.15406220068E+04  0.10100000352E+00 0.  1.
</event>
<event>
 5   0  0.1823000E-07  0.3478353E+04  0.7818609E-02  0.8118939E-01
        3   -1    0    0  501    0  0.00000000000E+00  0.00000000000E+00  0.14844952625E+04  0.14844952660E+04  0.10100000352E+00 0. -1.
       -3   -1    0    0    0  501  0.00000000000E+00  0.00000000000E+00 -0.20375512210E+04  0.20375512235E+04  0.10100000352E+00 0.  1.
    10030    2    1    2    0    0  0.00000000000E+00  0.00000000000E+00 -0.55305595852E+03  0.35220464895E+04  0.34783531421E+04 0.  0.
        5    1    3    3  502    0 -0.15563954765E+04  0.90682483108E+02  0.50394800654E+03  0.16384675387E+04  0.46999998093E+01 0.  1.
       -5    1    3    3    0  502  0.15563954765E+04 -0.90682483108E+02 -0.10570039651E+04  0.18835789508E+04  0.46999998093E+01 0. -1.
</event>
<event>
 5   0  0.1908190E-07  0.3504672E+04  0.7818609E-02  0.8112684E-01
        1   -1    0    0  501    0  0.00000000000E+00  0.00000000000E+00  0.20316632267E+04  0.20316632267E+04  0.50400001928E-02 0.  1.
       -1   -1    0    0    0  501  0.00000000000E+00  0.00000000000E+00 -0.15114127775E+04  0.15114127776E+04  0.50400001928E-02 0. -1.
    10030    2    1    2    0    0  0.00000000000E+00  0.00000000000E+00  0.52025044918E+03  0.35430760043E+04  0.35046721733E+04 0.  0.
        5    1    3    3  502    0 -0.22279975306E+03 -0.95528222294E+03  0.17280889385E+04  0.19870876490E+04  0.46999998093E+01 0.  1.
       -5    1    3    3    0  502  0.22279975306E+03  0.95528222294E+03 -0.12078384893E+04  0.15559883553E+04  0.46999998093E+01 0. -1.
</event>
<event>
 5   0  0.5740827E-07  0.3483792E+04  0.7818609E-02  0.8117642E-01
        2   -1    0    0  501    0  0.00000000000E+00  0.00000000000E+00  0.27912594901E+04  0.27912594901E+04  0.25500000920E-02 0.  1.
       -2   -1    0    0    0  501  0.00000000000E+00  0.00000000000E+00 -0.10870368822E+04  0.10870368822E+04  0.25500000920E-02 0. -1.
    10030    2    1    2    0    0  0.00000000000E+00  0.00000000000E+00  0.17042226079E+04  0.38782963723E+04  0.34837921944E+04 0.  0.
        2    1    3    3  502    0 -0.16764696861E+04  0.46793542754E+03  0.92833239689E+03  0.19726416836E+04  0.25500000920E-02 0. -1.
       -2    1    3    3    0  502  0.16764696861E+04 -0.46793542754E+03  0.77589021105E+03  0.19056546887E+04  0.25500000920E-02 0.  1.
</event>
<event>
 5   0  0.1866421E-07  0.3495399E+04  0.7818609E-02  0.8114881E-01
       -1   -1    0    0    0  501  0.00000000000E+00  0.00000000000E+00  0.28004780481E+04  0.28004780481E+04  0.50400001928E-02 0.  1.
        1   -1    0    0  501    0  0.00000000000E+00  0.00000000000E+00 -0.10906900422E+04  0.10906900422E+04  0.50400001928E-02 0. -1.
    10030    2    1    2    0    0  0.00000000000E+00  0.00000000000E+00  0.17097880059E+04  0.38911680903E+04  0.34953989875E+04 0.  0.
        1    1    3    3  502    0 -0.12611599264E+04 -0.87274515301E+03  0.17877778678E+04  0.23554953124E+04  0.50400001928E-02 0. -1.
       -1    1    3    3    0  502  0.12611599264E+04  0.87274515301E+03 -0.77989861905E+02  0.15356727779E+04  0.50400001928E-02 0.  1.
</event>
<event>
 5   0  0.5740827E-07  0.3467513E+04  0.7818609E-02  0.8121532E-01
       -2   -1    0    0    0  501  0.00000000000E+00  0.00000000000E+00  0.13113446905E+04  0.13113446905E+04  0.25500000920E-02 0. -1.
        2   -1    0    0  501    0  0.00000000000E+00  0.00000000000E+00 -0.22922359895E+04  0.22922359895E+04  0.25500000920E-02 0.  1.
    10030    2    1    2    0    0  0.00000000000E+00  0.00000000000E+00 -0.98089129906E+03  0.36035806800E+04  0.34675129382E+04 0.  0.
        2    1    3    3  502    0 -0.73199433721E+03 -0.76700530966E+03 -0.19160622201E+04  0.21898418405E+04  0.25500000920E-02 0.  1.
       -2    1    3    3    0  502  0.73199433721E+03  0.76700530966E+03  0.93517092108E+03  0.14137388395E+04  0.25500000920E-02 0. -1.
</event>
<event>
 5   0  0.1897049E-07  0.3523365E+04  0.7818609E-02  0.8108275E-01
       -1   -1    0    0    0  501  0.00000000000E+00  0.00000000000E+00  0.10481115295E+04  0.10481115295E+04  0.50400001928E-02 0. -1.
        1   -1    0    0  501    0  0.00000000000E+00  0.00000000000E+00 -0.29610647479E+04  0.29610647479E+04  0.50400001928E-02 0.  1.
    10030    2    1    2    0    0  0.00000000000E+00  0.00000000000E+00 -0.19129532184E+04  0.40091762774E+04  0.35233654944E+04 0.  0.
        2    1    3    3  502    0 -0.83717775594E+03  0.30355299564E+03 -0.26861012323E+04  0.28298676377E+04  0.25500000920E-02 0.  1.
       -2    1    3    3    0  502  0.83717775594E+03 -0.30355299564E+03  0.77314801395E+03  0.11793086397E+04  0.25500000920E-02 0. -1.
</event>
<event>
 5   0  0.1897049E-07  0.3506635E+04  0.7818609E-02  0.8112219E-01
       -1   -1    0    0    0  501  0.00000000000E+00  0.00000000000E+00  0.11754524629E+04  0.11754524629E+04  0.50400001928E-02 0.  1.
        1   -1    0    0  501    0  0.00000000000E+00  0.00000000000E+00 -0.26152675660E+04  0.26152675660E+04  0.50400001928E-02 0. -1.
    10030    2    1    2    0    0  0.00000000000E+00  0.00000000000E+00 -0.14398151031E+04  0.37907200289E+04  0.35066352542E+04 0.  0.
        2    1    3    3  502    0  0.65377398210E+03  0.15908301223E+04 -0.35178824374E+03  0.17555386256E+04  0.25500000920E-02 0. -1.
       -2    1    3    3    0  502 -0.65377398210E+03 -0.15908301223E+04 -0.10880268593E+04  0.20351814033E+04  0.25500000920E-02 0.  1.
</event>
<event>
 5   0  0.1933647E-07  0.3509398E+04  0.7818609E-02  0.8111566E-01
       -1   -1    0    0    0  501  0.00000000000E+00  0.00000000000E+00  0.14198378671E+04  0.14198378671E+04  0.50400001928E-02 0.  1.
        1   -1    0    0  501    0  0.00000000000E+00  0.00000000000E+00 -0.21685356204E+04  0.21685356204E+04  0.50400001928E-02 0. -1.
    10030    2    1    2    0    0  0.00000000000E+00  0.00000000000E+00 -0.74869775326E+03  0.35883734875E+04  0.35093982334E+04 0.  0.
        4    1    3    3  502    0  0.11163837365E+04 -0.10086763119E+04 -0.12975667798E+04  0.19868119463E+04  0.12699999809E+01 0. -1.
       -4    1    3    3    0  502 -0.11163837365E+04  0.10086763119E+04  0.54886902651E+03  0.16015615412E+04  0.12699999809E+01 0.  1.
</event>
<event>
 5   0  0.1933647E-07  0.3461275E+04  0.7818609E-02  0.8123029E-01
        1   -1    0    0  501    0  0.00000000000E+00  0.00000000000E+00  0.15847976905E+04  0.15847976905E+04  0.50400001928E-02 0. -1.
       -1   -1    0    0    0  501  0.00000000000E+00  0.00000000000E+00 -0.18898985424E+04  0.18898985424E+04  0.50400001928E-02 0.  1.
    10030    2    1    2    0    0  0.00000000000E+00  0.00000000000E+00 -0.30510085185E+03  0.34746962329E+04  0.34612753980E+04 0.  0.
        4    1    3    3  502    0  0.15357504849E+04  0.74093879916E+03  0.14454535748E+03  0.17112611809E+04  0.12699999809E+01 0. -1.
       -4    1    3    3    0  502 -0.15357504849E+04 -0.74093879916E+03 -0.44964620933E+03  0.17634350520E+04  0.12699999809E+01 0.  1.
</event>
<event>
 5   0  0.1908190E-07  0.3424939E+04  0.7818609E-02  0.8131812E-01
        1   -1    0    0  501    0  0.00000000000E+00  0.00000000000E+00  0.12837110934E+04  0.12837110934E+04  0.50400001928E-02 0. -1.
       -1   -1    0    0    0  501  0.00000000000E+00  0.00000000000E+00 -0.22844329361E+04  0.22844329361E+04  0.50400001928E-02 0.  1.
    10030    2    1    2    0    0  0.00000000000E+00  0.00000000000E+00 -0.10007218427E+04  0.35681440295E+04  0.34249390665E+04 0.  0.
        5    1    3    3  502    0 -0.11374222264E+04  0.76837507348E+03  0.56636557482E+03  0.14848978514E+04  0.46999998093E+01 0. -1.
       -5    1    3    3    0  502  0.11374222264E+04 -0.76837507348E+03 -0.15670874175E+04  0.20832461781E+04  0.46999998093E+01 0.  1.
</event>
<event>
 5   0  0.1873457E-07  0.3482993E+04  0.7818609E-02  0.8117832E-01
       -1   -1    0    0    0  501  0.00000000000E+00  0.00000000000E+00  0.22660875789E+04  0.22660875789E+04  0.50400001928E-02 0.  1.
        1   -1    0    0  501    0  0.00000000000E+00  0.00000000000E+00 -0.13383467256E+04  0.13383467257E+04  0.50400001928E-02 0. -1.
    10030    2    1    2    0    0  0.00000000000E+00  0.00000000000E+00  0.92774085323E+03  0.36044343045E+04  0.34829934776E+04 0.  0.
        3    1    3    3  502    0  0.40892551356E+03 -0.16784953802E+04  0.23656678408E+03  0.17437117510E+04  0.10100000352E+00 0.  1.
       -3    1    3    3    0  502 -0.40892551356E+03  0.16784953802E+04  0.69117406915E+03  0.18607225535E+04  0.10100000352E+00 0. -1.
</event>
<event>
 5   0  0.5554745E-07  0.3499359E+04  0.7818609E-02  0.8113942E-01
        2   -1    0    0  501    0  0.00000000000E+00  0.00000000000E+00  0.13887180919E+04  0.13887180919E+04  0.25500000920E-02 0. -1.
       -2   -1    0    0    0  501  0.00000000000E+00  0.00000000000E+00 -0.22044634419E+04  0.22044634419E+04  0.25500000920E-02 0.  1.
    10030    2    1    2    0    0  0.00000000000E+00  0.00000000000E+00 -0.81574535003E+03  0.35931815338E+04  0.34993589497E+04 0.  0.
        5    1    3    3  502    0  0.18984754879E+03 -0.13128076860E+04 -0.15794505197E+04  0.20625693071E+04  0.46999998093E+01 0.  1.
       -5    1    3    3    0  502 -0.18984754879E+03  0.13128076860E+04  0.76370516968E+03  0.15306122267E+04  0.46999998093E+01 0. -1.
</event>
<event>
 5   0  0.1908190E-07  0.3516646E+04  0.7818609E-02  0.8109856E-01
        1   -1    0    0  501    0  0.00000000000E+00  0.00000000000E+00  0.25382290786E+04  0.25382290786E+04  0.50400001928E-02 0. -1.
       -1   -1    0    0    0  501  0.00000000000E+00  0.00000000000E+00 -0.12180537969E+04  0.12180537969E+04  0.50400001928E-02 0.  1.
    10030    2    1    2    0    0  0.00000000000E+00  0.00000000000E+00  0.13201752817E+04  0.37562828756E+04  0.35166458830E+04 0.  0.
        5    1    3    3  502    0  0.26513195808E+03  0.14843429973E+04  0.16262165440E+04  0.22176950708E+04  0.46999998093E+01 0. -1.
       -5    1    3    3    0  502 -0.26513195808E+03 -0.14843429973E+04 -0.30604126229E+03  0.15385878048E+04  0.46999998093E+01 0.  1.
</event>
<event>
 5   0  0.5707187E-07  0.3560006E+04  0.7818609E-02  0.8099715E-01
       -2   -1    0    0    0  501  0.00000000000E+00  0.00000000000E+00  0.16249311212E+04  0.16249311212E+04  0.25500000920E-02 0. -1.
        2   -1    0    0  501    0  0.00000000000E+00  0.00000000000E+00 -0.19498738029E+04  0.19498738029E+04  0.25500000920E-02 0.  1.
    10030    2    1    2    0    0  0.00000000000E+00  0.00000000000E+00 -0.32494268171E+03  0.35748049241E+04  0.35600059690E+04 0.  0.
        1    1    3    3  502    0 -0.73593362924E+03  0.12422898797E+04 -0.12077250692E+04  0.18824139541E+04  0.50400001928E-02 0.  1.
       -1    1    3    3    0  502  0.73593362924E+03 -0.12422898797E+04  0.88278238745E+03  0.16923909700E+04  0.50400001928E-02 0. -1.
</event>
<event>
 5   0  0.1873457E-07  0.3529433E+04  0.7818609E-02  0.8106850E-01
       -1   -1    0    0    0  501  0.00000000000E+00  0.00000000000E+00  0.13216925783E+04  0.13216925783E+04  0.50400001928E-02 0. -1.
        1   -1    0    0  501    0  0.00000000000E+00  0.00000000000E+00 -0.23562401057E+04  0.23562401057E+04  0.50400001928E-02 0.  1.
    10030    2    1    2    0    0  0.00000000000E+00  0.00000000000E+00 -0.10345475274E+04  0.36779326839E+04  0.35294334165E+04 0.  0.
        3    1    3    3  502    0  0.17329709601E+04  0.31430790786E+03 -0.63259728844E+03  0.18714051269E+04  0.10100000352E+00 0.  1.
       -3    1    3    3    0  502 -0.17329709601E+04 -0.31430790786E+03 -0.40195023895E+03  0.18065275570E+04  0.10100000352E+00 0. -1.
</event>
<event>
 5   0  0.1933647E-07  0.3503442E+04  0.7818609E-02  0.8112975E-01
        1   -1    0    0  501    0  0.00000000000E+00  0.00000000000E+00  0.26438736689E+04  0.26438736689E+04  0.50400001928E-02 0.  1.
       -1   -1    0    0    0  501  0.00000000000E+00  0.00000000000E+00 -0.11606175060E+04  0.11606175061E+04  0.50400001928E-02 0. -1.
    10030    2    1    2    0    0  0.00000000000E+00  0.00000000000E+00  0.14832561629E+04  0.38044911750E+04  0.35034417729E+04 0.  0.
        4    1    3    3  502    0 -0.83787257776E+03 -0.52483551101E+03  0.23119294962E+04  0.25144586651E+04  0.12699999809E+01 0.  1.
       -4    1    3    3    0  502  0.83787257776E+03  0.52483551101E+03 -0.82867333335E+03  0.12900325099E+04  0.12699999809E+01 0. -1.
</event>
<event>
 5   0  0.5707187E-07  0.3507427E+04  0.7818609E-02  0.8112032E-01
        2   -1    0    0  501    0  0.00000000000E+00  0.00000000000E+00  0.18732120923E+04  0.18732120923E+04  0.25500000920E-02 0. -1.
       -2   -1    0    0    0  501  0.00000000000E+00  0.00000000000E+00 -0.16418376786E+04  0.16418376786E+04  0.25500000920E-02 0.  1.
    10030    2    1    2    0    0  0.00000000000E+00  0.00000000000E+00  0.23137441371E+03  0.35150497708E+04  0.35074265170E+04 0.  0.
        1    1    3    3  502    0 -0.38009379859E+03  0.13868567106E+04  0.11216953443E+04  0.18237443014E+04  0.50400001928E-02 0. -1.
       -1    1    3    3    0  502  0.38009379859E+03 -0.13868567106E+04 -0.89032093062E+03  0.16913054694E+04  0.50400001928E-02 0.  1.
</event>
<event>
 5   0  0.5677193E-07  0.3486749E+04  0.7818609E-02  0.8116937E-01
        2   -1    0    0  501    0  0.00000000000E+00  0.00000000000E+00  0.21628944618E+04  0.21628944618E+04  0.25500000920E-02 0. -1.
       -2   -1    0    0    0  501  0.00000000000E+00  0.00000000000E+00 -0.14052255495E+04  0.14052255495E+04  0.25500000920E-02 0.  1.
    10030    2    1    2    0    0  0.00000000000E+00  0.00000000000E+00  0.75766891228E+03  0.35681200114E+04  0.34867489492E+04 0.  0.
        3    1    3    3  502    0  0.62545506930E+03  0.84170232014E+03 -0.10463983187E+04  0.14814203627E+04  0.10100000352E+00 0. -1.
       -3    1    3    3    0  502 -0.62545506930E+03 -0.84170232014E+03  0.18040672310E+04  0.20866996486E+04  0.10100000352E+00 0.  1.
</event>
<event>
 5   0  0.5707187E-07  0.3495750E+04  0.7818609E-02  0.8114798E-01
       -2   -1    0    0    0  501  0.00000000000E+00  0.00000000000E+00  0.14261541848E+04  0.14261541848E+04  0.25500000920E-02 0.  1.
        2   -1    0    0  501    0  0.00000000000E+00  0.00000000000E+00 -0.21421716739E+04  0.21421716739E+04  0.25500000920E-02 0. -1.
    10030    2    1    2    0    0  0.00000000000E+00  0.00000000000E+00 -0.71601748914E+03  0.35683258587E+04  0.34957500467E+04 0.  0.
        1    1    3    3  502    0 -0.13075295935E+04  0.10001227033E+04  0.24171604891E+03  0.16638226191E+04  0.50400001928E-02 0.  1.
       -1    1    3    3    0  502  0.13075295935E+04 -0.10001227033E+04 -0.95773353805E+03  0.19045032396E+04  0.50400001928E-02 0. -1.
</event>
<event>
 5   0  0.5677193E-07  0.3510228E+04  0.7818609E-02  0.8111370E-01
        2   -1    0    0  501    0  0.00000000000E+00  0.00000000000E+00  0.23674090343E+04  0.23674090343E+04  0.25500000920E-02 0.  1.
       -2   -1    0    0    0  501  0.00000000000E+00  0.00000000000E+00 -0.13011799484E+04  0.13011799484E+04  0.25500000920E-02 0. -1.
    10030    2    1    2    0    0  0.00000000000E+00  0.00000000000E+00  0.10662290860E+04  0.36685889827E+04  0.35102280069E+04 0.  0.
        3    1    3    3  502    0  0.58208233070E+03  0.14022446589E+04  0.14533583185E+04  0.21017517301E+04  0.10100000352E+00 0.  1.
       -3    1    3    3    0  502 -0.58208233070E+03 -0.14022446589E+04 -0.38712923250E+03  0.15668372526E+04  0.10100000352E+00 0. -1.
</event>
<event>
 5   0  0.5740827E-07  0.3482502E+04  0.7818609E-02  0.8117949E-01
        2   -1    0    0  501    0  0.00000000000E+00  0.00000000000E+00  0.26855258098E+04  0.26855258098E+04  0.25500000920E-02 0.  1.
       -2   -1    0    0    0  501  0.00000000000E+00  0.00000000000E+00 -0.11289983402E+04  0.11289983402E+04  0.25500000920E-02 0. -1.
    10030    2    1    2    0    0  0.00000000000E+00  0.00000000000E+00  0.15565274697E+04  0.38145241500E+04  0.34825015043E+04 0.  0.
        2    1    3    3  502    0 -0.62385423997E+03 -0.91057525101E+03 -0.69683584733E+03  0.13053434792E+04  0.25500000920E-02 0. -1.
       -2    1    3    3    0  502  0.62385423997E+03  0.91057525101E+03  0.22533633170E+04  0.25091806708E+04  0.25500000920E-02 0.  1.
</event>
<event>
 5   0  0.5707187E-07  0.3108847E+04  0.7818609E-02  0.8213314E-01
        2   -1    0    0  501    0  0.00000000000E+00  0.00000000000E+00  0.92271835849E+03  0.92271835850E+03  0.25500000920E-02 0. -1.
       -2   -1    0    0    0  501  0.00000000000E+00  0.00000000000E+00 -0.26186023822E+04  0.26186023822E+04  0.25500000920E-02 0.  1.
    10030    2    1    2    0    0  0.00000000000E+00  0.00000000000E+00 -0.16958840237E+04  0.35413207407E+04  0.31088470478E+04 0.  0.
        1    1    3    3  502    0  0.51420250279E+03 -0.13677847558E+04 -0.24411329167E+03  0.14814960854E+04  0.50400001928E-02 0. -1.
       -1    1    3    3    0  502 -0.51420250279E+03  0.13677847558E+04 -0.14517707321E+04  0.20598246553E+04  0.50400001928E-02 0.  1.
</event>
<event>
 5   0  0.1908190E-07  0.3534005E+04  0.7818609E-02  0.8105778E-01
        1   -1    0    0  501    0  0.00000000000E+00  0.00000000000E+00  0.16971259954E+04  0.16971259954E+04  0.50400001928E-02 0.  1.
       -1   -1    0    0    0  501  0.00000000000E+00  0.00000000000E+00 -0.18397557177E+04  0.18397557177E+04  0.50400001928E-02 0. -1.
    10030    2    1    2    0    0  0.00000000000E+00  0.00000000000E+00 -0.14262972231E+03  0.35368817130E+04  0.35340046710E+04 0.  0.
        5    1    3    3  502    0 -0.23502826549E+03 -0.14954590259E+04 -0.98345091530E+03  0.18052240239E+04  0.46999998093E+01 0. -1.
       -5    1    3    3    0  502  0.23502826549E+03  0.14954590259E+04  0.84082119300E+03  0.17316576891E+04  0.46999998093E+01 0.  1.
</event>
<event>
 5   0  0.1908190E-07  0.3496487E+04  0.7818609E-02  0.8114623E-01
       -1   -1    0    0    0  501  0.00000000000E+00  0.00000000000E+00  0.20456564609E+04  0.20456564609E+04  0.50400001928E-02 0. -1.
        1   -1    0    0  501    0  0.00000000000E+00  0.00000000000E+00 -0.14940708557E+04  0.14940708557E+04  0.50400001928E-02 0.  1.
    10030    2    1    2    0    0  0.00000000000E+00  0.00000000000E+00  0.55158560524E+03  0.35397273167E+04  0.34964872081E+04 0.  0.
        5    1    3    3  502    0 -0.17241226681E+04 -0.21076237729E+03  0.75063545182E+02  0.17385845910E+04  0.46999998093E+01 0.  1.
       -5    1    3    3    0  502  0.17241226681E+04  0.21076237729E+03  0.47652206006E+03  0.18011427256E+04  0.46999998093E+01 0. -1.
</event>
<event>
 5   0  0.5740827E-07  0.3507321E+04  0.7818609E-02  0.8112057E-01
       -2   -1    0    0    0  501  0.00000000000E+00  0.00000000000E+00  0.20434236528E+04  0.20434236528E+04  0.25500000920E-02 0.  1.
        2   -1    0    0  501    0  0.00000000000E+00  0.00000000000E+00 -0.15049861726E+04  0.15049861726E+04  0.25500000920E-02 0. -1.
    10030    2    1    2    0    0  0.00000000000E+00  0.00000000000E+00  0.53843748021E+03  0.35484098254E+04  0.35073205398E+04 0.  0.
        2    1    3    3  502    0  0.90593980326E+03 -0.13737561347E+04 -0.34401051467E+03  0.16811531991E+04  0.25500000920E-02 0. -1.
       -2    1    3    3    0  502 -0.90593980326E+03  0.13737561347E+04  0.88244799488E+03  0.18672566263E+04  0.25500000920E-02 0.  1.
</event>
<event>
 5   0  0.1873457E-07  0.3497683E+04  0.7818609E-02  0.8114339E-01
        1   -1    0    0  501    0  0.00000000000E+00  0.00000000000E+00  0.16414668892E+04  0.16414668892E+04  0.50400001928E-02 0. -1.
       -1   -1    0    0    0  501  0.00000000000E+00  0.00000000000E+00 -0.18632403037E+04  0.18632403038E+04  0.50400001928E-02 0.  1.
    10030    2    1    2    0    0  0.00000000000E+00  0.00000000000E+00 -0.22177341454E+03  0.35047071930E+04  0.34976833849E+04 0.  0.
        3    1    3    3  502    0  0.50076717355E+03  0.19764076689E+03  0.15563710056E+04  0.16468516485E+04  0.10100000352E+00 0. -1.
       -3    1    3    3    0  502 -0.50076717355E+03 -0.19764076689E+03 -0.17781444202E+04  0.18578555445E+04  0.10100000352E+00 0.  1.
</event>
<event>
 5   0  0.1908190E-07  0.3530724E+04  0.7818609E-02  0.8106547E-01
        1   -1    0    0  501    0  0.00000000000E+00  0.00000000000E+00  0.13600832065E+04  0.13600832065E+04  0.50400001928E-02 0.  1.
       -1   -1    0    0    0  501  0.00000000000E+00  0.00000000000E+00 -0.22914057502E+04  0.22914057503E+04  0.50400001928E-02 0. -1.
    10030    2    1    2    0    0  0.00000000000E+00  0.00000000000E+00 -0.93132254379E+03  0.36514889567E+04  0.35307237106E+04 0.  0.
        5    1    3    3  502    0 -0.65089675377E+03 -0.12839957636E+04  0.59113577180E+03  0.15562054156E+04  0.46999998093E+01 0.  1.
       -5    1    3    3    0  502  0.65089675377E+03  0.12839957636E+04 -0.15224583156E+04  0.20952835411E+04  0.46999998093E+01 0. -1.
</event>
<event>
 5   0  0.5554745E-07  0.3508564E+04  0.7818609E-02  0.8111763E-01
        2   -1    0    0  501    0  0.00000000000E+00  0.00000000000E+00  0.21110347465E+04  0.21110347465E+04  0.25500000920E-02 0.  1.
       -2   -1    0    0    0  501  0.00000000000E+00  0.00000000000E+00 -0.14578186208E+04  0.14578186208E+04  0.25500000920E-02 0. -1.
    10030    2    1    2    0    0  0.00000000000E+00  0.00000000000E+00  0.65321612567E+03  0.35688533673E+04  0.35085642435E+04 0.  0.
        5    1    3    3  502    0 -0.77539761533E+03  0.65666237784E+03  0.17812289789E+04  0.20506695750E+04  0.46999998093E+01 0.  1.
       -5    1    3    3    0  502  0.77539761533E+03 -0.65666237784E+03 -0.11280128533E+04  0.15181837924E+04  0.46999998093E+01 0. -1.
</event>
<event>
 5   0  0.5677193E-07  0.3494994E+04  0.7818609E-02  0.8114977E-01
       -2   -1    0    0    0  501  0.00000000000E+00  0.00000000000E+00  0.33297019579E+04  0.33297019579E+04  0.25500000920E-02 0.  1.
        2   -1    0    0  501    0  0.00000000000E+00  0.00000000000E+00 -0.91712280517E+03  0.91712280517E+03  0.25500000920E-02 0. -1.
    10030    2    1    2    0    0  0.00000000000E+00  0.00000000000E+00  0.24125791527E+04  0.42468247631E+04  0.34949939056E+04 0.  0.
        3    1    3    3  502    0  0.13894749397E+03 -0.26869294369E+03  0.32976470860E+04  0.33114919021E+04  0.10100000352E+00 0.  1.
       -3    1    3    3    0  502 -0.13894749397E+03  0.26869294369E+03 -0.88506793325E+03  0.93533286093E+03  0.10100000352E+00 0. -1.
</event>
<event>
 5   0  0.1823000E-07  0.3490932E+04  0.7818609E-02  0.8115942E-01
       -3   -1    0    0    0  501  0.00000000000E+00  0.00000000000E+00  0.13535362726E+04  0.13535362764E+04  0.10100000352E+00 0. -1.
        3   -1    0    0  501    0  0.00000000000E+00  0.00000000000E+00 -0.22508832894E+04  0.22508832917E+04  0.10100000352E+00 0.  1.
    10030    2    1    2    0    0  0.00000000000E+00  0.00000000000E+00 -0.89734701674E+03  0.36044195681E+04  0.34909323617E+04 0.  0.
        4    1    3    3  502    0 -0.59670751865E+03  0.12180479001E+04  0.68565422071E+03  0.15198104727E+04  0.12699999809E+01 0. -1.
       -4    1    3    3    0  502  0.59670751865E+03 -0.12180479001E+04 -0.15830012374E+04  0.20846090953E+04  0.12699999809E+01 0.  1.
</event>
<event>
 5   0  0.5740827E-07  0.3490231E+04  0.7818609E-02  0.8116109E-01
       -2   -1    0    0    0  501  0.00000000000E+00  0.00000000000E+00  0.13075426040E+04  0.13075426040E+04  0.25500000920E-02 0. -1.
        2   -1    0    0  501    0  0.00000000000E+00  0.00000000000E+00 -0.23291238780E+04  0.23291238780E+04  0.25500000920E-02 0.  1.
    10030    2    1    2    0    0  0.00000000000E+00  0.00000000000E+00 -0.10215812740E+04  0.36366664820E+04  0.34902313393E+04 0.  0.
        2    1    3    3  502    0  0.21551530597E+03  0.54751137865E+03  0.12010678095E+04  0.13374525935E+04  0.25500000920E-02 0. -1.
       -2    1    3    3    0  502 -0.21551530597E+03 -0.54751137865E+03 -0.22226490835E+04  0.22992138885E+04  0.25500000920E-02 0.  1.
</event>
<event>
 5   0  0.1866421E-07  0.3506708E+04  0.7818609E-02  0.8112202E-01
       -1   -1    0    0    0  501  0.00000000000E+00  0.00000000000E+00  0.11607739612E+04  0.11607739613E+04  0.50400001928E-02 0.  1.
        1   -1    0    0  501    0  0.00000000000E+00  0.00000000000E+00 -0.26484492907E+04  0.26484492907E+04  0.50400001928E-02 0. -1.
    10030    2    1    2    0    0  0.00000000000E+00  0.00000000000E+00 -0.14876753295E+04  0.38092232520E+04  0.35067084135E+04 0.  0.
        1    1    3    3  502    0 -0.55869131003E+03  0.16535437802E+04 -0.56236934076E+03  0.18337399730E+04  0.50400001928E-02 0. -1.
       -1    1    3    3    0  502  0.55869131003E+03 -0.16535437802E+04 -0.92530598873E+03  0.19754832790E+04  0.50400001928E-02 0.  1.
</event>
<event>
 5   0  0.5707187E-07  0.3488498E+04  0.7818609E-02  0.8116521E-01
       -2   -1    0    0    0  501  0.00000000000E+00  0.00000000000E+00  0.16395088149E+04  0.16395088149E+04  0.25500000920E-02 0. -1.
        2   -1    0    0  501    0  0.00000000000E+00  0.00000000000E+00 -0.18556806315E+04  0.18556806315E+04  0.25500000920E-02 0.  1.
    10030    2    1    2    0    0  0.00000000000E+00  0.00000000000E+00 -0.21617181661E+03  0.34951894465E+04  0.34884981027E+04 0.  0.
        1    1    3    3  502    0 -0.12789854239E+04 -0.25130036288E+03  0.10532098729E+04  0.16757704566E+04  0.50400001928E-02 0. -1.
       -1    1    3    3    0  502  0.12789854239E+04  0.25130036288E+03 -0.12693816895E+04  0.18194189898E+04  0.50400001928E-02 0.  1.
</event>
<event>
 5   0  0.1897049E-07  0.3505345E+04  0.7818609E-02  0.8112524E-01
       -1   -1    0    0    0  501  0.00000000000E+00  0.00000000000E+00  0.21465056812E+04  0.21465056812E+04  0.50400001928E-02 0.  1.
        1   -1    0    0  501    0  0.00000000000E+00  0.00000000000E+00 -0.14310982384E+04  0.14310982384E+04  0.50400001928E-02 0. -1.
    10030    2    1    2    0    0  0.00000000000E+00  0.00000000000E+00  0.71540744281E+03  0.35776039196E+04  0.35053447757E+04 0.  0.
        2    1    3    3  502    0 -0.83597777926E+03 -0.39475289252E+03 -0.11620079223E+04  0.14849077766E+04  0.25500000920E-02 0. -1.
       -2    1    3    3    0  502  0.83597777926E+03  0.39475289252E+03  0.18774153651E+04  0.20926961430E+04  0.25500000920E-02 0.  1.
</event>
<event>
 5   0  0.1873457E-07  0.3544068E+04  0.7818609E-02  0.8103425E-01
        1   -1    0    0  501    0  0.00000000000E+00  0.00000000000E+00  0.14597587974E+04  0.14597587974E+04  0.50400001928E-02 0. -1.
       -1   -1    0    0    0  501  0.00000000000E+00  0.00000000000E+00 -0.21511121498E+04  0.21511121498E+04  0.50400001928E-02 0.  1.
    10030    2    1    2    0    0  0.00000000000E+00  0.00000000000E+00 -0.69135335240E+03  0.36108709471E+04  0.35440682187E+04 0.  0.
        3    1    3    3  502    0 -0.29815601361E+03  0.16667054007E+04 -0.87831263565E+03  0.19074163146E+04  0.10100000352E+00 0.  1.
       -3    1    3    3    0  502  0.29815601361E+03 -0.16667054007E+04  0.18695928325E+03  0.17034546325E+04  0.10100000352E+00 0. -1.
</event>
<event>
 5   0  0.1908190E-07  0.3474419E+04  0.7818609E-02  0.8119879E-01
        1   -1    0    0  501    0  0.00000000000E+00  0.00000000000E+00  0.27034981075E+04  0.27034981075E+04  0.50400001928E-02 0.  1.
       -1   -1    0    0    0  501  0.00000000000E+00  0.00000000000E+00 -0.11162930193E+04  0.11162930193E+04  0.50400001928E-02 0. -1.
    10030    2    1    2    0    0  0.00000000000E+00  0.00000000000E+00  0.15872050882E+04  0.38197911268E+04  0.34744185500E+04 0.  0.
        5    1    3    3  502    0 -0.16682907199E+04 -0.16163287736E+03  0.12956764377E+04  0.21185180279E+04  0.46999998093E+01 0.  1.
       -5    1    3    3    0  502  0.16682907199E+04  0.16163287736E+03  0.29152865045E+03  0.17012730990E+04  0.46999998093E+01 0. -1.
</event>
<event>
 5   0  0.1897049E-07  0.3491076E+04  0.7818609E-02  0.8115908E-01
        1   -1    0    0  501    0  0.00000000000E+00  0.00000000000E+00  0.24746511454E+04  0.24746511454E+04  0.50400001928E-02 0. -1.
       -1   -1    0    0    0  501  0.00000000000E+00  0.00000000000E+00 -0.12312457638E+04  0.12312457638E+04  0.50400001928E-02 0.  1.
    10030    2    1    2    0    0  0.00000000000E+00  0.00000000000E+00  0.12434053816E+04  0.37058969092E+04  0.34910764756E+04 0.  0.
        2    1    3    3  502    0  0.11557096111E+04  0.28421380636E+03  0.19771706363E+04  0.23077361023E+04  0.25500000920E-02 0. -1.
       -2    1    3    3    0  502 -0.11557096111E+04 -0.28421380636E+03 -0.73376525466E+03  0.13981608069E+04  0.25500000920E-02 0.  1.
</event>
<event>
 5   0  0.5573334E-07  0.3518636E+04  0.7818609E-02  0.8109388E-01
       -2   -1    0    0    0  501  0.00000000000E+00  0.00000000000E+00  0.21072900970E+04  0.21072900970E+04  0.25500000920E-02 0.  1.
        2   -1    0    0  501    0  0.00000000000E+00  0.00000000000E+00 -0.14688060189E+04  0.14688060189E+04  0.25500000920E-02 0. -1.
    10030    2    1    2    0    0  0.00000000000E+00  0.00000000000E+00  0.63848407815E+03  0.35760961159E+04  0.35186363142E+04 0.  0.
        4    1    3    3  502    0  0.18880555548E+03  0.14552433068E+04  0.13055631509E+04  0.19641480020E+04  0.12699999809E+01 0.  1.
       -4    1    3    3    0  502 -0.18880555548E+03 -0.14552433068E+04 -0.66707907275E+03  0.16119481139E+04  0.12699999809E+01 0. -1.
</event>
<event>
 5   0  0.1933647E-07  0.3523519E+04  0.7818609E-02  0.8108239E-01
       -1   -1    0    0    0  501  0.00000000000E+00  0.00000000000E+00  0.17447551413E+04  0.17447551413E+04  0.50400001928E-02 0. -1.
        1   -1    0    0  501    0  0.00000000000E+00  0.00000000000E+00 -0.17789297148E+04  0.17789297148E+04  0.50400001928E-02 0.  1.
    10030    2    1    2    0    0  0.00000000000E+00  0.00000000000E+00 -0.34174573469E+02  0.35236848561E+04  0.35235191306E+04 0.  0.
        4    1    3    3  502    0 -0.60912767079E+03 -0.15560394143E+04 -0.57523536543E+03  0.17672556455E+04  0.12699999809E+01 0.  1.
       -4    1    3    3    0  502  0.60912767079E+03  0.15560394143E+04  0.54106079196E+03  0.17564292105E+04  0.12699999809E+01 0. -1.
</event>
<event>
 5   0  0.1908190E-07  0.3484529E+04  0.7818609E-02  0.8117466E-01
       -1   -1    0    0    0  501  0.00000000000E+00  0.00000000000E+00  0.10149877381E+04  0.10149877381E+04  0.50400001928E-02 0. -1.
        1   -1    0    0  501    0  0.00000000000E+00  0.00000000000E+00 -0.29906628217E+04  0.29906628217E+04  0.50400001928E-02 0.  1.
    10030    2    1    2    0    0  0.00000000000E+00  0.00000000000E+00 -0.19756750835E+04  0.40056505598E+04  0.34845292898E+04 0.  0.
        5    1    3    3  502    0  0.14819676294E+04  0.50194647508E+03 -0.10688269737E+03  0.15683189470E+04  0.46999998093E+01 0. -1.
       -5    1    3    3    0  502 -0.14819676294E+04 -0.50194647508E+03 -0.18687923861E+04  0.24373316128E+04  0.46999998093E+01 0.  1.
</event>
<event>
 5   0  0.1897049E-07  0.3408007E+04  0.7818609E-02  0.8135944E-01
        1   -1    0    0  501    0  0.00000000000E+00  0.00000000000E+00  0.13450954154E+04  0.13450954154E+04  0.50400001928E-02 0. -1.
       -1   -1    0    0    0  501  0.00000000000E+00  0.00000000000E+00 -0.21586776383E+04  0.21586776383E+04  0.50400001928E-02 0.  1.
    10030    2    1    2    0    0  0.00000000000E+00  0.00000000000E+00 -0.81358222294E+03  0.35037730537E+04  0.34080066870E+04 0.  0.
        2    1    3    3  502    0  0.96374981294E+03 -0.79886480347E+03 -0.15954053381E+04  0.20278848264E+04  0.25500000920E-02 0.  1.
       -2    1    3    3    0  502 -0.96374981294E+03  0.79886480347E+03  0.78182311519E+03  0.14758882273E+04  0.25500000920E-02 0. -1.
</event>
<event>
 5   0  0.5707187E-07  0.3355133E+04  0.7818609E-02  0.8149007E-01
        2   -1    0    0  501    0  0.00000000000E+00  0.00000000000E+00  0.20883078533E+04  0.20883078533E+04  0.25500000920E-02 0. -1.
       -2   -1    0    0    0  501  0.00000000000E+00  0.00000000000E+00 -0.13476119633E+04  0.13476119633E+04  0.25500000920E-02 0.  1.
    10030    2    1    2    0    0  0.00000000000E+00  0.00000000000E+00  0.74069589000E+03  0.34359198166E+04  0.33551325733E+04 0.  0.
        1    1    3    3  502    0  0.13835293915E+04  0.49716229012E+03  0.11978293459E+04  0.18963436033E+04  0.50400001928E-02 0. -1.
       -1    1    3    3    0  502 -0.13835293915E+04 -0.49716229012E+03 -0.45713345590E+03  0.15395762133E+04  0.50400001928E-02 0.  1.
</event>
<event>
 5   0  0.5677193E-07  0.3369119E+04  0.7818609E-02  0.8145527E-01
        2   -1    0    0  501    0  0.00000000000E+00  0.00000000000E+00  0.19295304080E+04  0.19295304080E+04  0.25500000920E-02 0. -1.
       -2   -1    0    0    0  501  0.00000000000E+00  0.00000000000E+00 -0.14706897955E+04  0.14706897955E+04  0.25500000920E-02 0.  1.
    10030    2    1    2    0    0  0.00000000000E+00  0.00000000000E+00  0.45884061248E+03  0.34002202036E+04  0.33691189835E+04 0.  0.
        3    1    3    3  502    0  0.28292988434E+03  0.10094716051E+04 -0.11013338465E+04  0.15205323057E+04  0.10100000352E+00 0.  1.
       -3    1    3    3    0  502 -0.28292988434E+03 -0.10094716051E+04  0.15601744590E+04  0.18796878979E+04  0.10100000352E+00 0. -1.
</event>
<event>
 5   0  0.5677193E-07  0.3195195E+04  0.7818609E-02  0.8190087E-01
        2   -1    0    0  501    0  0.00000000000E+00  0.00000000000E+00  0.12922074634E+04  0.12922074634E+04  0.25500000920E-02 0.  1.
       -2   -1    0    0    0  501  0.00000000000E+00  0.00000000000E+00 -0.19751613398E+04  0.19751613398E+04  0.25500000920E-02 0. -1.
    10030    2    1    2    0    0  0.00000000000E+00  0.00000000000E+00 -0.68295387648E+03  0.32673688032E+04  0.31951952833E+04 0.  0.
        3    1    3    3  502    0 -0.82018018518E+03 -0.82036290201E+03 -0.14647551653E+04  0.18684749214E+04  0.10100000352E+00 0. -1.
       -3    1    3    3    0  502  0.82018018518E+03  0.82036290201E+03  0.78180128887E+03  0.13988938818E+04  0.10100000352E+00 0.  1.
</event>
<event>
 5   0  0.1933647E-07  0.3485291E+04  0.7818609E-02  0.8117285E-01
        1   -1    0    0  501    0  0.00000000000E+00  0.00000000000E+00  0.27127927182E+04  0.27127927182E+04  0.50400001928E-02 0. -1.
       -1   -1    0    0    0  501  0.00000000000E+00  0.00000000000E+00 -0.11194416883E+04  0.11194416883E+04  0.50400001928E-02 0.  1.
    10030    2    1    2    0    0  0.00000000000E+00  0.00000000000E+00  0.15933510299E+04  0.38322344065E+04  0.34852909551E+04 0.  0.
        4    1    3    3  502    0  0.13004723890E+03 -0.31214077488E+03 -0.10830215859E+04  0.11345842922E+04  0.12699999809E+01 0.  1.
       -4    1    3    3    0  502 -0.13004723890E+03  0.31214077488E+03  0.26763726158E+04  0.26976501143E+04  0.12699999809E+01 0. -1.
</event>
<event>
 5   0  0.5707187E-07  0.3391343E+04  0.7818609E-02  0.8140034E-01
       -2   -1    0    0    0  501  0.00000000000E+00  0.00000000000E+00  0.12374697904E+04  0.12374697904E+04  0.25500000920E-02 0. -1.
        2   -1    0    0  501    0  0.00000000000E+00  0.00000000000E+00 -0.23235326488E+04  0.23235326488E+04  0.25500000920E-02 0.  1.
    10030    2    1    2    0    0  0.00000000000E+00  0.00000000000E+00 -0.10860628584E+04  0.35610024392E+04  0.33913427783E+04 0.  0.
        1    1    3    3  502    0 -0.26474783769E+03 -0.13861540906E+04  0.44409858711E+03  0.14794384528E+04  0.50400001928E-02 0. -1.
       -1    1    3    3    0  502  0.26474783769E+03  0.13861540906E+04 -0.15301614455E+04  0.20815639865E+04  0.50400001928E-02 0.  1.
</event>
<event>
 5   0  0.1897049E-07  0.3507239E+04  0.7818609E-02  0.8112076E-01
        1   -1    0    0  501    0  0.00000000000E+00  0.00000000000E+00  0.16677654563E+04  0.16677654563E+04  0.50400001928E-02 0. -1.
       -1   -1    0    0    0  501  0.00000000000E+00  0.00000000000E+00 -0.18438933853E+04  0.18438933853E+04  0.50400001928E-02 0.  1.
    10030    2    1    2    0    0  0.00000000000E+00  0.00000000000E+00 -0.17612792902E+03  0.35116588416E+04  0.35072391952E+04 0.  0.
        2    1    3    3  502    0 -0.12223498181E+04  0.66550249128E+03 -0.11562490295E+04  0.18094044495E+04  0.25500000920E-02 0.  1.
       -2    1    3    3    0  502  0.12223498181E+04 -0.66550249128E+03  0.98012110050E+03  0.17022543921E+04  0.25500000920E-02 0. -1.
</event>
<event>
 5   0  0.1873457E-07  0.3521528E+04  0.7818609E-02  0.8108707E-01
        1   -1    0    0  501    0  0.00000000000E+00  0.00000000000E+00  0.21558953491E+04  0.21558953491E+04  0.50400001928E-02 0.  1.
       -1   -1    0    0    0  501  0.00000000000E+00  0.00000000000E+00 -0.14380525083E+04  0.14380525083E+04  0.50400001928E-02 0. -1.
    10030    2    1    2    0    0  0.00000000000E+00  0.00000000000E+00  0.71784284076E+03  0.35939478575E+04  0.35215284832E+04 0.  0.
        3    1    3    3  502    0 -0.68003254275E+03  0.43743263978E+03  0.19552162219E+04  0.21158123873E+04  0.10100000352E+00 0.  1.
       -3    1    3    3    0  502  0.68003254275E+03 -0.43743263978E+03 -0.12373733812E+04  0.14781354702E+04  0.10100000352E+00 0. -1.
</event>
<event>
 5   0  0.1908190E-07  0.3494113E+04  0.7818609E-02  0.8115186E-01
       -1   -1    0    0    0  501  0.00000000000E+00  0.00000000000E+00  0.22758640097E+04  0.22758640097E+04  0.50400001928E-02 0.  1.
        1   -1    0    0  501    0  0.00000000000E+00  0.00000000000E+00 -0.13411199401E+04  0.13411199401E+04  0.50400001928E-02 0. -1.
    10030    2    1    2    0    0  0.00000000000E+00  0.00000000000E+00  0.93474406962E+03  0.36169839498E+04  0.34941131089E+04 0.  0.
        5    1    3    3  502    0 -0.35243558541E+02  0.89450909949E+03 -0.10856502140E+04  0.14071414693E+04  0.46999998093E+01 0. -1.
       -5    1    3    3    0  502  0.35243558541E+02 -0.89450909949E+03  0.20203942836E+04  0.22098424805E+04  0.46999998093E+01 0.  1.
</event>
<event>
 5   0  0.5740827E-07  0.3504214E+04  0.7818609E-02  0.8112792E-01
        2   -1    0    0  501    0  0.00000000000E+00  0.00000000000E+00  0.23095672000E+04  0.23095672000E+04  0.25500000920E-02 0. -1.
       -2   -1    0    0    0  501  0.00000000000E+00  0.00000000000E+00 -0.13292009737E+04  0.13292009738E+04  0.25500000920E-02 0.  1.
    10030    2    1    2    0    0  0.00000000000E+00  0.00000000000E+00  0.98036622622E+03  0.36387681737E+04  0.35042140181E+04 0.  0.
        2    1    3    3  502    0  0.52885433809E+03 -0.10540647548E+04  0.18357557931E+04  0.21819117191E+04  0.25500000920E-02 0. -1.
       -2    1    3    3    0  502 -0.52885433809E+03  0.10540647548E+04 -0.85538956687E+03  0.14568564546E+04  0.25500000920E-02 0.  1.
</event>
<event>
 5   0  0.5707187E-07  0.3504613E+04  0.7818609E-02  0.8112697E-01
       -2   -1    0    0    0  501  0.00000000000E+00  0.00000000000E+00  0.15452690253E+04  0.15452690253E+04  0.25500000920E-02 0. -1.
        2   -1    0    0  501    0  0.00000000000E+00  0.00000000000E+00 -0.19870836607E+04  0.19870836607E+04  0.25500000920E-02 0.  1.
    10030    2    1    2    0    0  0.00000000000E+00  0.00000000000E+00 -0.44181463540E+03  0.35323526861E+04  0.35046134347E+04 0.  0.
        1    1    3    3  502    0  0.27983391544E+03 -0.14068082841E+04 -0.12354339222E+04  0.18930698731E+04  0.50400001928E-02 0. -1.
       -1    1    3    3    0  502 -0.27983391544E+03  0.14068082841E+04  0.79361928678E+03  0.16392828130E+04  0.50400001928E-02 0.  1.
</event>
<event>
 5   0  0.5677193E-07  0.3564099E+04  0.7818609E-02  0.8098765E-01
        2   -1    0    0  501    0  0.00000000000E+00  0.00000000000E+00  0.22284356996E+04  0.22284356996E+04  0.25500000920E-02 0. -1.
       -2   -1    0    0    0  501  0.00000000000E+00  0.00000000000E+00 -0.14250808459E+04  0.14250808459E+04  0.25500000920E-02 0.  1.
    10030    2    1    2    0    0  0.00000000000E+00  0.00000000000E+00  0.80335485369E+03  0.36535165455E+04  0.35640993431E+04 0.  0.
        3    1    3    3  502    0  0.14196878138E+04 -0.98241619942E+03 -0.51042634260E+02  0.17272117526E+04  0.10100000352E+00 0.  1.
       -3    1    3    3    0  502 -0.14196878138E+04  0.98241619942E+03  0.85439748795E+03  0.19263047929E+04  0.10100000352E+00 0. -1.
</event>
<event>
 5   0  0.1823000E-07  0.3441099E+04  0.7818609E-02  0.8127892E-01
        4   -1    0    0  501    0  0.00000000000E+00  0.00000000000E+00  0.17748551751E+04  0.17748556295E+04  0.12699999809E+01 0. -1.
       -4   -1    0    0    0  501  0.00000000000E+00  0.00000000000E+00 -0.16679040866E+04  0.16679045701E+04  0.12699999809E+01 0.  1.
    10030    2    1    2    0    0  0.00000000000E+00  0.00000000000E+00  0.10695108848E+03  0.34427601996E+04  0.34410985537E+04 0.  0.
        4    1    3    3  502    0  0.97435111623E+03 -0.98268394992E+03  0.10763489858E+04  0.17531561811E+04  0.12699999809E+01 0. -1.
       -4    1    3    3    0  502 -0.97435111623E+03  0.98268394992E+03 -0.96939789730E+03  0.16896040185E+04  0.12699999809E+01 0.  1.
</event>
<event>
 5   0  0.5573334E-07  0.3500314E+04  0.7818609E-02  0.8113715E-01
       -2   -1    0    0    0  501  0.00000000000E+00  0.00000000000E+00  0.10275776289E+04  0.10275776289E+04  0.25500000920E-02 0.  1.
        2   -1    0    0  501    0  0.00000000000E+00  0.00000000000E+00 -0.29808453111E+04  0.29808453111E+04  0.25500000920E-02 0. -1.
    10030    2    1    2    0    0  0.00000000000E+00  0.00000000000E+00 -0.19532676822E+04  0.40084229400E+04  0.35003142470E+04 0.  0.
        4    1    3    3  502    0 -0.15167108859E+04 -0.60977406812E+03 -0.26073697919E+03  0.16553615046E+04  0.12699999809E+01 0.  1.
       -4    1    3    3    0  502  0.15167108859E+04  0.60977406812E+03 -0.16925307030E+04  0.23530614355E+04  0.12699999809E+01 0. -1.
</event>
<event>
 5   0  0.5707187E-07  0.3507421E+04  0.7818609E-02  0.8112033E-01
        2   -1    0    0  501    0  0.00000000000E+00  0.00000000000E+00  0.12601268214E+04  0.12601268214E+04  0.25500000920E-02 0. -1.
       -2   -1    0    0    0  501  0.00000000000E+00  0.00000000000E+00 -0.24406281239E+04  0.24406281239E+04  0.25500000920E-02 0.  1.
    10030    2    1    2    0    0  0.00000000000E+00  0.00000000000E+00 -0.11805013026E+04  0.37007549453E+04  0.35074212521E+04 0.  0.
        1    1    3    3  502    0 -0.12656756928E+03  0.10220064611E+04  0.90749560781E+03  0.13726124123E+04  0.50400001928E-02 0. -1.
       -1    1    3    3    0  502  0.12656756928E+03 -0.10220064611E+04 -0.20879969104E+04  0.23281425330E+04  0.50400001928E-02 0.  1.
</event>
<event>
 5   0  0.1866421E-07  0.3487662E+04  0.7818609E-02  0.8116720E-01
       -1   -1    0    0    0  501  0.00000000000E+00  0.00000000000E+00  0.13885638820E+04  0.13885638820E+04  0.50400001928E-02 0.  1.
        1   -1    0    0  501    0  0.00000000000E+00  0.00000000000E+00 -0.21899946112E+04  0.21899946112E+04  0.50400001928E-02 0. -1.
    10030    2    1    2    0    0  0.00000000000E+00  0.00000000000E+00 -0.80143072921E+03  0.35785584932E+04  0.34876624945E+04 0.  0.
        1    1    3    3  502    0  0.87497273626E+03 -0.55327887693E+03  0.10391582871E+04  0.14668144908E+04  0.50400001928E-02 0.  1.
       -1    1    3    3    0  502 -0.87497273626E+03  0.55327887693E+03 -0.18405890163E+04  0.21117440024E+04  0.50400001928E-02 0. -1.
</event>
<event>
 5   0  0.1908190E-07  0.3499517E+04  0.7818609E-02  0.8113904E-01
       -1   -1    0    0    0  501  0.00000000000E+00  0.00000000000E+00  0.13165990518E+04  0.13165990518E+04  0.50400001928E-02 0. -1.
        1   -1    0    0  501    0  0.00000000000E+00  0.00000000000E+00 -0.23254268937E+04  0.23254268937E+04  0.50400001928E-02 0.  1.
    10030    2    1    2    0    0  0.00000000000E+00  0.00000000000E+00 -0.10088278419E+04  0.36420259455E+04  0.34995170199E+04 0.  0.
        5    1    3    3  502    0  0.11966940355E+04  0.12715521144E+04 -0.38707801928E+03  0.17885113579E+04  0.46999998093E+01 0. -1.
       -5    1    3    3    0  502 -0.11966940355E+04 -0.12715521144E+04 -0.62174982261E+03  0.18535145876E+04  0.46999998093E+01 0.  1.
</event>
<event>
 5   0  0.5554745E-07  0.3498586E+04  0.7818609E-02  0.8114125E-01
        2   -1    0    0  501    0  0.00000000000E+00  0.00000000000E+00  0.32536689356E+04  0.32536689356E+04  0.25500000920E-02 0. -1.
       -2   -1    0    0    0  501  0.00000000000E+00  0.00000000000E+00 -0.94048468429E+03  0.94048468429E+03  0.25500000920E-02 0.  1.
    10030    2    1    2    0    0  0.00000000000E+00  0.00000000000E+00  0.23131842513E+04  0.41941536199E+04  0.34985858867E+04 0.  0.
        5    1    3    3  502    0 -0.79010371815E+02  0.87682250910E+03 -0.65553855401E+03  0.10976398485E+04  0.46999998093E+01 0.  1.
       -5    1    3    3    0  502  0.79010371815E+02 -0.87682250910E+03  0.29687228053E+04  0.30965137714E+04  0.46999998093E+01 0. -1.
</event>
<event>
 5   0  0.5554745E-07  0.3479000E+04  0.7818609E-02  0.8118785E-01
       -2   -1    0    0    0  501  0.00000000000E+00  0.00000000000E+00  0.30708421660E+04  0.30708421660E+04  0.25500000920E-02 0. -1.
        2   -1    0    0  501    0  0.00000000000E+00  0.00000000000E+00 -0.98535216338E+03  0.98535216338E+03  0.25500000920E-02 0.  1.
    10030    2    1    2    0    0  0.00000000000E+00  0.00000000000E+00  0.20854900026E+04  0.40561943294E+04  0.34790004149E+04 0.  0.
        5    1    3    3  502    0  0.77541470362E+03  0.75951333219E+03  0.26275696849E+04  0.28429338725E+04  0.46999998093E+01 0. -1.
       -5    1    3    3    0  502 -0.77541470362E+03 -0.75951333219E+03 -0.54207968225E+03  0.12132604569E+04  0.46999998093E+01 0.  1.
</event>
<event>
 5   0  0.5554745E-07  0.3510301E+04  0.7818609E-02  0.8111353E-01
        2   -1    0    0  501    0  0.00000000000E+00  0.00000000000E+00  0.22944087599E+04  0.22944087599E+04  0.25500000920E-02 0. -1.
       -2   -1    0    0    0  501  0.00000000000E+00  0.00000000000E+00 -0.13426345927E+04  0.13426345927E+04  0.25500000920E-02 0.  1.
    10030    2    1    2    0    0  0.00000000000E+00  0.00000000000E+00  0.95177416725E+03  0.36370433526E+04  0.35103005973E+04 0.  0.
        5    1    3    3  502    0 -0.56393063737E+03 -0.16328581936E+04  0.79739200782E+03  0.19026559722E+04  0.46999998093E+01 0.  1.
       -5    1    3    3    0  502  0.56393063737E+03  0.16328581936E+04  0.15438215943E+03  0.17343873804E+04  0.46999998093E+01 0. -1.
</event>
<event>
 5   0  0.5573334E-07  0.3471289E+04  0.7818609E-02  0.8120628E-01
       -2   -1    0    0    0  501  0.00000000000E+00  0.00000000000E+00  0.13202161208E+04  0.13202161208E+04  0.25500000920E-02 0. -1.
        2   -1    0    0  501    0  0.00000000000E+00  0.00000000000E+00 -0.22817944232E+04  0.22817944232E+04  0.25500000920E-02 0.  1.
    10030    2    1    2    0    0  0.00000000000E+00  0.00000000000E+00 -0.96157830243E+03  0.36020105439E+04  0.34712889720E+04 0.  0.
        4    1    3    3  502    0  0.35779196823E+03  0.55317389025E+03  0.11854335214E+04  0.13561971434E+04  0.12699999809E+01 0. -1.
       -4    1    3    3    0  502 -0.35779196823E+03 -0.55317389025E+03 -0.21470118238E+04  0.22458134005E+04  0.12699999809E+01 0.  1.
</event>
<event>
 5   0  0.5573334E-07  0.3401483E+04  0.7818609E-02  0.8137543E-01
        2   -1    0    0  501    0  0.00000000000E+00  0.00000000000E+00  0.18041195751E+04  0.18041195751E+04  0.25500000920E-02 0.  1.
       -2   -1    0    0    0  501  0.00000000000E+00  0.00000000000E+00 -0.16032866810E+04  0.16032866810E+04  0.25500000920E-02 0. -1.
    10030    2    1    2    0    0  0.00000000000E+00  0.00000000000E+00  0.20083289412E+03  0.34074062561E+04  0.34014825507E+04 0.  0.
        4    1    3    3  502    0 -0.76386242448E+03 -0.12432089744E+04 -0.77487001439E+03  0.16521136491E+04  0.12699999809E+01 0. -1.
       -4    1    3    3    0  502  0.76386242448E+03  0.12432089744E+04  0.97570290851E+03  0.17552926070E+04  0.12699999809E+01 0.  1.
</event>
<event>
 5   0  0.1908190E-07  0.3502453E+04  0.7818609E-02  0.8113209E-01
        1   -1    0    0  501    0  0.00000000000E+00  0.00000000000E+00  0.19362619044E+04  0.19362619044E+04  0.50400001928E-02 0.  1.
       -1   -1    0    0    0  501  0.00000000000E+00  0.00000000000E+00 -0.15838741198E+04  0.15838741198E+04  0.50400001928E-02 0. -1.
    10030    2    1    2    0    0  0.00000000000E+00  0.00000000000E+00  0.35238778459E+03  0.35201360243E+04  0.35024534941E+04 0.  0.
        5    1    3    3  502    0  0.44416450650E+03  0.95868025889E+03  0.15798201444E+04  0.19005798395E+04  0.46999998093E+01 0.  1.
       -5    1    3    3    0  502 -0.44416450650E+03 -0.95868025889E+03 -0.12274323598E+04  0.16195561848E+04  0.46999998093E+01 0. -1.
</event>
<event>
 5   0  0.5677193E-07  0.3439807E+04  0.7818609E-02  0.8128205E-01
        2   -1    0    0  501    0  0.00000000000E+00  0.00000000000E+00  0.22746905023E+04  0.22746905023E+04  0.25500000920E-02 0.  1.
       -2   -1    0    0    0  501  0.00000000000E+00  0.00000000000E+00 -0.13004265546E+04  0.13004265546E+04  0.25500000920E-02 0. -1.
    10030    2    1    2    0    0  0.00000000000E+00  0.00000000000E+00  0.97426394770E+03  0.35751170569E+04  0.34398069322E+04 0.  0.
        3    1    3    3  502    0 -0.15386982033E+04 -0.54739834693E+03 -0.73369044666E+02  0.16348150165E+04  0.10100000352E+00 0. -1.
       -3    1    3    3    0  502  0.15386982033E+04  0.54739834693E+03  0.10476329924E+04  0.19403020404E+04  0.10100000352E+00 0.  1.
</event>
<event>
 5   0  0.5740827E-07  0.3503327E+04  0.7818609E-02  0.8113002E-01
       -2   -1    0    0    0  501  0.00000000000E+00  0.00000000000E+00  0.18705729084E+04  0.18705729084E+04  0.25500000920E-02 0. -1.
        2   -1    0    0  501    0  0.00000000000E+00  0.00000000000E+00 -0.16403130187E+04  0.16403130187E+04  0.25500000920E-02 0.  1.
    10030    2    1    2    0    0  0.00000000000E+00  0.00000000000E+00  0.23025988967E+03  0.35108859272E+04  0.35033270439E+04 0.  0.
        2    1    3    3  502    0 -0.17319710358E+04 -0.25642906140E+03  0.16858884999E+03  0.17589490421E+04  0.25500000920E-02 0.  1.
       -2    1    3    3    0  502  0.17319710358E+04  0.25642906140E+03  0.61671039682E+02  0.17519368851E+04  0.25500000920E-02 0. -1.
</event>
<event>
 5   0  0.1873457E-07  0.3505504E+04  0.7818609E-02  0.8112487E-01
        1   -1    0    0  501    0  0.00000000000E+00  0.00000000000E+00  0.15333354713E+04  0.15333354713E+04  0.50400001928E-02 0. -1.
       -1   -1    0    0    0  501  0.00000000000E+00  0.00000000000E+00 -0.20035670080E+04  0.20035670080E+04  0.50400001928E-02 0.  1.
    10030    2    1    2    0    0  0.00000000000E+00  0.00000000000E+00 -0.47023153673E+03  0.35369024793E+04  0.35055044502E+04 0.  0.
        3    1    3    3  502    0 -0.10438559796E+04  0.13066171131E+04  0.29423258228E+03  0.16980743237E+04  0.10100000352E+00 0. -1.
       -3    1    3    3    0  502  0.10438559796E+04 -0.13066171131E+04 -0.76446411901E+03  0.18388281556E+04  0.10100000352E+00 0.  1.
</event>
<event>
 5   0  0.5554745E-07  0.3467905E+04  0.7818609E-02  0.8121439E-01
       -2   -1    0    0    0  501  0.00000000000E+00  0.00000000000E+00  0.29944591973E+04  0.29944591973E+04  0.25500000920E-02 0.  1.
        2   -1    0    0  501    0  0.00000000000E+00  0.00000000000E+00 -0.10040512668E+04  0.10040512668E+04  0.25500000920E-02 0. -1.
    10030    2    1    2    0    0  0.00000000000E+00  0.00000000000E+00  0.19904079305E+04  0.39985104641E+04  0.34679045837E+04 0.  0.
        5    1    3    3  502    0 -0.10815122063E+03  0.13952205755E+04  0.21756867633E+04  0.25868846366E+04  0.46999998093E+01 0.  1.
       -5    1    3    3    0  502  0.10815122063E+03 -0.13952205755E+04 -0.18527883288E+03  0.14116258275E+04  0.46999998093E+01 0. -1.
</event>
<event>
 5   0  0.5740827E-07  0.3523081E+04  0.7818609E-02  0.8108342E-01
       -2   -1    0    0    0  501  0.00000000000E+00  0.00000000000E+00  0.16993299902E+04  0.16993299902E+04  0.25500000920E-02 0. -1.
        2   -1    0    0  501    0  0.00000000000E+00  0.00000000000E+00 -0.18260284294E+04  0.18260284294E+04  0.25500000920E-02 0.  1.
    10030    2    1    2    0    0  0.00000000000E+00  0.00000000000E+00 -0.12669843929E+03  0.35253584196E+04  0.35230809659E+04 0.  0.
        2    1    3    3  502    0  0.35079682549E+03 -0.10547278665E+04  0.13041049239E+04  0.17135340492E+04  0.25500000920E-02 0. -1.
       -2    1    3    3    0  502 -0.35079682549E+03  0.10547278665E+04 -0.14308033632E+04  0.18118243704E+04  0.25500000920E-02 0.  1.
</event>
<event>
 5   0  0.1866421E-07  0.3519026E+04  0.7818609E-02  0.8109296E-01
       -1   -1    0    0    0  501  0.00000000000E+00  0.00000000000E+00  0.20781837447E+04  0.20781837447E+04  0.50400001928E-02 0. -1.
        1   -1    0    0  501    0  0.00000000000E+00  0.00000000000E+00 -0.14897071614E+04  0.14897071614E+04  0.50400001928E-02 0.  1.
    10030    2    1    2    0    0  0.00000000000E+00  0.00000000000E+00  0.58847658331E+03  0.35678909061E+04  0.35190255510E+04 0.  0.
        1    1    3    3  502    0 -0.76455320394E+03 -0.85034060205E+03 -0.10615910240E+04  0.15603192761E+04  0.50400001928E-02 0.  1.
       -1    1    3    3    0  502  0.76455320394E+03  0.85034060205E+03  0.16500676073E+04  0.20075716300E+04  0.50400001928E-02 0. -1.
</event>
<event>
 5   0  0.5554745E-07  0.3509277E+04  0.7818609E-02  0.8111595E-01
       -2   -1    0    0    0  501  0.00000000000E+00  0.00000000000E+00  0.24833743168E+04  0.24833743168E+04  0.25500000920E-02 0.  1.
        2   -1    0    0  501    0  0.00000000000E+00  0.00000000000E+00 -0.12397474371E+04  0.12397474371E+04  0.25500000920E-02 0. -1.
    10030    2    1    2    0    0  0.00000000000E+00  0.00000000000E+00  0.12436268797E+04  0.37231217539E+04  0.35092773870E+04 0.  0.
        5    1    3    3  502    0  0.40847643693E+03 -0.54562421718E+02  0.24312955547E+04  0.24659785525E+04  0.46999998093E+01 0.  1.
       -5    1    3    3    0  502 -0.40847643693E+03  0.54562421718E+02 -0.11876686750E+04  0.12571432014E+04  0.46999998093E+01 0. -1.
</event>
<event>
 5   0  0.5554745E-07  0.3357506E+04  0.7818609E-02  0.8148415E-01
       -2   -1    0    0    0  501  0.00000000000E+00  0.00000000000E+00  0.17872176513E+04  0.17872176513E+04  0.25500000920E-02 0. -1.
        2   -1    0    0  501    0  0.00000000000E+00  0.00000000000E+00 -0.15768710693E+04  0.15768710693E+04  0.25500000920E-02 0.  1.
    10030    2    1    2    0    0  0.00000000000E+00  0.00000000000E+00  0.21034658196E+03  0.33640887205E+04  0.33575061035E+04 0.  0.
        5    1    3    3  502    0 -0.14914344786E+04 -0.42004528123E+03  0.75248547545E+03  0.17225188890E+04  0.46999998093E+01 0. -1.
       -5    1    3    3    0  502  0.14914344786E+04  0.42004528123E+03 -0.54213889349E+03  0.16415698316E+04  0.46999998093E+01 0.  1.
</event>
<event>
 5   0  0.5677193E-07  0.3422377E+04  0.7818609E-02  0.8132436E-01
        2   -1    0    0  501    0  0.00000000000E+00  0.00000000000E+00  0.15847715326E+04  0.15847715326E+04  0.25500000920E-02 0.  1.
       -2   -1    0    0    0  501  0.00000000000E+00  0.00000000000E+00 -0.18476898299E+04  0.18476898299E+04  0.25500000920E-02 0. -1.
    10030    2    1    2    0    0  0.00000000000E+00  0.00000000000E+00 -0.26291829730E+03  0.34324613624E+04  0.34223770940E+04 0.  0.
        3    1    3    3  502    0  0.13438447229E+03  0.71498461019E+03  0.14219441963E+04  0.15972437155E+04  0.10100000352E+00 0.  1.
       -3    1    3    3    0  502 -0.13438447229E+03 -0.71498461019E+03 -0.16848624936E+04  0.18352176469E+04  0.10100000352E+00 0. -1.
</event>
<event>
 5   0  0.1897049E-07  0.3591895E+04  0.7818609E-02  0.8092351E-01
       -1   -1    0    0    0  501  0.00000000000E+00  0.00000000000E+00  0.21468045003E+04  0.21468045003E+04  0.50400001928E-02 0. -1.
        1   -1    0    0  501    0  0.00000000000E+00  0.00000000000E+00 -0.15024320278E+04  0.15024320278E+04  0.50400001928E-02 0.  1.
    10030    2    1    2    0    0  0.00000000000E+00  0.00000000000E+00  0.64437247249E+03  0.36492365280E+04  0.35918952315E+04 0.  0.
        2    1    3    3  502    0  0.15062633735E+04 -0.93663932143E+03  0.36078647978E+02  0.17740981477E+04  0.25500000920E-02 0. -1.
       -2    1    3    3    0  502 -0.15062633735E+04  0.93663932143E+03  0.60829382452E+03  0.18751383804E+04  0.25500000920E-02 0.  1.
</event>
<event>
 5   0  0.1908190E-07  0.3507244E+04  0.7818609E-02  0.8112075E-01
       -1   -1    0    0    0  501  0.00000000000E+00  0.00000000000E+00  0.15437789241E+04  0.15437789241E+04  0.50400001928E-02 0. -1.
        1   -1    0    0  501    0  0.00000000000E+00  0.00000000000E+00 -0.19919892326E+04  0.19919892326E+04  0.50400001928E-02 0.  1.
    10030    2    1    2    0    0  0.00000000000E+00  0.00000000000E+00 -0.44821030849E+03  0.35357681568E+04  0.35072444993E+04 0.  0.
        5    1    3    3  502    0 -0.13237079201E+04  0.74039707354E+03 -0.11114787368E+04  0.18803716538E+04  0.46999998093E+01 0. -1.
       -5    1    3    3    0  502  0.13237079201E+04 -0.74039707354E+03  0.66326842828E+03  0.16553965030E+04  0.46999998093E+01 0.  1.
</event>
<event>
 5   0  0.5740827E-07  0.3475895E+04  0.7818609E-02  0.8119526E-01
        2   -1    0    0  501    0  0.00000000000E+00  0.00000000000E+00  0.26216258846E+04  0.26216258846E+04  0.25500000920E-02 0. -1.
       -2   -1    0    0    0  501  0.00000000000E+00  0.00000000000E+00 -0.11521330068E+04  0.11521330068E+04  0.25500000920E-02 0.  1.
    10030    2    1    2    0    0  0.00000000000E+00  0.00000000000E+00  0.14694928778E+04  0.37737588914E+04  0.34758951153E+04 0.  0.
        2    1    3    3  502    0  0.64006070542E+03  0.47878138115E+03  0.24102199126E+04  0.25393048940E+04  0.25500000920E-02 0. -1.
       -2    1    3    3    0  502 -0.64006070542E+03 -0.47878138115E+03 -0.94072703486E+03  0.12344539974E+04  0.25500000920E-02 0.  1.
</event>
<event>
 5   0  0.5707187E-07  0.3506191E+04  0.7818609E-02  0.8112324E-01
       -2   -1    0    0    0  501  0.00000000000E+00  0.00000000000E+00  0.19410676859E+04  0.19410676859E+04  0.25500000920E-02 0.  1.
        2   -1    0    0  501    0  0.00000000000E+00  0.00000000000E+00 -0.15833264211E+04  0.15833264211E+04  0.25500000920E-02 0. -1.
    10030    2    1    2    0    0  0.00000000000E+00  0.00000000000E+00  0.35774126475E+03  0.35243941070E+04  0.35061909544E+04 0.  0.
        1    1    3    3  502    0  0.31592212535E+03 -0.14644666734E+04  0.10940226576E+04  0.18550889473E+04  0.50400001928E-02 0.  1.
       -1    1    3    3    0  502 -0.31592212535E+03  0.14644666734E+04 -0.73628139289E+03  0.16693051597E+04  0.50400001928E-02 0. -1.
</event>
<event>
 5   0  0.1933647E-07  0.3479810E+04  0.7818609E-02  0.8118591E-01
        1   -1    0    0  501    0  0.00000000000E+00  0.00000000000E+00  0.15919498309E+04  0.15919498310E+04  0.50400001928E-02 0. -1.
       -1   -1    0    0    0  501  0.00000000000E+00  0.00000000000E+00 -0.19016108957E+04  0.19016108957E+04  0.50400001928E-02 0.  1.
    10030    2    1    2    0    0  0.00000000000E+00  0.00000000000E+00 -0.30966106476E+03  0.34935607267E+04  0.34798098477E+04 0.  0.
        4    1    3    3  502    0  0.11601559833E+04  0.11814416649E+04 -0.69126511334E+03  0.17943286719E+04  0.12699999809E+01 0.  1.
       -4    1    3    3    0  502 -0.11601559833E+04 -0.11814416649E+04  0.38160404858E+03  0.16992320547E+04  0.12699999809E+01 0. -1.
</event>
<event>
 5   0  0.1873457E-07  0.3503884E+04  0.7818609E-02  0.8112870E-01
        1   -1    0    0  501    0  0.00000000000E+00  0.00000000000E+00  0.22703682284E+04  0.22703682284E+04  0.50400001928E-02 0.  1.
       -1   -1    0    0    0  501  0.00000000000E+00  0.00000000000E+00 -0.13518952489E+04  0.13518952489E+04  0.50400001928E-02 0. -1.
    10030    2    1    2    0    0  0.00000000000E+00  0.00000000000E+00  0.91847297944E+03  0.36222634773E+04  0.35038835718E+04 0.  0.
        3    1    3    3  502    0  0.13104552901E+04 -0.39014616905E+03 -0.67312089259E+03  0.15240074957E+04  0.10100000352E+00 0. -1.
       -3    1    3    3    0  502 -0.13104552901E+04  0.39014616905E+03  0.15915938720E+04  0.20982559816E+04  0.10100000352E+00 0.  1.
</event>
<event>
 5   0  0.5740827E-07  0.3497343E+04  0.7818609E-02  0.8114420E-01
        2   -1    0    0  501    0  0.00000000000E+00  0.00000000000E+00  0.18664069969E+04  0.18664069969E+04  0.25500000920E-02 0.  1.
       -2   -1    0    0    0  501  0.00000000000E+00  0.00000000000E+00 -0.16383632172E+04  0.16383632172E+04  0.25500000920E-02 0. -1.
    10030    2    1    2    0    0  0.00000000000E+00  0.00000000000E+00  0.22804377967E+03  0.35047702141E+04  0.34973433186E+04 0.  0.
        2    1    3    3  502    0  0.87414344582E+03 -0.93696628989E+03 -0.10783872616E+04  0.16747989963E+04  0.25500000920E-02 0. -1.
       -2    1    3    3    0  502 -0.87414344582E+03  0.93696628989E+03  0.13064310412E+04  0.18299712177E+04  0.25500000920E-02 0.  1.
</event>
<event>
 5   0  0.1873457E-07  0.3482185E+04  0.7818609E-02  0.8118025E-01
       -1   -1    0    0    0  501  0.00000000000E+00  0.00000000000E+00  0.13652307240E+04  0.13652307240E+04  0.50400001928E-02 0.  1.
        1   -1    0    0  501    0  0.00000000000E+00  0.00000000000E+00 -0.22204333696E+04  0.22204333696E+04  0.50400001928E-02 0. -1.
    10030    2    1    2    0    0  0.00000000000E+00  0.00000000000E+00 -0.85520264566E+03  0.35856640936E+04  0.34821854383E+04 0.  0.
        3    1    3    3  502    0  0.13223016756E+04 -0.82279919144E+03  0.37394134722E+03  0.16016592559E+04  0.10100000352E+00 0.  1.
       -3    1    3    3    0  502 -0.13223016756E+04  0.82279919144E+03 -0.12291439929E+04  0.19840048377E+04  0.10100000352E+00 0. -1.
</event>
<event>
 5   0  0.1866421E-07  0.3517475E+04  0.7818609E-02  0.8109661E-01
       -1   -1    0    0    0  501  0.00000000000E+00  0.00000000000E+00  0.15459984570E+04  0.15459984570E+04  0.50400001928E-02 0. -1.
        1   -1    0    0  501    0  0.00000000000E+00  0.00000000000E+00 -0.20007503210E+04  0.20007503210E+04  0.50400001928E-02 0.  1.
    10030    2    1    2    0    0  0.00000000000E+00  0.00000000000E+00 -0.45475186406E+03  0.35467487780E+04  0.35174746106E+04 0.  0.
        1    1    3    3  502    0  0.11777104489E+04 -0.87447714697E+03  0.75097997182E+03  0.16479329781E+04  0.50400001928E-02 0. -1.
       -1    1    3    3    0  502 -0.11777104489E+04  0.87447714697E+03 -0.12057318359E+04  0.18988157999E+04  0.50400001928E-02 0.  1.
</event>
<event>
 5   0  0.1897049E-07  0.3443148E+04  0.7818609E-02  0.8127397E-01
       -1   -1    0    0    0  501  0.00000000000E+00  0.00000000000E+00  0.14205106154E+04  0.14205106154E+04  0.50400001928E-02 0. -1.
        1   -1    0    0  501    0  0.00000000000E+00  0.00000000000E+00 -0.20864453289E+04  0.20864453289E+04  0.50400001928E-02 0.  1.
    10030    2    1    2    0    0  0.00000000000E+00  0.00000000000E+00 -0.66593471356E+03  0.35069559443E+04  0.34431484070E+04 0.  0.
        2    1    3    3  502    0  0.13975857003E+03 -0.12422499916E+04  0.87264911120E+03  0.15245438567E+04  0.25500000920E-02 0. -1.
       -2    1    3    3    0  502 -0.13975857003E+03  0.12422499916E+04 -0.15385838248E+04  0.19824120877E+04  0.25500000920E-02 0.  1.
</event>
<event>
 5   0  0.5573334E-07  0.3611145E+04  0.7818609E-02  0.8087943E-01
        2   -1    0    0  501    0  0.00000000000E+00  0.00000000000E+00  0.16426981993E+04  0.16426981993E+04  0.25500000920E-02 0. -1.
       -2   -1    0    0    0  501  0.00000000000E+00  0.00000000000E+00 -0.19845961844E+04  0.19845961844E+04  0.25500000920E-02 0.  1.
    10030    2    1    2    0    0  0.00000000000E+00  0.00000000000E+00 -0.34189798513E+03  0.36272943837E+04  0.36111452911E+04 0.  0.
        4    1    3    3  502    0  0.13428738040E+04 -0.53862991829E+03 -0.12558990760E+04  0.19159113613E+04  0.12699999809E+01 0.  1.
       -4    1    3    3    0  502 -0.13428738040E+04  0.53862991829E+03  0.91400109083E+03  0.17113830224E+04  0.12699999809E+01 0. -1.
</event>
<event>
 5   0  0.5554745E-07  0.3522141E+04  0.7818609E-02  0.8108563E-01
       -2   -1    0    0    0  501  0.00000000000E+00  0.00000000000E+00  0.12558503890E+04  0.12558503890E+04  0.25500000920E-02 0. -1.
        2   -1    0    0  501    0  0.00000000000E+00  0.00000000000E+00 -0.24695369427E+04  0.24695369427E+04  0.25500000920E-02 0.  1.
    10030    2    1    2    0    0  0.00000000000E+00  0.00000000000E+00 -0.12136865537E+04  0.37253873317E+04  0.35221407866E+04 0.  0.
        5    1    3    3  502    0 -0.71570679746E+01 -0.62760520137E+03 -0.23472130101E+04  0.24296852712E+04  0.46999998093E+01 0.  1.
       -5    1    3    3    0  502  0.71570679746E+01  0.62760520137E+03  0.11335264564E+04  0.12957020606E+04  0.46999998093E+01 0. -1.
</event>
<event>
 5   0  0.5573334E-07  0.3498746E+04  0.7818609E-02  0.8114087E-01
        2   -1    0    0  501    0  0.00000000000E+00  0.00000000000E+00  0.26898405301E+04  0.26898405301E+04  0.25500000920E-02 0. -1.
       -2   -1    0    0    0  501  0.00000000000E+00  0.00000000000E+00 -0.11377277058E+04  0.11377277058E+04  0.25500000920E-02 0.  1.
    10030    2    1    2    0    0  0.00000000000E+00  0.00000000000E+00  0.15521128242E+04  0.38275682359E+04  0.34987461156E+04 0.  0.
        4    1    3    3  502    0 -0.11140286480E+04  0.12591068508E+04  0.13051355081E+04  0.21283303780E+04  0.12699999809E+01 0. -1.
       -4    1    3    3    0  502  0.11140286480E+04 -0.12591068508E+04  0.24697731613E+03  0.16992378579E+04  0.12699999809E+01 0.  1.
</event>
<event>
 5   0  0.5707187E-07  0.3495506E+04  0.7818609E-02  0.8114856E-01
       -2   -1    0    0    0  501  0.00000000000E+00  0.00000000000E+00  0.13658026530E+04  0.13658026531E+04  0.25500000920E-02 0.  1.
        2   -1    0    0  501    0  0.00000000000E+00  0.00000000000E+00 -0.22365163322E+04  0.22365163322E+04  0.25500000920E-02 0. -1.
    10030    2    1    2    0    0  0.00000000000E+00  0.00000000000E+00 -0.87071367920E+03  0.36023189853E+04  0.34955056516E+04 0.  0.
        1    1    3    3  502    0  0.36236343183E+03 -0.11149661737E+04 -0.17711846055E+04  0.21240413678E+04  0.50400001928E-02 0. -1.
       -1    1    3    3    0  502 -0.36236343183E+03  0.11149661737E+04  0.90047092629E+03  0.14782776175E+04  0.50400001928E-02 0.  1.
</event>
<event>
 5   0  0.5554745E-07  0.3523585E+04  0.7818609E-02  0.8108223E-01
       -2   -1    0    0    0  501  0.00000000000E+00  0.00000000000E+00  0.27350960895E+04  0.27350960895E+04  0.25500000920E-02 0. -1.
        2   -1    0    0  501    0  0.00000000000E+00  0.00000000000E+00 -0.11348458084E+04  0.11348458084E+04  0.25500000920E-02 0.  1.
    10030    2    1    2    0    0  0.00000000000E+00  0.00000000000E+00  0.16002502811E+04  0.38699418978E+04  0.35235847273E+04 0.  0.
        5    1    3    3  502    0 -0.29091730107E+02 -0.16405424859E+04  0.95446170743E+02  0.16435808585E+04  0.46999998093E+01 0.  1.
       -5    1    3    3    0  502  0.29091730107E+02  0.16405424859E+04  0.15048041104E+04  0.22263610393E+04  0.46999998093E+01 0. -1.
</event>
<event>
 5   0  0.5677193E-07  0.3443121E+04  0.7818609E-02  0.8127403E-01
        2   -1    0    0  501    0  0.00000000000E+00  0.00000000000E+00  0.16858547269E+04  0.16858547269E+04  0.25500000920E-02 0.  1.
       -2   -1    0    0    0  501  0.00000000000E+00  0.00000000000E+00 -0.17580225599E+04  0.17580225599E+04  0.25500000920E-02 0. -1.
    10030    2    1    2    0    0  0.00000000000E+00  0.00000000000E+00 -0.72167833051E+02  0.34438772868E+04  0.34431210508E+04 0.  0.
        3    1    3    3  502    0  0.58926040156E+03  0.61984769867E+03 -0.15305110155E+04  0.17532549641E+04  0.10100000352E+00 0. -1.
       -3    1    3    3    0  502 -0.58926040156E+03 -0.61984769867E+03  0.14583431824E+04  0.16906223228E+04  0.10100000352E+00 0.  1.
</event>
<event>
 5   0  0.5573334E-07  0.3489840E+04  0.7818609E-02  0.8116202E-01
       -2   -1    0    0    0  501  0.00000000000E+00  0.00000000000E+00  0.12669610037E+04  0.12669610037E+04  0.25500000920E-02 0.  1.
        2   -1    0    0  501    0  0.00000000000E+00  0.00000000000E+00 -0.24031881407E+04  0.24031881407E+04  0.25500000920E-02 0. -1.
    10030    2    1    2    0    0  0.00000000000E+00  0.00000000000E+00 -0.11362271370E+04  0.36701491444E+04  0.34898399155E+04 0.  0.
        4    1    3    3  502    0 -0.10396644954E+04  0.23402206842E+03  0.88496719819E+03  0.13852209738E+04  0.12699999809E+01 0.  1.
       -4    1    3    3    0  502  0.10396644954E+04 -0.23402206842E+03 -0.20211943352E+04  0.22849281706E+04  0.12699999809E+01 0. -1.
</event>
<event>
 5   0  0.1873457E-07  0.3546105E+04  0.7818609E-02  0.8102950E-01
       -1   -1    0    0    0  501  0.00000000000E+00  0.00000000000E+00  0.27712574444E+04  0.27712574444E+04  0.50400001928E-02 0. -1.
        1   -1    0    0  501    0  0.00000000000E+00  0.00000000000E+00 -0.11344004912E+04  0.11344004912E+04  0.50400001928E-02 0.  1.
    10030    2    1    2    0    0  0.00000000000E+00  0.00000000000E+00  0.16368569532E+04  0.39056579356E+04  0.35461053600E+04 0.  0.
        3    1    3    3  502    0 -0.29935052046E+03 -0.98191450728E+03 -0.77381841454E+03  0.12855200436E+04  0.10100000352E+00 0.  1.
       -3    1    3    3    0  502  0.29935052046E+03  0.98191450728E+03  0.24106753678E+04  0.26201378919E+04  0.10100000352E+00 0. -1.
</event>
<event>
 5   0  0.1897049E-07  0.3508472E+04  0.7818609E-02  0.8111785E-01
        1   -1    0    0  501    0  0.00000000000E+00  0.00000000000E+00  0.26071154443E+04  0.26071154443E+04  0.50400001928E-02 0.  1.
       -1   -1    0    0    0  501  0.00000000000E+00  0.00000000000E+00 -0.11803636839E+04  0.11803636839E+04  0.50400001928E-02 0. -1.
    10030    2    1    2    0    0  0.00000000000E+00  0.00000000000E+00  0.14267517604E+04  0.37874791282E+04  0.35084722545E+04 0.  0.
        2    1    3    3  502    0 -0.16633532194E+04 -0.37341979254E+03  0.11599884589E+04  0.20619795098E+04  0.25500000920E-02 0.  1.
       -2    1    3    3    0  502  0.16633532194E+04  0.37341979254E+03  0.26676330155E+03  0.17254996184E+04  0.25500000920E-02 0. -1.
</event>
<event>
 5   0  0.1908190E-07  0.3497402E+04  0.7818609E-02  0.8114406E-01
        1   -1    0    0  501    0  0.00000000000E+00  0.00000000000E+00  0.23728695301E+04  0.23728695301E+04  0.50400001928E-02 0.  1.
       -1   -1    0    0    0  501  0.00000000000E+00  0.00000000000E+00 -0.12887161834E+04  0.12887161834E+04  0.50400001928E-02 0. -1.
    10030    2    1    2    0    0  0.00000000000E+00  0.00000000000E+00  0.10841533467E+04  0.36615857135E+04  0.34974021013E+04 0.  0.
        5    1    3    3  502    0 -0.10273130690E+04 -0.48111690863E+02 -0.93861756612E+03  0.13923763507E+04  0.46999998093E+01 0. -1.
       -5    1    3    3    0  502  0.10273130690E+04  0.48111690863E+02  0.20227709129E+04  0.22692093628E+04  0.46999998093E+01 0.  1.
</event>
<event>
 5   0  0.5573334E-07  0.3451487E+04  0.7818609E-02  0.8125384E-01
       -2   -1    0    0    0  501  0.00000000000E+00  0.00000000000E+00  0.16851825887E+04  0.16851825887E+04  0.25500000920E-02 0. -1.
        2   -1    0    0  501    0  0.00000000000E+00  0.00000000000E+00 -0.17672807236E+04  0.17672807236E+04  0.25500000920E-02 0.  1.
    10030    2    1    2    0    0  0.00000000000E+00  0.00000000000E+00 -0.82098134915E+02  0.34524633123E+04  0.34514870446E+04 0.  0.
        4    1    3    3  502    0  0.64286136740E+03  0.76582851343E+03 -0.14480119000E+04  0.17596886444E+04  0.12699999809E+01 0.  1.
       -4    1    3    3    0  502 -0.64286136740E+03 -0.76582851343E+03  0.13659137651E+04  0.16927746679E+04  0.12699999809E+01 0. -1.
</event>
<event>
 5   0  0.1866421E-07  0.3546805E+04  0.7818609E-02  0.8102787E-01
       -1   -1    0    0    0  501  0.00000000000E+00  0.00000000000E+00  0.13113672240E+04  0.13113672240E+04  0.50400001928E-02 0.  1.
        1   -1    0    0  501    0  0.00000000000E+00  0.00000000000E+00 -0.23982264617E+04  0.23982264617E+04  0.50400001928E-02 0. -1.
    10030    2    1    2    0    0  0.00000000000E+00  0.00000000000E+00 -0.10868592377E+04  0.37095936857E+04  0.35468045211E+04 0.  0.
        1    1    3    3  502    0  0.50881455930E+03 -0.71627342862E+03 -0.21545923070E+04  0.23268450507E+04  0.50400001928E-02 0. -1.
       -1    1    3    3    0  502 -0.50881455930E+03  0.71627342862E+03  0.10677330694E+04  0.13827486351E+04  0.50400001928E-02 0.  1.
</event>
<event>
 5   0  0.1908190E-07  0.3501701E+04  0.7818609E-02  0.8113387E-01
        1   -1    0    0  501    0  0.00000000000E+00  0.00000000000E+00  0.12963241112E+04  0.12963241112E+04  0.50400001928E-02 0. -1.
       -1   -1    0    0    0  501  0.00000000000E+00  0.00000000000E+00 -0.23647465357E+04  0.23647465357E+04  0.50400001928E-02 0.  1.
    10030    2    1    2    0    0  0.00000000000E+00  0.00000000000E+00 -0.10684224246E+04  0.36610706469E+04  0.35017012729E+04 0.  0.
        5    1    3    3  502    0  0.27632914139E+03  0.37025061449E+03 -0.22998616705E+04  0.23458109697E+04  0.46999998093E+01 0.  1.
       -5    1    3    3    0  502 -0.27632914139E+03 -0.37025061449E+03  0.12314392460E+04  0.13152596772E+04  0.46999998093E+01 0. -1.
</event>
<event>
 5   0  0.1866421E-07  0.3487634E+04  0.7818609E-02  0.8116727E-01
       -1   -1    0    0    0  501  0.00000000000E+00  0.00000000000E+00  0.11927006675E+04  0.11927006675E+04  0.50400001928E-02 0.  1.
        1   -1    0    0  501    0  0.00000000000E+00  0.00000000000E+00 -0.25495900660E+04  0.25495900660E+04  0.50400001928E-02 0. -1.
    10030    2    1    2    0    0  0.00000000000E+00  0.00000000000E+00 -0.13568893985E+04  0.37422907336E+04  0.34876340253E+04 0.  0.
        1    1    3    3  502    0  0.44760772749E+03 -0.16219532885E+04 -0.18694593775E+03  0.16929364818E+04  0.50400001928E-02 0.  1.
       -1    1    3    3    0  502 -0.44760772749E+03  0.16219532885E+04 -0.11699434608E+04  0.20493542518E+04  0.50400001928E-02 0. -1.
</event>
<event>
 5   0  0.1897049E-07  0.3422740E+04  0.7818609E-02  0.8132348E-01
       -1   -1    0    0    0  501  0.00000000000E+00  0.00000000000E+00  0.13011382377E+04  0.13011382377E+04  0.50400001928E-02 0.  1.
        1   -1    0    0  501    0  0.00000000000E+00  0.00000000000E+00 -0.22509425273E+04  0.22509425274E+04  0.50400001928E-02 0. -1.
    10030    2    1    2    0    0  0.00000000000E+00  0.00000000000E+00 -0.94980428961E+03  0.35520807651E+04  0.34227400680E+04 0.  0.
        2    1    3    3  502    0 -0.10652800753E+04  0.11254279086E+04  0.27874806724E+03  0.15745190063E+04  0.25500000920E-02 0.  1.
       -2    1    3    3    0  502  0.10652800753E+04 -0.11254279086E+04 -0.12285523569E+04  0.19775617588E+04  0.25500000920E-02 0. -1.
</event>
<event>
 5   0  0.5554745E-07  0.3749552E+04  0.7818609E-02  0.8057068E-01
       -2   -1    0    0    0  501  0.00000000000E+00  0.00000000000E+00  0.19747414575E+04  0.19747414575E+04  0.25500000920E-02 0.  1.
        2   -1    0    0  501    0  0.00000000000E+00  0.00000000000E+00 -0.17798711617E+04  0.17798711617E+04  0.25500000920E-02 0. -1.
    10030    2    1    2    0    0  0.00000000000E+00  0.00000000000E+00  0.19487029581E+03  0.37546126191E+04  0.37495521716E+04 0.  0.
        5    1    3    3  502    0 -0.11795257893E+04 -0.14234464947E+04 -0.21488685745E+03  0.18610963066E+04  0.46999998093E+01 0.  1.
       -5    1    3    3    0  502  0.11795257893E+04  0.14234464947E+04  0.40975715326E+03  0.18935163125E+04  0.46999998093E+01 0. -1.
</event>
<event>
 5   0  0.5573334E-07  0.3502702E+04  0.7818609E-02  0.8113150E-01
       -2   -1    0    0    0  501  0.00000000000E+00  0.00000000000E+00  0.11599577497E+04  0.11599577497E+04  0.25500000920E-02 0.  1.
        2   -1    0    0  501    0  0.00000000000E+00  0.00000000000E+00 -0.26442601325E+04  0.26442601325E+04  0.25500000920E-02 0. -1.
    10030    2    1    2    0    0  0.00000000000E+00  0.00000000000E+00 -0.14843023829E+04  0.38042178822E+04  0.35027018331E+04 0.  0.
        4    1    3    3  502    0 -0.41063567294E+03 -0.84453628767E+03 -0.23477026404E+04  0.25285514624E+04  0.12699999809E+01 0. -1.
       -4    1    3    3    0  502  0.41063567294E+03  0.84453628767E+03  0.86340025754E+03  0.12756664198E+04  0.12699999809E+01 0.  1.
</event>
<event>
 5   0  0.1873457E-07  0.3499878E+04  0.7818609E-02  0.8113819E-01
        1   -1    0    0  501    0  0.00000000000E+00  0.00000000000E+00  0.24690170296E+04  0.24690170296E+04  0.50400001928E-02 0. -1.
       -1   -1    0    0    0  501  0.00000000000E+00  0.00000000000E+00 -0.12402853721E+04  0.12402853721E+04  0.50400001928E-02 0.  1.
    10030    2    1    2    0    0  0.00000000000E+00  0.00000000000E+00  0.12287316575E+04  0.37093024016E+04  0.34998775437E+04 0.  0.
        3    1    3    3  502    0 -0.12250642700E+03  0.11709542553E+04  0.19864951825E+04  0.23091783848E+04  0.10100000352E+00 0. -1.
       -3    1    3    3    0  502  0.12250642700E+03 -0.11709542553E+04 -0.75776352498E+03  0.14001240168E+04  0.10100000352E+00 0.  1.
</event>
<event>
 5   0  0.1897049E-07  0.3489296E+04  0.7818609E-02  0.8116331E-01
       -1   -1    0    0    0  501  0.00000000000E+00  0.00000000000E+00  0.15678550004E+04  0.15678550004E+04  0.50400001928E-02 0. -1.
        1   -1    0    0  501    0  0.00000000000E+00  0.00000000000E+00 -0.19413766107E+04  0.19413766107E+04  0.50400001928E-02 0.  1.
    10030    2    1    2    0    0  0.00000000000E+00  0.00000000000E+00 -0.37352161031E+03  0.35092316111E+04  0.34892962194E+04 0.  0.
        2    1    3    3  502    0  0.63701307503E+03 -0.15541974563E+04  0.28761363147E+03  0.17041235260E+04  0.25500000920E-02 0. -1.
       -2    1    3    3    0  502 -0.63701307503E+03  0.15541974563E+04 -0.66113524178E+03  0.18051080851E+04  0.25500000920E-02 0.  1.
</event>
<event>
 5   0  0.5573334E-07  0.3502794E+04  0.7818609E-02  0.8113128E-01
        2   -1    0    0  501    0  0.00000000000E+00  0.00000000000E+00  0.16577157178E+04  0.16577157178E+04  0.25500000920E-02 0.  1.
       -2   -1    0    0    0  501  0.00000000000E+00  0.00000000000E+00 -0.18503719659E+04  0.18503719659E+04  0.25500000920E-02 0. -1.
    10030    2    1    2    0    0  0.00000000000E+00  0.00000000000E+00 -0.19265624807E+03  0.35080876837E+04  0.35027935661E+04 0.  0.
        4    1    3    3  502    0  0.10008874417E+04 -0.13825982489E+03  0.13363925225E+04  0.16753620616E+04  0.12699999809E+01 0.  1.
       -4    1    3    3    0  502 -0.10008874417E+04  0.13825982489E+03 -0.15290487706E+04  0.18327256221E+04  0.12699999809E+01 0. -1.
</event>
<event>
 5   0  0.1866421E-07  0.3504407E+04  0.7818609E-02  0.8112746E-01
       -1   -1    0    0    0  501  0.00000000000E+00  0.00000000000E+00  0.29598617605E+04  0.29598617605E+04  0.50400001928E-02 0. -1.
        1   -1    0    0  501    0  0.00000000000E+00  0.00000000000E+00 -0.10372840786E+04  0.10372840786E+04  0.50400001928E-02 0.  1.
    10030    2    1    2    0    0  0.00000000000E+00  0.00000000000E+00  0.19225776819E+04  0.39971458391E+04  0.35044072132E+04 0.  0.
        1    1    3    3  502    0 -0.15022407056E+04  0.76251773850E+03  0.15107446923E+04  0.22628543842E+04  0.50400001928E-02 0.  1.
       -1    1    3    3    0  502  0.15022407056E+04 -0.76251773850E+03  0.41183298966E+03  0.17342914548E+04  0.50400001928E-02 0. -1.
</event>
<event>
 5   0  0.5707187E-07  0.3555439E+04  0.7818609E-02  0.8100776E-01
        2   -1    0    0  501    0  0.00000000000E+00  0.00000000000E+00  0.22668849485E+04  0.22668849485E+04  0.25500000920E-02 0. -1.
       -2   -1    0    0    0  501  0.00000000000E+00  0.00000000000E+00 -0.13941098651E+04  0.13941098651E+04  0.25500000920E-02 0.  1.
    10030    2    1    2    0    0  0.00000000000E+00  0.00000000000E+00  0.87277508333E+03  0.36609948136E+04  0.35554390276E+04 0.  0.
        1    1    3    3  502    0  0.65081122730E+03  0.16440882823E+04  0.62542763457E+03  0.18755642510E+04  0.50400001928E-02 0.  1.
       -1    1    3    3    0  502 -0.65081122730E+03 -0.16440882823E+04  0.24734744877E+03  0.17854305626E+04  0.50400001928E-02 0. -1.
</event>
<event>
 5   0  0.1866421E-07  0.3501046E+04  0.7818609E-02  0.8113542E-01
        1   -1    0    0  501    0  0.00000000000E+00  0.00000000000E+00  0.13241843687E+04  0.13241843687E+04  0.50400001928E-02 0. -1.
       -1   -1    0    0    0  501  0.00000000000E+00  0.00000000000E+00 -0.23141274737E+04  0.23141274737E+04  0.50400001928E-02 0.  1.
    10030    2    1    2    0    0  0.00000000000E+00  0.00000000000E+00 -0.98994310495E+03  0.36383118424E+04  0.35010463738E+04 0.  0.
        1    1    3    3  502    0 -0.76707557296E+03  0.55467361359E+03 -0.20252064565E+04  0.22355153642E+04  0.50400001928E-02 0.  1.
       -1    1    3    3    0  502  0.76707557296E+03 -0.55467361359E+03  0.10352633515E+04  0.14027964782E+04  0.50400001928E-02 0. -1.
</event>
<event>
 5   0  0.1866421E-07  0.3587919E+04  0.7818609E-02  0.8093265E-01
        1   -1    0    0  501    0  0.00000000000E+00  0.00000000000E+00  0.13941739423E+04  0.13941739423E+04  0.50400001928E-02 0.  1.
       -1   -1    0    0    0  501  0.00000000000E+00  0.00000000000E+00 -0.23083849508E+04  0.23083849508E+04  0.50400001928E-02 0. -1.
    10030    2    1    2    0    0  0.00000000000E+00  0.00000000000E+00 -0.91421100849E+03  0.37025588931E+04  0.35879186987E+04 0.  0.
        1    1    3    3  502    0 -0.65780734735E+03  0.14578328193E+04  0.38144853191E+03  0.16442293082E+04  0.50400001928E-02 0.  1.
       -1    1    3    3    0  502  0.65780734735E+03 -0.14578328193E+04 -0.12956595404E+04  0.20583295849E+04  0.50400001928E-02 0. -1.
</event>
<event>
 5   0  0.5677193E-07  0.3502677E+04  0.7818609E-02  0.8113156E-01
        2   -1    0    0  501    0  0.00000000000E+00  0.00000000000E+00  0.16284902729E+04  0.16284902729E+04  0.25500000920E-02 0. -1.
       -2   -1    0    0    0  501  0.00000000000E+00  0.00000000000E+00 -0.18834537907E+04  0.18834537907E+04  0.25500000920E-02 0.  1.
    10030    2    1    2    0    0  0.00000000000E+00  0.00000000000E+00 -0.25496351779E+03  0.35119440636E+04  0.35026767922E+04 0.  0.
        3    1    3    3  502    0 -0.11846002840E+04 -0.12119308885E+04 -0.57038780932E+03  0.17881265544E+04  0.10100000352E+00 0.  1.
       -3    1    3    3    0  502  0.11846002840E+04  0.12119308885E+04  0.31542429153E+03  0.17238175092E+04  0.10100000352E+00 0. -1.
</event>
<event>
 5   0  0.1823000E-07  0.3485653E+04  0.7818609E-02  0.8117198E-01
        3   -1    0    0  501    0  0.00000000000E+00  0.00000000000E+00  0.13807585890E+04  0.13807585927E+04  0.10100000352E+00 0. -1.
       -3   -1    0    0    0  501  0.00000000000E+00  0.00000000000E+00 -0.21998376651E+04  0.21998376674E+04  0.10100000352E+00 0.  1.
    10030    2    1    2    0    0  0.00000000000E+00  0.00000000000E+00 -0.81907907611E+03  0.35805962602E+04  0.34856533169E+04 0.  0.
        4    1    3    3  502    0 -0.74194855801E+03 -0.89770443055E+03 -0.17414212139E+04  0.20949726405E+04  0.12699999809E+01 0.  1.
       -4    1    3    3    0  502  0.74194855801E+03  0.89770443055E+03  0.92234213776E+03  0.14856236197E+04  0.12699999809E+01 0. -1.
</event>
<event>
 5   0  0.5677193E-07  0.3493260E+04  0.7818609E-02  0.8115389E-01
       -2   -1    0    0    0  501  0.00000000000E+00  0.00000000000E+00  0.18794680073E+04  0.18794680073E+04  0.25500000920E-02 0.  1.
        2   -1    0    0  501    0  0.00000000000E+00  0.00000000000E+00 -0.16231806466E+04  0.16231806466E+04  0.25500000920E-02 0. -1.
    10030    2    1    2    0    0  0.00000000000E+00  0.00000000000E+00  0.25628736073E+03  0.35026486540E+04  0.34932598503E+04 0.  0.
        3    1    3    3  502    0 -0.15245497095E+04 -0.68255626940E+03  0.63998722443E+03  0.17887757085E+04  0.10100000352E+00 0.  1.
       -3    1    3    3    0  502  0.15245497095E+04  0.68255626940E+03 -0.38369986370E+03  0.17138729455E+04  0.10100000352E+00 0. -1.
</event>
<event>
 5   0  0.5573334E-07  0.3498647E+04  0.7818609E-02  0.8114111E-01
       -2   -1    0    0    0  501  0.00000000000E+00  0.00000000000E+00  0.23006439227E+04  0.23006439227E+04  0.25500000920E-02 0. -1.
        2   -1    0    0  501    0  0.00000000000E+00  0.00000000000E+00 -0.13301199332E+04  0.13301199332E+04  0.25500000920E-02 0.  1.
    10030    2    1    2    0    0  0.00000000000E+00  0.00000000000E+00  0.97052398947E+03  0.36307638560E+04  0.34986467903E+04 0.  0.
        4    1    3    3  502    0 -0.94562818743E+03  0.27424568055E+03 -0.10152674710E+04  0.14142818011E+04  0.12699999809E+01 0.  1.
       -4    1    3    3    0  502  0.94562818743E+03 -0.27424568055E+03  0.19857914605E+04  0.22164820549E+04  0.12699999809E+01 0. -1.
</event>
<event>
 5   0  0.5677193E-07  0.3529574E+04  0.7818609E-02  0.8106817E-01
       -2   -1    0    0    0  501  0.00000000000E+00  0.00000000000E+00  0.13764729092E+04  0.13764729092E+04  0.25500000920E-02 0.  1.
        2   -1    0    0  501    0  0.00000000000E+00  0.00000000000E+00 -0.22626471567E+04  0.22626471567E+04  0.25500000920E-02 0. -1.
    10030    2    1    2    0    0  0.00000000000E+00  0.00000000000E+00 -0.88617424753E+03  0.36391200659E+04  0.35295736368E+04 0.  0.
        3    1    3    3  502    0  0.16252833090E+04 -0.63719570822E+03 -0.17639257885E+03  0.17546163561E+04  0.10100000352E+00 0.  1.
       -3    1    3    3    0  502 -0.16252833090E+04  0.63719570822E+03 -0.70978166867E+03  0.18845037098E+04  0.10100000352E+00 0. -1.
</event>
<event>
 5   0  0.5707187E-07  0.3461630E+04  0.7818609E-02  0.8122944E-01
        2   -1    0    0  501    0  0.00000000000E+00  0.00000000000E+00  0.19465632905E+04  0.19465632905E+04  0.25500000920E-02 0.  1.
       -2   -1    0    0    0  501  0.00000000000E+00  0.00000000000E+00 -0.15389793394E+04  0.15389793394E+04  0.25500000920E-02 0. -1.
    10030    2    1    2    0    0  0.00000000000E+00  0.00000000000E+00  0.40758395105E+03  0.34855426299E+04  0.34616300709E+04 0.  0.
        1    1    3    3  502    0  0.22974185785E+02  0.11086433348E+04 -0.11343362672E+04  0.15862965120E+04  0.50400001928E-02 0. -1.
       -1    1    3    3    0  502 -0.22974185785E+02 -0.11086433348E+04  0.15419202182E+04  0.18992461179E+04  0.50400001928E-02 0.  1.
</event>
<event>
 5   0  0.1897049E-07  0.3505750E+04  0.7818609E-02  0.8112429E-01
       -1   -1    0    0    0  501  0.00000000000E+00  0.00000000000E+00  0.12492474800E+04  0.12492474800E+04  0.50400001928E-02 0. -1.
        1   -1    0    0  501    0  0.00000000000E+00  0.00000000000E+00 -0.24595371119E+04  0.24595371119E+04  0.50400001928E-02 0.  1.
    10030    2    1    2    0    0  0.00000000000E+00  0.00000000000E+00 -0.12102896319E+04  0.37087845919E+04  0.35057498707E+04 0.  0.
        2    1    3    3  502    0  0.64898612842E+03  0.23752730315E+03  0.10990400876E+04  0.12982647376E+04  0.25500000920E-02 0. -1.
       -2    1    3    3    0  502 -0.64898612842E+03 -0.23752730315E+03 -0.23093297195E+04  0.24105198543E+04  0.25500000920E-02 0.  1.
</event>
<event>
 5   0  0.1933647E-07  0.3536741E+04  0.7818609E-02  0.8105138E-01
        1   -1    0    0  501    0  0.00000000000E+00  0.00000000000E+00  0.31277835172E+04  0.31277835172E+04  0.50400001928E-02 0. -1.
       -1   -1    0    0    0  501  0.00000000000E+00  0.00000000000E+00 -0.99979242196E+03  0.99979242197E+03  0.50400001928E-02 0.  1.
    10030    2    1    2    0    0  0.00000000000E+00  0.00000000000E+00  0.21279910953E+04  0.41275759392E+04  0.35367410186E+04 0.  0.
        4    1    3    3  502    0 -0.13875907599E+04  0.35056068613E+03 -0.14818879240E+03  0.14388406593E+04  0.12699999809E+01 0.  1.
       -4    1    3    3    0  502  0.13875907599E+04 -0.35056068613E+03  0.22761798877E+04  0.26887352799E+04  0.12699999809E+01 0. -1.
</event>
<event>
 5   0  0.5554745E-07  0.3505002E+04  0.7818609E-02  0.8112605E-01
       -2   -1    0    0    0  501  0.00000000000E+00  0.00000000000E+00  0.15183616128E+04  0.15183616128E+04  0.25500000920E-02 0. -1.
        2   -1    0    0  501    0  0.00000000000E+00  0.00000000000E+00 -0.20227464923E+04  0.20227464923E+04  0.25500000920E-02 0.  1.
    10030    2    1    2    0    0  0.00000000000E+00  0.00000000000E+00 -0.50438487947E+03  0.35411081052E+04  0.35050024973E+04 0.  0.
        5    1    3    3  502    0 -0.23585432657E+03  0.67882805885E+03 -0.18670329111E+04  0.20005671141E+04  0.46999998093E+01 0.  1.
       -5    1    3    3    0  502  0.23585432657E+03 -0.67882805885E+03  0.13626480317E+04  0.15405409910E+04  0.46999998093E+01 0. -1.
</event>
<event>
 5   0  0.1866421E-07  0.3493009E+04  0.7818609E-02  0.8115449E-01
       -1   -1    0    0    0  501  0.00000000000E+00  0.00000000000E+00  0.17839400483E+04  0.17839400484E+04  0.50400001928E-02 0.  1.
        1   -1    0    0  501    0  0.00000000000E+00  0.00000000000E+00 -0.17098547017E+04  0.17098547018E+04  0.50400001928E-02 0. -1.
    10030    2    1    2    0    0  0.00000000000E+00  0.00000000000E+00  0.74085346595E+02  0.34937947501E+04  0.34930091780E+04 0.  0.
        1    1    3    3  502    0 -0.11762734428E+04 -0.10128493916E+04  0.83771953507E+03  0.17638755970E+04  0.50400001928E-02 0.  1.
       -1    1    3    3    0  502  0.11762734428E+04  0.10128493916E+04 -0.76363418848E+03  0.17299191531E+04  0.50400001928E-02 0. -1.
</event>
<event>
 5   0  0.1933647E-07  0.3499042E+04  0.7818609E-02  0.8114017E-01
       -1   -1    0    0    0  501  0.00000000000E+00  0.00000000000E+00  0.21068896049E+04  0.21068896049E+04  0.50400001928E-02 0.  1.
        1   -1    0    0  501    0  0.00000000000E+00  0.00000000000E+00 -0.14527693182E+04  0.14527693182E+04  0.50400001928E-02 0. -1.
    10030    2    1    2    0    0  0.00000000000E+00  0.00000000000E+00  0.65412028668E+03  0.35596589230E+04  0.34990424832E+04 0.  0.
        4    1    3    3  502    0 -0.67463330686E+03 -0.80783974174E+03  0.17487997327E+04  0.20410872752E+04  0.12699999809E+01 0.  1.
       -4    1    3    3    0  502  0.67463330686E+03  0.80783974174E+03 -0.10946794460E+04  0.15185716478E+04  0.12699999809E+01 0. -1.
</event>
<event>
 5   0  0.1908190E-07  0.3528126E+04  0.7818609E-02  0.8107157E-01
        1   -1    0    0  501    0  0.00000000000E+00  0.00000000000E+00  0.23034434154E+04  0.23034434154E+04  0.50400001928E-02 0. -1.
       -1   -1    0    0    0  501  0.00000000000E+00  0.00000000000E+00 -0.13509852364E+04  0.13509852364E+04  0.50400001928E-02 0.  1.
    10030    2    1    2    0    0  0.00000000000E+00  0.00000000000E+00  0.95245817899E+03  0.36544286518E+04  0.35281258748E+04 0.  0.
        5    1    3    3  502    0 -0.10957612288E+04 -0.12532689723E+04  0.10806602372E+04  0.19847479502E+04  0.46999998093E+01 0. -1.
       -5    1    3    3    0  502  0.10957612288E+04  0.12532689723E+04 -0.12820205824E+03  0.16696807016E+04  0.46999998093E+01 0.  1.
</event>
<event>
 5   0  0.5573334E-07  0.3540748E+04  0.7818609E-02  0.8104200E-01
       -2   -1    0    0    0  501  0.00000000000E+00  0.00000000000E+00  0.20957361263E+04  0.20957361263E+04  0.25500000920E-02 0. -1.
        2   -1    0    0  501    0  0.00000000000E+00  0.00000000000E+00 -0.14955245046E+04  0.14955245046E+04  0.25500000920E-02 0.  1.
    10030    2    1    2    0    0  0.00000000000E+00  0.00000000000E+00  0.60021162163E+03  0.35912606309E+04  0.35407483571E+04 0.  0.
        4    1    3    3  502    0 -0.14098240431E+04  0.72954249657E+02  0.13836613917E+04  0.19767262367E+04  0.12699999809E+01 0. -1.
       -4    1    3    3    0  502  0.14098240431E+04 -0.72954249657E+02 -0.78344977005E+03  0.16145343942E+04  0.12699999809E+01 0.  1.
</event>
<event>
 5   0  0.1866421E-07  0.3490124E+04  0.7818609E-02  0.8116134E-01
       -1   -1    0    0    0  501  0.00000000000E+00  0.00000000000E+00  0.23349231949E+04  0.23349231949E+04  0.50400001928E-02 0.  1.
        1   -1    0    0  501    0  0.00000000000E+00  0.00000000000E+00 -0.13042147899E+04  0.13042147899E+04  0.50400001928E-02 0. -1.
    10030    2    1    2    0    0  0.00000000000E+00  0.00000000000E+00  0.10307084051E+04  0.36391379848E+04  0.34901239886E+04 0.  0.
        1    1    3    3  502    0  0.18927466559E+03  0.15909504117E+04  0.12364696422E+04  0.20238095977E+04  0.50400001928E-02 0. -1.
       -1    1    3    3    0  502 -0.18927466559E+03 -0.15909504117E+04 -0.20576123707E+03  0.16153283871E+04  0.50400001928E-02 0.  1.
</event>
<event>
 5   0  0.5740827E-07  0.3425098E+04  0.7818609E-02  0.8131774E-01
        2   -1    0    0  501    0  0.00000000000E+00  0.00000000000E+00  0.12665379088E+04  0.12665379088E+04  0.25500000920E-02 0.  1.
       -2   -1    0    0    0  501  0.00000000000E+00  0.00000000000E+00 -0.23156225114E+04  0.23156225114E+04  0.25500000920E-02 0. -1.
    10030    2    1    2    0    0  0.00000000000E+00  0.00000000000E+00 -0.10490846027E+04  0.35821604202E+04  0.34250977756E+04 0.  0.
        2    1    3    3  502    0  0.88307465866E+03  0.54573566888E+03  0.89996456860E+03  0.13738939180E+04  0.25500000920E-02 0.  1.
       -2    1    3    3    0  502 -0.88307465866E+03 -0.54573566888E+03 -0.19490491713E+04  0.22082665023E+04  0.25500000920E-02 0. -1.
</event>
<event>
 5   0  0.5554745E-07  0.3308422E+04  0.7818609E-02  0.8160756E-01
        2   -1    0    0  501    0  0.00000000000E+00  0.00000000000E+00  0.21041521405E+04  0.21041521405E+04  0.25500000920E-02 0. -1.
       -2   -1    0    0    0  501  0.00000000000E+00  0.00000000000E+00 -0.13004830451E+04  0.13004830451E+04  0.25500000920E-02 0.  1.
    10030    2    1    2    0    0  0.00000000000E+00  0.00000000000E+00  0.80366909534E+03  0.34046351856E+04  0.33084220910E+04 0.  0.
        5    1    3    3  502    0  0.98526655834E+03 -0.91741453716E+03 -0.58736494931E+03  0.14688156105E+04  0.46999998093E+01 0.  1.
       -5    1    3    3    0  502 -0.98526655834E+03  0.91741453716E+03  0.13910340447E+04  0.19358195751E+04  0.46999998093E+01 0. -1.
</event>
<event>
 5   0  0.1873457E-07  0.3491396E+04  0.7818609E-02  0.8115832E-01
        1   -1    0    0  501    0  0.00000000000E+00  0.00000000000E+00  0.12677587687E+04  0.12677587687E+04  0.50400001928E-02 0.  1.
       -1   -1    0    0    0  501  0.00000000000E+00  0.00000000000E+00 -0.24038183090E+04  0.24038183090E+04  0.50400001928E-02 0. -1.
    10030    2    1    2    0    0  0.00000000000E+00  0.00000000000E+00 -0.11360595403E+04  0.36715770778E+04  0.34913961332E+04 0.  0.
        3    1    3    3  502    0 -0.28548511812E+03 -0.10747188409E+04 -0.19831895624E+04  0.22736673438E+04  0.10100000352E+00 0. -1.
       -3    1    3    3    0  502  0.28548511812E+03  0.10747188409E+04  0.84713002210E+03  0.13979097340E+04  0.10100000352E+00 0.  1.
</event>
<event>
 5   0  0.1908190E-07  0.3509038E+04  0.7818609E-02  0.8111651E-01
       -1   -1    0    0    0  501  0.00000000000E+00  0.00000000000E+00  0.18156731901E+04  0.18156731901E+04  0.50400001928E-02 0. -1.
        1   -1    0    0  501    0  0.00000000000E+00  0.00000000000E+00 -0.16954243642E+04  0.16954243642E+04  0.50400001928E-02 0.  1.
    10030    2    1    2    0    0  0.00000000000E+00  0.00000000000E+00  0.12024882596E+03  0.35110975543E+04  0.35090377963E+04 0.  0.
        5    1    3    3  502    0 -0.42279938998E+03  0.95282255281E+03  0.14722232774E+04  0.18039106435E+04  0.46999998093E+01 0. -1.
       -5    1    3    3    0  502  0.42279938998E+03 -0.95282255281E+03 -0.13519744514E+04  0.17071869108E+04  0.46999998093E+01 0.  1.
</event>
<event>
 5   0  0.5740827E-07  0.3508588E+04  0.7818609E-02  0.8111758E-01
        2   -1    0    0  501    0  0.00000000000E+00  0.00000000000E+00  0.17050962334E+04  0.17050962334E+04  0.25500000920E-02 0.  1.
       -2   -1    0    0    0  501  0.00000000000E+00  0.00000000000E+00 -0.18049114660E+04  0.18049114660E+04  0.25500000920E-02 0. -1.
    10030    2    1    2    0    0  0.00000000000E+00  0.00000000000E+00 -0.99815232589E+02  0.35100076994E+04  0.35085881732E+04 0.  0.
        2    1    3    3  502    0 -0.15142931897E+04  0.31312263583E+03  0.77893111081E+03  0.17314338927E+04  0.25500000920E-02 0.  1.
       -2    1    3    3    0  502  0.15142931897E+04 -0.31312263583E+03 -0.87874634340E+03  0.17785738066E+04  0.25500000920E-02 0. -1.
</event>
<event>
 5   0  0.1933647E-07  0.3469164E+04  0.7818609E-02  0.8121137E-01
       -1   -1    0    0    0  501  0.00000000000E+00  0.00000000000E+00  0.11250010700E+04  0.11250010700E+04  0.50400001928E-02 0. -1.
        1   -1    0    0  501    0  0.00000000000E+00  0.00000000000E+00 -0.26744636428E+04  0.26744636428E+04  0.50400001928E-02 0.  1.
    10030    2    1    2    0    0  0.00000000000E+00  0.00000000000E+00 -0.15494625728E+04  0.37994647128E+04  0.34691638531E+04 0.  0.
        4    1    3    3  502    0 -0.74067206254E+03  0.86760411827E+01 -0.24925376262E+04  0.26002722566E+04  0.12699999809E+01 0.  1.
       -4    1    3    3    0  502  0.74067206254E+03 -0.86760411827E+01  0.94307505333E+03  0.11991924562E+04  0.12699999809E+01 0. -1.
</event>
<event>
 5   0  0.5677193E-07  0.3488286E+04  0.7818609E-02  0.8116572E-01
       -2   -1    0    0    0  501  0.00000000000E+00  0.00000000000E+00  0.16065671929E+04  0.16065671929E+04  0.25500000920E-02 0.  1.
        2   -1    0    0  501    0  0.00000000000E+00  0.00000000000E+00 -0.18934999903E+04  0.18934999903E+04  0.25500000920E-02 0. -1.
    10030    2    1    2    0    0  0.00000000000E+00  0.00000000000E+00 -0.28693279738E+03  0.35000671833E+04  0.34882860917E+04 0.  0.
        3    1    3    3  502    0 -0.84920973645E+03  0.10477098267E+02 -0.16720181565E+04  0.18753430811E+04  0.10100000352E+00 0. -1.
       -3    1    3    3    0  502  0.84920973645E+03 -0.10477098267E+02  0.13850853591E+04  0.16247241022E+04  0.10100000352E+00 0.  1.
</event>
<event>
 5   0  0.5554745E-07  0.3510243E+04  0.7818609E-02  0.8111367E-01
        2   -1    0    0  501    0  0.00000000000E+00  0.00000000000E+00  0.25627702292E+04  0.25627702292E+04  0.25500000920E-02 0.  1.
       -2   -1    0    0    0  501  0.00000000000E+00  0.00000000000E+00 -0.12020007131E+04  0.12020007131E+04  0.25500000920E-02 0. -1.
    10030    2    1    2    0    0  0.00000000000E+00  0.00000000000E+00  0.13607695160E+04  0.37647709423E+04  0.35102430931E+04 0.  0.
        5    1    3    3  502    0  0.11965062839E+04 -0.71143190840E+03  0.18268507826E+04  0.22967735020E+04  0.46999998093E+01 0.  1.
       -5    1    3    3    0  502 -0.11965062839E+04  0.71143190840E+03 -0.46608126661E+03  0.14679974403E+04  0.46999998093E+01 0. -1.
</event>
<event>
 5   0  0.5573334E-07  0.3500609E+04  0.7818609E-02  0.8113646E-01
       -2   -1    0    0    0  501  0.00000000000E+00  0.00000000000E+00  0.21830068706E+04  0.21830068706E+04  0.25500000920E-02 0.  1.
        2   -1    0    0  501    0  0.00000000000E+00  0.00000000000E+00 -0.14033696615E+04  0.14033696615E+04  0.25500000920E-02 0. -1.
    10030    2    1    2    0    0  0.00000000000E+00  0.00000000000E+00  0.77963720903E+03  0.35863765321E+04  0.35006088688E+04 0.  0.
        4    1    3    3  502    0 -0.80901885696E+03 -0.35489139104E+02  0.19795431139E+04  0.21387761787E+04  0.12699999809E+01 0.  1.
       -4    1    3    3    0  502  0.80901885696E+03  0.35489139104E+02 -0.11999059048E+04  0.14476003534E+04  0.12699999809E+01 0. -1.
</event>
<event>
 5   0  0.1866421E-07  0.3492895E+04  0.7818609E-02  0.8115476E-01
       -1   -1    0    0    0  501  0.00000000000E+00  0.00000000000E+00  0.19055666785E+04  0.19055666785E+04  0.50400001928E-02 0.  1.
        1   -1    0    0  501    0  0.00000000000E+00  0.00000000000E+00 -0.16006151898E+04  0.16006151898E+04  0.50400001928E-02 0. -1.
    10030    2    1    2    0    0  0.00000000000E+00  0.00000000000E+00  0.30495148869E+03  0.35061818683E+04  0.34928950576E+04 0.  0.
        1    1    3    3  502    0  0.66771915802E+03  0.93339409180E+03  0.14739201013E+04  0.18680240549E+04  0.50400001928E-02 0.  1.
       -1    1    3    3    0  502 -0.66771915802E+03 -0.93339409180E+03 -0.11689686126E+04  0.16381578135E+04  0.50400001928E-02 0. -1.
</event>
<event>
 5   0  0.5707187E-07  0.3527708E+04  0.7818609E-02  0.8107255E-01
        2   -1    0    0  501    0  0.00000000000E+00  0.00000000000E+00  0.25849319124E+04  0.25849319124E+04  0.25500000920E-02 0. -1.
       -2   -1    0    0    0  501  0.00000000000E+00  0.00000000000E+00 -0.12035830235E+04  0.12035830235E+04  0.25500000920E-02 0.  1.
    10030    2    1    2    0    0  0.00000000000E+00  0.00000000000E+00  0.13813488890E+04  0.37885149359E+04  0.35277075653E+04 0.  0.
        1    1    3    3  502    0 -0.34920430357E+02  0.31379641378E+03 -0.11729882986E+04  0.12147383152E+04  0.50400001928E-02 0.  1.
       -1    1    3    3    0  502  0.34920430357E+02 -0.31379641378E+03  0.25543371875E+04  0.25737766207E+04  0.50400001928E-02 0. -1.
</event>
<event>
 5   0  0.1866421E-07  0.3505432E+04  0.7818609E-02  0.8112504E-01
       -1   -1    0    0    0  501  0.00000000000E+00  0.00000000000E+00  0.19758617871E+04  0.19758617871E+04  0.50400001928E-02 0.  1.
        1   -1    0    0  501    0  0.00000000000E+00  0.00000000000E+00 -0.15547713670E+04  0.15547713670E+04  0.50400001928E-02 0. -1.
    10030    2    1    2    0    0  0.00000000000E+00  0.00000000000E+00  0.42109042013E+03  0.35306331541E+04  0.35054319743E+04 0.  0.
        1    1    3    3  502    0 -0.14110487637E+04 -0.57816517808E+03 -0.65977333270E+03  0.16615157048E+04  0.50400001928E-02 0. -1.
       -1    1    3    3    0  502  0.14110487637E+04  0.57816517808E+03  0.10808637528E+04  0.18691174492E+04  0.50400001928E-02 0.  1.
</event>
<event>
 5   0  0.5573334E-07  0.3484049E+04  0.7818609E-02  0.8117581E-01
       -2   -1    0    0    0  501  0.00000000000E+00  0.00000000000E+00  0.11699691125E+04  0.11699691125E+04  0.25500000920E-02 0. -1.
        2   -1    0    0  501    0  0.00000000000E+00  0.00000000000E+00 -0.25937855201E+04  0.25937855201E+04  0.25500000920E-02 0.  1.
    10030    2    1    2    0    0  0.00000000000E+00  0.00000000000E+00 -0.14238164076E+04  0.37637546326E+04  0.34840487614E+04 0.  0.
        4    1    3    3  502    0  0.10789919342E+04 -0.13565939010E+04 -0.52455878838E+03  0.18110036283E+04  0.12699999809E+01 0.  1.
       -4    1    3    3    0  502 -0.10789919342E+04  0.13565939010E+04 -0.89925761920E+03  0.19527510043E+04  0.12699999809E+01 0. -1.
</event>
<event>
 5   0  0.1866421E-07  0.3512046E+04  0.7818609E-02  0.8110941E-01
        1   -1    0    0  501    0  0.00000000000E+00  0.00000000000E+00  0.14290631556E+04  0.14290631556E+04  0.50400001928E-02 0. -1.
       -1   -1    0    0    0  501  0.00000000000E+00  0.00000000000E+00 -0.21577893580E+04  0.21577893580E+04  0.50400001928E-02 0.  1.
    10030    2    1    2    0    0  0.00000000000E+00  0.00000000000E+00 -0.72872620248E+03  0.35868525136E+04  0.35120462805E+04 0.  0.
        1    1    3    3  502    0  0.17049966306E+04 -0.33794787594E+03 -0.10925270627E+03  0.17415965179E+04  0.50400001928E-02 0. -1.
       -1    1    3    3    0  502 -0.17049966306E+04  0.33794787594E+03 -0.61947349621E+03  0.18452559957E+04  0.50400001928E-02 0.  1.
</event>
<event>
 5   0  0.5554745E-07  0.3546330E+04  0.7818609E-02  0.8102897E-01
        2   -1    0    0  501    0  0.00000000000E+00  0.00000000000E+00  0.18067861041E+04  0.18067861041E+04  0.25500000920E-02 0.  1.
       -2   -1    0    0    0  501  0.00000000000E+00  0.00000000000E+00 -0.17401691288E+04  0.17401691288E+04  0.25500000920E-02 0. -1.
    10030    2    1    2    0    0  0.00000000000E+00  0.00000000000E+00  0.66616975347E+02  0.35469552329E+04  0.35463295959E+04 0.  0.
        5    1    3    3  502    0  0.90849711760E+03 -0.15219629774E+04  0.81824708243E+02  0.17743888216E+04  0.46999998093E+01 0. -1.
       -5    1    3    3    0  502 -0.90849711760E+03  0.15219629774E+04 -0.15207732896E+02  0.17725664113E+04  0.46999998093E+01 0.  1.
</event>
<event>
 5   0  0.5554745E-07  0.3494163E+04  0.7818609E-02  0.8115175E-01
       -2   -1    0    0    0  501  0.00000000000E+00  0.00000000000E+00  0.14457268647E+04  0.14457268647E+04  0.25500000920E-02 0.  1.
        2   -1    0    0  501    0  0.00000000000E+00  0.00000000000E+00 -0.21112520772E+04  0.21112520772E+04  0.25500000920E-02 0. -1.
    10030    2    1    2    0    0  0.00000000000E+00  0.00000000000E+00 -0.66552521249E+03  0.35569789418E+04  0.34941630449E+04 0.  0.
        5    1    3    3  502    0 -0.11754379312E+04 -0.10300421429E+04  0.46206237854E+03  0.16297744868E+04  0.46999998093E+01 0.  1.
       -5    1    3    3    0  502  0.11754379312E+04  0.10300421429E+04 -0.11275875910E+04  0.19272044550E+04  0.46999998093E+01 0. -1.
</event>
<event>
 5   0  0.5740827E-07  0.3495667E+04  0.7818609E-02  0.8114818E-01
        2   -1    0    0  501    0  0.00000000000E+00  0.00000000000E+00  0.17527350942E+04  0.17527350942E+04  0.25500000920E-02 0.  1.
       -2   -1    0    0    0  501  0.00000000000E+00  0.00000000000E+00 -0.17429454670E+04  0.17429454670E+04  0.25500000920E-02 0. -1.
    10030    2    1    2    0    0  0.00000000000E+00  0.00000000000E+00  0.97896271494E+01  0.34956805612E+04  0.34956668533E+04 0.  0.
        2    1    3    3  502    0 -0.12350717948E+04  0.24447582467E+03 -0.12074427826E+04  0.17444451383E+04  0.25500000920E-02 0. -1.
       -2    1    3    3    0  502  0.12350717948E+04 -0.24447582467E+03  0.12172324098E+04  0.17512354229E+04  0.25500000920E-02 0.  1.
</event>
<event>
 5   0  0.5740827E-07  0.3514358E+04  0.7818609E-02  0.8110396E-01
       -2   -1    0    0    0  501  0.00000000000E+00  0.00000000000E+00  0.14577535296E+04  0.14577535296E+04  0.25500000920E-02 0.  1.
        2   -1    0    0  501    0  0.00000000000E+00  0.00000000000E+00 -0.21181069888E+04  0.21181069888E+04  0.25500000920E-02 0. -1.
    10030    2    1    2    0    0  0.00000000000E+00  0.00000000000E+00 -0.66035345924E+03  0.35758605185E+04  0.35143579437E+04 0.  0.
        2    1    3    3  502    0 -0.87127458388E+03  0.60845701960E+03  0.10937199212E+04  0.15249795445E+04  0.25500000920E-02 0.  1.
       -2    1    3    3    0  502  0.87127458388E+03 -0.60845701960E+03 -0.17540733804E+04  0.20508809739E+04  0.25500000920E-02 0. -1.
</event>
<event>
 5   0  0.5707187E-07  0.3516316E+04  0.7818609E-02  0.8109934E-01
       -2   -1    0    0    0  501  0.00000000000E+00  0.00000000000E+00  0.22375395594E+04  0.22375395594E+04  0.25500000920E-02 0. -1.
        2   -1    0    0  501    0  0.00000000000E+00  0.00000000000E+00 -0.13814817075E+04  0.13814817075E+04  0.25500000920E-02 0.  1.
    10030    2    1    2    0    0  0.00000000000E+00  0.00000000000E+00  0.85605785183E+03  0.36190212669E+04  0.35163162379E+04 0.  0.
        1    1    3    3  502    0 -0.13630565640E+04 -0.11077864393E+04  0.34826709234E+03  0.17906434484E+04  0.50400001928E-02 0.  1.
       -1    1    3    3    0  502  0.13630565640E+04  0.11077864393E+04  0.50779075949E+03  0.18283778185E+04  0.50400001928E-02 0. -1.
</event>
<event>
 5   0  0.1908190E-07  0.3512278E+04  0.7818609E-02  0.8110886E-01
        1   -1    0    0  501    0  0.00000000000E+00  0.00000000000E+00  0.20825861392E+04  0.20825861392E+04  0.50400001928E-02 0.  1.
       -1   -1    0    0    0  501  0.00000000000E+00  0.00000000000E+00 -0.14808629093E+04  0.14808629093E+04  0.50400001928E-02 0. -1.
    10030    2    1    2    0    0  0.00000000000E+00  0.00000000000E+00  0.60172322997E+03  0.35634490485E+04  0.35122782173E+04 0.  0.
        5    1    3    3  502    0 -0.66536349888E+03 -0.73830471325E+03 -0.11680579185E+04  0.15336830919E+04  0.46999998093E+01 0. -1.
       -5    1    3    3    0  502  0.66536349888E+03  0.73830471325E+03  0.17697811485E+04  0.20297659567E+04  0.46999998093E+01 0.  1.
</event>
<event>
 5   0  0.1873457E-07  0.3490309E+04  0.7818609E-02  0.8116091E-01
        1   -1    0    0  501    0  0.00000000000E+00  0.00000000000E+00  0.21471669367E+04  0.21471669367E+04  0.50400001928E-02 0.  1.
       -1   -1    0    0    0  501  0.00000000000E+00  0.00000000000E+00 -0.14184101893E+04  0.14184101893E+04  0.50400001928E-02 0. -1.
    10030    2    1    2    0    0  0.00000000000E+00  0.00000000000E+00  0.72875674737E+03  0.35655771260E+04  0.34903085600E+04 0.  0.
        3    1    3    3  502    0 -0.13376627803E+03 -0.66773699835E+03  0.20058262133E+04  0.21182787645E+04  0.10100000352E+00 0.  1.
       -3    1    3    3    0  502  0.13376627803E+03  0.66773699835E+03 -0.12770694659E+04  0.14472983614E+04  0.10100000352E+00 0. -1.
</event>
<event>
 5   0  0.5677193E-07  0.3476545E+04  0.7818609E-02  0.8119371E-01
       -2   -1    0    0    0  501  0.00000000000E+00  0.00000000000E+00  0.13762652182E+04  0.13762652182E+04  0.25500000920E-02 0.  1.
        2   -1    0    0  501    0  0.00000000000E+00  0.00000000000E+00 -0.21955012659E+04  0.21955012659E+04  0.25500000920E-02 0. -1.
    10030    2    1    2    0    0  0.00000000000E+00  0.00000000000E+00 -0.81923604763E+03  0.35717664841E+04  0.34765454283E+04 0.  0.
        3    1    3    3  502    0 -0.84687510980E+03 -0.13201490649E+04  0.36030816171E+03  0.16092895907E+04  0.10100000352E+00 0.  1.
       -3    1    3    3    0  502  0.84687510980E+03  0.13201490649E+04 -0.11795442093E+04  0.19624768934E+04  0.10100000352E+00 0. -1.
</event>
<event>
 5   0  0.1866421E-07  0.3280849E+04  0.7818609E-02  0.8167785E-01
       -1   -1    0    0    0  501  0.00000000000E+00  0.00000000000E+00  0.12193040056E+04  0.12193040056E+04  0.50400001928E-02 0. -1.
        1   -1    0    0  501    0  0.00000000000E+00  0.00000000000E+00 -0.22069912564E+04  0.22069912564E+04  0.50400001928E-02 0.  1.
    10030    2    1    2    0    0  0.00000000000E+00  0.00000000000E+00 -0.98768725083E+03  0.34262952620E+04  0.32808494506E+04 0.  0.
        1    1    3    3  502    0 -0.14600820681E+04 -0.18726487649E+03  0.26218729099E+03  0.14952090004E+04  0.50400001928E-02 0. -1.
       -1    1    3    3    0  502  0.14600820681E+04  0.18726487649E+03 -0.12498745418E+04  0.19310862616E+04  0.50400001928E-02 0.  1.
</event>
<event>
 5   0  0.5740827E-07  0.3506437E+04  0.7818609E-02  0.8112266E-01
        2   -1    0    0  501    0  0.00000000000E+00  0.00000000000E+00  0.26310369928E+04  0.26310369928E+04  0.25500000920E-02 0.  1.
       -2   -1    0    0    0  501  0.00000000000E+00  0.00000000000E+00 -0.11682748697E+04  0.11682748697E+04  0.25500000920E-02 0. -1.
    10030    2    1    2    0    0  0.00000000000E+00  0.00000000000E+00  0.14627621231E+04  0.37993118625E+04  0.35064365958E+04 0.  0.
        2    1    3    3  502    0  0.37933571995E+03  0.25418379338E+03  0.25654754622E+04  0.26057953367E+04  0.25500000920E-02 0.  1.
       -2    1    3    3    0  502 -0.37933571995E+03 -0.25418379338E+03 -0.11027133391E+04  0.11935165259E+04  0.25500000920E-02 0. -1.
</event>
<event>
 5   0  0.1933647E-07  0.3513327E+04  0.7818609E-02  0.8110639E-01
       -1   -1    0    0    0  501  0.00000000000E+00  0.00000000000E+00  0.21065187847E+04  0.21065187847E+04  0.50400001928E-02 0.  1.
        1   -1    0    0  501    0  0.00000000000E+00  0.00000000000E+00 -0.14649126388E+04  0.14649126388E+04  0.50400001928E-02 0. -1.
    10030    2    1    2    0    0  0.00000000000E+00  0.00000000000E+00  0.64160614590E+03  0.35714314235E+04  0.35133266239E+04 0.  0.
        4    1    3    3  502    0 -0.15883857681E+03  0.85449169572E+03  0.18726409608E+04  0.20645027325E+04  0.12699999809E+01 0.  1.
       -4    1    3    3    0  502  0.15883857681E+03 -0.85449169572E+03 -0.12310348149E+04  0.15069286910E+04  0.12699999809E+01 0. -1.
</event>
<event>
 5   0  0.1866421E-07  0.3497790E+04  0.7818609E-02  0.8114314E-01
       -1   -1    0    0    0  501  0.00000000000E+00  0.00000000000E+00  0.19878049237E+04  0.19878049237E+04  0.50400001928E-02 0. -1.
        1   -1    0    0  501    0  0.00000000000E+00  0.00000000000E+00 -0.15386993745E+04  0.15386993745E+04  0.50400001928E-02 0.  1.
    10030    2    1    2    0    0  0.00000000000E+00  0.00000000000E+00  0.44910554925E+03  0.35265042982E+04  0.34977902697E+04 0.  0.
        1    1    3    3  502    0 -0.12112387412E+04 -0.60562742030E+03  0.13403221451E+04  0.19053470322E+04  0.50400001928E-02 0. -1.
       -1    1    3    3    0  502  0.12112387412E+04  0.60562742030E+03 -0.89121659586E+03  0.16211572660E+04  0.50400001928E-02 0.  1.
</event>
<event>
 5   0  0.1897049E-07  0.3544567E+04  0.7818609E-02  0.8103309E-01
        1   -1    0    0  501    0  0.00000000000E+00  0.00000000000E+00  0.17382824701E+04  0.17382824701E+04  0.50400001928E-02 0. -1.
       -1   -1    0    0    0  501  0.00000000000E+00  0.00000000000E+00 -0.18069497550E+04  0.18069497550E+04  0.50400001928E-02 0.  1.
    10030    2    1    2    0    0  0.00000000000E+00  0.00000000000E+00 -0.68667284890E+02  0.35452322252E+04  0.35445671576E+04 0.  0.
        2    1    3    3  502    0 -0.61827439335E+03 -0.56905328431E+03  0.15263771015E+04  0.17423868462E+04  0.25500000920E-02 0. -1.
       -2    1    3    3    0  502  0.61827439335E+03  0.56905328431E+03 -0.15950443864E+04  0.18028453790E+04  0.25500000920E-02 0.  1.
</event>
<event>
 5   0  0.1908190E-07  0.3441970E+04  0.7818609E-02  0.8127682E-01
       -1   -1    0    0    0  501  0.00000000000E+00  0.00000000000E+00  0.16186844784E+04  0.16186844784E+04  0.50400001928E-02 0. -1.
        1   -1    0    0  501    0  0.00000000000E+00  0.00000000000E+00 -0.18297513651E+04  0.18297513651E+04  0.50400001928E-02 0.  1.
    10030    2    1    2    0    0  0.00000000000E+00  0.00000000000E+00 -0.21106688676E+03  0.34484358435E+04  0.34419704438E+04 0.  0.
        5    1    3    3  502    0  0.37013908013E+03  0.82847940848E+03  0.13595358435E+04  0.16345460742E+04  0.46999998093E+01 0. -1.
       -5    1    3    3    0  502 -0.37013908013E+03 -0.82847940848E+03 -0.15706027303E+04  0.18138897693E+04  0.46999998093E+01 0.  1.
</event>
<event>
 5   0  0.5573334E-07  0.3482548E+04  0.7818609E-02  0.8117938E-01
        2   -1    0    0  501    0  0.00000000000E+00  0.00000000000E+00  0.18762057727E+04  0.18762057727E+04  0.25500000920E-02 0. -1.
       -2   -1    0    0    0  501  0.00000000000E+00  0.00000000000E+00 -0.16160463215E+04  0.16160463215E+04  0.25500000920E-02 0.  1.
    10030    2    1    2    0    0  0.00000000000E+00  0.00000000000E+00  0.26015945115E+03  0.34922520942E+04  0.34825481690E+04 0.  0.
        4    1    3    3  502    0  0.13791401744E+04 -0.35017799372E+03 -0.87640098592E+03  0.16711470758E+04  0.12699999809E+01 0.  1.
       -4    1    3    3    0  502 -0.13791401744E+04  0.35017799372E+03  0.11365604371E+04  0.18211050184E+04  0.12699999809E+01 0. -1.
</event>
<event>
 5   0  0.5573334E-07  0.3497387E+04  0.7818609E-02  0.8114410E-01
       -2   -1    0    0    0  501  0.00000000000E+00  0.00000000000E+00  0.25927977626E+04  0.25927977626E+04  0.25500000920E-02 0.  1.
        2   -1    0    0  501    0  0.00000000000E+00  0.00000000000E+00 -0.11793933761E+04  0.11793933761E+04  0.25500000920E-02 0. -1.
    10030    2    1    2    0    0  0.00000000000E+00  0.00000000000E+00  0.14134043866E+04  0.37721911387E+04  0.34973867425E+04 0.  0.
        4    1    3    3  502    0  0.15487885559E+04  0.42977394296E+03  0.14496474558E+04  0.21644701412E+04  0.12699999809E+01 0.  1.
       -4    1    3    3    0  502 -0.15487885559E+04 -0.42977394296E+03 -0.36243069177E+02  0.16077209976E+04  0.12699999809E+01 0. -1.
</event>
<event>
 5   0  0.1897049E-07  0.3485616E+04  0.7818609E-02  0.8117207E-01
        1   -1    0    0  501    0  0.00000000000E+00  0.00000000000E+00  0.18117972110E+04  0.18117972110E+04  0.50400001928E-02 0. -1.
       -1   -1    0    0    0  501  0.00000000000E+00  0.00000000000E+00 -0.16764454452E+04  0.16764454452E+04  0.50400001928E-02 0.  1.
    10030    2    1    2    0    0  0.00000000000E+00  0.00000000000E+00  0.13535176579E+03  0.34882426562E+04  0.34856156885E+04 0.  0.
        2    1    3    3  502    0  0.45872298363E+03 -0.16799791208E+04  0.13571653426E+03  0.17467614605E+04  0.25500000920E-02 0. -1.
       -2    1    3    3    0  502 -0.45872298363E+03  0.16799791208E+04 -0.36476846957E+00  0.17414811957E+04  0.25500000920E-02 0.  1.
</event>
<event>
 5   0  0.5573334E-07  0.3523064E+04  0.7818609E-02  0.8108346E-01
       -2   -1    0    0    0  501  0.00000000000E+00  0.00000000000E+00  0.16339850184E+04  0.16339850184E+04  0.25500000920E-02 0. -1.
        2   -1    0    0  501    0  0.00000000000E+00  0.00000000000E+00 -0.18990350161E+04  0.18990350161E+04  0.25500000920E-02 0.  1.
    10030    2    1    2    0    0  0.00000000000E+00  0.00000000000E+00 -0.26504999774E+03  0.35330200345E+04  0.35230638744E+04 0.  0.
        4    1    3    3  502    0  0.99471374726E+03 -0.14355364162E+04  0.97847753507E+02  0.17492272685E+04  0.12699999809E+01 0. -1.
       -4    1    3    3    0  502 -0.99471374726E+03  0.14355364162E+04 -0.36289775125E+03  0.17837927660E+04  0.12699999809E+01 0.  1.
</event>
<event>
 5   0  0.5707187E-07  0.3536231E+04  0.7818609E-02  0.8105257E-01
        2   -1    0    0  501    0  0.00000000000E+00  0.00000000000E+00  0.24607044316E+04  0.24607044316E+04  0.25500000920E-02 0. -1.
       -2   -1    0    0    0  501  0.00000000000E+00  0.00000000000E+00 -0.12704622547E+04  0.12704622547E+04  0.25500000920E-02 0.  1.
    10030    2    1    2    0    0  0.00000000000E+00  0.00000000000E+00  0.11902421769E+04  0.37311666863E+04  0.35362308184E+04 0.  0.
        1    1    3    3  502    0  0.46717405347E+03 -0.12500025676E+04  0.18190091968E+04  0.22560036510E+04  0.50400001928E-02 0. -1.
       -1    1    3    3    0  502 -0.46717405347E+03  0.12500025676E+04 -0.62876701992E+03  0.14751630353E+04  0.50400001928E-02 0.  1.
</event>
<event>
 5   0  0.5573334E-07  0.3500127E+04  0.7818609E-02  0.8113760E-01
        2   -1    0    0  501    0  0.00000000000E+00  0.00000000000E+00  0.15893426038E+04  0.15893426038E+04  0.25500000920E-02 0.  1.
       -2   -1    0    0    0  501  0.00000000000E+00  0.00000000000E+00 -0.19270374579E+04  0.19270374579E+04  0.25500000920E-02 0. -1.
    10030    2    1    2    0    0  0.00000000000E+00  0.00000000000E+00 -0.33769485411E+03  0.35163800617E+04  0.35001272726E+04 0.  0.
        4    1    3    3  502    0  0.13633286607E+04 -0.79708952731E+03  0.58877924190E+03  0.16854315056E+04  0.12699999809E+01 0.  1.
       -4    1    3    3    0  502 -0.13633286607E+04  0.79708952731E+03 -0.92647409601E+03  0.18309485561E+04  0.12699999809E+01 0. -1.
</event>
<event>
 5   0  0.1908190E-07  0.3484482E+04  0.7818609E-02  0.8117477E-01
        1   -1    0    0  501    0  0.00000000000E+00  0.00000000000E+00  0.20136292518E+04  0.20136292518E+04  0.50400001928E-02 0. -1.
       -1   -1    0    0    0  501  0.00000000000E+00  0.00000000000E+00 -0.15074288985E+04  0.15074288985E+04  0.50400001928E-02 0.  1.
    10030    2    1    2    0    0  0.00000000000E+00  0.00000000000E+00  0.50620035328E+03  0.35210581503E+04  0.34844815540E+04 0.  0.
        5    1    3    3  502    0 -0.11481847601E+04 -0.11765363826E+04  0.83605687751E+03  0.18443370883E+04  0.46999998093E+01 0. -1.
       -5    1    3    3    0  502  0.11481847601E+04  0.11765363826E+04 -0.32985652423E+03  0.16767210619E+04  0.46999998093E+01 0.  1.
</event>
<event>
 5   0  0.5554745E-07  0.3466573E+04  0.7818609E-02  0.8121758E-01
       -2   -1    0    0    0  501  0.00000000000E+00  0.00000000000E+00  0.21113092754E+04  0.21113092754E+04  0.25500000920E-02 0.  1.
        2   -1    0    0  501    0  0.00000000000E+00  0.00000000000E+00 -0.14229478294E+04  0.14229478294E+04  0.25500000920E-02 0. -1.
    10030    2    1    2    0    0  0.00000000000E+00  0.00000000000E+00  0.68836144603E+03  0.35342571048E+04  0.34665734959E+04 0.  0.
        5    1    3    3  502    0 -0.13610646315E+03 -0.52274108474E+03 -0.13349357088E+04  0.14400898054E+04  0.46999998093E+01 0. -1.
       -5    1    3    3    0  502  0.13610646315E+03  0.52274108474E+03  0.20232971549E+04  0.20941672994E+04  0.46999998093E+01 0.  1.
</event>
<event>
 5   0  0.1908190E-07  0.3780396E+04  0.7818609E-02  0.8050375E-01
        1   -1    0    0  501    0  0.00000000000E+00  0.00000000000E+00  0.16009156596E+04  0.16009156597E+04  0.50400001928E-02 0.  1.
       -1   -1    0    0    0  501  0.00000000000E+00  0.00000000000E+00 -0.22317533771E+04  0.22317533771E+04  0.50400001928E-02 0. -1.
    10030    2    1    2    0    0  0.00000000000E+00  0.00000000000E+00 -0.63083771741E+03  0.38326690367E+04  0.37803962384E+04 0.  0.
        5    1    3    3  502    0 -0.69679794970E+03  0.17309368965E+04 -0.62151567397E+03  0.19667164883E+04  0.46999998093E+01 0.  1.
       -5    1    3    3    0  502  0.69679794970E+03 -0.17309368965E+04 -0.93220434304E+01  0.18659525484E+04  0.46999998093E+01 0. -1.
</event>
<event>
 5   0  0.1873457E-07  0.3506882E+04  0.7818609E-02  0.8112161E-01
        1   -1    0    0  501    0  0.00000000000E+00  0.00000000000E+00  0.17308938573E+04  0.17308938573E+04  0.50400001928E-02 0.  1.
       -1   -1    0    0    0  501  0.00000000000E+00  0.00000000000E+00 -0.17762820054E+04  0.17762820054E+04  0.50400001928E-02 0. -1.
    10030    2    1    2    0    0  0.00000000000E+00  0.00000000000E+00 -0.45388148093E+02  0.35071758627E+04  0.35068821548E+04 0.  0.
        3    1    3    3  502    0  0.36256726277E+03  0.81492679961E+03 -0.15324545349E+04  0.17731265100E+04  0.10100000352E+00 0. -1.
       -3    1    3    3    0  502 -0.36256726277E+03 -0.81492679961E+03  0.14870663868E+04  0.17340493527E+04  0.10100000352E+00 0.  1.
</event>
<event>
 5   0  0.5677193E-07  0.3483293E+04  0.7818609E-02  0.8117761E-01
       -2   -1    0    0    0  501  0.00000000000E+00  0.00000000000E+00  0.13756887290E+04  0.13756887290E+04  0.25500000920E-02 0.  1.
        2   -1    0    0  501    0  0.00000000000E+00  0.00000000000E+00 -0.22049556618E+04  0.22049556618E+04  0.25500000920E-02 0. -1.
    10030    2    1    2    0    0  0.00000000000E+00  0.00000000000E+00 -0.82926693276E+03  0.35806443908E+04  0.34832930695E+04 0.  0.
        3    1    3    3  502    0 -0.86944389100E+03  0.29149369761E+02 -0.19656263272E+04  0.21495276769E+04  0.10100000352E+00 0. -1.
       -3    1    3    3    0  502  0.86944389100E+03 -0.29149369761E+02  0.11363593944E+04  0.14311167139E+04  0.10100000352E+00 0.  1.
</event>
<event>
 5   0  0.1866421E-07  0.3479053E+04  0.7818609E-02  0.8118772E-01
       -1   -1    0    0    0  501  0.00000000000E+00  0.00000000000E+00  0.12957060060E+04  0.12957060060E+04  0.50400001928E-02 0. -1.
        1   -1    0    0  501    0  0.00000000000E+00  0.00000000000E+00 -0.23353701725E+04  0.23353701725E+04  0.50400001928E-02 0.  1.
    10030    2    1    2    0    0  0.00000000000E+00  0.00000000000E+00 -0.10396641665E+04  0.36310761784E+04  0.34790534107E+04 0.  0.
        1    1    3    3  502    0  0.86867338361E+03  0.13571443088E+04 -0.12038468420E+04  0.20113879142E+04  0.50400001928E-02 0. -1.
       -1    1    3    3    0  502 -0.86867338361E+03 -0.13571443088E+04  0.16418267546E+03  0.16196882642E+04  0.50400001928E-02 0.  1.
</event>
<event>
 5   0  0.1933647E-07  0.3461342E+04  0.7818609E-02  0.8123013E-01
       -1   -1    0    0    0  501  0.00000000000E+00  0.00000000000E+00  0.15850747208E+04  0.15850747208E+04  0.50400001928E-02 0.  1.
        1   -1    0    0  501    0  0.00000000000E+00  0.00000000000E+00 -0.18896405080E+04  0.18896405080E+04  0.50400001928E-02 0. -1.
    10030    2    1    2    0    0  0.00000000000E+00  0.00000000000E+00 -0.30456578726E+03  0.34747152288E+04  0.34613415900E+04 0.  0.
        4    1    3    3  502    0  0.86840091340E+03 -0.83535174898E+03 -0.13993738205E+04  0.18466676456E+04  0.12699999809E+01 0. -1.
       -4    1    3    3    0  502 -0.86840091340E+03  0.83535174898E+03  0.10948080332E+04  0.16280475833E+04  0.12699999809E+01 0.  1.
</event>
<event>
 5   0  0.1908190E-07  0.3481948E+04  0.7818609E-02  0.8118081E-01
       -1   -1    0    0    0  501  0.00000000000E+00  0.00000000000E+00  0.14149645435E+04  0.14149645435E+04  0.50400001928E-02 0.  1.
        1   -1    0    0  501    0  0.00000000000E+00  0.00000000000E+00 -0.21420963546E+04  0.21420963546E+04  0.50400001928E-02 0. -1.
    10030    2    1    2    0    0  0.00000000000E+00  0.00000000000E+00 -0.72713181108E+03  0.35570608982E+04  0.34819479552E+04 0.  0.
        5    1    3    3  502    0 -0.89174167429E+03  0.95195533812E+03 -0.15414992853E+04  0.20193227370E+04  0.46999998093E+01 0. -1.
       -5    1    3    3    0  502  0.89174167429E+03 -0.95195533812E+03  0.81436747420E+03  0.15377381612E+04  0.46999998093E+01 0.  1.
</event>
<event>
 5   0  0.1866421E-07  0.3523609E+04  0.7818609E-02  0.8108218E-01
       -1   -1    0    0    0  501  0.00000000000E+00  0.00000000000E+00  0.14764275246E+04  0.14764275246E+04  0.50400001928E-02 0.  1.
        1   -1    0    0  501    0  0.00000000000E+00  0.00000000000E+00 -0.21023418656E+04  0.21023418656E+04  0.50400001928E-02 0. -1.
    10030    2    1    2    0    0  0.00000000000E+00  0.00000000000E+00 -0.62591434101E+03  0.35787693902E+04  0.35236091704E+04 0.  0.
        1    1    3    3  502    0  0.21575502157E+03  0.16734333082E+04 -0.82787107718E+03  0.18794413496E+04  0.50400001928E-02 0. -1.
       -1    1    3    3    0  502 -0.21575502157E+03 -0.16734333082E+04  0.20195673617E+03  0.16993280406E+04  0.50400001928E-02 0.  1.
</event>
<event>
 5   0  0.1866421E-07  0.3524793E+04  0.7818609E-02  0.8107939E-01
       -1   -1    0    0    0  501  0.00000000000E+00  0.00000000000E+00  0.14715663231E+04  0.14715663231E+04  0.50400001928E-02 0. -1.
        1   -1    0    0  501    0  0.00000000000E+00  0.00000000000E+00 -0.21107041678E+04  0.21107041678E+04  0.50400001928E-02 0.  1.
    10030    2    1    2    0    0  0.00000000000E+00  0.00000000000E+00 -0.63913784466E+03  0.35822704909E+04  0.35247928571E+04 0.  0.
        1    1    3    3  502    0 -0.91045386843E+03  0.51018335256E+03 -0.17628775013E+04  0.20486459881E+04  0.50400001928E-02 0.  1.
       -1    1    3    3    0  502  0.91045386843E+03 -0.51018335256E+03  0.11237396566E+04  0.15336245028E+04  0.50400001928E-02 0. -1.
</event>
<event>
 5   0  0.5573334E-07  0.3424545E+04  0.7818609E-02  0.8131908E-01
        2   -1    0    0  501    0  0.00000000000E+00  0.00000000000E+00  0.24292212930E+04  0.24292212930E+04  0.25500000920E-02 0.  1.
       -2   -1    0    0    0  501  0.00000000000E+00  0.00000000000E+00 -0.12069205409E+04  0.12069205409E+04  0.25500000920E-02 0. -1.
    10030    2    1    2    0    0  0.00000000000E+00  0.00000000000E+00  0.12223007521E+04  0.36361418339E+04  0.34245449782E+04 0.  0.
        4    1    3    3  502    0  0.15734607489E+04 -0.60173101187E+03  0.28558363024E+03  0.17086306101E+04  0.12699999809E+01 0. -1.
       -4    1    3    3    0  502 -0.15734607489E+04  0.60173101187E+03  0.93671712182E+03  0.19275112238E+04  0.12699999809E+01 0.  1.
</event>
<event>
 5   0  0.1933647E-07  0.3504688E+04  0.7818609E-02  0.8112680E-01
       -1   -1    0    0    0  501  0.00000000000E+00  0.00000000000E+00  0.16240879845E+04  0.16240879845E+04  0.50400001928E-02 0.  1.
        1   -1    0    0  501    0  0.00000000000E+00  0.00000000000E+00 -0.18907289024E+04  0.18907289024E+04  0.50400001928E-02 0. -1.
    10030    2    1    2    0    0  0.00000000000E+00  0.00000000000E+00 -0.26664091788E+03  0.35148168869E+04  0.35046883413E+04 0.  0.
        4    1    3    3  502    0 -0.10603747023E+04  0.29941544317E+03 -0.14998530732E+04  0.18610762937E+04  0.12699999809E+01 0. -1.
       -4    1    3    3    0  502  0.10603747023E+04 -0.29941544317E+03  0.12332121553E+04  0.16537405932E+04  0.12699999809E+01 0.  1.
</event>
<event>
 5   0  0.1866421E-07  0.3805122E+04  0.7818609E-02  0.8045057E-01
       -1   -1    0    0    0  501  0.00000000000E+00  0.00000000000E+00  0.31021297854E+04  0.31021297854E+04  0.50400001928E-02 0.  1.
        1   -1    0    0  501    0  0.00000000000E+00  0.00000000000E+00 -0.11668556565E+04  0.11668556565E+04  0.50400001928E-02 0. -1.
    10030    2    1    2    0    0  0.00000000000E+00  0.00000000000E+00  0.19352741289E+04  0.42689854418E+04  0.38051216470E+04 0.  0.
        1    1    3    3  502    0  0.14656748263E+03 -0.12989657948E+03  0.30907910060E+04  0.30969895368E+04  0.50400001928E-02 0.  1.
       -1    1    3    3    0  502 -0.14656748263E+03  0.12989657948E+03 -0.11555168771E+04  0.11719959051E+04  0.50400001928E-02 0. -1.
</event>
<event>
 5   0  0.1873457E-07  0.3498012E+04  0.7818609E-02  0.8114261E-01
        1   -1    0    0  501    0  0.00000000000E+00  0.00000000000E+00  0.26190309588E+04  0.26190309588E+04  0.50400001928E-02 0. -1.
       -1   -1    0    0    0  501  0.00000000000E+00  0.00000000000E+00 -0.11679975025E+04  0.11679975025E+04  0.50400001928E-02 0.  1.
    10030    2    1    2    0    0  0.00000000000E+00  0.00000000000E+00  0.14510334563E+04  0.37870284613E+04  0.34980117889E+04 0.  0.
        3    1    3    3  502    0  0.17534245552E+03 -0.54118100366E+02  0.26085802022E+04  0.26150266590E+04  0.10100000352E+00 0. -1.
       -3    1    3    3    0  502 -0.17534245552E+03  0.54118100366E+02 -0.11575467459E+04  0.11720018023E+04  0.10100000352E+00 0.  1.
</event>
<event>
 5   0  0.1908190E-07  0.3510254E+04  0.7818609E-02  0.8111364E-01
       -1   -1    0    0    0  501  0.00000000000E+00  0.00000000000E+00  0.12620255969E+04  0.12620255969E+04  0.50400001928E-02 0.  1.
        1   -1    0    0  501    0  0.00000000000E+00  0.00000000000E+00 -0.24408942715E+04  0.24408942715E+04  0.50400001928E-02 0. -1.
    10030    2    1    2    0    0  0.00000000000E+00  0.00000000000E+00 -0.11788686747E+04  0.37029198684E+04  0.35102541503E+04 0.  0.
        5    1    3    3  502    0  0.10096202257E+04  0.53009558443E+02 -0.21028586861E+04  0.23332766139E+04  0.46999998093E+01 0. -1.
       -5    1    3    3    0  502 -0.10096202257E+04 -0.53009558443E+02  0.92399001145E+03  0.13696432545E+04  0.46999998093E+01 0.  1.
</event>
<event>
 5   0  0.5573334E-07  0.3393910E+04  0.7818609E-02  0.8139403E-01
        2   -1    0    0  501    0  0.00000000000E+00  0.00000000000E+00  0.26221331423E+04  0.26221331423E+04  0.25500000920E-02 0. -1.
       -2   -1    0    0    0  501  0.00000000000E+00  0.00000000000E+00 -0.10982109920E+04  0.10982109920E+04  0.25500000920E-02 0.  1.
    10030    2    1    2    0    0  0.00000000000E+00  0.00000000000E+00  0.15239221504E+04  0.37203441343E+04  0.33939095093E+04 0.  0.
        4    1    3    3  502    0 -0.14343531393E+04 -0.89100808163E+03  0.94665886661E+03  0.19358277176E+04  0.12699999809E+01 0. -1.
       -4    1    3    3    0  502  0.14343531393E+04  0.89100808163E+03  0.57726328377E+03  0.17845164167E+04  0.12699999809E+01 0.  1.
</event>
<event>
 5   0  0.1897049E-07  0.3507835E+04  0.7818609E-02  0.8111936E-01
       -1   -1    0    0    0  501  0.00000000000E+00  0.00000000000E+00  0.14276870294E+04  0.14276870294E+04  0.50400001928E-02 0. -1.
        1   -1    0    0  501    0  0.00000000000E+00  0.00000000000E+00 -0.21546927020E+04  0.21546927020E+04  0.50400001928E-02 0.  1.
    10030    2    1    2    0    0  0.00000000000E+00  0.00000000000E+00 -0.72700567260E+03  0.35823797313E+04  0.35078351289E+04 0.  0.
        2    1    3    3  502    0 -0.67259641193E+03 -0.40400273017E+03  0.12384692991E+04  0.14660867451E+04  0.25500000920E-02 0. -1.
       -2    1    3    3    0  502  0.67259641193E+03  0.40400273017E+03 -0.19654749717E+04  0.21162929862E+04  0.25500000920E-02 0.  1.
</event>
<event>
 5   0  0.1933647E-07  0.3510488E+04  0.7818609E-02  0.8111309E-01
       -1   -1    0    0    0  501  0.00000000000E+00  0.00000000000E+00  0.20539380741E+04  0.20539380741E+04  0.50400001928E-02 0. -1.
        1   -1    0    0  501    0  0.00000000000E+00  0.00000000000E+00 -0.14999874414E+04  0.14999874414E+04  0.50400001928E-02 0.  1.
    10030    2    1    2    0    0  0.00000000000E+00  0.00000000000E+00  0.55395063268E+03  0.35539255155E+04  0.35104878958E+04 0.  0.
        4    1    3    3  502    0  0.56325966728E+02  0.92417306331E+03  0.17866044611E+04  0.20122687641E+04  0.12699999809E+01 0. -1.
       -4    1    3    3    0  502 -0.56325966728E+02 -0.92417306331E+03 -0.12326538285E+04  0.15416567514E+04  0.12699999809E+01 0.  1.
</event>
<event>
 5   0  0.5573334E-07  0.3499000E+04  0.7818609E-02  0.8114027E-01
       -2   -1    0    0    0  501  0.00000000000E+00  0.00000000000E+00  0.24408080664E+04  0.24408080665E+04  0.25500000920E-02 0.  1.
        2   -1    0    0  501    0  0.00000000000E+00  0.00000000000E+00 -0.12539903978E+04  0.12539903978E+04  0.25500000920E-02 0. -1.
    10030    2    1    2    0    0  0.00000000000E+00  0.00000000000E+00  0.11868176687E+04  0.36947984642E+04  0.34989997875E+04 0.  0.
        4    1    3    3  502    0  0.61593503297E+03  0.58786318043E+03  0.22072606666E+04  0.23657895821E+04  0.12699999809E+01 0.  1.
       -4    1    3    3    0  502 -0.61593503297E+03 -0.58786318043E+03 -0.10204429979E+04  0.13290088821E+04  0.12699999809E+01 0. -1.
</event>
<event>
 5   0  0.5554745E-07  0.3491122E+04  0.7818609E-02  0.8115897E-01
        2   -1    0    0  501    0  0.00000000000E+00  0.00000000000E+00  0.26328769356E+04  0.26328769356E+04  0.25500000920E-02 0. -1.
       -2   -1    0    0    0  501  0.00000000000E+00  0.00000000000E+00 -0.11572829836E+04  0.11572829836E+04  0.25500000920E-02 0.  1.
    10030    2    1    2    0    0  0.00000000000E+00  0.00000000000E+00  0.14755939520E+04  0.37901599193E+04  0.34911222698E+04 0.  0.
        5    1    3    3  502    0 -0.10628590899E+04 -0.10589809608E+04  0.17063167351E+04  0.22721463445E+04  0.46999998093E+01 0. -1.
       -5    1    3    3    0  502  0.10628590899E+04  0.10589809608E+04 -0.23072278314E+03  0.15180135747E+04  0.46999998093E+01 0.  1.
</event>
<event>
 5   0  0.1933647E-07  0.3532979E+04  0.7818609E-02  0.8106019E-01
        1   -1    0    0  501    0  0.00000000000E+00  0.00000000000E+00  0.19841155929E+04  0.19841155929E+04  0.50400001928E-02 0. -1.
       -1   -1    0    0    0  501  0.00000000000E+00  0.00000000000E+00 -0.15727334551E+04  0.15727334551E+04  0.50400001928E-02 0.  1.
    10030    2    1    2    0    0  0.00000000000E+00  0.00000000000E+00  0.41138213784E+03  0.35568490480E+04  0.35329788971E+04 0.  0.
        4    1    3    3  502    0 -0.11324885478E+03  0.76670882580E+03 -0.13924266760E+04  0.15935875839E+04  0.12699999809E+01 0.  1.
       -4    1    3    3    0  502  0.11324885478E+03 -0.76670882580E+03  0.18038088138E+04  0.19632614641E+04  0.12699999809E+01 0. -1.
</event>
<event>
 5   0  0.5573334E-07  0.3345543E+04  0.7818609E-02  0.8151403E-01
        2   -1    0    0  501    0  0.00000000000E+00  0.00000000000E+00  0.18895005610E+04  0.18895005610E+04  0.25500000920E-02 0. -1.
       -2   -1    0    0    0  501  0.00000000000E+00  0.00000000000E+00 -0.14809017401E+04  0.14809017401E+04  0.25500000920E-02 0.  1.
    10030    2    1    2    0    0  0.00000000000E+00  0.00000000000E+00  0.40859882090E+03  0.33704023011E+04  0.33455431061E+04 0.  0.
        4    1    3    3  502    0  0.76578564520E+03 -0.46000538288E+03 -0.12204689864E+04  0.15124743853E+04  0.12699999809E+01 0.  1.
       -4    1    3    3    0  502 -0.76578564520E+03  0.46000538288E+03  0.16290678073E+04  0.18579279158E+04  0.12699999809E+01 0. -1.
</event>
<event>
 5   0  0.5677193E-07  0.3627160E+04  0.7818609E-02  0.8084299E-01
        2   -1    0    0  501    0  0.00000000000E+00  0.00000000000E+00  0.19530266436E+04  0.19530266436E+04  0.25500000920E-02 0. -1.
       -2   -1    0    0    0  501  0.00000000000E+00  0.00000000000E+00 -0.16840900478E+04  0.16840900478E+04  0.25500000920E-02 0.  1.
    10030    2    1    2    0    0  0.00000000000E+00  0.00000000000E+00  0.26893659584E+03  0.36371166914E+04  0.36271601749E+04 0.  0.
        3    1    3    3  502    0  0.48870601196E+03 -0.61422354891E+02 -0.16157358168E+04  0.16891443135E+04  0.10100000352E+00 0.  1.
       -3    1    3    3    0  502 -0.48870601196E+03  0.61422354891E+02  0.18846724127E+04  0.19479723779E+04  0.10100000352E+00 0. -1.
</event>
<event>
 5   0  0.1908190E-07  0.3523559E+04  0.7818609E-02  0.8108229E-01
       -1   -1    0    0    0  501  0.00000000000E+00  0.00000000000E+00  0.17963847737E+04  0.17963847737E+04  0.50400001928E-02 0. -1.
        1   -1    0    0  501    0  0.00000000000E+00  0.00000000000E+00 -0.17278411022E+04  0.17278411022E+04  0.50400001928E-02 0.  1.
    10030    2    1    2    0    0  0.00000000000E+00  0.00000000000E+00  0.68543671458E+02  0.35242258759E+04  0.35235592502E+04 0.  0.
        5    1    3    3  502    0 -0.16069679157E+03 -0.11737503790E+04  0.13384863051E+04  0.17874789761E+04  0.46999998093E+01 0. -1.
       -5    1    3    3    0  502  0.16069679157E+03  0.11737503790E+04 -0.12699426337E+04  0.17367468998E+04  0.46999998093E+01 0.  1.
</event>
<event>
 5   0  0.5740827E-07  0.3496078E+04  0.7818609E-02  0.8114720E-01
        2   -1    0    0  501    0  0.00000000000E+00  0.00000000000E+00  0.15283805259E+04  0.15283805259E+04  0.25500000920E-02 0.  1.
       -2   -1    0    0    0  501  0.00000000000E+00  0.00000000000E+00 -0.19992665289E+04  0.19992665289E+04  0.25500000920E-02 0. -1.
    10030    2    1    2    0    0  0.00000000000E+00  0.00000000000E+00 -0.47088600300E+03  0.35276470548E+04  0.34960778188E+04 0.  0.
        2    1    3    3  502    0  0.23894113955E+03  0.16166874294E+04 -0.86142299661E+03  0.18473821185E+04  0.25500000920E-02 0. -1.
       -2    1    3    3    0  502 -0.23894113955E+03 -0.16166874294E+04  0.39053699360E+03  0.16802649363E+04  0.25500000920E-02 0.  1.
</event>
<event>
 5   0  0.1823000E-07  0.3543871E+04  0.7818609E-02  0.8103471E-01
        3   -1    0    0  501    0  0.00000000000E+00  0.00000000000E+00  0.20207583932E+04  0.20207583957E+04  0.10100000352E+00 0. -1.
       -3   -1    0    0    0  501  0.00000000000E+00  0.00000000000E+00 -0.15537512156E+04  0.15537512188E+04  0.10100000352E+00 0.  1.
    10030    2    1    2    0    0  0.00000000000E+00  0.00000000000E+00  0.46700717766E+03  0.35745096146E+04  0.35438712280E+04 0.  0.
        3    1    3    3  502    0 -0.40638658431E+03 -0.16861508200E+04  0.59926959415E+03  0.18350418797E+04  0.10100000352E+00 0. -1.
       -3    1    3    3    0  502  0.40638658431E+03  0.16861508200E+04 -0.13226241649E+03  0.17394677349E+04  0.10100000352E+00 0.  1.
</event>
<event>
 5   0  0.5740827E-07  0.3367448E+04  0.7818609E-02  0.8145942E-01
       -2   -1    0    0    0  501  0.00000000000E+00  0.00000000000E+00  0.23193260529E+04  0.23193260529E+04  0.25500000920E-02 0.  1.
        2   -1    0    0  501    0  0.00000000000E+00  0.00000000000E+00 -0.12223057952E+04  0.12223057952E+04  0.25500000920E-02 0. -1.
    10030    2    1    2    0    0  0.00000000000E+00  0.00000000000E+00  0.10970202577E+04  0.35416318480E+04  0.33674475053E+04 0.  0.
        2    1    3    3  502    0 -0.50708780923E+02 -0.59504834369E+03  0.22041925754E+04  0.22836634650E+04  0.25500000920E-02 0.  1.
       -2    1    3    3    0  502  0.50708780923E+02  0.59504834369E+03 -0.11071723177E+04  0.12579683831E+04  0.25500000920E-02 0. -1.
</event>
<event>
 5   0  0.1873457E-07  0.3495580E+04  0.7818609E-02  0.8114838E-01
       -1   -1    0    0    0  501  0.00000000000E+00  0.00000000000E+00  0.14273289021E+04  0.14273289021E+04  0.50400001928E-02 0. -1.
        1   -1    0    0  501    0  0.00000000000E+00  0.00000000000E+00 -0.21402004945E+04  0.21402004945E+04  0.50400001928E-02 0.  1.
    10030    2    1    2    0    0  0.00000000000E+00  0.00000000000E+00 -0.71287159242E+03  0.35675293966E+04  0.34955800790E+04 0.  0.
        3    1    3    3  502    0 -0.86127680309E+03 -0.41858434346E+03 -0.18486381474E+04  0.20819398633E+04  0.10100000352E+00 0.  1.
       -3    1    3    3    0  502  0.86127680309E+03  0.41858434346E+03  0.11357665549E+04  0.14855895334E+04  0.10100000352E+00 0. -1.
</event>
<event>
 5   0  0.5677193E-07  0.3508821E+04  0.7818609E-02  0.8111703E-01
        2   -1    0    0  501    0  0.00000000000E+00  0.00000000000E+00  0.19907301244E+04  0.19907301244E+04  0.25500000920E-02 0. -1.
       -2   -1    0    0    0  501  0.00000000000E+00  0.00000000000E+00 -0.15461441700E+04  0.15461441700E+04  0.25500000920E-02 0.  1.
    10030    2    1    2    0    0  0.00000000000E+00  0.00000000000E+00  0.44458595437E+03  0.35368742944E+04  0.35088207568E+04 0.  0.
        3    1    3    3  502    0 -0.83722362403E+03  0.24145648738E+03  0.17571989104E+04  0.19613751943E+04  0.10100000352E+00 0. -1.
       -3    1    3    3    0  502  0.83722362403E+03 -0.24145648738E+03 -0.13126129560E+04  0.15754991001E+04  0.10100000352E+00 0.  1.
</event>
<event>
 5   0  0.1933647E-07  0.3498410E+04  0.7818609E-02  0.8114167E-01
       -1   -1    0    0    0  501  0.00000000000E+00  0.00000000000E+00  0.12735004035E+04  0.12735004035E+04  0.50400001928E-02 0. -1.
        1   -1    0    0  501    0  0.00000000000E+00  0.00000000000E+00 -0.24026053783E+04  0.24026053783E+04  0.50400001928E-02 0.  1.
    10030    2    1    2    0    0  0.00000000000E+00  0.00000000000E+00 -0.11291049748E+04  0.36761057818E+04  0.34984104497E+04 0.  0.
        4    1    3    3  502    0 -0.58826923346E+03  0.87611551549E+03  0.90132401827E+03  0.13878132750E+04  0.12699999809E+01 0. -1.
       -4    1    3    3    0  502  0.58826923346E+03 -0.87611551549E+03 -0.20304289931E+04  0.22882925067E+04  0.12699999809E+01 0.  1.
</event>
<event>
 5   0  0.1866421E-07  0.3567263E+04  0.7818609E-02  0.8098032E-01
       -1   -1    0    0    0  501  0.00000000000E+00  0.00000000000E+00  0.20328268671E+04  0.20328268671E+04  0.50400001928E-02 0. -1.
        1   -1    0    0  501    0  0.00000000000E+00  0.00000000000E+00 -0.15649840858E+04  0.15649840858E+04  0.50400001928E-02 0.  1.
    10030    2    1    2    0    0  0.00000000000E+00  0.00000000000E+00  0.46784278128E+03  0.35978109529E+04  0.35672632065E+04 0.  0.
        1    1    3    3  502    0  0.11877081079E+04 -0.12242948039E+04 -0.29188107975E+03  0.17305325426E+04  0.50400001928E-02 0.  1.
       -1    1    3    3    0  502 -0.11877081079E+04  0.12242948039E+04  0.75972386103E+03  0.18672784103E+04  0.50400001928E-02 0. -1.
</event>
<event>
 5   0  0.5740827E-07  0.3472824E+04  0.7818609E-02  0.8120261E-01
        2   -1    0    0  501    0  0.00000000000E+00  0.00000000000E+00  0.17429326434E+04  0.17429326434E+04  0.25500000920E-02 0. -1.
       -2   -1    0    0    0  501  0.00000000000E+00  0.00000000000E+00 -0.17299153830E+04  0.17299153830E+04  0.25500000920E-02 0.  1.
    10030    2    1    2    0    0  0.00000000000E+00  0.00000000000E+00  0.13017260417E+02  0.34728480265E+04  0.34728236301E+04 0.  0.
        2    1    3    3  502    0  0.15346122716E+04  0.13331742437E+03  0.80796147112E+03  0.17394280953E+04  0.25500000920E-02 0. -1.
       -2    1    3    3    0  502 -0.15346122716E+04 -0.13331742437E+03 -0.79494421070E+03  0.17334199312E+04  0.25500000920E-02 0.  1.
</event>
<event>
 5   0  0.1908190E-07  0.3507909E+04  0.7818609E-02  0.8111918E-01
        1   -1    0    0  501    0  0.00000000000E+00  0.00000000000E+00  0.16548381617E+04  0.16548381617E+04  0.50400001928E-02 0. -1.
       -1   -1    0    0    0  501  0.00000000000E+00  0.00000000000E+00 -0.18590070239E+04  0.18590070239E+04  0.50400001928E-02 0.  1.
    10030    2    1    2    0    0  0.00000000000E+00  0.00000000000E+00 -0.20416886218E+03  0.35138451857E+04  0.35079086454E+04 0.  0.
        5    1    3    3  502    0  0.15801079140E+04  0.62311302336E+03 -0.54022930116E+03  0.17823806124E+04  0.46999998093E+01 0.  1.
       -5    1    3    3    0  502 -0.15801079140E+04 -0.62311302336E+03  0.33606043898E+03  0.17314645732E+04  0.46999998093E+01 0. -1.
</event>
<event>
 5   0  0.5573334E-07  0.3510855E+04  0.7818609E-02  0.8111222E-01
       -2   -1    0    0    0  501  0.00000000000E+00  0.00000000000E+00  0.97378814925E+03  0.97378814925E+03  0.25500000920E-02 0. -1.
        2   -1    0    0  501    0  0.00000000000E+00  0.00000000000E+00 -0.31644723648E+04  0.31644723648E+04  0.25500000920E-02 0.  1.
    10030    2    1    2    0    0  0.00000000000E+00  0.00000000000E+00 -0.21906842155E+04  0.41382605140E+04  0.35108549884E+04 0.  0.
        4    1    3    3  502    0  0.13781672017E+04  0.44360320275E+03  0.74723485677E+02  0.14497288883E+04  0.12699999809E+01 0. -1.
       -4    1    3    3    0  502 -0.13781672017E+04 -0.44360320275E+03 -0.22654077012E+04  0.26885316258E+04  0.12699999809E+01 0.  1.
</event>
<event>
 5   0  0.5677193E-07  0.3503911E+04  0.7818609E-02  0.8112864E-01
        2   -1    0    0  501    0  0.00000000000E+00  0.00000000000E+00  0.11874657113E+04  0.11874657113E+04  0.25500000920E-02 0. -1.
       -2   -1    0    0    0  501  0.00000000000E+00  0.00000000000E+00 -0.25847882997E+04  0.25847882997E+04  0.25500000920E-02 0.  1.
    10030    2    1    2    0    0  0.00000000000E+00  0.00000000000E+00 -0.13973225884E+04  0.37722540109E+04  0.35039106591E+04 0.  0.
        3    1    3    3  502    0  0.15014639522E+03  0.17435928931E+04 -0.78670025725E+03  0.19187384975E+04  0.10100000352E+00 0. -1.
       -3    1    3    3    0  502 -0.15014639522E+03 -0.17435928931E+04 -0.61062233118E+03  0.18535155134E+04  0.10100000352E+00 0.  1.
</event>
<event>
 5   0  0.5554745E-07  0.3500208E+04  0.7818609E-02  0.8113741E-01
       -2   -1    0    0    0  501  0.00000000000E+00  0.00000000000E+00  0.14213838338E+04  0.14213838338E+04  0.25500000920E-02 0. -1.
        2   -1    0    0  501    0  0.00000000000E+00  0.00000000000E+00 -0.21548467498E+04  0.21548467498E+04  0.25500000920E-02 0.  1.
    10030    2    1    2    0    0  0.00000000000E+00  0.00000000000E+00 -0.73346291605E+03  0.35762305836E+04  0.35002081849E+04 0.  0.
        5    1    3    3  502    0 -0.17305553956E+04 -0.79688655155E+02 -0.11300336225E+03  0.17360772186E+04  0.46999998093E+01 0. -1.
       -5    1    3    3    0  502  0.17305553956E+04  0.79688655155E+02 -0.62045955380E+03  0.18401533650E+04  0.46999998093E+01 0.  1.
</event>
<event>
 5   0  0.1933647E-07  0.3501989E+04  0.7818609E-02  0.8113319E-01
       -1   -1    0    0    0  501  0.00000000000E+00  0.00000000000E+00  0.15084047743E+04  0.15084047743E+04  0.50400001928E-02 0.  1.
        1   -1    0    0  501    0  0.00000000000E+00  0.00000000000E+00 -0.20325983344E+04  0.20325983344E+04  0.50400001928E-02 0. -1.
    10030    2    1    2    0    0  0.00000000000E+00  0.00000000000E+00 -0.52419356015E+03  0.35410031087E+04  0.35019885961E+04 0.  0.
        4    1    3    3  502    0  0.57278572647E+03 -0.11164043240E+04 -0.14969878274E+04  0.19533090568E+04  0.12699999809E+01 0. -1.
       -4    1    3    3    0  502 -0.57278572647E+03  0.11164043240E+04  0.97279426727E+03  0.15876940519E+04  0.12699999809E+01 0.  1.
</event>
<event>
 5   0  0.1873457E-07  0.3498359E+04  0.7818609E-02  0.8114179E-01
        1   -1    0    0  501    0  0.00000000000E+00  0.00000000000E+00  0.11435960674E+04  0.11435960674E+04  0.50400001928E-02 0.  1.
       -1   -1    0    0    0  501  0.00000000000E+00  0.00000000000E+00 -0.26754456078E+04  0.26754456078E+04  0.50400001928E-02 0. -1.
    10030    2    1    2    0    0  0.00000000000E+00  0.00000000000E+00 -0.15318495404E+04  0.38190416752E+04  0.34983590872E+04 0.  0.
        3    1    3    3  502    0  0.33869178939E+03 -0.15840432225E+04 -0.45322283460E+02  0.16204811565E+04  0.10100000352E+00 0.  1.
       -3    1    3    3    0  502 -0.33869178939E+03  0.15840432225E+04 -0.14865272569E+04  0.21985605188E+04  0.10100000352E+00 0. -1.
</event>
<event>
 5   0  0.1908190E-07  0.3486441E+04  0.7818609E-02  0.8117011E-01
        1   -1    0    0  501    0  0.00000000000E+00  0.00000000000E+00  0.14129740141E+04  0.14129740141E+04  0.50400001928E-02 0.  1.
       -1   -1    0    0    0  501  0.00000000000E+00  0.00000000000E+00 -0.21506532254E+04  0.21506532254E+04  0.50400001928E-02 0. -1.
    10030    2    1    2    0    0  0.00000000000E+00  0.00000000000E+00 -0.73767921131E+03  0.35636272395E+04  0.34864406610E+04 0.  0.
        5    1    3    3  502    0  0.35694268556E+03  0.15795939563E+04 -0.10283133165E+04  0.19183262273E+04  0.46999998093E+01 0. -1.
       -5    1    3    3    0  502 -0.35694268556E+03 -0.15795939563E+04  0.29063410514E+03  0.16453010122E+04  0.46999998093E+01 0.  1.
</event>
<event>
 5   0  0.5573334E-07  0.3514422E+04  0.7818609E-02  0.8110381E-01
        2   -1    0    0  501    0  0.00000000000E+00  0.00000000000E+00  0.15819017851E+04  0.15819017851E+04  0.25500000920E-02 0. -1.
       -2   -1    0    0    0  501  0.00000000000E+00  0.00000000000E+00 -0.19519486476E+04  0.19519486476E+04  0.25500000920E-02 0.  1.
    10030    2    1    2    0    0  0.00000000000E+00  0.00000000000E+00 -0.37004686246E+03  0.35338504328E+04  0.35144223139E+04 0.  0.
        4    1    3    3  502    0  0.60558410543E+03  0.11653744865E+04  0.98888903265E+03  0.16439990676E+04  0.12699999809E+01 0. -1.
       -4    1    3    3    0  502 -0.60558410543E+03 -0.11653744865E+04 -0.13589358951E+04  0.18898513652E+04  0.12699999809E+01 0.  1.
</event>
<event>
 5   0  0.5707187E-07  0.3478457E+04  0.7818609E-02  0.8118914E-01
        2   -1    0    0  501    0  0.00000000000E+00  0.00000000000E+00  0.12780975957E+04  0.12780975957E+04  0.25500000920E-02 0.  1.
       -2   -1    0    0    0  501  0.00000000000E+00  0.00000000000E+00 -0.23667333385E+04  0.23667333385E+04  0.25500000920E-02 0. -1.
    10030    2    1    2    0    0  0.00000000000E+00  0.00000000000E+00 -0.10886357428E+04  0.36448309342E+04  0.34784572382E+04 0.  0.
        1    1    3    3  502    0  0.13492026899E+04 -0.19405224019E+03  0.58758660138E+03  0.14843389723E+04  0.50400001928E-02 0.  1.
       -1    1    3    3    0  502 -0.13492026899E+04  0.19405224019E+03 -0.16762223442E+04  0.21604919619E+04  0.50400001928E-02 0. -1.
</event>
<event>
 5   0  0.5554745E-07  0.3524146E+04  0.7818609E-02  0.8108091E-01
        2   -1    0    0  501    0  0.00000000000E+00  0.00000000000E+00  0.13879433075E+04  0.13879433075E+04  0.25500000920E-02 0. -1.
       -2   -1    0    0    0  501  0.00000000000E+00  0.00000000000E+00 -0.22370525251E+04  0.22370525251E+04  0.25500000920E-02 0.  1.
    10030    2    1    2    0    0  0.00000000000E+00  0.00000000000E+00 -0.84910921756E+03  0.36249958326E+04  0.35241464673E+04 0.  0.
        5    1    3    3  502    0 -0.23061917451E+02  0.56837010135E+03  0.12908941820E+04  0.14106758321E+04  0.46999998093E+01 0. -1.
       -5    1    3    3    0  502  0.23061917451E+02 -0.56837010135E+03 -0.21400033996E+04  0.22143200005E+04  0.46999998093E+01 0.  1.
</event>
<event>
 5   0  0.5573334E-07  0.3495631E+04  0.7818609E-02  0.8114826E-01
       -2   -1    0    0    0  501  0.00000000000E+00  0.00000000000E+00  0.13484417245E+04  0.13484417245E+04  0.25500000920E-02 0.  1.
        2   -1    0    0  501    0  0.00000000000E+00  0.00000000000E+00 -0.22654733022E+04  0.22654733022E+04  0.25500000920E-02 0. -1.
    10030    2    1    2    0    0  0.00000000000E+00  0.00000000000E+00 -0.91703157768E+03  0.36139150268E+04  0.34956308309E+04 0.  0.
        4    1    3    3  502    0  0.12862042581E+04 -0.53759196545E+03  0.63145055291E+03  0.15303783612E+04  0.12699999809E+01 0. -1.
       -4    1    3    3    0  502 -0.12862042581E+04  0.53759196545E+03 -0.15484821306E+04  0.20835366655E+04  0.12699999809E+01 0.  1.
</event>
<event>
 5   0  0.5740827E-07  0.3488725E+04  0.7818609E-02  0.8116467E-01
       -2   -1    0    0    0  501  0.00000000000E+00  0.00000000000E+00  0.20274622549E+04  0.20274622549E+04  0.25500000920E-02 0. -1.
        2   -1    0    0  501    0  0.00000000000E+00  0.00000000000E+00 -0.15007929884E+04  0.15007929885E+04  0.25500000920E-02 0.  1.
    10030    2    1    2    0    0  0.00000000000E+00  0.00000000000E+00  0.52666926648E+03  0.35282552434E+04  0.34887253469E+04 0.  0.
        2    1    3    3  502    0 -0.12402021224E+04 -0.56577629816E+03 -0.83738960932E+03  0.15998204530E+04  0.25500000920E-02 0.  1.
       -2    1    3    3    0  502  0.12402021224E+04  0.56577629816E+03  0.13640588758E+04  0.19284347904E+04  0.25500000920E-02 0. -1.
</event>
<event>
 5   0  0.5554745E-07  0.3486123E+04  0.7818609E-02  0.8117086E-01
        2   -1    0    0  501    0  0.00000000000E+00  0.00000000000E+00  0.28761464389E+04  0.28761464389E+04  0.25500000920E-02 0.  1.
       -2   -1    0    0    0  501  0.00000000000E+00  0.00000000000E+00 -0.10563661689E+04  0.10563661689E+04  0.25500000920E-02 0. -1.
    10030    2    1    2    0    0  0.00000000000E+00  0.00000000000E+00  0.18197802700E+04  0.39325126078E+04  0.34861232307E+04 0.  0.
        5    1    3    3  502    0 -0.23825592949E+03 -0.17077981391E+04  0.11972685845E+04  0.20992414166E+04  0.46999998093E+01 0.  1.
       -5    1    3    3    0  502  0.23825592949E+03  0.17077981391E+04  0.62251168550E+03  0.18332711912E+04  0.46999998093E+01 0. -1.
</event>
<event>
 5   0  0.5554745E-07  0.3473478E+04  0.7818609E-02  0.8120104E-01
       -2   -1    0    0    0  501  0.00000000000E+00  0.00000000000E+00  0.13152937028E+04  0.13152937028E+04  0.25500000920E-02 0. -1.
        2   -1    0    0  501    0  0.00000000000E+00  0.00000000000E+00 -0.22932237971E+04  0.22932237971E+04  0.25500000920E-02 0.  1.
    10030    2    1    2    0    0  0.00000000000E+00  0.00000000000E+00 -0.97793009429E+03  0.36085174998E+04  0.34734782679E+04 0.  0.
        5    1    3    3  502    0  0.29152439973E+03 -0.72032717733E+03  0.11246032799E+04  0.13669719621E+04  0.46999998093E+01 0. -1.
       -5    1    3    3    0  502 -0.29152439973E+03  0.72032717733E+03 -0.21025333742E+04  0.22415455377E+04  0.46999998093E+01 0.  1.
</event>
<event>
 5   0  0.1897049E-07  0.3546675E+04  0.7818609E-02  0.8102817E-01
       -1   -1    0    0    0  501  0.00000000000E+00  0.00000000000E+00  0.13999985398E+04  0.13999985398E+04  0.50400001928E-02 0.  1.
        1   -1    0    0  501    0  0.00000000000E+00  0.00000000000E+00 -0.22462352245E+04  0.22462352245E+04  0.50400001928E-02 0. -1.
    10030    2    1    2    0    0  0.00000000000E+00  0.00000000000E+00 -0.84623668472E+03  0.36462337644E+04  0.35466750821E+04 0.  0.
        2    1    3    3  502    0 -0.16991705588E+04 -0.37064864237E+03 -0.77949738333E+03  0.19058271629E+04  0.25500000920E-02 0. -1.
       -2    1    3    3    0  502  0.16991705588E+04  0.37064864237E+03 -0.66739301398E+02  0.17404066015E+04  0.25500000920E-02 0.  1.
</event>
<event>
 5   0  0.1897049E-07  0.3494209E+04  0.7818609E-02  0.8115164E-01
       -1   -1    0    0    0  501  0.00000000000E+00  0.00000000000E+00  0.12936611480E+04  0.12936611480E+04  0.50400001928E-02 0.  1.
        1   -1    0    0  501    0  0.00000000000E+00  0.00000000000E+00 -0.23594854212E+04  0.23594854212E+04  0.50400001928E-02 0. -1.
    10030    2    1    2    0    0  0.00000000000E+00  0.00000000000E+00 -0.10658242732E+04  0.36531465692E+04  0.34942092775E+04 0.  0.
        2    1    3    3  502    0  0.42134844048E+03 -0.10714655002E+04  0.84093821727E+03  0.14257453881E+04  0.25500000920E-02 0.  1.
       -2    1    3    3    0  502 -0.42134844048E+03  0.10714655002E+04 -0.19067624905E+04  0.22274011811E+04  0.25500000920E-02 0. -1.
</event>
<event>
 5   0  0.1897049E-07  0.3533735E+04  0.7818609E-02  0.8105841E-01
        1   -1    0    0  501    0  0.00000000000E+00  0.00000000000E+00  0.19638221567E+04  0.19638221567E+04  0.50400001928E-02 0.  1.
       -1   -1    0    0    0  501  0.00000000000E+00  0.00000000000E+00 -0.15896653857E+04  0.15896653857E+04  0.50400001928E-02 0. -1.
    10030    2    1    2    0    0  0.00000000000E+00  0.00000000000E+00  0.37415677095E+03  0.35534875424E+04  0.35337346285E+04 0.  0.
        2    1    3    3  502    0 -0.55926543479E+03  0.96888157458E+03 -0.11881592619E+04  0.16319411030E+04  0.25500000920E-02 0. -1.
       -2    1    3    3    0  502  0.55926543479E+03 -0.96888157458E+03  0.15623160328E+04  0.19215464393E+04  0.25500000920E-02 0.  1.
</event>
<event>
 5   0  0.1908190E-07  0.3631828E+04  0.7818609E-02  0.8083240E-01
       -1   -1    0    0    0  501  0.00000000000E+00  0.00000000000E+00  0.12401655104E+04  0.12401655104E+04  0.50400001928E-02 0. -1.
        1   -1    0    0  501    0  0.00000000000E+00  0.00000000000E+00 -0.26589545972E+04  0.26589545972E+04  0.50400001928E-02 0.  1.
    10030    2    1    2    0    0  0.00000000000E+00  0.00000000000E+00 -0.14187890867E+04  0.38991201076E+04  0.36318280715E+04 0.  0.
        5    1    3    3  502    0  0.16841048574E+04 -0.10639386295E+02  0.19703050529E+02  0.16842602731E+04  0.46999998093E+01 0. -1.
       -5    1    3    3    0  502 -0.16841048574E+04  0.10639386295E+02 -0.14384921373E+04  0.22148598345E+04  0.46999998093E+01 0.  1.
</event>
<event>
 5   0  0.5677193E-07  0.3434684E+04  0.7818609E-02  0.8129446E-01
       -2   -1    0    0    0  501  0.00000000000E+00  0.00000000000E+00  0.18257724228E+04  0.18257724228E+04  0.25500000920E-02 0.  1.
        2   -1    0    0  501    0  0.00000000000E+00  0.00000000000E+00 -0.16153507917E+04  0.16153507917E+04  0.25500000920E-02 0. -1.
    10030    2    1    2    0    0  0.00000000000E+00  0.00000000000E+00  0.21042163106E+03  0.34411232146E+04  0.34346836412E+04 0.  0.
        3    1    3    3  502    0 -0.50949037036E+03 -0.13192883847E+04 -0.87086452711E+03  0.16608754662E+04  0.10100000352E+00 0. -1.
       -3    1    3    3    0  502  0.50949037036E+03  0.13192883847E+04  0.10812861582E+04  0.17802477483E+04  0.10100000352E+00 0.  1.
</event>
<event>
 5   0  0.1873457E-07  0.3490576E+04  0.7818609E-02  0.8116027E-01
       -1   -1    0    0    0  501  0.00000000000E+00  0.00000000000E+00  0.14366334246E+04  0.14366334246E+04  0.50400001928E-02 0.  1.
        1   -1    0    0  501    0  0.00000000000E+00  0.00000000000E+00 -0.21202554881E+04  0.21202554881E+04  0.50400001928E-02 0. -1.
    10030    2    1    2    0    0  0.00000000000E+00  0.00000000000E+00 -0.68362206346E+03  0.35568889127E+04  0.34905758281E+04 0.  0.
        3    1    3    3  502    0  0.32258586501E+03  0.13851490150E+04 -0.13726270893E+04  0.19765638291E+04  0.10100000352E+00 0. -1.
       -3    1    3    3    0  502 -0.32258586501E+03 -0.13851490150E+04  0.68900502586E+03  0.15803250836E+04  0.10100000352E+00 0.  1.
</event>
<event>
 5   0  0.1897049E-07  0.3502130E+04  0.7818609E-02  0.8113285E-01
       -1   -1    0    0    0  501  0.00000000000E+00  0.00000000000E+00  0.16748031115E+04  0.16748031115E+04  0.50400001928E-02 0. -1.
        1   -1    0    0  501    0  0.00000000000E+00  0.00000000000E+00 -0.18307989506E+04  0.18307989507E+04  0.50400001928E-02 0.  1.
    10030    2    1    2    0    0  0.00000000000E+00  0.00000000000E+00 -0.15599583915E+03  0.35056020622E+04  0.35021295117E+04 0.  0.
        2    1    3    3  502    0  0.78096392656E+03 -0.65768668674E+03 -0.15020016743E+04  0.18161677957E+04  0.25500000920E-02 0.  1.
       -2    1    3    3    0  502 -0.78096392656E+03  0.65768668674E+03  0.13460058351E+04  0.16894342665E+04  0.25500000920E-02 0. -1.
</event>
<event>
 5   0  0.1908190E-07  0.3533205E+04  0.7818609E-02  0.8105966E-01
       -1   -1    0    0    0  501  0.00000000000E+00  0.00000000000E+00  0.19087500585E+04  0.19087500585E+04  0.50400001928E-02 0.  1.
        1   -1    0    0  501    0  0.00000000000E+00  0.00000000000E+00 -0.16350406324E+04  0.16350406324E+04  0.50400001928E-02 0. -1.
    10030    2    1    2    0    0  0.00000000000E+00  0.00000000000E+00  0.27370942604E+03  0.35437906909E+04  0.35332047225E+04 0.  0.
        5    1    3    3  502    0 -0.12918537287E+03 -0.15294317731E+04 -0.74041516012E+03  0.17041382304E+04  0.46999998093E+01 0.  1.
       -5    1    3    3    0  502  0.12918537287E+03  0.15294317731E+04  0.10141245862E+04  0.18396524605E+04  0.46999998093E+01 0. -1.
</event>
<event>
 5   0  0.5740827E-07  0.3505153E+04  0.7818609E-02  0.8112570E-01
       -2   -1    0    0    0  501  0.00000000000E+00  0.00000000000E+00  0.14060303757E+04  0.14060303757E+04  0.25500000920E-02 0. -1.
        2   -1    0    0  501    0  0.00000000000E+00  0.00000000000E+00 -0.21845364842E+04  0.21845364842E+04  0.25500000920E-02 0.  1.
    10030    2    1    2    0    0  0.00000000000E+00  0.00000000000E+00 -0.77850610848E+03  0.35905668599E+04  0.35051531513E+04 0.  0.
        2    1    3    3  502    0 -0.14993080430E+04  0.82556740593E+02 -0.13150372125E+04  0.19960117969E+04  0.25500000920E-02 0.  1.
       -2    1    3    3    0  502  0.14993080430E+04 -0.82556740593E+02  0.53653110398E+03  0.15945550630E+04  0.25500000920E-02 0. -1.
</event>
<event>
 5   0  0.5573334E-07  0.3521976E+04  0.7818609E-02  0.8108601E-01
       -2   -1    0    0    0  501  0.00000000000E+00  0.00000000000E+00  0.12941102482E+04  0.12941102482E+04  0.25500000920E-02 0.  1.
        2   -1    0    0  501    0  0.00000000000E+00  0.00000000000E+00 -0.23963024114E+04  0.23963024114E+04  0.25500000920E-02 0. -1.
    10030    2    1    2    0    0  0.00000000000E+00  0.00000000000E+00 -0.11021921632E+04  0.36904126595E+04  0.35219764385E+04 0.  0.
        4    1    3    3  502    0 -0.14995575475E+04 -0.17919909608E+03 -0.15001107373E+04  0.21286425232E+04  0.12699999809E+01 0. -1.
       -4    1    3    3    0  502  0.14995575475E+04  0.17919909608E+03  0.39791857409E+03  0.15617701364E+04  0.12699999809E+01 0.  1.
</event>
<event>
 5   0  0.1873457E-07  0.3523239E+04  0.7818609E-02  0.8108305E-01
        1   -1    0    0  501    0  0.00000000000E+00  0.00000000000E+00  0.12969879593E+04  0.12969879593E+04  0.50400001928E-02 0.  1.
       -1   -1    0    0    0  501  0.00000000000E+00  0.00000000000E+00 -0.23927003098E+04  0.23927003098E+04  0.50400001928E-02 0. -1.
    10030    2    1    2    0    0  0.00000000000E+00  0.00000000000E+00 -0.10957123505E+04  0.36896882691E+04  0.35232391301E+04 0.  0.
        3    1    3    3  502    0  0.14253596176E+04  0.87157768775E+03 -0.11328198151E+04  0.20185585077E+04  0.10100000352E+00 0. -1.
       -3    1    3    3    0  502 -0.14253596176E+04 -0.87157768775E+03  0.37107464644E+02  0.16711297614E+04  0.10100000352E+00 0.  1.
</event>
<event>
 5   0  0.5740827E-07  0.3521384E+04  0.7818609E-02  0.8108741E-01
        2   -1    0    0  501    0  0.00000000000E+00  0.00000000000E+00  0.17753256563E+04  0.17753256563E+04  0.25500000920E-02 0.  1.
       -2   -1    0    0    0  501  0.00000000000E+00  0.00000000000E+00 -0.17461789646E+04  0.17461789646E+04  0.25500000920E-02 0. -1.
    10030    2    1    2    0    0  0.00000000000E+00  0.00000000000E+00  0.29146691661E+02  0.35215046209E+04  0.35213839985E+04 0.  0.
        2    1    3    3  502    0  0.12969712219E+04  0.94316452461E+03  0.74147006604E+03  0.17667686690E+04  0.25500000920E-02 0.  1.
       -2    1    3    3    0  502 -0.12969712219E+04 -0.94316452461E+03 -0.71232337437E+03  0.17547359518E+04  0.25500000920E-02 0. -1.
</event>
<event>
 5   0  0.1908190E-07  0.3460145E+04  0.7818609E-02  0.8123301E-01
        1   -1    0    0  501    0  0.00000000000E+00  0.00000000000E+00  0.21806851940E+04  0.21806851940E+04  0.50400001928E-02 0.  1.
       -1   -1    0    0    0  501  0.00000000000E+00  0.00000000000E+00 -0.13725731707E+04  0.13725731707E+04  0.50400001928E-02 0. -1.
    10030    2    1    2    0    0  0.00000000000E+00  0.00000000000E+00  0.80811202326E+03  0.35532583648E+04  0.34601445005E+04 0.  0.
        5    1    3    3  502    0  0.14522411736E+04 -0.89878644594E+03  0.68772576544E+03  0.18411437533E+04  0.46999998093E+01 0.  1.
       -5    1    3    3    0  502 -0.14522411736E+04  0.89878644594E+03  0.12038625782E+03  0.17121146115E+04  0.46999998093E+01 0. -1.
</event>
<event>
 5   0  0.1933647E-07  0.3614587E+04  0.7818609E-02  0.8087159E-01
       -1   -1    0    0    0  501  0.00000000000E+00  0.00000000000E+00  0.16783740286E+04  0.16783740286E+04  0.50400001928E-02 0. -1.
        1   -1    0    0  501    0  0.00000000000E+00  0.00000000000E+00 -0.19461153536E+04  0.19461153536E+04  0.50400001928E-02 0.  1.
    10030    2    1    2    0    0  0.00000000000E+00  0.00000000000E+00 -0.26774132501E+03  0.36244893822E+04  0.36145868179E+04 0.  0.
        4    1    3    3  502    0 -0.20293397888E+03  0.11166473354E+04 -0.15442175568E+04  0.19164271307E+04  0.12699999809E+01 0.  1.
       -4    1    3    3    0  502  0.20293397888E+03 -0.11166473354E+04  0.12764762318E+04  0.17080622515E+04  0.12699999809E+01 0. -1.
</event>
<event>
 5   0  0.1897049E-07  0.3530219E+04  0.7818609E-02  0.8106666E-01
        1   -1    0    0  501    0  0.00000000000E+00  0.00000000000E+00  0.27544691130E+04  0.27544691130E+04  0.50400001928E-02 0. -1.
       -1   -1    0    0    0  501  0.00000000000E+00  0.00000000000E+00 -0.11311111353E+04  0.11311111353E+04  0.50400001928E-02 0.  1.
    10030    2    1    2    0    0  0.00000000000E+00  0.00000000000E+00  0.16233579777E+04  0.38855802483E+04  0.35302185120E+04 0.  0.
        2    1    3    3  502    0  0.12769640751E+04 -0.78961659946E+03 -0.20991107004E+03  0.15159796439E+04  0.25500000920E-02 0.  1.
       -2    1    3    3    0  502 -0.12769640751E+04  0.78961659946E+03  0.18332690477E+04  0.23696006045E+04  0.25500000920E-02 0. -1.
</event>
<event>
 5   0  0.1908190E-07  0.3440481E+04  0.7818609E-02  0.8128042E-01
       -1   -1    0    0    0  501  0.00000000000E+00  0.00000000000E+00  0.16533505564E+04  0.16533505564E+04  0.50400001928E-02 0. -1.
        1   -1    0    0  501    0  0.00000000000E+00  0.00000000000E+00 -0.17898363497E+04  0.17898363497E+04  0.50400001928E-02 0.  1.
    10030    2    1    2    0    0  0.00000000000E+00  0.00000000000E+00 -0.13648579331E+03  0.34431869061E+04  0.34404807365E+04 0.  0.
        5    1    3    3  502    0  0.12609665971E+04  0.64661691619E+03 -0.10442302760E+04  0.17602809874E+04  0.46999998093E+01 0. -1.
       -5    1    3    3    0  502 -0.12609665971E+04 -0.64661691619E+03  0.90774448268E+03  0.16829059187E+04  0.46999998093E+01 0.  1.
</event>
<event>
 5   0  0.1866421E-07  0.3513298E+04  0.7818609E-02  0.8110646E-01
       -1   -1    0    0    0  501  0.00000000000E+00  0.00000000000E+00  0.14215692561E+04  0.14215692561E+04  0.50400001928E-02 0. -1.
        1   -1    0    0  501    0  0.00000000000E+00  0.00000000000E+00 -0.21707104605E+04  0.21707104605E+04  0.50400001928E-02 0.  1.
    10030    2    1    2    0    0  0.00000000000E+00  0.00000000000E+00 -0.74914120439E+03  0.35922797167E+04  0.35132977412E+04 0.  0.
        1    1    3    3  502    0 -0.17508182016E+04 -0.77482547199E+02 -0.25167140273E+03  0.17705102132E+04  0.50400001928E-02 0.  1.
       -1    1    3    3    0  502  0.17508182016E+04  0.77482547199E+02 -0.49746980166E+03  0.18217695035E+04  0.50400001928E-02 0. -1.
</event>
<event>
 5   0  0.5677193E-07  0.3497440E+04  0.7818609E-02  0.8114397E-01
        2   -1    0    0  501    0  0.00000000000E+00  0.00000000000E+00  0.12362883997E+04  0.12362883997E+04  0.25500000920E-02 0. -1.
       -2   -1    0    0    0  501  0.00000000000E+00  0.00000000000E+00 -0.24735497561E+04  0.24735497561E+04  0.25500000920E-02 0.  1.
    10030    2    1    2    0    0  0.00000000000E+00  0.00000000000E+00 -0.12372613564E+04  0.37098381559E+04  0.34974395604E+04 0.  0.
        3    1    3    3  502    0 -0.37873480631E+03 -0.13366128397E+04  0.50796564120E+03  0.14791899944E+04  0.10100000352E+00 0. -1.
       -3    1    3    3    0  502  0.37873480631E+03  0.13366128397E+04 -0.17452269976E+04  0.22306481614E+04  0.10100000352E+00 0.  1.
</event>
<event>
 5   0  0.5677193E-07  0.3414432E+04  0.7818609E-02  0.8134373E-01
        2   -1    0    0  501    0  0.00000000000E+00  0.00000000000E+00  0.22334303882E+04  0.22334303882E+04  0.25500000920E-02 0.  1.
       -2   -1    0    0    0  501  0.00000000000E+00  0.00000000000E+00 -0.13049816729E+04  0.13049816730E+04  0.25500000920E-02 0. -1.
    10030    2    1    2    0    0  0.00000000000E+00  0.00000000000E+00  0.92844871521E+03  0.35384120611E+04  0.34144315629E+04 0.  0.
        3    1    3    3  502    0 -0.37923290119E+03  0.41620134062E+03 -0.12059872515E+04  0.13309569528E+04  0.10100000352E+00 0. -1.
       -3    1    3    3    0  502  0.37923290119E+03 -0.41620134062E+03  0.21344359667E+04  0.22074551083E+04  0.10100000352E+00 0.  1.
</event>
<event>
 5   0  0.1908190E-07  0.3525507E+04  0.7818609E-02  0.8107772E-01
       -1   -1    0    0    0  501  0.00000000000E+00  0.00000000000E+00  0.16543207464E+04  0.16543207465E+04  0.50400001928E-02 0. -1.
        1   -1    0    0  501    0  0.00000000000E+00  0.00000000000E+00 -0.18782935361E+04  0.18782935361E+04  0.50400001928E-02 0.  1.
    10030    2    1    2    0    0  0.00000000000E+00  0.00000000000E+00 -0.22397278966E+03  0.35326142826E+04  0.35255070357E+04 0.  0.
        5    1    3    3  502    0 -0.15497334342E+04  0.87900454895E+02  0.72508843888E+03  0.17132354016E+04  0.46999998093E+01 0. -1.
       -5    1    3    3    0  502  0.15497334342E+04 -0.87900454895E+02 -0.94906122853E+03  0.18193788810E+04  0.46999998093E+01 0.  1.
</event>
<event>
 5   0  0.1873457E-07  0.3481921E+04  0.7818609E-02  0.8118088E-01
       -1   -1    0    0    0  501  0.00000000000E+00  0.00000000000E+00  0.17713726657E+04  0.17713726657E+04  0.50400001928E-02 0. -1.
        1   -1    0    0  501    0  0.00000000000E+00  0.00000000000E+00 -0.17110700952E+04  0.17110700952E+04  0.50400001928E-02 0.  1.
    10030    2    1    2    0    0  0.00000000000E+00  0.00000000000E+00  0.60302570456E+02  0.34824427609E+04  0.34819206170E+04 0.  0.
        3    1    3    3  502    0  0.15582625278E+04 -0.67793377796E+03 -0.34827891163E+03  0.17346684189E+04  0.10100000352E+00 0.  1.
       -3    1    3    3    0  502 -0.15582625278E+04  0.67793377796E+03  0.40858148209E+03  0.17477743420E+04  0.10100000352E+00 0. -1.
</event>
<event>
 5   0  0.1873457E-07  0.3563919E+04  0.7818609E-02  0.8098807E-01
        1   -1    0    0  501    0  0.00000000000E+00  0.00000000000E+00  0.17525134500E+04  0.17525134500E+04  0.50400001928E-02 0. -1.
       -1   -1    0    0    0  501  0.00000000000E+00  0.00000000000E+00 -0.18119001523E+04  0.18119001523E+04  0.50400001928E-02 0.  1.
    10030    2    1    2    0    0  0.00000000000E+00  0.00000000000E+00 -0.59386702307E+02  0.35644136022E+04  0.35639188469E+04 0.  0.
        3    1    3    3  502    0  0.15971575883E+04 -0.10485672764E+03 -0.81304666971E+03  0.17952582524E+04  0.10100000352E+00 0.  1.
       -3    1    3    3    0  502 -0.15971575883E+04  0.10485672764E+03  0.75365996741E+03  0.17691553499E+04  0.10100000352E+00 0. -1.
</event>
<event>
 5   0  0.5740827E-07  0.3500281E+04  0.7818609E-02  0.8113723E-01
       -2   -1    0    0    0  501  0.00000000000E+00  0.00000000000E+00  0.15907473705E+04  0.15907473705E+04  0.25500000920E-02 0. -1.
        2   -1    0    0  501    0  0.00000000000E+00  0.00000000000E+00 -0.19255051339E+04  0.19255051339E+04  0.25500000920E-02 0.  1.
    10030    2    1    2    0    0  0.00000000000E+00  0.00000000000E+00 -0.33475776339E+03  0.35162525044E+04  0.35002812623E+04 0.  0.
        2    1    3    3  502    0  0.16531746143E+04 -0.37261021155E+03 -0.60660100039E+03  0.17999415126E+04  0.25500000920E-02 0. -1.
       -2    1    3    3    0  502 -0.16531746143E+04  0.37261021155E+03  0.27184323700E+03  0.17163109918E+04  0.25500000920E-02 0.  1.
</event>
<event>
 5   0  0.5740827E-07  0.3499557E+04  0.7818609E-02  0.8113895E-01
        2   -1    0    0  501    0  0.00000000000E+00  0.00000000000E+00  0.15361326302E+04  0.15361326302E+04  0.25500000920E-02 0. -1.
       -2   -1    0    0    0  501  0.00000000000E+00  0.00000000000E+00 -0.19931386153E+04  0.19931386153E+04  0.25500000920E-02 0.  1.
    10030    2    1    2    0    0  0.00000000000E+00  0.00000000000E+00 -0.45700598507E+03  0.35292712455E+04  0.34995572655E+04 0.  0.
        2    1    3    3  502    0 -0.84794923964E+03 -0.14145790980E+04 -0.81799438883E+03  0.18409689725E+04  0.25500000920E-02 0.  1.
       -2    1    3    3    0  502  0.84794923964E+03  0.14145790980E+04  0.36098840376E+03  0.16883022730E+04  0.25500000920E-02 0. -1.
</event>
<event>
 5   0  0.1933647E-07  0.3457574E+04  0.7818609E-02  0.8123919E-01
       -1   -1    0    0    0  501  0.00000000000E+00  0.00000000000E+00  0.26607423428E+04  0.26607423428E+04  0.50400001928E-02 0.  1.
        1   -1    0    0  501    0  0.00000000000E+00  0.00000000000E+00 -0.11232594195E+04  0.11232594195E+04  0.50400001928E-02 0. -1.
    10030    2    1    2    0    0  0.00000000000E+00  0.00000000000E+00  0.15374829233E+04  0.37840017623E+04  0.34575736576E+04 0.  0.
        4    1    3    3  502    0 -0.10062135797E+03 -0.95279755583E+03  0.23436095774E+04  0.25318876959E+04  0.12699999809E+01 0.  1.
       -4    1    3    3    0  502  0.10062135797E+03  0.95279755583E+03 -0.80612665415E+03  0.12521140665E+04  0.12699999809E+01 0. -1.
</event>
<event>
 5   0  0.5707187E-07  0.3426601E+04  0.7818609E-02  0.8131408E-01
       -2   -1    0    0    0  501  0.00000000000E+00  0.00000000000E+00  0.15580402498E+04  0.15580402498E+04  0.25500000920E-02 0. -1.
        2   -1    0    0  501    0  0.00000000000E+00  0.00000000000E+00 -0.18840324869E+04  0.18840324869E+04  0.25500000920E-02 0.  1.
    10030    2    1    2    0    0  0.00000000000E+00  0.00000000000E+00 -0.32599223712E+03  0.34420727367E+04  0.34266009085E+04 0.  0.
        1    1    3    3  502    0 -0.77846047302E+03  0.15244256495E+04 -0.23765652221E+03  0.17281073148E+04  0.50400001928E-02 0.  1.
       -1    1    3    3    0  502  0.77846047302E+03 -0.15244256495E+04 -0.88335714908E+02  0.17139654219E+04  0.50400001928E-02 0. -1.
</event>
<event>
 5   0  0.5554745E-07  0.3522625E+04  0.7818609E-02  0.8108449E-01
        2   -1    0    0  501    0  0.00000000000E+00  0.00000000000E+00  0.15569134970E+04  0.15569134970E+04  0.25500000920E-02 0. -1.
       -2   -1    0    0    0  501  0.00000000000E+00  0.00000000000E+00 -0.19925454887E+04  0.19925454887E+04  0.25500000920E-02 0.  1.
    10030    2    1    2    0    0  0.00000000000E+00  0.00000000000E+00 -0.43563199166E+03  0.35494589857E+04  0.35226245697E+04 0.  0.
        5    1    3    3  502    0 -0.15469907275E+03  0.17533776446E+04 -0.15461733980E+03  0.17669729991E+04  0.46999998093E+01 0. -1.
       -5    1    3    3    0  502  0.15469907275E+03 -0.17533776446E+04 -0.28101465186E+03  0.17824859866E+04  0.46999998093E+01 0.  1.
</event>
<event>
 5   0  0.5554745E-07  0.3329657E+04  0.7818609E-02  0.8155390E-01
        2   -1    0    0  501    0  0.00000000000E+00  0.00000000000E+00  0.22689950184E+04  0.22689950184E+04  0.25500000920E-02 0. -1.
       -2   -1    0    0    0  501  0.00000000000E+00  0.00000000000E+00 -0.12215340164E+04  0.12215340164E+04  0.25500000920E-02 0.  1.
    10030    2    1    2    0    0  0.00000000000E+00  0.00000000000E+00  0.10474610020E+04  0.34905290348E+04  0.33296573986E+04 0.  0.
        5    1    3    3  502    0  0.20826491063E+03 -0.79208442052E+01 -0.12077972211E+04  0.12256562446E+04  0.46999998093E+01 0.  1.
       -5    1    3    3    0  502 -0.20826491063E+03  0.79208442052E+01  0.22552582231E+04  0.22648727901E+04  0.46999998093E+01 0. -1.
</event>
<event>
 5   0  0.5740827E-07  0.3488256E+04  0.7818609E-02  0.8116579E-01
        2   -1    0    0  501    0  0.00000000000E+00  0.00000000000E+00  0.21092423226E+04  0.21092423226E+04  0.25500000920E-02 0. -1.
       -2   -1    0    0    0  501  0.00000000000E+00  0.00000000000E+00 -0.14422159161E+04  0.14422159161E+04  0.25500000920E-02 0.  1.
    10030    2    1    2    0    0  0.00000000000E+00  0.00000000000E+00  0.66702640648E+03  0.35514582387E+04  0.34882562111E+04 0.  0.
        2    1    3    3  502    0 -0.42730348660E+02 -0.22407535266E+03 -0.14269627435E+04  0.14450807306E+04  0.25500000920E-02 0.  1.
       -2    1    3    3    0  502  0.42730348660E+02  0.22407535266E+03  0.20939891500E+04  0.21063775081E+04  0.25500000920E-02 0. -1.
</event>
<event>
 5   0  0.1823000E-07  0.3462822E+04  0.7818609E-02  0.8122658E-01
        3   -1    0    0  501    0  0.00000000000E+00  0.00000000000E+00  0.13132936952E+04  0.13132936991E+04  0.10100000352E+00 0.  1.
       -3   -1    0    0    0  501  0.00000000000E+00  0.00000000000E+00 -0.22826458557E+04  0.22826458579E+04  0.10100000352E+00 0. -1.
    10030    2    1    2    0    0  0.00000000000E+00  0.00000000000E+00 -0.96935216052E+03  0.35959395570E+04  0.34628222141E+04 0.  0.
        2    1    3    3  502    0  0.11309461824E+04 -0.19060019696E+03  0.86226617067E+03  0.14348765284E+04  0.25500000920E-02 0. -1.
       -2    1    3    3    0  502 -0.11309461824E+04  0.19060019696E+03 -0.18316183312E+04  0.21610630286E+04  0.25500000920E-02 0.  1.
</event>
<event>
 5   0  0.5677193E-07  0.3507495E+04  0.7818609E-02  0.8112016E-01
       -2   -1    0    0    0  501  0.00000000000E+00  0.00000000000E+00  0.18489186803E+04  0.18489186803E+04  0.25500000920E-02 0. -1.
        2   -1    0    0  501    0  0.00000000000E+00  0.00000000000E+00 -0.16634752893E+04  0.16634752893E+04  0.25500000920E-02 0.  1.
    10030    2    1    2    0    0  0.00000000000E+00  0.00000000000E+00  0.18544339106E+03  0.35123939696E+04  0.35074951385E+04 0.  0.
        3    1    3    3  502    0  0.79308920773E+03 -0.58182584225E+03  0.15466857771E+04  0.18329617305E+04  0.10100000352E+00 0. -1.
       -3    1    3    3    0  502 -0.79308920773E+03  0.58182584225E+03 -0.13612423860E+04  0.16794322391E+04  0.10100000352E+00 0.  1.
</event>
<event>
 5   0  0.1873457E-07  0.3497962E+04  0.7818609E-02  0.8114273E-01
       -1   -1    0    0    0  501  0.00000000000E+00  0.00000000000E+00  0.29443529916E+04  0.29443529916E+04  0.50400001928E-02 0. -1.
        1   -1    0    0  501    0  0.00000000000E+00  0.00000000000E+00 -0.10389156813E+04  0.10389156813E+04  0.50400001928E-02 0.  1.
    10030    2    1    2    0    0  0.00000000000E+00  0.00000000000E+00  0.19054373103E+04  0.39832686729E+04  0.34979619748E+04 0.  0.
        3    1    3    3  502    0  0.14079056678E+02 -0.12305907890E+03  0.29393522965E+04  0.29419608580E+04  0.10100000352E+00 0. -1.
       -3    1    3    3    0  502 -0.14079056678E+02  0.12305907890E+03 -0.10339149861E+04  0.10413078150E+04  0.10100000352E+00 0.  1.
</event>
<event>
 5   0  0.5573334E-07  0.3515365E+04  0.7818609E-02  0.8110158E-01
       -2   -1    0    0    0  501  0.00000000000E+00  0.00000000000E+00  0.10310162018E+04  0.10310162018E+04  0.25500000920E-02 0.  1.
        2   -1    0    0  501    0  0.00000000000E+00  0.00000000000E+00 -0.29965071012E+04  0.29965071012E+04  0.25500000920E-02 0. -1.
    10030    2    1    2    0    0  0.00000000000E+00  0.00000000000E+00 -0.19654908994E+04  0.40275233030E+04  0.35153647721E+04 0.  0.
        4    1    3    3  502    0 -0.11321633603E+04  0.98622498353E+03 -0.20296668246E+04  0.25246747562E+04  0.12699999809E+01 0. -1.
       -4    1    3    3    0  502  0.11321633603E+04 -0.98622498353E+03  0.64175925252E+02  0.15028485469E+04  0.12699999809E+01 0.  1.
</event>
<event>
 5   0  0.1897049E-07  0.3515595E+04  0.7818609E-02  0.8110104E-01
       -1   -1    0    0    0  501  0.00000000000E+00  0.00000000000E+00  0.11214966659E+04  0.11214966659E+04  0.50400001928E-02 0. -1.
        1   -1    0    0  501    0  0.00000000000E+00  0.00000000000E+00 -0.27551152657E+04  0.27551152657E+04  0.50400001928E-02 0.  1.
    10030    2    1    2    0    0  0.00000000000E+00  0.00000000000E+00 -0.16336185999E+04  0.38766119316E+04  0.35155953036E+04 0.  0.
        2    1    3    3  502    0  0.80552158739E+03 -0.13120000218E+04 -0.17522411565E+04  0.23325004085E+04  0.25500000920E-02 0.  1.
       -2    1    3    3    0  502 -0.80552158739E+03  0.13120000218E+04  0.11862255664E+03  0.15441115232E+04  0.25500000920E-02 0. -1.
</event>
<event>
 5   0  0.1866421E-07  0.3505560E+04  0.7818609E-02  0.8112474E-01
        1   -1    0    0  501    0  0.00000000000E+00  0.00000000000E+00  0.15104323607E+04  0.15104323607E+04  0.50400001928E-02 0. -1.
       -1   -1    0    0    0  501  0.00000000000E+00  0.00000000000E+00 -0.20340122018E+04  0.20340122018E+04  0.50400001928E-02 0.  1.
    10030    2    1    2    0    0  0.00000000000E+00  0.00000000000E+00 -0.52357984113E+03  0.35444445626E+04  0.35055600704E+04 0.  0.
        1    1    3    3  502    0 -0.15461811544E+04  0.69146500292E+03 -0.71783381103E+03  0.18395883759E+04  0.50400001928E-02 0.  1.
       -1    1    3    3    0  502  0.15461811544E+04 -0.69146500292E+03  0.19425396990E+03  0.17048561867E+04  0.50400001928E-02 0. -1.
</event>
<event>
 5   0  0.5554745E-07  0.3477993E+04  0.7818609E-02  0.8119025E-01
        2   -1    0    0  501    0  0.00000000000E+00  0.00000000000E+00  0.14796683171E+04  0.14796683171E+04  0.25500000920E-02 0. -1.
       -2   -1    0    0    0  501  0.00000000000E+00  0.00000000000E+00 -0.20437748395E+04  0.20437748395E+04  0.25500000920E-02 0.  1.
    10030    2    1    2    0    0  0.00000000000E+00  0.00000000000E+00 -0.56410652246E+03  0.35234431566E+04  0.34779930289E+04 0.  0.
        5    1    3    3  502    0  0.89383888439E+03 -0.14725120034E+04 -0.52359558413E+03  0.18003927286E+04  0.46999998093E+01 0. -1.
       -5    1    3    3    0  502 -0.89383888439E+03  0.14725120034E+04 -0.40510938332E+02  0.17230504280E+04  0.46999998093E+01 0.  1.
</event>
<event>
 5   0  0.1908190E-07  0.3496351E+04  0.7818609E-02  0.8114655E-01
        1   -1    0    0  501    0  0.00000000000E+00  0.00000000000E+00  0.29878337644E+04  0.29878337644E+04  0.50400001928E-02 0. -1.
       -1   -1    0    0    0  501  0.00000000000E+00  0.00000000000E+00 -0.10228539329E+04  0.10228539329E+04  0.50400001928E-02 0.  1.
    10030    2    1    2    0    0  0.00000000000E+00  0.00000000000E+00  0.19649798315E+04  0.40106876973E+04  0.34963509645E+04 0.  0.
        5    1    3    3  502    0  0.12691873637E+04  0.88485813190E+03  0.19160155927E+04  0.24627115785E+04  0.46999998093E+01 0. -1.
       -5    1    3    3    0  502 -0.12691873637E+04 -0.88485813190E+03  0.48964238871E+02  0.15479761188E+04  0.46999998093E+01 0.  1.
</event>
<event>
 5   0  0.5677193E-07  0.3479192E+04  0.7818609E-02  0.8118739E-01
        2   -1    0    0  501    0  0.00000000000E+00  0.00000000000E+00  0.19151349614E+04  0.19151349614E+04  0.25500000920E-02 0.  1.
       -2   -1    0    0    0  501  0.00000000000E+00  0.00000000000E+00 -0.15801464583E+04  0.15801464583E+04  0.25500000920E-02 0. -1.
    10030    2    1    2    0    0  0.00000000000E+00  0.00000000000E+00  0.33498850311E+03  0.34952814197E+04  0.34791917029E+04 0.  0.
        3    1    3    3  502    0  0.48457506104E+03 -0.58353381528E+03  0.17402592659E+04  0.18983748381E+04  0.10100000352E+00 0.  1.
       -3    1    3    3    0  502 -0.48457506104E+03  0.58353381528E+03 -0.14052707628E+04  0.15969065816E+04  0.10100000352E+00 0. -1.
</event>
<event>
 5   0  0.5707187E-07  0.3499949E+04  0.7818609E-02  0.8113802E-01
        2   -1    0    0  501    0  0.00000000000E+00  0.00000000000E+00  0.20795203872E+04  0.20795203872E+04  0.25500000920E-02 0.  1.
       -2   -1    0    0    0  501  0.00000000000E+00  0.00000000000E+00 -0.14726520556E+04  0.14726520556E+04  0.25500000920E-02 0. -1.
    10030    2    1    2    0    0  0.00000000000E+00  0.00000000000E+00  0.60686833157E+03  0.35521724428E+04  0.34999485555E+04 0.  0.
        1    1    3    3  502    0  0.10604646207E+04 -0.76379657470E+03  0.14846035835E+04  0.19778822562E+04  0.50400001928E-02 0.  1.
       -1    1    3    3    0  502 -0.10604646207E+04  0.76379657470E+03 -0.87773525188E+03  0.15742901866E+04  0.50400001928E-02 0. -1.
</event>
<event>
 5   0  0.1897049E-07  0.3490475E+04  0.7818609E-02  0.8116051E-01
        1   -1    0    0  501    0  0.00000000000E+00  0.00000000000E+00  0.15079858017E+04  0.15079858017E+04  0.50400001928E-02 0. -1.
       -1   -1    0    0    0  501  0.00000000000E+00  0.00000000000E+00 -0.20198158027E+04  0.20198158028E+04  0.50400001928E-02 0.  1.
    10030    2    1    2    0    0  0.00000000000E+00  0.00000000000E+00 -0.51183000105E+03  0.35278016045E+04  0.34904747830E+04 0.  0.
        2    1    3    3  502    0 -0.13506388083E+04 -0.38849275009E+03 -0.13017276824E+04  0.19156322106E+04  0.25500000920E-02 0.  1.
       -2    1    3    3    0  502  0.13506388083E+04  0.38849275009E+03  0.78989768133E+03  0.16121693938E+04  0.25500000920E-02 0. -1.
</event>
<event>
 5   0  0.1897049E-07  0.3509253E+04  0.7818609E-02  0.8111601E-01
       -1   -1    0    0    0  501  0.00000000000E+00  0.00000000000E+00  0.20065610333E+04  0.20065610333E+04  0.50400001928E-02 0.  1.
        1   -1    0    0  501    0  0.00000000000E+00  0.00000000000E+00 -0.15343234956E+04  0.15343234956E+04  0.50400001928E-02 0. -1.
    10030    2    1    2    0    0  0.00000000000E+00  0.00000000000E+00  0.47223753761E+03  0.35408845289E+04  0.35092527631E+04 0.  0.
        2    1    3    3  502    0  0.14374237656E+04  0.71710188568E+03 -0.47614175004E+03  0.16754501373E+04  0.25500000920E-02 0. -1.
       -2    1    3    3    0  502 -0.14374237656E+04 -0.71710188568E+03  0.94837928765E+03  0.18654343917E+04  0.25500000920E-02 0.  1.
</event>
<event>
 5   0  0.5677193E-07  0.3539451E+04  0.7818609E-02  0.8104504E-01
       -2   -1    0    0    0  501  0.00000000000E+00  0.00000000000E+00  0.12526339210E+04  0.12526339210E+04  0.25500000920E-02 0.  1.
        2   -1    0    0  501    0  0.00000000000E+00  0.00000000000E+00 -0.25002742050E+04  0.25002742050E+04  0.25500000920E-02 0. -1.
    10030    2    1    2    0    0  0.00000000000E+00  0.00000000000E+00 -0.12476402840E+04  0.37529081259E+04  0.35394509636E+04 0.  0.
        3    1    3    3  502    0  0.16154166785E+04  0.19309749791E+03 -0.13622929377E+04  0.21219565846E+04  0.10100000352E+00 0. -1.
       -3    1    3    3    0  502 -0.16154166785E+04 -0.19309749791E+03  0.11465265368E+03  0.16309515413E+04  0.10100000352E+00 0.  1.
</event>
<event>
 5   0  0.5677193E-07  0.3504376E+04  0.7818609E-02  0.8112754E-01
       -2   -1    0    0    0  501  0.00000000000E+00  0.00000000000E+00  0.21568792036E+04  0.21568792036E+04  0.25500000920E-02 0. -1.
        2   -1    0    0  501    0  0.00000000000E+00  0.00000000000E+00 -0.14234280642E+04  0.14234280643E+04  0.25500000920E-02 0.  1.
    10030    2    1    2    0    0  0.00000000000E+00  0.00000000000E+00  0.73345113939E+03  0.35803072679E+04  0.35043757730E+04 0.  0.
        3    1    3    3  502    0 -0.14792579570E+04  0.83985396680E+03  0.79607352152E+03  0.18781085833E+04  0.10100000352E+00 0. -1.
       -3    1    3    3    0  502  0.14792579570E+04 -0.83985396680E+03 -0.62622382126E+02  0.17021986846E+04  0.10100000352E+00 0.  1.
</event>
<event>
 5   0  0.1933647E-07  0.3439755E+04  0.7818609E-02  0.8128218E-01
       -1   -1    0    0    0  501  0.00000000000E+00  0.00000000000E+00  0.14492473525E+04  0.14492473526E+04  0.50400001928E-02 0.  1.
        1   -1    0    0  501    0  0.00000000000E+00  0.00000000000E+00 -0.20410445664E+04  0.20410445664E+04  0.50400001928E-02 0. -1.
    10030    2    1    2    0    0  0.00000000000E+00  0.00000000000E+00 -0.59179721386E+03  0.34902919190E+04  0.34397548949E+04 0.  0.
        4    1    3    3  502    0 -0.60537588122E+03  0.73941850319E+03 -0.17468575418E+04  0.19911636208E+04  0.12699999809E+01 0. -1.
       -4    1    3    3    0  502  0.60537588122E+03 -0.73941850319E+03  0.11550603279E+04  0.14991282982E+04  0.12699999809E+01 0.  1.
</event>
<event>
 5   0  0.1933647E-07  0.3505233E+04  0.7818609E-02  0.8112551E-01
       -1   -1    0    0    0  501  0.00000000000E+00  0.00000000000E+00  0.14295833983E+04  0.14295833983E+04  0.50400001928E-02 0.  1.
        1   -1    0    0  501    0  0.00000000000E+00  0.00000000000E+00 -0.21486431744E+04  0.21486431744E+04  0.50400001928E-02 0. -1.
    10030    2    1    2    0    0  0.00000000000E+00  0.00000000000E+00 -0.71905977612E+03  0.35782265727E+04  0.35052330085E+04 0.  0.
        4    1    3    3  502    0 -0.20176687593E+03  0.16236741638E+04  0.28175193251E+03  0.16602449900E+04  0.12699999809E+01 0.  1.
       -4    1    3    3    0  502  0.20176687593E+03 -0.16236741638E+04 -0.10008117086E+04  0.19179815827E+04  0.12699999809E+01 0. -1.
</event>
<event>
 5   0  0.1866421E-07  0.3469858E+04  0.7818609E-02  0.8120971E-01
       -1   -1    0    0    0  501  0.00000000000E+00  0.00000000000E+00  0.18855778289E+04  0.18855778289E+04  0.50400001928E-02 0. -1.
        1   -1    0    0  501    0  0.00000000000E+00  0.00000000000E+00 -0.15963163965E+04  0.15963163966E+04  0.50400001928E-02 0.  1.
    10030    2    1    2    0    0  0.00000000000E+00  0.00000000000E+00  0.28926143231E+03  0.34818942254E+04  0.34698580981E+04 0.  0.
        1    1    3    3  502    0 -0.11352522393E+04 -0.16578572596E+03 -0.11613044675E+04  0.16324553961E+04  0.50400001928E-02 0.  1.
       -1    1    3    3    0  502  0.11352522393E+04  0.16578572596E+03  0.14505658998E+04  0.18494388294E+04  0.50400001928E-02 0. -1.
</event>
<event>
 5   0  0.1866421E-07  0.3483456E+04  0.7818609E-02  0.8117722E-01
       -1   -1    0    0    0  501  0.00000000000E+00  0.00000000000E+00  0.14526087523E+04  0.14526087523E+04  0.50400001928E-02 0. -1.
        1   -1    0    0  501    0  0.00000000000E+00  0.00000000000E+00 -0.20883920734E+04  0.20883920734E+04  0.50400001928E-02 0.  1.
    10030    2    1    2    0    0  0.00000000000E+00  0.00000000000E+00 -0.63578332102E+03  0.35410008257E+04  0.34834561023E+04 0.  0.
        1    1    3    3  502    0 -0.12013134025E+02 -0.15727477009E+04  0.44275901064E+03  0.16339263103E+04  0.50400001928E-02 0. -1.
       -1    1    3    3    0  502  0.12013134025E+02  0.15727477009E+04 -0.10785423317E+04  0.19070745154E+04  0.50400001928E-02 0.  1.
</event>
<event>
 5   0  0.1897049E-07  0.3571073E+04  0.7818609E-02  0.8097150E-01
        1   -1    0    0  501    0  0.00000000000E+00  0.00000000000E+00  0.20132132234E+04  0.20132132234E+04  0.50400001928E-02 0.  1.
       -1   -1    0    0    0  501  0.00000000000E+00  0.00000000000E+00 -0.15836082659E+04  0.15836082659E+04  0.50400001928E-02 0. -1.
    10030    2    1    2    0    0  0.00000000000E+00  0.00000000000E+00  0.42960495747E+03  0.35968214893E+04  0.35710732850E+04 0.  0.
        2    1    3    3  502    0 -0.63080698119E+03  0.56320815347E+03 -0.13691201229E+04  0.16092267654E+04  0.25500000920E-02 0. -1.
       -2    1    3    3    0  502  0.63080698119E+03 -0.56320815347E+03  0.17987250804E+04  0.19875947239E+04  0.25500000920E-02 0.  1.
</event>
<event>
 5   0  0.1908190E-07  0.3531959E+04  0.7818609E-02  0.8106258E-01
       -1   -1    0    0    0  501  0.00000000000E+00  0.00000000000E+00  0.11568131742E+04  0.11568131742E+04  0.50400001928E-02 0. -1.
        1   -1    0    0  501    0  0.00000000000E+00  0.00000000000E+00 -0.26959267638E+04  0.26959267638E+04  0.50400001928E-02 0.  1.
    10030    2    1    2    0    0  0.00000000000E+00  0.00000000000E+00 -0.15391135896E+04  0.38527399379E+04  0.35319590014E+04 0.  0.
        5    1    3    3  502    0 -0.12073943460E+04 -0.89341069485E+03  0.24360390376E+03  0.15216270004E+04  0.46999998093E+01 0. -1.
       -5    1    3    3    0  502  0.12073943460E+04  0.89341069485E+03 -0.17827174933E+04  0.23311129375E+04  0.46999998093E+01 0.  1.
</event>
<event>
 5   0  0.1897049E-07  0.3703180E+04  0.7818609E-02  0.8067257E-01
       -1   -1    0    0    0  501  0.00000000000E+00  0.00000000000E+00  0.14980350053E+04  0.14980350053E+04  0.50400001928E-02 0. -1.
        1   -1    0    0  501    0  0.00000000000E+00  0.00000000000E+00 -0.22885886208E+04  0.22885886208E+04  0.50400001928E-02 0.  1.
    10030    2    1    2    0    0  0.00000000000E+00  0.00000000000E+00 -0.79055361559E+03  0.37866236261E+04  0.37031801829E+04 0.  0.
        2    1    3    3  502    0  0.51551754126E+03 -0.12767044991E+04 -0.16611763363E+04  0.21576004110E+04  0.25500000920E-02 0.  1.
       -2    1    3    3    0  502 -0.51551754126E+03  0.12767044991E+04  0.87062272072E+03  0.16290232151E+04  0.25500000920E-02 0. -1.
</event>
<event>
 5   0  0.5707187E-07  0.3492042E+04  0.7818609E-02  0.8115678E-01
        2   -1    0    0  501    0  0.00000000000E+00  0.00000000000E+00  0.24407418673E+04  0.24407418673E+04  0.25500000920E-02 0.  1.
       -2   -1    0    0    0  501  0.00000000000E+00  0.00000000000E+00 -0.12490420849E+04  0.12490420849E+04  0.25500000920E-02 0. -1.
    10030    2    1    2    0    0  0.00000000000E+00  0.00000000000E+00  0.11916997825E+04  0.36897839522E+04  0.34920419875E+04 0.  0.
        1    1    3    3  502    0  0.10588860743E+04  0.11030243831E+04  0.14866096850E+04  0.21325831435E+04  0.50400001928E-02 0. -1.
       -1    1    3    3    0  502 -0.10588860743E+04 -0.11030243831E+04 -0.29490990256E+03  0.15572008087E+04  0.50400001928E-02 0.  1.
</event>
<event>
 5   0  0.5707187E-07  0.3518833E+04  0.7818609E-02  0.8109341E-01
        2   -1    0    0  501    0  0.00000000000E+00  0.00000000000E+00  0.14549850303E+04  0.14549850303E+04  0.25500000920E-02 0. -1.
       -2   -1    0    0    0  501  0.00000000000E+00  0.00000000000E+00 -0.21275449741E+04  0.21275449741E+04  0.25500000920E-02 0.  1.
    10030    2    1    2    0    0  0.00000000000E+00  0.00000000000E+00 -0.67255994382E+03  0.35825300044E+04  0.35188328114E+04 0.  0.
        1    1    3    3  502    0  0.35010733461E+03  0.27650223278E+03 -0.20690035245E+04  0.21165547985E+04  0.50400001928E-02 0.  1.
       -1    1    3    3    0  502 -0.35010733461E+03 -0.27650223278E+03  0.13964435807E+04  0.14659752060E+04  0.50400001928E-02 0. -1.
</event>
<event>
 5   0  0.5740827E-07  0.3496476E+04  0.7818609E-02  0.8114626E-01
       -2   -1    0    0    0  501  0.00000000000E+00  0.00000000000E+00  0.21282167926E+04  0.21282167926E+04  0.25500000920E-02 0.  1.
        2   -1    0    0  501    0  0.00000000000E+00  0.00000000000E+00 -0.14361021064E+04  0.14361021064E+04  0.25500000920E-02 0. -1.
    10030    2    1    2    0    0  0.00000000000E+00  0.00000000000E+00  0.69211468620E+03  0.35643188990E+04  0.34964762941E+04 0.  0.
        2    1    3    3  502    0 -0.28142340922E+02  0.26526737546E+03  0.21073481581E+04  0.21241645490E+04  0.25500000920E-02 0.  1.
       -2    1    3    3    0  502  0.28142340922E+02 -0.26526737546E+03 -0.14152334719E+04  0.14401543500E+04  0.25500000920E-02 0. -1.
</event>
<event>
 5   0  0.1933647E-07  0.3410918E+04  0.7818609E-02  0.8135232E-01
       -1   -1    0    0    0  501  0.00000000000E+00  0.00000000000E+00  0.16416298010E+04  0.16416298010E+04  0.50400001928E-02 0.  1.
        1   -1    0    0  501    0  0.00000000000E+00  0.00000000000E+00 -0.17717700945E+04  0.17717700945E+04  0.50400001928E-02 0. -1.
    10030    2    1    2    0    0  0.00000000000E+00  0.00000000000E+00 -0.13014029353E+03  0.34133998955E+04  0.34109181096E+04 0.  0.
        4    1    3    3  502    0 -0.10512504713E+04  0.11555321528E+04 -0.74982444446E+03  0.17328070926E+04  0.12699999809E+01 0. -1.
       -4    1    3    3    0  502  0.10512504713E+04 -0.11555321528E+04  0.61968415092E+03  0.16805928030E+04  0.12699999809E+01 0.  1.
</event>
<event>
 5   0  0.1933647E-07  0.3506498E+04  0.7818609E-02  0.8112252E-01
       -1   -1    0    0    0  501  0.00000000000E+00  0.00000000000E+00  0.11718260066E+04  0.11718260066E+04  0.50400001928E-02 0. -1.
        1   -1    0    0  501    0  0.00000000000E+00  0.00000000000E+00 -0.26231561389E+04  0.26231561389E+04  0.50400001928E-02 0.  1.
    10030    2    1    2    0    0  0.00000000000E+00  0.00000000000E+00 -0.14513301323E+04  0.37949821455E+04  0.35064983006E+04 0.  0.
        4    1    3    3  502    0 -0.56131373385E+03  0.12928686615E+04  0.40285814505E+03  0.14659054477E+04  0.12699999809E+01 0. -1.
       -4    1    3    3    0  502  0.56131373385E+03 -0.12928686615E+04 -0.18541882774E+04  0.23290766979E+04  0.12699999809E+01 0.  1.
</event>
<event>
 5   0  0.1866421E-07  0.3488512E+04  0.7818609E-02  0.8116518E-01
       -1   -1    0    0    0  501  0.00000000000E+00  0.00000000000E+00  0.11567436497E+04  0.11567436498E+04  0.50400001928E-02 0. -1.
        1   -1    0    0  501    0  0.00000000000E+00  0.00000000000E+00 -0.26301665047E+04  0.26301665047E+04  0.50400001928E-02 0.  1.
    10030    2    1    2    0    0  0.00000000000E+00  0.00000000000E+00 -0.14734228550E+04  0.37869101545E+04  0.34885116609E+04 0.  0.
        1    1    3    3  502    0 -0.86885056146E+03  0.14455154491E+04 -0.25366287365E+03  0.17055090341E+04  0.50400001928E-02 0. -1.
       -1    1    3    3    0  502  0.86885056146E+03 -0.14455154491E+04 -0.12197599813E+04  0.20814011204E+04  0.50400001928E-02 0.  1.
</event>
<event>
 5   0  0.1897049E-07  0.3495083E+04  0.7818609E-02  0.8114956E-01
       -1   -1    0    0    0  501  0.00000000000E+00  0.00000000000E+00  0.28060332039E+04  0.28060332039E+04  0.50400001928E-02 0. -1.
        1   -1    0    0  501    0  0.00000000000E+00  0.00000000000E+00 -0.10883341281E+04  0.10883341281E+04  0.50400001928E-02 0.  1.
    10030    2    1    2    0    0  0.00000000000E+00  0.00000000000E+00  0.17176990758E+04  0.38943673320E+04  0.34950832324E+04 0.  0.
        2    1    3    3  502    0  0.42662785674E+03  0.13617922402E+04 -0.26505099125E+03  0.14514618361E+04  0.25500000920E-02 0.  1.
       -2    1    3    3    0  502 -0.42662785674E+03 -0.13617922402E+04  0.19827500670E+04  0.24429054959E+04  0.25500000920E-02 0. -1.
</event>
<event>
 5   0  0.1897049E-07  0.3535871E+04  0.7818609E-02  0.8105341E-01
        1   -1    0    0  501    0  0.00000000000E+00  0.00000000000E+00  0.23785146428E+04  0.23785146428E+04  0.50400001928E-02 0.  1.
       -1   -1    0    0    0  501  0.00000000000E+00  0.00000000000E+00 -0.13140959467E+04  0.13140959467E+04  0.50400001928E-02 0. -1.
    10030    2    1    2    0    0  0.00000000000E+00  0.00000000000E+00  0.10644186961E+04  0.36926105895E+04  0.35358712936E+04 0.  0.
        2    1    3    3  502    0 -0.57824165910E+03 -0.13426458395E+04  0.15705339121E+04  0.21456090128E+04  0.25500000920E-02 0.  1.
       -2    1    3    3    0  502  0.57824165910E+03  0.13426458395E+04 -0.50611521596E+03  0.15470015767E+04  0.25500000920E-02 0. -1.
</event>
<event>
 5   0  0.5677193E-07  0.3513488E+04  0.7818609E-02  0.8110601E-01
        2   -1    0    0  501    0  0.00000000000E+00  0.00000000000E+00  0.14674221202E+04  0.14674221202E+04  0.25500000920E-02 0. -1.
       -2   -1    0    0    0  501  0.00000000000E+00  0.00000000000E+00 -0.21031094705E+04  0.21031094705E+04  0.25500000920E-02 0.  1.
    10030    2    1    2    0    0  0.00000000000E+00  0.00000000000E+00 -0.63568735030E+03  0.35705315907E+04  0.35134879298E+04 0.  0.
        3    1    3    3  502    0  0.47403991692E+03  0.75254557683E+03  0.12217149426E+04  0.15111671315E+04  0.10100000352E+00 0. -1.
       -3    1    3    3    0  502 -0.47403991692E+03 -0.75254557683E+03 -0.18574022929E+04  0.20593644592E+04  0.10100000352E+00 0.  1.
</event>
<event>
 5   0  0.5707187E-07  0.3373292E+04  0.7818609E-02  0.8144493E-01
       -2   -1    0    0    0  501  0.00000000000E+00  0.00000000000E+00  0.10711588886E+04  0.10711588886E+04  0.25500000920E-02 0.  1.
        2   -1    0    0  501    0  0.00000000000E+00  0.00000000000E+00 -0.26557909759E+04  0.26557909759E+04  0.25500000920E-02 0. -1.
    10030    2    1    2    0    0  0.00000000000E+00  0.00000000000E+00 -0.15846320873E+04  0.37269498645E+04  0.33732916329E+04 0.  0.
        1    1    3    3  502    0  0.10759199340E+04 -0.10833664777E+04 -0.60884955327E+00  0.15268552650E+04  0.50400001928E-02 0.  1.
       -1    1    3    3    0  502 -0.10759199340E+04  0.10833664777E+04 -0.15840232377E+04  0.22000945996E+04  0.50400001928E-02 0. -1.
</event>
<event>
 5   0  0.5677193E-07  0.3493056E+04  0.7818609E-02  0.8115438E-01
       -2   -1    0    0    0  501  0.00000000000E+00  0.00000000000E+00  0.23282005373E+04  0.23282005373E+04  0.25500000920E-02 0. -1.
        2   -1    0    0  501    0  0.00000000000E+00  0.00000000000E+00 -0.13101792865E+04  0.13101792865E+04  0.25500000920E-02 0.  1.
    10030    2    1    2    0    0  0.00000000000E+00  0.00000000000E+00  0.10180212508E+04  0.36383798238E+04  0.34930560366E+04 0.  0.
        3    1    3    3  502    0  0.14384155918E+04 -0.58727598428E+03  0.13399646369E+04  0.20516914326E+04  0.10100000352E+00 0.  1.
       -3    1    3    3    0  502 -0.14384155918E+04  0.58727598428E+03 -0.32194338604E+03  0.15866883911E+04  0.10100000352E+00 0. -1.
</event>
<event>
 5   0  0.1866421E-07  0.3508591E+04  0.7818609E-02  0.8111757E-01
        1   -1    0    0  501    0  0.00000000000E+00  0.00000000000E+00  0.21810972279E+04  0.21810972280E+04  0.50400001928E-02 0. -1.
       -1   -1    0    0    0  501  0.00000000000E+00  0.00000000000E+00 -0.14110112730E+04  0.14110112730E+04  0.50400001928E-02 0.  1.
    10030    2    1    2    0    0  0.00000000000E+00  0.00000000000E+00  0.77008595492E+03  0.35921085010E+04  0.35085910427E+04 0.  0.
        1    1    3    3  502    0 -0.16545363553E+03 -0.39113513978E+03  0.21276733237E+04  0.21696440666E+04  0.50400001928E-02 0. -1.
       -1    1    3    3    0  502  0.16545363553E+03  0.39113513978E+03 -0.13575873688E+04  0.14224644344E+04  0.50400001928E-02 0.  1.
</event>
<event>
 5   0  0.5740827E-07  0.3456621E+04  0.7818609E-02  0.8124148E-01
       -2   -1    0    0    0  501  0.00000000000E+00  0.00000000000E+00  0.23577624792E+04  0.23577624792E+04  0.25500000920E-02 0. -1.
        2   -1    0    0  501    0  0.00000000000E+00  0.00000000000E+00 -0.12669037046E+04  0.12669037046E+04  0.25500000920E-02 0.  1.
    10030    2    1    2    0    0  0.00000000000E+00  0.00000000000E+00  0.10908587745E+04  0.36246661838E+04  0.34566214832E+04 0.  0.
        2    1    3    3  502    0  0.90699357275E+03 -0.99302867662E+03  0.16837034605E+04  0.21549015376E+04  0.25500000920E-02 0. -1.
       -2    1    3    3    0  502 -0.90699357275E+03  0.99302867662E+03 -0.59284468600E+03  0.14697646462E+04  0.25500000920E-02 0.  1.
</event>
<event>
 5   0  0.5740827E-07  0.3479970E+04  0.7818609E-02  0.8118553E-01
        2   -1    0    0  501    0  0.00000000000E+00  0.00000000000E+00  0.24687113443E+04  0.24687113443E+04  0.25500000920E-02 0. -1.
       -2   -1    0    0    0  501  0.00000000000E+00  0.00000000000E+00 -0.12263675674E+04  0.12263675674E+04  0.25500000920E-02 0.  1.
    10030    2    1    2    0    0  0.00000000000E+00  0.00000000000E+00  0.12423437769E+04  0.36950789116E+04  0.34799698423E+04 0.  0.
        2    1    3    3  502    0 -0.38794856963E+03 -0.74694673244E+03  0.22381691603E+04  0.23911994279E+04  0.25500000920E-02 0. -1.
       -2    1    3    3    0  502  0.38794856963E+03  0.74694673244E+03 -0.99582538342E+03  0.13038794837E+04  0.25500000920E-02 0.  1.
</event>
<event>
 5   0  0.1866421E-07  0.3483490E+04  0.7818609E-02  0.8117714E-01
        1   -1    0    0  501    0  0.00000000000E+00  0.00000000000E+00  0.25615437581E+04  0.25615437581E+04  0.50400001928E-02 0. -1.
       -1   -1    0    0    0  501  0.00000000000E+00  0.00000000000E+00 -0.11843150375E+04  0.11843150375E+04  0.50400001928E-02 0.  1.
    10030    2    1    2    0    0  0.00000000000E+00  0.00000000000E+00  0.13772287206E+04  0.37458587956E+04  0.34834895102E+04 0.  0.
        1    1    3    3  502    0 -0.48741996299E+03 -0.61974527612E+03  0.23586535398E+04  0.24869477173E+04  0.50400001928E-02 0. -1.
       -1    1    3    3    0  502  0.48741996299E+03  0.61974527612E+03 -0.98142481916E+03  0.12589110784E+04  0.50400001928E-02 0.  1.
</event>
<event>
 5   0  0.1933647E-07  0.3474912E+04  0.7818609E-02  0.8119761E-01
        1   -1    0    0  501    0  0.00000000000E+00  0.00000000000E+00  0.25210609509E+04  0.25210609509E+04  0.50400001928E-02 0. -1.
       -1   -1    0    0    0  501  0.00000000000E+00  0.00000000000E+00 -0.11974135790E+04  0.11974135790E+04  0.50400001928E-02 0.  1.
    10030    2    1    2    0    0  0.00000000000E+00  0.00000000000E+00  0.13236473719E+04  0.37184745300E+04  0.34749115765E+04 0.  0.
        4    1    3    3  502    0  0.15274009559E+04  0.65277844910E+03  0.12071272220E+04  0.20533463241E+04  0.12699999809E+01 0. -1.
       -4    1    3    3    0  502 -0.15274009559E+04 -0.65277844910E+03  0.11652014989E+03  0.16651282059E+04  0.12699999809E+01 0.  1.
</event>
<event>
 5   0  0.1908190E-07  0.3498814E+04  0.7818609E-02  0.8114071E-01
       -1   -1    0    0    0  501  0.00000000000E+00  0.00000000000E+00  0.13548961072E+04  0.13548961072E+04  0.50400001928E-02 0. -1.
        1   -1    0    0  501    0  0.00000000000E+00  0.00000000000E+00 -0.22587896950E+04  0.22587896950E+04  0.50400001928E-02 0.  1.
    10030    2    1    2    0    0  0.00000000000E+00  0.00000000000E+00 -0.90389358780E+03  0.36136858023E+04  0.34988142934E+04 0.  0.
        5    1    3    3  502    0 -0.24243570407E+02 -0.17478385189E+04 -0.52406799383E+03  0.18248826239E+04  0.46999998093E+01 0.  1.
       -5    1    3    3    0  502  0.24243570407E+02  0.17478385189E+04 -0.37982559398E+03  0.17888031783E+04  0.46999998093E+01 0. -1.
</event>
<event>
 5   0  0.5573334E-07  0.3480307E+04  0.7818609E-02  0.8118473E-01
        2   -1    0    0  501    0  0.00000000000E+00  0.00000000000E+00  0.16128444077E+04  0.16128444077E+04  0.25500000920E-02 0.  1.
       -2   -1    0    0    0  501  0.00000000000E+00  0.00000000000E+00 -0.18775115907E+04  0.18775115907E+04  0.25500000920E-02 0. -1.
    10030    2    1    2    0    0  0.00000000000E+00  0.00000000000E+00 -0.26466718293E+03  0.34903559984E+04  0.34803069230E+04 0.  0.
        4    1    3    3  502    0  0.20553899025E+03  0.57456445134E+03  0.15020227232E+04  0.16212478093E+04  0.12699999809E+01 0.  1.
       -4    1    3    3    0  502 -0.20553899025E+03 -0.57456445134E+03 -0.17666899061E+04  0.18691081891E+04  0.12699999809E+01 0. -1.
</event>
<event>
 5   0  0.1908190E-07  0.3490943E+04  0.7818609E-02  0.8115940E-01
       -1   -1    0    0    0  501  0.00000000000E+00  0.00000000000E+00  0.19020806128E+04  0.19020806128E+04  0.50400001928E-02 0. -1.
        1   -1    0    0  501    0  0.00000000000E+00  0.00000000000E+00 -0.16017566722E+04  0.16017566722E+04  0.50400001928E-02 0.  1.
    10030    2    1    2    0    0  0.00000000000E+00  0.00000000000E+00  0.30032394060E+03  0.35038372850E+04  0.34909427452E+04 0.  0.
        5    1    3    3  502    0 -0.10129199515E+04 -0.12154448840E+04 -0.58967340946E+03  0.16885052307E+04  0.46999998093E+01 0.  1.
       -5    1    3    3    0  502  0.10129199515E+04  0.12154448840E+04  0.88999735006E+03  0.18153320543E+04  0.46999998093E+01 0. -1.
</event>
<event>
 5   0  0.5707187E-07  0.3537359E+04  0.7818609E-02  0.8104993E-01
       -2   -1    0    0    0  501  0.00000000000E+00  0.00000000000E+00  0.22263938250E+04  0.22263938250E+04  0.25500000920E-02 0.  1.
        2   -1    0    0  501    0  0.00000000000E+00  0.00000000000E+00 -0.14050644492E+04  0.14050644492E+04  0.25500000920E-02 0. -1.
    10030    2    1    2    0    0  0.00000000000E+00  0.00000000000E+00  0.82132937582E+03  0.36314582742E+04  0.35373587963E+04 0.  0.
        1    1    3    3  502    0 -0.91173930760E+03  0.53862769806E+03  0.18649785793E+04  0.21446522942E+04  0.50400001928E-02 0.  1.
       -1    1    3    3    0  502  0.91173930760E+03 -0.53862769806E+03 -0.10436492034E+04  0.14868059799E+04  0.50400001928E-02 0. -1.
</event>
<event>
 5   0  0.1908190E-07  0.3489964E+04  0.7818609E-02  0.8116172E-01
       -1   -1    0    0    0  501  0.00000000000E+00  0.00000000000E+00  0.17720825211E+04  0.17720825211E+04  0.50400001928E-02 0.  1.
        1   -1    0    0  501    0  0.00000000000E+00  0.00000000000E+00 -0.17182962216E+04  0.17182962216E+04  0.50400001928E-02 0. -1.
    10030    2    1    2    0    0  0.00000000000E+00  0.00000000000E+00  0.53786299490E+02  0.34903787426E+04  0.34899642980E+04 0.  0.
        5    1    3    3  502    0  0.18139726268E+03 -0.14189693813E+03 -0.17030234785E+04  0.17185315726E+04  0.46999998093E+01 0. -1.
       -5    1    3    3    0  502 -0.18139726268E+03  0.14189693813E+03  0.17568097779E+04  0.17718471700E+04  0.46999998093E+01 0.  1.
</event>
<event>
 5   0  0.1873457E-07  0.3498082E+04  0.7818609E-02  0.8114245E-01
        1   -1    0    0  501    0  0.00000000000E+00  0.00000000000E+00  0.21795958282E+04  0.21795958282E+04  0.50400001928E-02 0. -1.
       -1   -1    0    0    0  501  0.00000000000E+00  0.00000000000E+00 -0.14035373340E+04  0.14035373340E+04  0.50400001928E-02 0.  1.
    10030    2    1    2    0    0  0.00000000000E+00  0.00000000000E+00  0.77605849424E+03  0.35831331622E+04  0.34980818275E+04 0.  0.
        3    1    3    3  502    0 -0.10711000134E+04 -0.12364668284E+04  0.10219781928E+04  0.19288714040E+04  0.10100000352E+00 0. -1.
       -3    1    3    3    0  502  0.10711000134E+04  0.12364668284E+04 -0.24591969858E+03  0.16542617582E+04  0.10100000352E+00 0.  1.
</event>
<event>
 5   0  0.1873457E-07  0.3528768E+04  0.7818609E-02  0.8107006E-01
       -1   -1    0    0    0  501  0.00000000000E+00  0.00000000000E+00  0.13763452718E+04  0.13763452718E+04  0.50400001928E-02 0. -1.
        1   -1    0    0  501    0  0.00000000000E+00  0.00000000000E+00 -0.22618238479E+04  0.22618238479E+04  0.50400001928E-02 0.  1.
    10030    2    1    2    0    0  0.00000000000E+00  0.00000000000E+00 -0.88547857604E+03  0.36381691197E+04  0.35287678069E+04 0.  0.
        3    1    3    3  502    0 -0.34126740102E+03 -0.16266479326E+04 -0.10532144436E+04  0.19676655229E+04  0.10100000352E+00 0.  1.
       -3    1    3    3    0  502  0.34126740102E+03  0.16266479326E+04  0.16773586760E+03  0.16705035968E+04  0.10100000352E+00 0. -1.
</event>
<event>
 5   0  0.1823000E-07  0.3440478E+04  0.7818609E-02  0.8128043E-01
       -3   -1    0    0    0  501  0.00000000000E+00  0.00000000000E+00  0.16460953162E+04  0.16460953193E+04  0.10100000352E+00 0. -1.
        3   -1    0    0  501    0  0.00000000000E+00  0.00000000000E+00 -0.17977221458E+04  0.17977221486E+04  0.10100000352E+00 0.  1.
    10030    2    1    2    0    0  0.00000000000E+00  0.00000000000E+00 -0.15162682959E+03  0.34438174680E+04  0.34404778821E+04 0.  0.
        2    1    3    3  502    0  0.76992916347E+03  0.54282604324E+03  0.13649485256E+04  0.16584738489E+04  0.25500000920E-02 0. -1.
       -2    1    3    3    0  502 -0.76992916347E+03 -0.54282604324E+03 -0.15165753552E+04  0.17853436190E+04  0.25500000920E-02 0.  1.
</event>
<event>
 5   0  0.5573334E-07  0.3485696E+04  0.7818609E-02  0.8117188E-01
       -2   -1    0    0    0  501  0.00000000000E+00  0.00000000000E+00  0.12813219351E+04  0.12813219351E+04  0.25500000920E-02 0.  1.
        2   -1    0    0  501    0  0.00000000000E+00  0.00000000000E+00 -0.23706131821E+04  0.23706131821E+04  0.25500000920E-02 0. -1.
    10030    2    1    2    0    0  0.00000000000E+00  0.00000000000E+00 -0.10892912470E+04  0.36519351172E+04  0.34856957239E+04 0.  0.
        4    1    3    3  502    0  0.16237955912E+04 -0.40924650448E+03 -0.38574401069E+02  0.16750177374E+04  0.12699999809E+01 0. -1.
       -4    1    3    3    0  502 -0.16237955912E+04  0.40924650448E+03 -0.10507168460E+04  0.19769173798E+04  0.12699999809E+01 0.  1.
</event>
<event>
 5   0  0.5677193E-07  0.3494284E+04  0.7818609E-02  0.8115146E-01
       -2   -1    0    0    0  501  0.00000000000E+00  0.00000000000E+00  0.12602345382E+04  0.12602345382E+04  0.25500000920E-02 0. -1.
        2   -1    0    0  501    0  0.00000000000E+00  0.00000000000E+00 -0.24221717951E+04  0.24221717951E+04  0.25500000920E-02 0.  1.
    10030    2    1    2    0    0  0.00000000000E+00  0.00000000000E+00 -0.11619372569E+04  0.36824063334E+04  0.34942836483E+04 0.  0.
        3    1    3    3  502    0 -0.13309251168E+04 -0.10378009408E+04 -0.10485796141E+03  0.16909724012E+04  0.10100000352E+00 0. -1.
       -3    1    3    3    0  502  0.13309251168E+04  0.10378009408E+04 -0.10570792955E+04  0.19914339322E+04  0.10100000352E+00 0.  1.
</event>
<event>
 5   0  0.5740827E-07  0.3498920E+04  0.7818609E-02  0.8114046E-01
        2   -1    0    0  501    0  0.00000000000E+00  0.00000000000E+00  0.16589112348E+04  0.16589112348E+04  0.25500000920E-02 0. -1.
       -2   -1    0    0    0  501  0.00000000000E+00  0.00000000000E+00 -0.18449507724E+04  0.18449507724E+04  0.25500000920E-02 0.  1.
    10030    2    1    2    0    0  0.00000000000E+00  0.00000000000E+00 -0.18603953757E+03  0.35038620072E+04  0.34989195841E+04 0.  0.
        2    1    3    3  502    0  0.70423765117E+03  0.64226832281E+03 -0.15621129108E+04  0.18299333359E+04  0.25500000920E-02 0.  1.
       -2    1    3    3    0  502 -0.70423765117E+03 -0.64226832281E+03  0.13760733733E+04  0.16739286712E+04  0.25500000920E-02 0. -1.
</event>
<event>
 5   0  0.5707187E-07  0.3340573E+04  0.7818609E-02  0.8152648E-01
       -2   -1    0    0    0  501  0.00000000000E+00  0.00000000000E+00  0.11953406012E+04  0.11953406012E+04  0.25500000920E-02 0. -1.
        2   -1    0    0  501    0  0.00000000000E+00  0.00000000000E+00 -0.23339426728E+04  0.23339426728E+04  0.25500000920E-02 0.  1.
    10030    2    1    2    0    0  0.00000000000E+00  0.00000000000E+00 -0.11386020716E+04  0.35292832740E+04  0.33405726681E+04 0.  0.
        1    1    3    3  502    0 -0.64659679729E+03 -0.53145263414E+03 -0.20964057398E+04  0.22573095371E+04  0.50400001928E-02 0.  1.
       -1    1    3    3    0  502  0.64659679729E+03  0.53145263414E+03  0.95780366816E+03  0.12719737369E+04  0.50400001928E-02 0. -1.
</event>
<event>
 5   0  0.5554745E-07  0.3496781E+04  0.7818609E-02  0.8114553E-01
        2   -1    0    0  501    0  0.00000000000E+00  0.00000000000E+00  0.22626216508E+04  0.22626216508E+04  0.25500000920E-02 0.  1.
       -2   -1    0    0    0  501  0.00000000000E+00  0.00000000000E+00 -0.13510295590E+04  0.13510295590E+04  0.25500000920E-02 0. -1.
    10030    2    1    2    0    0  0.00000000000E+00  0.00000000000E+00  0.91159209186E+03  0.36136512098E+04  0.34967806515E+04 0.  0.
        5    1    3    3  502    0  0.55998769109E+03  0.87803751801E+03  0.19071237646E+04  0.21729425305E+04  0.46999998093E+01 0.  1.
       -5    1    3    3    0  502 -0.55998769109E+03 -0.87803751801E+03 -0.99553167278E+03  0.14407086793E+04  0.46999998093E+01 0. -1.
</event>
<event>
 5   0  0.5677193E-07  0.3425337E+04  0.7818609E-02  0.8131716E-01
        2   -1    0    0  501    0  0.00000000000E+00  0.00000000000E+00  0.17555250629E+04  0.17555250629E+04  0.25500000920E-02 0. -1.
       -2   -1    0    0    0  501  0.00000000000E+00  0.00000000000E+00 -0.16708578152E+04  0.16708578152E+04  0.25500000920E-02 0.  1.
    10030    2    1    2    0    0  0.00000000000E+00  0.00000000000E+00  0.84667247742E+02  0.34263828782E+04  0.34253366382E+04 0.  0.
        3    1    3    3  502    0  0.13718547311E+04  0.11529878570E+03 -0.97677761278E+03  0.16880088058E+04  0.10100000352E+00 0.  1.
       -3    1    3    3    0  502 -0.13718547311E+04 -0.11529878570E+03  0.10614448605E+04  0.17383740724E+04  0.10100000352E+00 0. -1.
</event>
<event>
 5   0  0.1873457E-07  0.3487120E+04  0.7818609E-02  0.8116849E-01
        1   -1    0    0  501    0  0.00000000000E+00  0.00000000000E+00  0.88261613587E+03  0.88261613588E+03  0.50400001928E-02 0. -1.
       -1   -1    0    0    0  501  0.00000000000E+00  0.00000000000E+00 -0.34443081218E+04  0.34443081218E+04  0.50400001928E-02 0.  1.
    10030    2    1    2    0    0  0.00000000000E+00  0.00000000000E+00 -0.25616919859E+04  0.43269242577E+04  0.34871202590E+04 0.  0.
        3    1    3    3  502    0  0.35361869159E+03  0.14376385895E+04 -0.13810195830E+03  0.14869172990E+04  0.10100000352E+00 0. -1.
       -3    1    3    3    0  502 -0.35361869159E+03 -0.14376385895E+04 -0.24235900276E+04  0.28400069587E+04  0.10100000352E+00 0.  1.
</event>
<event>
 5   0  0.1873457E-07  0.3490401E+04  0.7818609E-02  0.8116069E-01
       -1   -1    0    0    0  501  0.00000000000E+00  0.00000000000E+00  0.16746041296E+04  0.16746041296E+04  0.50400001928E-02 0.  1.
        1   -1    0    0  501    0  0.00000000000E+00  0.00000000000E+00 -0.18187727704E+04  0.18187727704E+04  0.50400001928E-02 0. -1.
    10030    2    1    2    0    0  0.00000000000E+00  0.00000000000E+00 -0.14416864079E+03  0.34933769000E+04  0.34904007747E+04 0.  0.
        3    1    3    3  502    0  0.47746663430E+03  0.11291969501E+04 -0.13151837133E+04  0.17979900859E+04  0.10100000352E+00 0. -1.
       -3    1    3    3    0  502 -0.47746663430E+03 -0.11291969501E+04  0.11710150725E+04  0.16953868141E+04  0.10100000352E+00 0.  1.
</event>
<event>
 5   0  0.1908190E-07  0.3387213E+04  0.7818609E-02  0.8141052E-01
        1   -1    0    0  501    0  0.00000000000E+00  0.00000000000E+00  0.21252468538E+04  0.21252468538E+04  0.50400001928E-02 0. -1.
       -1   -1    0    0    0  501  0.00000000000E+00  0.00000000000E+00 -0.13496332003E+04  0.13496332003E+04  0.50400001928E-02 0.  1.
    10030    2    1    2    0    0  0.00000000000E+00  0.00000000000E+00  0.77561365348E+03  0.34748800541E+04  0.33872134346E+04 0.  0.
        5    1    3    3  502    0  0.61255108945E+03 -0.15738337613E+04  0.25759630845E+03  0.17083762740E+04  0.46999998093E+01 0.  1.
       -5    1    3    3    0  502 -0.61255108945E+03  0.15738337613E+04  0.51801734503E+03  0.17665037801E+04  0.46999998093E+01 0. -1.
</event>
<event>
 5   0  0.1873457E-07  0.3509079E+04  0.7818609E-02  0.8111642E-01
        1   -1    0    0  501    0  0.00000000000E+00  0.00000000000E+00  0.17600889622E+04  0.17600889622E+04  0.50400001928E-02 0.  1.
       -1   -1    0    0    0  501  0.00000000000E+00  0.00000000000E+00 -0.17490078750E+04  0.17490078750E+04  0.50400001928E-02 0. -1.
    10030    2    1    2    0    0  0.00000000000E+00  0.00000000000E+00  0.11081087227E+02  0.35090968373E+04  0.35090793412E+04 0.  0.
        3    1    3    3  502    0  0.13713409210E+04  0.10651182359E+04  0.25724930263E+03  0.17553432689E+04  0.10100000352E+00 0.  1.
       -3    1    3    3    0  502 -0.13713409210E+04 -0.10651182359E+04 -0.24616821541E+03  0.17537535683E+04  0.10100000352E+00 0. -1.
</event>
<event>
 5   0  0.5740827E-07  0.3529821E+04  0.7818609E-02  0.8106759E-01
        2   -1    0    0  501    0  0.00000000000E+00  0.00000000000E+00  0.27577481792E+04  0.27577481792E+04  0.25500000920E-02 0. -1.
       -2   -1    0    0    0  501  0.00000000000E+00  0.00000000000E+00 -0.11295117334E+04  0.11295117334E+04  0.25500000920E-02 0.  1.
    10030    2    1    2    0    0  0.00000000000E+00  0.00000000000E+00  0.16282364459E+04  0.38872599126E+04  0.35298209167E+04 0.  0.
        2    1    3    3  502    0  0.52643548863E+03 -0.62986115319E+03  0.25347153887E+04  0.26643275883E+04  0.25500000920E-02 0. -1.
       -2    1    3    3    0  502 -0.52643548863E+03  0.62986115319E+03 -0.90647894283E+03  0.12229323243E+04  0.25500000920E-02 0.  1.
</event>
<event>
 5   0  0.5677193E-07  0.3474143E+04  0.7818609E-02  0.8119945E-01
       -2   -1    0    0    0  501  0.00000000000E+00  0.00000000000E+00  0.14385009722E+04  0.14385009722E+04  0.25500000920E-02 0. -1.
        2   -1    0    0  501    0  0.00000000000E+00  0.00000000000E+00 -0.20976123948E+04  0.20976123948E+04  0.25500000920E-02 0.  1.
    10030    2    1    2    0    0  0.00000000000E+00  0.00000000000E+00 -0.65911142258E+03  0.35361133670E+04  0.34741430421E+04 0.  0.
        3    1    3    3  502    0 -0.19166053198E+03 -0.30686106085E+03  0.13997260809E+04  0.14457283915E+04  0.10100000352E+00 0. -1.
       -3    1    3    3    0  502  0.19166053198E+03  0.30686106085E+03 -0.20588375035E+04  0.20903849756E+04  0.10100000352E+00 0.  1.
</event>
<event>
 5   0  0.1873457E-07  0.3510852E+04  0.7818609E-02  0.8111223E-01
       -1   -1    0    0    0  501  0.00000000000E+00  0.00000000000E+00  0.15014230944E+04  0.15014230944E+04  0.50400001928E-02 0. -1.
        1   -1    0    0  501    0  0.00000000000E+00  0.00000000000E+00 -0.20523993969E+04  0.20523993969E+04  0.50400001928E-02 0.  1.
    10030    2    1    2    0    0  0.00000000000E+00  0.00000000000E+00 -0.55097630254E+03  0.35538224913E+04  0.35108516650E+04 0.  0.
        3    1    3    3  502    0 -0.12852528570E+03 -0.67250864442E+03  0.13606907355E+04  0.15232419092E+04  0.10100000352E+00 0. -1.
       -3    1    3    3    0  502  0.12852528570E+03  0.67250864442E+03 -0.19116670381E+04  0.20305805821E+04  0.10100000352E+00 0.  1.
</event>
<event>
 5   0  0.1897049E-07  0.3493745E+04  0.7818609E-02  0.8115274E-01
        1   -1    0    0  501    0  0.00000000000E+00  0.00000000000E+00  0.25134807716E+04  0.25134807716E+04  0.50400001928E-02 0.  1.
       -1   -1    0    0    0  501  0.00000000000E+00  0.00000000000E+00 -0.12140785600E+04  0.12140785600E+04  0.50400001928E-02 0. -1.
    10030    2    1    2    0    0  0.00000000000E+00  0.00000000000E+00  0.12994022116E+04  0.37275593316E+04  0.34937447621E+04 0.  0.
        2    1    3    3  502    0  0.10881195435E+04  0.43629084243E+03  0.20314432957E+04  0.23454457367E+04  0.25500000920E-02 0.  1.
       -2    1    3    3    0  502 -0.10881195435E+04 -0.43629084243E+03 -0.73204108412E+03  0.13821135948E+04  0.25500000920E-02 0. -1.
</event>
<event>
 5   0  0.5740827E-07  0.3504165E+04  0.7818609E-02  0.8112804E-01
       -2   -1    0    0    0  501  0.00000000000E+00  0.00000000000E+00  0.16235122292E+04  0.16235122292E+04  0.25500000920E-02 0.  1.
        2   -1    0    0  501    0  0.00000000000E+00  0.00000000000E+00 -0.18908344127E+04  0.18908344127E+04  0.25500000920E-02 0. -1.
    10030    2    1    2    0    0  0.00000000000E+00  0.00000000000E+00 -0.26732218345E+03  0.35143466419E+04  0.35041648320E+04 0.  0.
        2    1    3    3  502    0  0.10049153042E+04 -0.55881095740E+03  0.11921742115E+04  0.16563223736E+04  0.25500000920E-02 0.  1.
       -2    1    3    3    0  502 -0.10049153042E+04  0.55881095740E+03 -0.14594963950E+04  0.18580242683E+04  0.25500000920E-02 0. -1.
</event>
<event>
 5   0  0.1933647E-07  0.3365476E+04  0.7818609E-02  0.8146432E-01
        1   -1    0    0  501    0  0.00000000000E+00  0.00000000000E+00  0.17121638776E+04  0.17121638776E+04  0.50400001928E-02 0. -1.
       -1   -1    0    0    0  501  0.00000000000E+00  0.00000000000E+00 -0.16538176057E+04  0.16538176057E+04  0.50400001928E-02 0.  1.
    10030    2    1    2    0    0  0.00000000000E+00  0.00000000000E+00  0.58346271869E+02  0.33659814833E+04  0.33654757551E+04 0.  0.
        4    1    3    3  502    0  0.14095618014E+03  0.13257427246E+04 -0.99769568230E+03  0.16651908911E+04  0.12699999809E+01 0.  1.
       -4    1    3    3    0  502 -0.14095618014E+03 -0.13257427246E+04  0.10560419542E+04  0.17007905921E+04  0.12699999809E+01 0. -1.
</event>
<event>
 5   0  0.5707187E-07  0.3293400E+04  0.7818609E-02  0.8164577E-01
       -2   -1    0    0    0  501  0.00000000000E+00  0.00000000000E+00  0.10904365253E+04  0.10904365253E+04  0.25500000920E-02 0.  1.
        2   -1    0    0  501    0  0.00000000000E+00  0.00000000000E+00 -0.24867301833E+04  0.24867301833E+04  0.25500000920E-02 0. -1.
    10030    2    1    2    0    0  0.00000000000E+00  0.00000000000E+00 -0.13962936579E+04  0.35771667086E+04  0.32934003221E+04 0.  0.
        1    1    3    3  502    0  0.63719125781E+03 -0.88542516802E+03 -0.20379756925E+04  0.23115655626E+04  0.50400001928E-02 0. -1.
       -1    1    3    3    0  502 -0.63719125781E+03  0.88542516802E+03  0.64168203455E+03  0.12656011460E+04  0.50400001928E-02 0.  1.
</event>
<event>
 5   0  0.1933647E-07  0.3493883E+04  0.7818609E-02  0.8115241E-01
        1   -1    0    0  501    0  0.00000000000E+00  0.00000000000E+00  0.21164393628E+04  0.21164393628E+04  0.50400001928E-02 0.  1.
       -1   -1    0    0    0  501  0.00000000000E+00  0.00000000000E+00 -0.14419521780E+04  0.14419521780E+04  0.50400001928E-02 0. -1.
    10030    2    1    2    0    0  0.00000000000E+00  0.00000000000E+00  0.67448718487E+03  0.35583915408E+04  0.34938828537E+04 0.  0.
        4    1    3    3  502    0  0.16262428382E+04  0.51847769750E+02  0.98494845336E+03  0.19019671471E+04  0.12699999809E+01 0.  1.
       -4    1    3    3    0  502 -0.16262428382E+04 -0.51847769750E+02 -0.31046126848E+03  0.16564243937E+04  0.12699999809E+01 0. -1.
</event>
<event>
 5   0  0.1873457E-07  0.3499614E+04  0.7818609E-02  0.8113881E-01
       -1   -1    0    0    0  501  0.00000000000E+00  0.00000000000E+00  0.96134435117E+03  0.96134435118E+03  0.50400001928E-02 0.  1.
        1   -1    0    0  501    0  0.00000000000E+00  0.00000000000E+00 -0.31849410911E+04  0.31849410911E+04  0.50400001928E-02 0. -1.
    10030    2    1    2    0    0  0.00000000000E+00  0.00000000000E+00 -0.22235967399E+04  0.41462854422E+04  0.34996143369E+04 0.  0.
        3    1    3    3  502    0 -0.10670792803E+04  0.27782253204E+03  0.49793033988E+03  0.12098670106E+04  0.10100000352E+00 0.  1.
       -3    1    3    3    0  502  0.10670792803E+04 -0.27782253204E+03 -0.27215270798E+04  0.29364184317E+04  0.10100000352E+00 0. -1.
</event>
<event>
 5   0  0.1897049E-07  0.3506193E+04  0.7818609E-02  0.8112324E-01
        1   -1    0    0  501    0  0.00000000000E+00  0.00000000000E+00  0.22340125424E+04  0.22340125424E+04  0.50400001928E-02 0. -1.
       -1   -1    0    0    0  501  0.00000000000E+00  0.00000000000E+00 -0.13757076430E+04  0.13757076430E+04  0.50400001928E-02 0.  1.
    10030    2    1    2    0    0  0.00000000000E+00  0.00000000000E+00  0.85830489937E+03  0.36097201854E+04  0.35061934511E+04 0.  0.
        2    1    3    3  502    0 -0.44022715205E+03  0.10492632461E+04  0.18021702760E+04  0.21313308070E+04  0.25500000920E-02 0. -1.
       -2    1    3    3    0  502  0.44022715205E+03 -0.10492632461E+04 -0.94386537659E+03  0.14783893784E+04  0.25500000920E-02 0.  1.
</event>
<event>
 5   0  0.5707187E-07  0.3391382E+04  0.7818609E-02  0.8140025E-01
       -2   -1    0    0    0  501  0.00000000000E+00  0.00000000000E+00  0.15576727162E+04  0.15576727162E+04  0.25500000920E-02 0. -1.
        2   -1    0    0  501    0  0.00000000000E+00  0.00000000000E+00 -0.18459380600E+04  0.18459380600E+04  0.25500000920E-02 0.  1.
    10030    2    1    2    0    0  0.00000000000E+00  0.00000000000E+00 -0.28826534383E+03  0.34036107762E+04  0.33913816369E+04 0.  0.
        1    1    3    3  502    0 -0.40561225966E+03 -0.16426289780E+04 -0.25685905417E+03  0.17113526341E+04  0.50400001928E-02 0.  1.
       -1    1    3    3    0  502  0.40561225966E+03  0.16426289780E+04 -0.31406289661E+02  0.16922581421E+04  0.50400001928E-02 0. -1.
</event>
<event>
 5   0  0.5554745E-07  0.3297710E+04  0.7818609E-02  0.8163478E-01
        2   -1    0    0  501    0  0.00000000000E+00  0.00000000000E+00  0.14472811793E+04  0.14472811793E+04  0.25500000920E-02 0. -1.
       -2   -1    0    0    0  501  0.00000000000E+00  0.00000000000E+00 -0.18785030082E+04  0.18785030082E+04  0.25500000920E-02 0.  1.
    10030    2    1    2    0    0  0.00000000000E+00  0.00000000000E+00 -0.43122182889E+03  0.33257841875E+04  0.32977095379E+04 0.  0.
        5    1    3    3  502    0  0.76924829085E+03  0.12479331109E+04  0.54554612750E+03  0.15642003227E+04  0.46999998093E+01 0. -1.
       -5    1    3    3    0  502 -0.76924829085E+03 -0.12479331109E+04 -0.97676795639E+03  0.17615838648E+04  0.46999998093E+01 0.  1.
</event>
<event>
 5   0  0.1908190E-07  0.3763692E+04  0.7818609E-02  0.8053992E-01
        1   -1    0    0  501    0  0.00000000000E+00  0.00000000000E+00  0.22042632970E+04  0.22042632970E+04  0.50400001928E-02 0. -1.
       -1   -1    0    0    0  501  0.00000000000E+00  0.00000000000E+00 -0.16065886743E+04  0.16065886743E+04  0.50400001928E-02 0.  1.
    10030    2    1    2    0    0  0.00000000000E+00  0.00000000000E+00  0.59767462267E+03  0.38108519713E+04  0.37636920427E+04 0.  0.
        5    1    3    3  502    0 -0.15365161029E+04 -0.33794625902E+03 -0.74668678905E+03  0.17414513083E+04  0.46999998093E+01 0. -1.
       -5    1    3    3    0  502  0.15365161029E+04  0.33794625902E+03  0.13443614117E+04  0.20694006629E+04  0.46999998093E+01 0.  1.
</event>
<event>
 5   0  0.5573334E-07  0.3493556E+04  0.7818609E-02  0.8115319E-01
        2   -1    0    0  501    0  0.00000000000E+00  0.00000000000E+00  0.14839388632E+04  0.14839388632E+04  0.25500000920E-02 0. -1.
       -2   -1    0    0    0  501  0.00000000000E+00  0.00000000000E+00 -0.20561718622E+04  0.20561718622E+04  0.25500000920E-02 0.  1.
    10030    2    1    2    0    0  0.00000000000E+00  0.00000000000E+00 -0.57223299906E+03  0.35401107254E+04  0.34935559739E+04 0.  0.
        4    1    3    3  502    0  0.12473266066E+04 -0.12190597868E+04 -0.38384491548E+03  0.17858524461E+04  0.12699999809E+01 0.  1.
       -4    1    3    3    0  502 -0.12473266066E+04  0.12190597868E+04 -0.18838808358E+03  0.17542582792E+04  0.12699999809E+01 0. -1.
</event>
<event>
 5   0  0.1866421E-07  0.3473707E+04  0.7818609E-02  0.8120049E-01
       -1   -1    0    0    0  501  0.00000000000E+00  0.00000000000E+00  0.12729782255E+04  0.12729782255E+04  0.50400001928E-02 0. -1.
        1   -1    0    0  501    0  0.00000000000E+00  0.00000000000E+00 -0.23697657487E+04  0.23697657488E+04  0.50400001928E-02 0.  1.
    10030    2    1    2    0    0  0.00000000000E+00  0.00000000000E+00 -0.10967875233E+04  0.36427439742E+04  0.34737070675E+04 0.  0.
        1    1    3    3  502    0 -0.12395851759E+04 -0.77348375735E+03 -0.15331378365E+04  0.21178668884E+04  0.50400001928E-02 0.  1.
       -1    1    3    3    0  502  0.12395851759E+04  0.77348375735E+03  0.43635031320E+03  0.15248770859E+04  0.50400001928E-02 0. -1.
</event>
<event>
 5   0  0.1908190E-07  0.3537047E+04  0.7818609E-02  0.8105066E-01
        1   -1    0    0  501    0  0.00000000000E+00  0.00000000000E+00  0.21750457825E+04  0.21750457825E+04  0.50400001928E-02 0. -1.
       -1   -1    0    0    0  501  0.00000000000E+00  0.00000000000E+00 -0.14379813119E+04  0.14379813119E+04  0.50400001928E-02 0.  1.
    10030    2    1    2    0    0  0.00000000000E+00  0.00000000000E+00  0.73706447067E+03  0.36130270944E+04  0.35370468969E+04 0.  0.
        5    1    3    3  502    0 -0.16276453036E+03 -0.85216570035E+03  0.19427320935E+04  0.21276533435E+04  0.46999998093E+01 0. -1.
       -5    1    3    3    0  502  0.16276453036E+03  0.85216570035E+03 -0.12056676228E+04  0.14853737509E+04  0.46999998093E+01 0.  1.
</event>
<event>
 5   0  0.1897049E-07  0.3481923E+04  0.7818609E-02  0.8118087E-01
        1   -1    0    0  501    0  0.00000000000E+00  0.00000000000E+00  0.21975770750E+04  0.21975770750E+04  0.50400001928E-02 0.  1.
       -1   -1    0    0    0  501  0.00000000000E+00  0.00000000000E+00 -0.13792224950E+04  0.13792224950E+04  0.50400001928E-02 0. -1.
    10030    2    1    2    0    0  0.00000000000E+00  0.00000000000E+00  0.81835457999E+03  0.35767995699E+04  0.34819234548E+04 0.  0.
        2    1    3    3  502    0  0.20287663796E+03 -0.95084131648E+03  0.18927205765E+04  0.21278273708E+04  0.25500000920E-02 0.  1.
       -2    1    3    3    0  502 -0.20287663796E+03  0.95084131648E+03 -0.10743659965E+04  0.14489721991E+04  0.25500000920E-02 0. -1.
</event>
<event>
 5   0  0.1897049E-07  0.3488447E+04  0.7818609E-02  0.8116533E-01
        1   -1    0    0  501    0  0.00000000000E+00  0.00000000000E+00  0.23206650227E+04  0.23206650227E+04  0.50400001928E-02 0.  1.
       -1   -1    0    0    0  501  0.00000000000E+00  0.00000000000E+00 -0.13109671300E+04  0.13109671300E+04  0.50400001928E-02 0. -1.
    10030    2    1    2    0    0  0.00000000000E+00  0.00000000000E+00  0.10096978927E+04  0.36316321528E+04  0.34884469694E+04 0.  0.
        2    1    3    3  502    0 -0.47353616597E+03 -0.13757050165E+04 -0.49667515401E+03  0.15373636530E+04  0.25500000920E-02 0. -1.
       -2    1    3    3    0  502  0.47353616597E+03  0.13757050165E+04  0.15063730467E+04  0.20942684997E+04  0.25500000920E-02 0.  1.
</event>
<event>
 5   0  0.1823000E-07  0.3486849E+04  0.7818609E-02  0.8116914E-01
        3   -1    0    0  501    0  0.00000000000E+00  0.00000000000E+00  0.14848928409E+04  0.14848928443E+04  0.10100000352E+00 0. -1.
       -3   -1    0    0    0  501  0.00000000000E+00  0.00000000000E+00 -0.20469691041E+04  0.20469691066E+04  0.10100000352E+00 0.  1.
    10030    2    1    2    0    0  0.00000000000E+00  0.00000000000E+00 -0.56207626326E+03  0.35318619509E+04  0.34868494540E+04 0.  0.
        2    1    3    3  502    0  0.60120354292E+03  0.12477295973E+04 -0.13536008722E+04  0.19366233937E+04  0.25500000920E-02 0.  1.
       -2    1    3    3    0  502 -0.60120354292E+03 -0.12477295973E+04  0.79152460891E+03  0.15952385572E+04  0.25500000920E-02 0. -1.
</event>
<event>
 5   0  0.1908190E-07  0.3526532E+04  0.7818609E-02  0.8107531E-01
       -1   -1    0    0    0  501  0.00000000000E+00  0.00000000000E+00  0.13077882979E+04  0.13077882979E+04  0.50400001928E-02 0.  1.
        1   -1    0    0  501    0  0.00000000000E+00  0.00000000000E+00 -0.23773775697E+04  0.23773775697E+04  0.50400001928E-02 0. -1.
    10030    2    1    2    0    0  0.00000000000E+00  0.00000000000E+00 -0.10695892718E+04  0.36851658676E+04  0.35265317610E+04 0.  0.
        5    1    3    3  502    0  0.35644527707E+01  0.57501094565E+03  0.12070495255E+04  0.13370269032E+04  0.46999998093E+01 0.  1.
       -5    1    3    3    0  502 -0.35644527707E+01 -0.57501094565E+03 -0.22766387973E+04  0.23481389644E+04  0.46999998093E+01 0. -1.
</event>
<event>
 5   0  0.1897049E-07  0.3492118E+04  0.7818609E-02  0.8115661E-01
       -1   -1    0    0    0  501  0.00000000000E+00  0.00000000000E+00  0.17007418624E+04  0.17007418624E+04  0.50400001928E-02 0.  1.
        1   -1    0    0  501    0  0.00000000000E+00  0.00000000000E+00 -0.17925831758E+04  0.17925831758E+04  0.50400001928E-02 0. -1.
    10030    2    1    2    0    0  0.00000000000E+00  0.00000000000E+00 -0.91841313390E+02  0.34933250382E+04  0.34921175518E+04 0.  0.
        2    1    3    3  502    0 -0.12434442754E+04 -0.11281359981E+04 -0.52554108096E+03  0.17592719869E+04  0.25500000920E-02 0. -1.
       -2    1    3    3    0  502  0.12434442754E+04  0.11281359981E+04  0.43369976757E+03  0.17340530513E+04  0.25500000920E-02 0.  1.
</event>
<event>
 5   0  0.1897049E-07  0.3487982E+04  0.7818609E-02  0.8116644E-01
        1   -1    0    0  501    0  0.00000000000E+00  0.00000000000E+00  0.18651536990E+04  0.18651536990E+04  0.50400001928E-02 0. -1.
       -1   -1    0    0    0  501  0.00000000000E+00  0.00000000000E+00 -0.16306994869E+04  0.16306994869E+04  0.50400001928E-02 0.  1.
    10030    2    1    2    0    0  0.00000000000E+00  0.00000000000E+00  0.23445421215E+03  0.34958531859E+04  0.34879823279E+04 0.  0.
        2    1    3    3  502    0 -0.12800408805E+04  0.11841737820E+04  0.14436176926E+03  0.17497464165E+04  0.25500000920E-02 0.  1.
       -2    1    3    3    0  502  0.12800408805E+04 -0.11841737820E+04  0.90092442887E+02  0.17461067694E+04  0.25500000920E-02 0. -1.
</event>
<event>
 5   0  0.1823000E-07  0.3493332E+04  0.7818609E-02  0.8115372E-01
        4   -1    0    0  501    0  0.00000000000E+00  0.00000000000E+00  0.19621719665E+04  0.19621723775E+04  0.12699999809E+01 0.  1.
       -4   -1    0    0    0  501  0.00000000000E+00  0.00000000000E+00 -0.15548286128E+04  0.15548291315E+04  0.12699999809E+01 0. -1.
    10030    2    1    2    0    0  0.00000000000E+00  0.00000000000E+00  0.40734335368E+03  0.35170015089E+04  0.34933323641E+04 0.  0.
        3    1    3    3  502    0 -0.70574326383E+02  0.10121852229E+04 -0.12277008037E+04  0.15927174686E+04  0.10100000352E+00 0. -1.
       -3    1    3    3    0  502  0.70574326383E+02 -0.10121852229E+04  0.16350441574E+04  0.19242840403E+04  0.10100000352E+00 0.  1.
</event>
<event>
 5   0  0.5707187E-07  0.3457015E+04  0.7818609E-02  0.8124053E-01
       -2   -1    0    0    0  501  0.00000000000E+00  0.00000000000E+00  0.12826961403E+04  0.12826961403E+04  0.25500000920E-02 0.  1.
        2   -1    0    0  501    0  0.00000000000E+00  0.00000000000E+00 -0.23292635487E+04  0.23292635487E+04  0.25500000920E-02 0. -1.
    10030    2    1    2    0    0  0.00000000000E+00  0.00000000000E+00 -0.10465674084E+04  0.36119596890E+04  0.34570145291E+04 0.  0.
        1    1    3    3  502    0 -0.13850084156E+04  0.10252162227E+04 -0.38147746755E+03  0.17648914054E+04  0.50400001928E-02 0. -1.
       -1    1    3    3    0  502  0.13850084156E+04 -0.10252162227E+04 -0.66508994082E+03  0.18470682835E+04  0.50400001928E-02 0.  1.
</event>
<event>
 5   0  0.1908190E-07  0.3533350E+04  0.7818609E-02  0.8105932E-01
        1   -1    0    0  501    0  0.00000000000E+00  0.00000000000E+00  0.16788870163E+04  0.16788870163E+04  0.50400001928E-02 0.  1.
       -1   -1    0    0    0  501  0.00000000000E+00  0.00000000000E+00 -0.18590532038E+04  0.18590532038E+04  0.50400001928E-02 0. -1.
    10030    2    1    2    0    0  0.00000000000E+00  0.00000000000E+00 -0.18016618756E+03  0.35379402201E+04  0.35333498476E+04 0.  0.
        5    1    3    3  502    0 -0.92530102138E+03  0.91203236924E+02  0.14140729461E+04  0.16923724169E+04  0.46999998093E+01 0.  1.
       -5    1    3    3    0  502  0.92530102138E+03 -0.91203236924E+02 -0.15942391337E+04  0.18455678032E+04  0.46999998093E+01 0. -1.
</event>
<event>
 5   0  0.1897049E-07  0.3304177E+04  0.7818609E-02  0.8161833E-01
       -1   -1    0    0    0  501  0.00000000000E+00  0.00000000000E+00  0.15475571248E+04  0.15475571248E+04  0.50400001928E-02 0. -1.
        1   -1    0    0  501    0  0.00000000000E+00  0.00000000000E+00 -0.17636807583E+04  0.17636807583E+04  0.50400001928E-02 0.  1.
    10030    2    1    2    0    0  0.00000000000E+00  0.00000000000E+00 -0.21612363354E+03  0.33112378831E+04  0.33041771885E+04 0.  0.
        2    1    3    3  502    0 -0.88173393657E+03 -0.12155122182E+04 -0.79835306002E+03  0.17006740710E+04  0.25500000920E-02 0.  1.
       -2    1    3    3    0  502  0.88173393657E+03  0.12155122182E+04  0.58222942648E+03  0.16105638120E+04  0.25500000920E-02 0. -1.
</event>
<event>
 5   0  0.1866421E-07  0.3630150E+04  0.7818609E-02  0.8083620E-01
       -1   -1    0    0    0  501  0.00000000000E+00  0.00000000000E+00  0.23174447458E+04  0.23174447459E+04  0.50400001928E-02 0.  1.
        1   -1    0    0  501    0  0.00000000000E+00  0.00000000000E+00 -0.14216076376E+04  0.14216076376E+04  0.50400001928E-02 0. -1.
    10030    2    1    2    0    0  0.00000000000E+00  0.00000000000E+00  0.89583710822E+03  0.37390523835E+04  0.36301499421E+04 0.  0.
        1    1    3    3  502    0  0.35690524203E+03 -0.15581357928E+04  0.13335555574E+04  0.20817153805E+04  0.50400001928E-02 0.  1.
       -1    1    3    3    0  502 -0.35690524203E+03  0.15581357928E+04 -0.43771844918E+03  0.16573370030E+04  0.50400001928E-02 0. -1.
</event>
<event>
 5   0  0.5554745E-07  0.3512146E+04  0.7818609E-02  0.8110917E-01
        2   -1    0    0  501    0  0.00000000000E+00  0.00000000000E+00  0.15607889434E+04  0.15607889434E+04  0.25500000920E-02 0. -1.
       -2   -1    0    0    0  501  0.00000000000E+00  0.00000000000E+00 -0.19757912877E+04  0.19757912877E+04  0.25500000920E-02 0.  1.
    10030    2    1    2    0    0  0.00000000000E+00  0.00000000000E+00 -0.41500234434E+03  0.35365802311E+04  0.35121464641E+04 0.  0.
        5    1    3    3  502    0  0.78212477309E+03  0.15520261071E+04  0.45777839562E+02  0.17385689225E+04  0.46999998093E+01 0. -1.
       -5    1    3    3    0  502 -0.78212477309E+03 -0.15520261071E+04 -0.46078018390E+03  0.17980113086E+04  0.46999998093E+01 0.  1.
</event>
<event>
 5   0  0.5554745E-07  0.3488540E+04  0.7818609E-02  0.8116511E-01
        2   -1    0    0  501    0  0.00000000000E+00  0.00000000000E+00  0.25203934142E+04  0.25203934142E+04  0.25500000920E-02 0. -1.
       -2   -1    0    0    0  501  0.00000000000E+00  0.00000000000E+00 -0.12071436881E+04  0.12071436881E+04  0.25500000920E-02 0.  1.
    10030    2    1    2    0    0  0.00000000000E+00  0.00000000000E+00  0.13132497261E+04  0.37275371022E+04  0.34885395233E+04 0.  0.
        5    1    3    3  502    0 -0.17497132735E+03 -0.15478422547E+04 -0.18201837442E+03  0.15683058980E+04  0.46999998093E+01 0.  1.
       -5    1    3    3    0  502  0.17497132735E+03  0.15478422547E+04  0.14952681005E+04  0.21592312042E+04  0.46999998093E+01 0. -1.
</event>
<event>
 5   0  0.5573334E-07  0.3438236E+04  0.7818609E-02  0.8128585E-01
        2   -1    0    0  501    0  0.00000000000E+00  0.00000000000E+00  0.18541217298E+04  0.18541217298E+04  0.25500000920E-02 0.  1.
       -2   -1    0    0    0  501  0.00000000000E+00  0.00000000000E+00 -0.15939442169E+04  0.15939442169E+04  0.25500000920E-02 0. -1.
    10030    2    1    2    0    0  0.00000000000E+00  0.00000000000E+00  0.26017751291E+03  0.34480659467E+04  0.34382359480E+04 0.  0.
        4    1    3    3  502    0  0.46009627286E+02  0.17170463319E+04  0.59175886252E+02  0.17186821667E+04  0.12699999809E+01 0.  1.
       -4    1    3    3    0  502 -0.46009627286E+02 -0.17170463319E+04  0.20100162666E+03  0.17293837800E+04  0.12699999809E+01 0. -1.
</event>
<event>
 5   0  0.1908190E-07  0.3493234E+04  0.7818609E-02  0.8115395E-01
        1   -1    0    0  501    0  0.00000000000E+00  0.00000000000E+00  0.16595750611E+04  0.16595750612E+04  0.50400001928E-02 0.  1.
       -1   -1    0    0    0  501  0.00000000000E+00  0.00000000000E+00 -0.18382240852E+04  0.18382240852E+04  0.50400001928E-02 0. -1.
    10030    2    1    2    0    0  0.00000000000E+00  0.00000000000E+00 -0.17864902405E+03  0.34977991464E+04  0.34932339450E+04 0.  0.
        5    1    3    3  502    0 -0.11563175047E+04 -0.68266879317E+03 -0.12077183540E+04  0.18060211974E+04  0.46999998093E+01 0. -1.
       -5    1    3    3    0  502  0.11563175047E+04  0.68266879317E+03  0.10290693299E+04  0.16917779490E+04  0.46999998093E+01 0.  1.
</event>
<event>
 5   0  0.5740827E-07  0.3521314E+04  0.7818609E-02  0.8108757E-01
       -2   -1    0    0    0  501  0.00000000000E+00  0.00000000000E+00  0.28419517980E+04  0.28419517980E+04  0.25500000920E-02 0.  1.
        2   -1    0    0  501    0  0.00000000000E+00  0.00000000000E+00 -0.10907689176E+04  0.10907689176E+04  0.25500000920E-02 0. -1.
    10030    2    1    2    0    0  0.00000000000E+00  0.00000000000E+00  0.17511828804E+04  0.39327207155E+04  0.35213137812E+04 0.  0.
        2    1    3    3  502    0 -0.14276469939E+04  0.30350749049E+03 -0.22414635470E+03  0.14766632400E+04  0.25500000920E-02 0.  1.
       -2    1    3    3    0  502  0.14276469939E+04 -0.30350749049E+03  0.19753292351E+04  0.24560574755E+04  0.25500000920E-02 0. -1.
</event>
<event>
 5   0  0.1897049E-07  0.3515049E+04  0.7818609E-02  0.8110233E-01
       -1   -1    0    0    0  501  0.00000000000E+00  0.00000000000E+00  0.11866736248E+04  0.11866736248E+04  0.50400001928E-02 0.  1.
        1   -1    0    0  501    0  0.00000000000E+00  0.00000000000E+00 -0.26029833566E+04  0.26029833566E+04  0.50400001928E-02 0. -1.
    10030    2    1    2    0    0  0.00000000000E+00  0.00000000000E+00 -0.14163097318E+04  0.37896569814E+04  0.35150486171E+04 0.  0.
        2    1    3    3  502    0  0.14262071462E+04  0.77444008517E+03  0.19133164969E+02  0.16230188992E+04  0.25500000920E-02 0.  1.
       -2    1    3    3    0  502 -0.14262071462E+04 -0.77444008517E+03 -0.14354428967E+04  0.21666380822E+04  0.25500000920E-02 0. -1.
</event>
<event>
 5   0  0.5740827E-07  0.3489781E+04  0.7818609E-02  0.8116216E-01
       -2   -1    0    0    0  501  0.00000000000E+00  0.00000000000E+00  0.29523702701E+04  0.29523702701E+04  0.25500000920E-02 0.  1.
        2   -1    0    0  501    0  0.00000000000E+00  0.00000000000E+00 -0.10312534586E+04  0.10312534586E+04  0.25500000920E-02 0. -1.
    10030    2    1    2    0    0  0.00000000000E+00  0.00000000000E+00  0.19211168115E+04  0.39836237286E+04  0.34897805387E+04 0.  0.
        2    1    3    3  502    0 -0.17203481145E+04  0.45450499305E+02  0.12893823439E+04  0.21503883863E+04  0.25500000920E-02 0.  1.
       -2    1    3    3    0  502  0.17203481145E+04 -0.45450499305E+02  0.63173446759E+03  0.18332353424E+04  0.25500000920E-02 0. -1.
</event>
<event>
 5   0  0.1908190E-07  0.3494130E+04  0.7818609E-02  0.8115182E-01
        1   -1    0    0  501    0  0.00000000000E+00  0.00000000000E+00  0.16567138358E+04  0.16567138358E+04  0.50400001928E-02 0.  1.
       -1   -1    0    0    0  501  0.00000000000E+00  0.00000000000E+00 -0.18423437809E+04  0.18423437809E+04  0.50400001928E-02 0. -1.
    10030    2    1    2    0    0  0.00000000000E+00  0.00000000000E+00 -0.18562994512E+03  0.34990576168E+04  0.34941301820E+04 0.  0.
        5    1    3    3  502    0  0.57899648118E+03  0.12473539170E+04 -0.11718713501E+04  0.18067742722E+04  0.46999998093E+01 0. -1.
       -5    1    3    3    0  502 -0.57899648118E+03 -0.12473539170E+04  0.98624140497E+03  0.16922833446E+04  0.46999998093E+01 0.  1.
</event>
<event>
 5   0  0.5573334E-07  0.3511630E+04  0.7818609E-02  0.8111039E-01
       -2   -1    0    0    0  501  0.00000000000E+00  0.00000000000E+00  0.14816661345E+04  0.14816661345E+04  0.25500000920E-02 0.  1.
        2   -1    0    0  501    0  0.00000000000E+00  0.00000000000E+00 -0.20806887246E+04  0.20806887246E+04  0.25500000920E-02 0. -1.
    10030    2    1    2    0    0  0.00000000000E+00  0.00000000000E+00 -0.59902259010E+03  0.35623548591E+04  0.35116298322E+04 0.  0.
        4    1    3    3  502    0 -0.10531627461E+04 -0.13280234943E+04 -0.76448377450E+03  0.18593641993E+04  0.12699999809E+01 0.  1.
       -4    1    3    3    0  502  0.10531627461E+04  0.13280234943E+04  0.16546118439E+03  0.17029906599E+04  0.12699999809E+01 0. -1.
</event>
<event>
 5   0  0.1866421E-07  0.3500180E+04  0.7818609E-02  0.8113747E-01
        1   -1    0    0  501    0  0.00000000000E+00  0.00000000000E+00  0.14998446205E+04  0.14998446205E+04  0.50400001928E-02 0. -1.
       -1   -1    0    0    0  501  0.00000000000E+00  0.00000000000E+00 -0.20420880571E+04  0.20420880571E+04  0.50400001928E-02 0.  1.
    10030    2    1    2    0    0  0.00000000000E+00  0.00000000000E+00 -0.54224343663E+03  0.35419326777E+04  0.35001798737E+04 0.  0.
        1    1    3    3  502    0  0.42529511379E+02 -0.25911368961E+03  0.14797975701E+04  0.15029136742E+04  0.50400001928E-02 0. -1.
       -1    1    3    3    0  502 -0.42529511379E+02  0.25911368961E+03 -0.20220410068E+04  0.20390190035E+04  0.50400001928E-02 0.  1.
</event>
<event>
 5   0  0.1908190E-07  0.3314998E+04  0.7818609E-02  0.8159090E-01
       -1   -1    0    0    0  501  0.00000000000E+00  0.00000000000E+00  0.13515978706E+04  0.13515978706E+04  0.50400001928E-02 0. -1.
        1   -1    0    0  501    0  0.00000000000E+00  0.00000000000E+00 -0.20326338336E+04  0.20326338336E+04  0.50400001928E-02 0.  1.
    10030    2    1    2    0    0  0.00000000000E+00  0.00000000000E+00 -0.68103596304E+03  0.33842317042E+04  0.33149983778E+04 0.  0.
        5    1    3    3  502    0 -0.67227370512E+03  0.72000927039E+02 -0.18854461723E+04  0.20030140855E+04  0.46999998093E+01 0.  1.
       -5    1    3    3    0  502  0.67227370512E+03 -0.72000927039E+02  0.12044102092E+04  0.13812176187E+04  0.46999998093E+01 0. -1.
</event>
<event>
 5   0  0.1866421E-07  0.3495954E+04  0.7818609E-02  0.8114749E-01
        1   -1    0    0  501    0  0.00000000000E+00  0.00000000000E+00  0.13730990317E+04  0.13730990317E+04  0.50400001928E-02 0. -1.
       -1   -1    0    0    0  501  0.00000000000E+00  0.00000000000E+00 -0.22252028073E+04  0.22252028073E+04  0.50400001928E-02 0.  1.
    10030    2    1    2    0    0  0.00000000000E+00  0.00000000000E+00 -0.85210377562E+03  0.35983018391E+04  0.34959541302E+04 0.  0.
        1    1    3    3  502    0 -0.14749217780E+04 -0.66893928190E+03 -0.11029914963E+04  0.19594550913E+04  0.50400001928E-02 0.  1.
       -1    1    3    3    0  502  0.14749217780E+04  0.66893928190E+03  0.25088772067E+03  0.16388467477E+04  0.50400001928E-02 0. -1.
</event>
<event>
 5   0  0.5740827E-07  0.3513373E+04  0.7818609E-02  0.8110628E-01
       -2   -1    0    0    0  501  0.00000000000E+00  0.00000000000E+00  0.15672203358E+04  0.15672203358E+04  0.25500000920E-02 0. -1.
        2   -1    0    0  501    0  0.00000000000E+00  0.00000000000E+00 -0.19690580373E+04  0.19690580373E+04  0.25500000920E-02 0.  1.
    10030    2    1    2    0    0  0.00000000000E+00  0.00000000000E+00 -0.40183770154E+03  0.35362783731E+04  0.35133731931E+04 0.  0.
        2    1    3    3  502    0 -0.31627329612E+02 -0.95854340443E+03  0.12804582550E+04  0.15998059536E+04  0.25500000920E-02 0. -1.
       -2    1    3    3    0  502  0.31627329612E+02  0.95854340443E+03 -0.16822959566E+04  0.19364724196E+04  0.25500000920E-02 0.  1.
</event>
<event>
 5   0  0.5677193E-07  0.3514211E+04  0.7818609E-02  0.8110430E-01
       -2   -1    0    0    0  501  0.00000000000E+00  0.00000000000E+00  0.17413758995E+04  0.17413758995E+04  0.25500000920E-02 0. -1.
        2   -1    0    0  501    0  0.00000000000E+00  0.00000000000E+00 -0.17729767160E+04  0.17729767160E+04  0.25500000920E-02 0.  1.
    10030    2    1    2    0    0  0.00000000000E+00  0.00000000000E+00 -0.31600816470E+02  0.35143526155E+04  0.35142105365E+04 0.  0.
        3    1    3    3  502    0 -0.10285580876E+04 -0.13804237369E+04 -0.36783378836E+03  0.17603417676E+04  0.10100000352E+00 0.  1.
       -3    1    3    3    0  502  0.10285580876E+04  0.13804237369E+04  0.33623297189E+03  0.17540108479E+04  0.10100000352E+00 0. -1.
</event>
<event>
 5   0  0.1908190E-07  0.3498289E+04  0.7818609E-02  0.8114196E-01
       -1   -1    0    0    0  501  0.00000000000E+00  0.00000000000E+00  0.18999341897E+04  0.18999341897E+04  0.50400001928E-02 0.  1.
        1   -1    0    0  501    0  0.00000000000E+00  0.00000000000E+00 -0.16103224883E+04  0.16103224883E+04  0.50400001928E-02 0. -1.
    10030    2    1    2    0    0  0.00000000000E+00  0.00000000000E+00  0.28961170145E+03  0.35102566780E+04  0.34982891544E+04 0.  0.
        5    1    3    3  502    0  0.54518555701E+03 -0.16600388810E+04  0.63731646722E+02  0.17484393586E+04  0.46999998093E+01 0. -1.
       -5    1    3    3    0  502 -0.54518555701E+03  0.16600388810E+04  0.22588005473E+03  0.17618173194E+04  0.46999998093E+01 0.  1.
</event>
<event>
 5   0  0.5554745E-07  0.3494318E+04  0.7818609E-02  0.8115138E-01
       -2   -1    0    0    0  501  0.00000000000E+00  0.00000000000E+00  0.11893845187E+04  0.11893845187E+04  0.25500000920E-02 0. -1.
        2   -1    0    0  501    0  0.00000000000E+00  0.00000000000E+00 -0.25665073683E+04  0.25665073683E+04  0.25500000920E-02 0.  1.
    10030    2    1    2    0    0  0.00000000000E+00  0.00000000000E+00 -0.13771228495E+04  0.37558918870E+04  0.34943177480E+04 0.  0.
        5    1    3    3  502    0  0.16883605169E+04  0.37284950068E+03 -0.41885143261E+03  0.17790549732E+04  0.46999998093E+01 0. -1.
       -5    1    3    3    0  502 -0.16883605169E+04 -0.37284950068E+03 -0.95827141692E+03  0.19768369138E+04  0.46999998093E+01 0.  1.
</event>
<event>
 5   0  0.5554745E-07  0.3529435E+04  0.7818609E-02  0.8106849E-01
       -2   -1    0    0    0  501  0.00000000000E+00  0.00000000000E+00  0.18732244848E+04  0.18732244848E+04  0.25500000920E-02 0.  1.
        2   -1    0    0  501    0  0.00000000000E+00  0.00000000000E+00 -0.16624961112E+04  0.16624961112E+04  0.25500000920E-02 0. -1.
    10030    2    1    2    0    0  0.00000000000E+00  0.00000000000E+00  0.21072837360E+03  0.35357205961E+04  0.35294353211E+04 0.  0.
        5    1    3    3  502    0  0.38505854606E+03 -0.17182020360E+04  0.22269667636E+03  0.17748532954E+04  0.46999998093E+01 0.  1.
       -5    1    3    3    0  502 -0.38505854606E+03  0.17182020360E+04 -0.11968302765E+02  0.17608673007E+04  0.46999998093E+01 0. -1.
</event>
<event>
 5   0  0.5554745E-07  0.3545914E+04  0.7818609E-02  0.8102994E-01
       -2   -1    0    0    0  501  0.00000000000E+00  0.00000000000E+00  0.19399654028E+04  0.19399654028E+04  0.25500000920E-02 0. -1.
        2   -1    0    0  501    0  0.00000000000E+00  0.00000000000E+00 -0.16203256261E+04  0.16203256261E+04  0.25500000920E-02 0.  1.
    10030    2    1    2    0    0  0.00000000000E+00  0.00000000000E+00  0.31963977669E+03  0.35602910288E+04  0.35459135104E+04 0.  0.
        5    1    3    3  502    0 -0.37156106036E+03  0.84426026740E+03 -0.13604264981E+04  0.16436591397E+04  0.46999998093E+01 0.  1.
       -5    1    3    3    0  502  0.37156106036E+03 -0.84426026740E+03  0.16800662748E+04  0.19166318891E+04  0.46999998093E+01 0. -1.
</event>
<event>
 5   0  0.1866421E-07  0.3479583E+04  0.7818609E-02  0.8118646E-01
       -1   -1    0    0    0  501  0.00000000000E+00  0.00000000000E+00  0.34635870908E+04  0.34635870908E+04  0.50400001928E-02 0. -1.
        1   -1    0    0  501    0  0.00000000000E+00  0.00000000000E+00 -0.87391333732E+03  0.87391333733E+03  0.50400001928E-02 0.  1.
    10030    2    1    2    0    0  0.00000000000E+00  0.00000000000E+00  0.25896737535E+04  0.43375004281E+04  0.34795832817E+04 0.  0.
        1    1    3    3  502    0  0.77313787674E+03 -0.32955266015E+03 -0.60407882218E+03  0.10350161137E+04  0.50400001928E-02 0.  1.
       -1    1    3    3    0  502 -0.77313787674E+03  0.32955266015E+03  0.31937525757E+04  0.33024843144E+04  0.50400001928E-02 0. -1.
</event>
<event>
 5   0  0.5573334E-07  0.3494293E+04  0.7818609E-02  0.8115144E-01
       -2   -1    0    0    0  501  0.00000000000E+00  0.00000000000E+00  0.13405360310E+04  0.13405360310E+04  0.25500000920E-02 0.  1.
        2   -1    0    0  501    0  0.00000000000E+00  0.00000000000E+00 -0.22770904239E+04  0.22770904239E+04  0.25500000920E-02 0. -1.
    10030    2    1    2    0    0  0.00000000000E+00  0.00000000000E+00 -0.93655439294E+03  0.36176264549E+04  0.34942934960E+04 0.  0.
        4    1    3    3  502    0  0.12737528221E+04  0.89669351875E+03  0.35085987610E+03  0.15967497562E+04  0.12699999809E+01 0.  1.
       -4    1    3    3    0  502 -0.12737528221E+04 -0.89669351875E+03 -0.12874142690E+04  0.20208766987E+04  0.12699999809E+01 0. -1.
</event>
<event>
 5   0  0.1866421E-07  0.3549889E+04  0.7818609E-02  0.8102068E-01
        1   -1    0    0  501    0  0.00000000000E+00  0.00000000000E+00  0.18353876537E+04  0.18353876537E+04  0.50400001928E-02 0.  1.
       -1   -1    0    0    0  501  0.00000000000E+00  0.00000000000E+00 -0.17164923343E+04  0.17164923343E+04  0.50400001928E-02 0. -1.
    10030    2    1    2    0    0  0.00000000000E+00  0.00000000000E+00  0.11889531940E+03  0.35518799879E+04  0.35498894844E+04 0.  0.
        1    1    3    3  502    0  0.55399045813E+03 -0.18600590829E+02  0.17465655543E+04  0.18324144305E+04  0.50400001928E-02 0.  1.
       -1    1    3    3    0  502 -0.55399045813E+03  0.18600590829E+02 -0.16276702349E+04  0.17194655574E+04  0.50400001928E-02 0. -1.
</event>
<event>
 5   0  0.1873457E-07  0.3495950E+04  0.7818609E-02  0.8114750E-01
        1   -1    0    0  501    0  0.00000000000E+00  0.00000000000E+00  0.14131293047E+04  0.14131293047E+04  0.50400001928E-02 0.  1.
       -1   -1    0    0    0  501  0.00000000000E+00  0.00000000000E+00 -0.21621630234E+04  0.21621630234E+04  0.50400001928E-02 0. -1.
    10030    2    1    2    0    0  0.00000000000E+00  0.00000000000E+00 -0.74903371873E+03  0.35752923281E+04  0.34959496163E+04 0.  0.
        3    1    3    3  502    0 -0.14841487843E+04  0.35432408384E+03 -0.12466146571E+04  0.19703530860E+04  0.10100000352E+00 0. -1.
       -3    1    3    3    0  502  0.14841487843E+04 -0.35432408384E+03  0.49758093836E+03  0.16049392420E+04  0.10100000352E+00 0.  1.
</event>
<event>
 5   0  0.1897049E-07  0.3467412E+04  0.7818609E-02  0.8121557E-01
        1   -1    0    0  501    0  0.00000000000E+00  0.00000000000E+00  0.23345473435E+04  0.23345473435E+04  0.50400001928E-02 0.  1.
       -1   -1    0    0    0  501  0.00000000000E+00  0.00000000000E+00 -0.12875025999E+04  0.12875025999E+04  0.50400001928E-02 0. -1.
    10030    2    1    2    0    0  0.00000000000E+00  0.00000000000E+00  0.10470447436E+04  0.36220499434E+04  0.34674115846E+04 0.  0.
        2    1    3    3  502    0 -0.80393911772E+03  0.12192000694E+03 -0.10759586176E+04  0.13486547149E+04  0.25500000920E-02 0. -1.
       -2    1    3    3    0  502  0.80393911772E+03 -0.12192000694E+03  0.21230033612E+04  0.22733952285E+04  0.25500000920E-02 0.  1.
</event>
<event>
 5   0  0.5573334E-07  0.3500571E+04  0.7818609E-02  0.8113655E-01
        2   -1    0    0  501    0  0.00000000000E+00  0.00000000000E+00  0.14002652816E+04  0.14002652816E+04  0.25500000920E-02 0. -1.
       -2   -1    0    0    0  501  0.00000000000E+00  0.00000000000E+00 -0.21877994239E+04  0.21877994239E+04  0.25500000920E-02 0.  1.
    10030    2    1    2    0    0  0.00000000000E+00  0.00000000000E+00 -0.78753414234E+03  0.35880647055E+04  0.35005711399E+04 0.  0.
        4    1    3    3  502    0 -0.12257708834E+04 -0.54932802507E+03 -0.15439650050E+04  0.20464860340E+04  0.12699999809E+01 0.  1.
       -4    1    3    3    0  502  0.12257708834E+04  0.54932802507E+03  0.75643086262E+03  0.15415786716E+04  0.12699999809E+01 0. -1.
</event>
<event>
 5   0  0.1933647E-07  0.3494341E+04  0.7818609E-02  0.8115132E-01
       -1   -1    0    0    0  501  0.00000000000E+00  0.00000000000E+00  0.15722214618E+04  0.15722214618E+04  0.50400001928E-02 0.  1.
        1   -1    0    0  501    0  0.00000000000E+00  0.00000000000E+00 -0.19415874766E+04  0.19415874766E+04  0.50400001928E-02 0. -1.
    10030    2    1    2    0    0  0.00000000000E+00  0.00000000000E+00 -0.36936601480E+03  0.35138089384E+04  0.34943414262E+04 0.  0.
        4    1    3    3  502    0  0.43399251631E+03 -0.16865947611E+04 -0.43714643770E+02  0.17420860987E+04  0.12699999809E+01 0. -1.
       -4    1    3    3    0  502 -0.43399251631E+03  0.16865947611E+04 -0.32565137103E+03  0.17717228397E+04  0.12699999809E+01 0.  1.
</event>
<event>
 5   0  0.1873457E-07  0.3501868E+04  0.7818609E-02  0.8113347E-01
        1   -1    0    0  501    0  0.00000000000E+00  0.00000000000E+00  0.10255823678E+04  0.10255823678E+04  0.50400001928E-02 0. -1.
       -1   -1    0    0    0  501  0.00000000000E+00  0.00000000000E+00 -0.29892969201E+04  0.29892969201E+04  0.50400001928E-02 0.  1.
    10030    2    1    2    0    0  0.00000000000E+00  0.00000000000E+00 -0.19637145523E+04  0.40148792880E+04  0.35018681948E+04 0.  0.
        3    1    3    3  502    0 -0.41548912787E+03  0.57168793639E+03 -0.28185115534E+04  0.29057642194E+04  0.10100000352E+00 0.  1.
       -3    1    3    3    0  502  0.41548912787E+03 -0.57168793639E+03  0.85479700111E+03  0.11091150686E+04  0.10100000352E+00 0. -1.
</event>
<event>
 5   0  0.5707187E-07  0.3439215E+04  0.7818609E-02  0.8128348E-01
       -2   -1    0    0    0  501  0.00000000000E+00  0.00000000000E+00  0.12509774079E+04  0.12509774079E+04  0.25500000920E-02 0.  1.
        2   -1    0    0  501    0  0.00000000000E+00  0.00000000000E+00 -0.23637920963E+04  0.23637920963E+04  0.25500000920E-02 0. -1.
    10030    2    1    2    0    0  0.00000000000E+00  0.00000000000E+00 -0.11128146884E+04  0.36147695043E+04  0.34392153230E+04 0.  0.
        1    1    3    3  502    0  0.73793733348E+03  0.13573356114E+04 -0.13500255691E+04  0.20517018563E+04  0.50400001928E-02 0. -1.
       -1    1    3    3    0  502 -0.73793733348E+03 -0.13573356114E+04  0.23721088067E+03  0.15630676479E+04  0.50400001928E-02 0.  1.
</event>
<event>
 5   0  0.5554745E-07  0.3513646E+04  0.7818609E-02  0.8110564E-01
        2   -1    0    0  501    0  0.00000000000E+00  0.00000000000E+00  0.18009408094E+04  0.18009408094E+04  0.25500000920E-02 0. -1.
       -2   -1    0    0    0  501  0.00000000000E+00  0.00000000000E+00 -0.17137858950E+04  0.17137858950E+04  0.25500000920E-02 0.  1.
    10030    2    1    2    0    0  0.00000000000E+00  0.00000000000E+00  0.87154914412E+02  0.35147267044E+04  0.35136459451E+04 0.  0.
        5    1    3    3  502    0 -0.64392967269E+03  0.14397680452E+04  0.81765488340E+03  0.17765582022E+04  0.46999998093E+01 0. -1.
       -5    1    3    3    0  502  0.64392967269E+03 -0.14397680452E+04 -0.73049996899E+03  0.17381685022E+04  0.46999998093E+01 0.  1.
</event>
<event>
 5   0  0.1933647E-07  0.3484689E+04  0.7818609E-02  0.8117428E-01
        1   -1    0    0  501    0  0.00000000000E+00  0.00000000000E+00  0.21176809480E+04  0.21176809480E+04  0.50400001928E-02 0. -1.
       -1   -1    0    0    0  501  0.00000000000E+00  0.00000000000E+00 -0.14335327758E+04  0.14335327759E+04  0.50400001928E-02 0.  1.
    10030    2    1    2    0    0  0.00000000000E+00  0.00000000000E+00  0.68414817212E+03  0.35512137238E+04  0.34846893966E+04 0.  0.
        4    1    3    3  502    0 -0.62517415545E+03  0.19261422779E+01  0.19994413654E+04  0.20949018644E+04  0.12699999809E+01 0. -1.
       -4    1    3    3    0  502  0.62517415545E+03 -0.19261422779E+01 -0.13152931933E+04  0.14563118594E+04  0.12699999809E+01 0.  1.
</event>
<event>
 5   0  0.5573334E-07  0.3484404E+04  0.7818609E-02  0.8117496E-01
        2   -1    0    0  501    0  0.00000000000E+00  0.00000000000E+00  0.10534409624E+04  0.10534409624E+04  0.25500000920E-02 0.  1.
       -2   -1    0    0    0  501  0.00000000000E+00  0.00000000000E+00 -0.28812882192E+04  0.28812882192E+04  0.25500000920E-02 0. -1.
    10030    2    1    2    0    0  0.00000000000E+00  0.00000000000E+00 -0.18278472568E+04  0.39347291816E+04  0.34844035556E+04 0.  0.
        4    1    3    3  502    0 -0.16765594120E+04  0.99602606479E+02 -0.14369134586E+04  0.22103153715E+04  0.12699999809E+01 0. -1.
       -4    1    3    3    0  502  0.16765594120E+04 -0.99602606479E+02 -0.39093379820E+03  0.17244138101E+04  0.12699999809E+01 0.  1.
</event>
<event>
 5   0  0.5740827E-07  0.3539422E+04  0.7818609E-02  0.8104510E-01
       -2   -1    0    0    0  501  0.00000000000E+00  0.00000000000E+00  0.10930583124E+04  0.10930583124E+04  0.25500000920E-02 0. -1.
        2   -1    0    0  501    0  0.00000000000E+00  0.00000000000E+00 -0.28652428647E+04  0.28652428647E+04  0.25500000920E-02 0.  1.
    10030    2    1    2    0    0  0.00000000000E+00  0.00000000000E+00 -0.17721845523E+04  0.39583011771E+04  0.35394222864E+04 0.  0.
        2    1    3    3  502    0 -0.13501593145E+04 -0.76760002430E+03 -0.18348679422E+04  0.24039301856E+04  0.25500000920E-02 0.  1.
       -2    1    3    3    0  502  0.13501593145E+04  0.76760002430E+03  0.62683389864E+02  0.15543709915E+04  0.25500000920E-02 0. -1.
</event>
<event>
 5   0  0.1866421E-07  0.3411963E+04  0.7818609E-02  0.8134976E-01
        1   -1    0    0  501    0  0.00000000000E+00  0.00000000000E+00  0.25878138150E+04  0.25878138150E+04  0.50400001928E-02 0.  1.
       -1   -1    0    0    0  501  0.00000000000E+00  0.00000000000E+00 -0.11246453266E+04  0.11246453266E+04  0.50400001928E-02 0. -1.
    10030    2    1    2    0    0  0.00000000000E+00  0.00000000000E+00  0.14631684884E+04  0.37124591416E+04  0.34119629032E+04 0.  0.
        1    1    3    3  502    0  0.12323899948E+04  0.52907082298E+03  0.18788014522E+04  0.23083751714E+04  0.50400001928E-02 0.  1.
       -1    1    3    3    0  502 -0.12323899948E+04 -0.52907082298E+03 -0.41563296377E+03  0.14040839703E+04  0.50400001928E-02 0. -1.
</event>
<event>
 5   0  0.5740827E-07  0.3484694E+04  0.7818609E-02  0.8117427E-01
       -2   -1    0    0    0  501  0.00000000000E+00  0.00000000000E+00  0.10113781957E+04  0.10113781957E+04  0.25500000920E-02 0. -1.
        2   -1    0    0  501    0  0.00000000000E+00  0.00000000000E+00 -0.30016207374E+04  0.30016207374E+04  0.25500000920E-02 0.  1.
    10030    2    1    2    0    0  0.00000000000E+00  0.00000000000E+00 -0.19902425417E+04  0.40129989331E+04  0.34846944002E+04 0.  0.
        2    1    3    3  502    0  0.94430503408E+02  0.47084072241E+03  0.93366276883E+03  0.10499210788E+04  0.25500000920E-02 0. -1.
       -2    1    3    3    0  502 -0.94430503408E+02 -0.47084072241E+03 -0.29239053105E+04  0.29630778543E+04  0.25500000920E-02 0.  1.
</event>
<event>
 5   0  0.1897049E-07  0.3448094E+04  0.7818609E-02  0.8126202E-01
       -1   -1    0    0    0  501  0.00000000000E+00  0.00000000000E+00  0.13954439235E+04  0.13954439235E+04  0.50400001928E-02 0. -1.
        1   -1    0    0  501    0  0.00000000000E+00  0.00000000000E+00 -0.21300305927E+04  0.21300305927E+04  0.50400001928E-02 0.  1.
    10030    2    1    2    0    0  0.00000000000E+00  0.00000000000E+00 -0.73458666922E+03  0.35254745163E+04  0.34480941098E+04 0.  0.
        2    1    3    3  502    0  0.11288160616E+04  0.19389678687E+02 -0.16995061991E+04  0.20403242344E+04  0.25500000920E-02 0.  1.
       -2    1    3    3    0  502 -0.11288160616E+04 -0.19389678687E+02  0.96491952987E+03  0.14851502819E+04  0.25500000920E-02 0. -1.
</event>
<event>
 5   0  0.1866421E-07  0.3502152E+04  0.7818609E-02  0.8113280E-01
        1   -1    0    0  501    0  0.00000000000E+00  0.00000000000E+00  0.23873982148E+04  0.23873982148E+04  0.50400001928E-02 0. -1.
       -1   -1    0    0    0  501  0.00000000000E+00  0.00000000000E+00 -0.12843549211E+04  0.12843549211E+04  0.50400001928E-02 0.  1.
    10030    2    1    2    0    0  0.00000000000E+00  0.00000000000E+00  0.11030432937E+04  0.36717531359E+04  0.35021517076E+04 0.  0.
        1    1    3    3  502    0 -0.31094856377E+03  0.50438964344E+02 -0.12544035096E+04  0.12933527220E+04  0.50400001928E-02 0.  1.
       -1    1    3    3    0  502  0.31094856377E+03 -0.50438964344E+02  0.23574468034E+04  0.23784004140E+04  0.50400001928E-02 0. -1.
</event>
<event>
 5   0  0.5707187E-07  0.3535023E+04  0.7818609E-02  0.8105540E-01
        2   -1    0    0  501    0  0.00000000000E+00  0.00000000000E+00  0.20541345326E+04  0.20541345326E+04  0.25500000920E-02 0.  1.
       -2   -1    0    0    0  501  0.00000000000E+00  0.00000000000E+00 -0.15208819363E+04  0.15208819363E+04  0.25500000920E-02 0. -1.
    10030    2    1    2    0    0  0.00000000000E+00  0.00000000000E+00  0.53325259626E+03  0.35750164689E+04  0.35350225489E+04 0.  0.
        1    1    3    3  502    0  0.15106198677E+04  0.75721076087E+03 -0.25765529056E+03  0.17093059322E+04  0.50400001928E-02 0. -1.
       -1    1    3    3    0  502 -0.15106198677E+04 -0.75721076087E+03  0.79090788682E+03  0.18657105367E+04  0.50400001928E-02 0.  1.
</event>
<event>
 5   0  0.5740827E-07  0.3489341E+04  0.7818609E-02  0.8116321E-01
       -2   -1    0    0    0  501  0.00000000000E+00  0.00000000000E+00  0.20228337692E+04  0.20228337692E+04  0.25500000920E-02 0.  1.
        2   -1    0    0  501    0  0.00000000000E+00  0.00000000000E+00 -0.15047580588E+04  0.15047580588E+04  0.25500000920E-02 0. -1.
    10030    2    1    2    0    0  0.00000000000E+00  0.00000000000E+00  0.51807571036E+03  0.35275918280E+04  0.34893411503E+04 0.  0.
        2    1    3    3  502    0 -0.11885365625E+04 -0.89802214754E+03  0.11771854626E+04  0.18986386047E+04  0.25500000920E-02 0.  1.
       -2    1    3    3    0  502  0.11885365625E+04  0.89802214754E+03 -0.65910975223E+03  0.16289532232E+04  0.25500000920E-02 0. -1.
</event>
<event>
 5   0  0.1866421E-07  0.3491832E+04  0.7818609E-02  0.8115728E-01
       -1   -1    0    0    0  501  0.00000000000E+00  0.00000000000E+00  0.16355746754E+04  0.16355746754E+04  0.50400001928E-02 0.  1.
        1   -1    0    0  501    0  0.00000000000E+00  0.00000000000E+00 -0.18637010658E+04  0.18637010658E+04  0.50400001928E-02 0. -1.
    10030    2    1    2    0    0  0.00000000000E+00  0.00000000000E+00 -0.22812639039E+03  0.34992757412E+04  0.34918317633E+04 0.  0.
        1    1    3    3  502    0  0.14093084014E+04  0.99977958718E+03 -0.36462195071E+03  0.17659724120E+04  0.50400001928E-02 0. -1.
       -1    1    3    3    0  502 -0.14093084014E+04 -0.99977958718E+03  0.13649556032E+03  0.17333033292E+04  0.50400001928E-02 0.  1.
</event>
<event>
 5   0  0.1897049E-07  0.3417651E+04  0.7818609E-02  0.8133588E-01
       -1   -1    0    0    0  501  0.00000000000E+00  0.00000000000E+00  0.12119403552E+04  0.12119403552E+04  0.50400001928E-02 0.  1.
        1   -1    0    0  501    0  0.00000000000E+00  0.00000000000E+00 -0.24094286540E+04  0.24094286540E+04  0.50400001928E-02 0. -1.
    10030    2    1    2    0    0  0.00000000000E+00  0.00000000000E+00 -0.11974882988E+04  0.36213690092E+04  0.34176505490E+04 0.  0.
        2    1    3    3  502    0 -0.10107396887E+04 -0.13777167373E+04 -0.57793446174E+03  0.18038033065E+04  0.25500000920E-02 0. -1.
       -2    1    3    3    0  502  0.10107396887E+04  0.13777167373E+04 -0.61955383705E+03  0.18175657027E+04  0.25500000920E-02 0.  1.
</event>
<event>
 5   0  0.5707187E-07  0.3495654E+04  0.7818609E-02  0.8114821E-01
        2   -1    0    0  501    0  0.00000000000E+00  0.00000000000E+00  0.18781141824E+04  0.18781141824E+04  0.25500000920E-02 0.  1.
       -2   -1    0    0    0  501  0.00000000000E+00  0.00000000000E+00 -0.16265782981E+04  0.16265782981E+04  0.25500000920E-02 0. -1.
    10030    2    1    2    0    0  0.00000000000E+00  0.00000000000E+00  0.25153588436E+03  0.35046924805E+04  0.34956543138E+04 0.  0.
        1    1    3    3  502    0  0.71347252344E+03  0.13662075828E+04  0.95211593423E+03  0.18116542035E+04  0.50400001928E-02 0.  1.
       -1    1    3    3    0  502 -0.71347252344E+03 -0.13662075828E+04 -0.70058004987E+03  0.16930382770E+04  0.50400001928E-02 0. -1.
</event>
<event>
 5   0  0.1897049E-07  0.3501926E+04  0.7818609E-02  0.8113334E-01
       -1   -1    0    0    0  501  0.00000000000E+00  0.00000000000E+00  0.32196203182E+04  0.32196203182E+04  0.50400001928E-02 0.  1.
        1   -1    0    0  501    0  0.00000000000E+00  0.00000000000E+00 -0.95224651022E+03  0.95224651024E+03  0.50400001928E-02 0. -1.
    10030    2    1    2    0    0  0.00000000000E+00  0.00000000000E+00  0.22673738080E+04  0.41718668284E+04  0.35019264483E+04 0.  0.
        2    1    3    3  502    0 -0.17101060391E+04 -0.28378531747E+03  0.14276172837E+04  0.22456820523E+04  0.25500000920E-02 0. -1.
       -2    1    3    3    0  502  0.17101060391E+04  0.28378531747E+03  0.83975652427E+03  0.19261847761E+04  0.25500000920E-02 0.  1.
</event>
<event>
 5   0  0.1873457E-07  0.3472266E+04  0.7818609E-02  0.8120394E-01
        1   -1    0    0  501    0  0.00000000000E+00  0.00000000000E+00  0.19401944476E+04  0.19401944476E+04  0.50400001928E-02 0. -1.
       -1   -1    0    0    0  501  0.00000000000E+00  0.00000000000E+00 -0.15535338901E+04  0.15535338901E+04  0.50400001928E-02 0.  1.
    10030    2    1    2    0    0  0.00000000000E+00  0.00000000000E+00  0.38666055748E+03  0.34937283377E+04  0.34722660196E+04 0.  0.
        3    1    3    3  502    0  0.21987424693E+03  0.14834037118E+04  0.10735671071E+04  0.18442824080E+04  0.10100000352E+00 0. -1.
       -3    1    3    3    0  502 -0.21987424693E+03 -0.14834037118E+04 -0.68690654966E+03  0.16494459297E+04  0.10100000352E+00 0.  1.
</event>
<event>
 5   0  0.5573334E-07  0.3494449E+04  0.7818609E-02  0.8115107E-01
        2   -1    0    0  501    0  0.00000000000E+00  0.00000000000E+00  0.20510754799E+04  0.20510754799E+04  0.25500000920E-02 0.  1.
       -2   -1    0    0    0  501  0.00000000000E+00  0.00000000000E+00 -0.14883865582E+04  0.14883865582E+04  0.25500000920E-02 0. -1.
    10030    2    1    2    0    0  0.00000000000E+00  0.00000000000E+00  0.56268892161E+03  0.35394620381E+04  0.34944488402E+04 0.  0.
        4    1    3    3  502    0 -0.62148740100E+03  0.10476445476E+04 -0.98738226617E+03  0.15680341323E+04  0.12699999809E+01 0. -1.
       -4    1    3    3    0  502  0.62148740100E+03 -0.10476445476E+04  0.15500711878E+04  0.19714279058E+04  0.12699999809E+01 0.  1.
</event>
<event>
 5   0  0.5573334E-07  0.3480010E+04  0.7818609E-02  0.8118544E-01
        2   -1    0    0  501    0  0.00000000000E+00  0.00000000000E+00  0.11014390125E+04  0.11014390125E+04  0.25500000920E-02 0.  1.
       -2   -1    0    0    0  501  0.00000000000E+00  0.00000000000E+00 -0.27487833436E+04  0.27487833436E+04  0.25500000920E-02 0. -1.
    10030    2    1    2    0    0  0.00000000000E+00  0.00000000000E+00 -0.16473443311E+04  0.38502223561E+04  0.34800098916E+04 0.  0.
        4    1    3    3  502    0 -0.19202494288E+03 -0.14715296939E+04  0.18145822886E+03  0.14950591696E+04  0.12699999809E+01 0.  1.
       -4    1    3    3    0  502  0.19202494288E+03  0.14715296939E+04 -0.18288025599E+04  0.23551631865E+04  0.12699999809E+01 0. -1.
</event>
<event>
 5   0  0.5573334E-07  0.3499478E+04  0.7818609E-02  0.8113914E-01
        2   -1    0    0  501    0  0.00000000000E+00  0.00000000000E+00  0.27554235458E+04  0.27554235458E+04  0.25500000920E-02 0. -1.
       -2   -1    0    0    0  501  0.00000000000E+00  0.00000000000E+00 -0.11111126584E+04  0.11111126584E+04  0.25500000920E-02 0.  1.
    10030    2    1    2    0    0  0.00000000000E+00  0.00000000000E+00  0.16443108874E+04  0.38665362043E+04  0.34994776645E+04 0.  0.
        4    1    3    3  502    0  0.51880423521E+03  0.12936390990E+04  0.19908990021E+04  0.24302963611E+04  0.12699999809E+01 0. -1.
       -4    1    3    3    0  502 -0.51880423521E+03 -0.12936390990E+04 -0.34658811477E+03  0.14362398432E+04  0.12699999809E+01 0.  1.
</event>
<event>
 5   0  0.5677193E-07  0.3498277E+04  0.7818609E-02  0.8114198E-01
       -2   -1    0    0    0  501  0.00000000000E+00  0.00000000000E+00  0.13919632797E+04  0.13919632797E+04  0.25500000920E-02 0. -1.
        2   -1    0    0  501    0  0.00000000000E+00  0.00000000000E+00 -0.21979644673E+04  0.21979644673E+04  0.25500000920E-02 0.  1.
    10030    2    1    2    0    0  0.00000000000E+00  0.00000000000E+00 -0.80600118760E+03  0.35899277470E+04  0.34982771923E+04 0.  0.
        3    1    3    3  502    0  0.18175221615E+03  0.15589341786E+04  0.38935257324E+03  0.16170668130E+04  0.10100000352E+00 0. -1.
       -3    1    3    3    0  502 -0.18175221615E+03 -0.15589341786E+04 -0.11953537608E+04  0.19728609340E+04  0.10100000352E+00 0.  1.
</event>
<event>
 5   0  0.1866421E-07  0.3452637E+04  0.7818609E-02  0.8125107E-01
       -1   -1    0    0    0  501  0.00000000000E+00  0.00000000000E+00  0.16618273820E+04  0.16618273820E+04  0.50400001928E-02 0.  1.
        1   -1    0    0  501    0  0.00000000000E+00  0.00000000000E+00 -0.17933128603E+04  0.17933128603E+04  0.50400001928E-02 0. -1.
    10030    2    1    2    0    0  0.00000000000E+00  0.00000000000E+00 -0.13148547830E+03  0.34551402424E+04  0.34526374938E+04 0.  0.
        1    1    3    3  502    0 -0.91498146372E+02 -0.80436058548E+03 -0.15915802766E+04  0.17856359201E+04  0.50400001928E-02 0. -1.
       -1    1    3    3    0  502  0.91498146372E+02  0.80436058548E+03  0.14600947983E+04  0.16695043223E+04  0.50400001928E-02 0.  1.
</event>
<event>
 5   0  0.5740827E-07  0.3555903E+04  0.7818609E-02  0.8100668E-01
       -2   -1    0    0    0  501  0.00000000000E+00  0.00000000000E+00  0.14298724340E+04  0.14298724340E+04  0.25500000920E-02 0.  1.
        2   -1    0    0  501    0  0.00000000000E+00  0.00000000000E+00 -0.22107649354E+04  0.22107649354E+04  0.25500000920E-02 0. -1.
    10030    2    1    2    0    0  0.00000000000E+00  0.00000000000E+00 -0.78089250142E+03  0.36406373694E+04  0.35559031703E+04 0.  0.
        2    1    3    3  502    0  0.94909555111E+03  0.86911061192E+03  0.86556148699E+03  0.15509133788E+04  0.25500000920E-02 0.  1.
       -2    1    3    3    0  502 -0.94909555111E+03 -0.86911061192E+03 -0.16464539884E+04  0.20897239906E+04  0.25500000920E-02 0. -1.
</event>
<event>
 5   0  0.5707187E-07  0.3468964E+04  0.7818609E-02  0.8121185E-01
        2   -1    0    0  501    0  0.00000000000E+00  0.00000000000E+00  0.14847939330E+04  0.14847939330E+04  0.25500000920E-02 0.  1.
       -2   -1    0    0    0  501  0.00000000000E+00  0.00000000000E+00 -0.20261587747E+04  0.20261587747E+04  0.25500000920E-02 0. -1.
    10030    2    1    2    0    0  0.00000000000E+00  0.00000000000E+00 -0.54136484170E+03  0.35109527077E+04  0.34689642581E+04 0.  0.
        1    1    3    3  502    0  0.17152578194E+04  0.23273712950E+03 -0.15911064444E+03  0.17382727507E+04  0.50400001928E-02 0. -1.
       -1    1    3    3    0  502 -0.17152578194E+04 -0.23273712950E+03 -0.38225419726E+03  0.17726799570E+04  0.50400001928E-02 0.  1.
</event>
<event>
 5   0  0.1897049E-07  0.3514369E+04  0.7818609E-02  0.8110393E-01
        1   -1    0    0  501    0  0.00000000000E+00  0.00000000000E+00  0.15829899720E+04  0.15829899720E+04  0.50400001928E-02 0. -1.
       -1   -1    0    0    0  501  0.00000000000E+00  0.00000000000E+00 -0.19505480587E+04  0.19505480588E+04  0.50400001928E-02 0.  1.
    10030    2    1    2    0    0  0.00000000000E+00  0.00000000000E+00 -0.36755808679E+03  0.35335380307E+04  0.35143693698E+04 0.  0.
        2    1    3    3  502    0  0.39597928670E+03 -0.16662945585E+04  0.21125176495E+03  0.17256779709E+04  0.25500000920E-02 0.  1.
       -2    1    3    3    0  502 -0.39597928670E+03  0.16662945585E+04 -0.57880985174E+03  0.18078600598E+04  0.25500000920E-02 0. -1.
</event>
<event>
 5   0  0.1897049E-07  0.3497137E+04  0.7818609E-02  0.8114469E-01
       -1   -1    0    0    0  501  0.00000000000E+00  0.00000000000E+00  0.11739579382E+04  0.11739579382E+04  0.50400001928E-02 0.  1.
        1   -1    0    0  501    0  0.00000000000E+00  0.00000000000E+00 -0.26044299094E+04  0.26044299094E+04  0.50400001928E-02 0. -1.
    10030    2    1    2    0    0  0.00000000000E+00  0.00000000000E+00 -0.14304719711E+04  0.37783878476E+04  0.34971366382E+04 0.  0.
        2    1    3    3  502    0 -0.46829962883E+03  0.59784532903E+02 -0.25342698258E+04  0.25778677783E+04  0.25500000920E-02 0. -1.
       -2    1    3    3    0  502  0.46829962883E+03 -0.59784532903E+02  0.11037978546E+04  0.12005200692E+04  0.25500000920E-02 0.  1.
</event>
<event>
 5   0  0.5573334E-07  0.3505950E+04  0.7818609E-02  0.8112381E-01
       -2   -1    0    0    0  501  0.00000000000E+00  0.00000000000E+00  0.16741144982E+04  0.16741144982E+04  0.25500000920E-02 0.  1.
        2   -1    0    0  501    0  0.00000000000E+00  0.00000000000E+00 -0.18355503698E+04  0.18355503698E+04  0.25500000920E-02 0. -1.
    10030    2    1    2    0    0  0.00000000000E+00  0.00000000000E+00 -0.16143587156E+03  0.35096648680E+04  0.35059500774E+04 0.  0.
        4    1    3    3  502    0  0.58577396426E+03  0.96420591958E+03  0.12623801051E+04  0.16930532582E+04  0.12699999809E+01 0.  1.
       -4    1    3    3    0  502 -0.58577396426E+03 -0.96420591958E+03 -0.14238159766E+04  0.18166116098E+04  0.12699999809E+01 0. -1.
</event>
<event>
 5   0  0.5573334E-07  0.3508528E+04  0.7818609E-02  0.8111772E-01
       -2   -1    0    0    0  501  0.00000000000E+00  0.00000000000E+00  0.99979053956E+03  0.99979053956E+03  0.25500000920E-02 0.  1.
        2   -1    0    0  501    0  0.00000000000E+00  0.00000000000E+00 -0.30780876202E+04  0.30780876202E+04  0.25500000920E-02 0. -1.
    10030    2    1    2    0    0  0.00000000000E+00  0.00000000000E+00 -0.20782970806E+04  0.40778781597E+04  0.35085283995E+04 0.  0.
        4    1    3    3  502    0  0.47098547656E+03 -0.72089857909E+03 -0.28155378730E+04  0.29442787246E+04  0.12699999809E+01 0. -1.
       -4    1    3    3    0  502 -0.47098547656E+03  0.72089857909E+03  0.73724079244E+03  0.11335994352E+04  0.12699999809E+01 0.  1.
</event>
<event>
 5   0  0.5573334E-07  0.3317867E+04  0.7818609E-02  0.8158364E-01
       -2   -1    0    0    0  501  0.00000000000E+00  0.00000000000E+00  0.14663473590E+04  0.14663473590E+04  0.25500000920E-02 0. -1.
        2   -1    0    0  501    0  0.00000000000E+00  0.00000000000E+00 -0.18768136109E+04  0.18768136109E+04  0.25500000920E-02 0.  1.
    10030    2    1    2    0    0  0.00000000000E+00  0.00000000000E+00 -0.41046625196E+03  0.33431609699E+04  0.33178671955E+04 0.  0.
        4    1    3    3  502    0  0.28568458413E+03  0.67118029391E+03  0.12960786918E+04  0.14872525868E+04  0.12699999809E+01 0. -1.
       -4    1    3    3    0  502 -0.28568458413E+03 -0.67118029391E+03 -0.17065449438E+04  0.18559083831E+04  0.12699999809E+01 0.  1.
</event>
<event>
 5   0  0.1873457E-07  0.3488048E+04  0.7818609E-02  0.8116628E-01
        1   -1    0    0  501    0  0.00000000000E+00  0.00000000000E+00  0.12588860646E+04  0.12588860646E+04  0.50400001928E-02 0. -1.
       -1   -1    0    0    0  501  0.00000000000E+00  0.00000000000E+00 -0.24161193870E+04  0.24161193870E+04  0.50400001928E-02 0.  1.
    10030    2    1    2    0    0  0.00000000000E+00  0.00000000000E+00 -0.11572333223E+04  0.36750054516E+04  0.34880476068E+04 0.  0.
        3    1    3    3  502    0 -0.33079956862E+03  0.16356208112E+04 -0.44559912587E+02  0.16693320187E+04  0.10100000352E+00 0. -1.
       -3    1    3    3    0  502  0.33079956862E+03 -0.16356208112E+04 -0.11126734098E+04  0.20056734329E+04  0.10100000352E+00 0.  1.
</event>
<event>
 5   0  0.1908190E-07  0.3501425E+04  0.7818609E-02  0.8113452E-01
       -1   -1    0    0    0  501  0.00000000000E+00  0.00000000000E+00  0.24210013243E+04  0.24210013243E+04  0.50400001928E-02 0.  1.
        1   -1    0    0  501    0  0.00000000000E+00  0.00000000000E+00 -0.12660025252E+04  0.12660025252E+04  0.50400001928E-02 0. -1.
    10030    2    1    2    0    0  0.00000000000E+00  0.00000000000E+00  0.11549987991E+04  0.36870038495E+04  0.35014247330E+04 0.  0.
        5    1    3    3  502    0  0.13653879147E+04 -0.22695269665E+03  0.17063145467E+04  0.21971169988E+04  0.46999998093E+01 0.  1.
       -5    1    3    3    0  502 -0.13653879147E+04  0.22695269665E+03 -0.55131574764E+03  0.14898868507E+04  0.46999998093E+01 0. -1.
</event>
<event>
 5   0  0.5740827E-07  0.3503910E+04  0.7818609E-02  0.8112864E-01
       -2   -1    0    0    0  501  0.00000000000E+00  0.00000000000E+00  0.17508992799E+04  0.17508992799E+04  0.25500000920E-02 0.  1.
        2   -1    0    0  501    0  0.00000000000E+00  0.00000000000E+00 -0.17530110973E+04  0.17530110973E+04  0.25500000920E-02 0. -1.
    10030    2    1    2    0    0  0.00000000000E+00  0.00000000000E+00 -0.21118174520E+01  0.35039103772E+04  0.35039097408E+04 0.  0.
        2    1    3    3  502    0  0.12795410937E+04  0.96129585389E+03  0.71170697143E+03  0.17515256042E+04  0.25500000920E-02 0. -1.
       -2    1    3    3    0  502 -0.12795410937E+04 -0.96129585389E+03 -0.71381878888E+03  0.17523847730E+04  0.25500000920E-02 0.  1.
</event>
<event>
 5   0  0.1897049E-07  0.3498111E+04  0.7818609E-02  0.8114238E-01
        1   -1    0    0  501    0  0.00000000000E+00  0.00000000000E+00  0.27278838906E+04  0.27278838906E+04  0.50400001928E-02 0. -1.
       -1   -1    0    0    0  501  0.00000000000E+00  0.00000000000E+00 -0.11214537975E+04  0.11214537976E+04  0.50400001928E-02 0.  1.
    10030    2    1    2    0    0  0.00000000000E+00  0.00000000000E+00  0.16064300930E+04  0.38493376881E+04  0.34981113466E+04 0.  0.
        2    1    3    3  502    0 -0.32932643504E+03  0.14750550337E+04  0.17719164368E+04  0.23289334710E+04  0.25500000920E-02 0. -1.
       -2    1    3    3    0  502  0.32932643504E+03 -0.14750550337E+04 -0.16548634382E+03  0.15204042171E+04  0.25500000920E-02 0.  1.
</event>
<event>
 5   0  0.1897049E-07  0.3517725E+04  0.7818609E-02  0.8109602E-01
        1   -1    0    0  501    0  0.00000000000E+00  0.00000000000E+00  0.28769288742E+04  0.28769288742E+04  0.50400001928E-02 0. -1.
       -1   -1    0    0    0  501  0.00000000000E+00  0.00000000000E+00 -0.10753126542E+04  0.10753126542E+04  0.50400001928E-02 0.  1.
    10030    2    1    2    0    0  0.00000000000E+00  0.00000000000E+00  0.18016162200E+04  0.39522415284E+04  0.35177254149E+04 0.  0.
        2    1    3    3  502    0  0.21026855909E+03 -0.12391152737E+04 -0.48161630081E+03  0.13459471720E+04  0.25500000920E-02 0.  1.
       -2    1    3    3    0  502 -0.21026855909E+03  0.12391152737E+04  0.22832325208E+04  0.26062943565E+04  0.25500000920E-02 0. -1.
</event>
<event>
 5   0  0.1866421E-07  0.3531221E+04  0.7818609E-02  0.8106431E-01
       -1   -1    0    0    0  501  0.00000000000E+00  0.00000000000E+00  0.12318946418E+04  0.12318946418E+04  0.50400001928E-02 0. -1.
        1   -1    0    0  501    0  0.00000000000E+00  0.00000000000E+00 -0.25305579670E+04  0.25305579670E+04  0.50400001928E-02 0.  1.
    10030    2    1    2    0    0  0.00000000000E+00  0.00000000000E+00 -0.12986633253E+04  0.37624526088E+04  0.35312212054E+04 0.  0.
        1    1    3    3  502    0 -0.39261270456E+03  0.54265348015E+03 -0.23899403231E+04  0.24820218136E+04  0.50400001928E-02 0.  1.
       -1    1    3    3    0  502  0.39261270456E+03 -0.54265348015E+03  0.10912769978E+04  0.12804307952E+04  0.50400001928E-02 0. -1.
</event>
<event>
 5   0  0.5740827E-07  0.3494810E+04  0.7818609E-02  0.8115021E-01
        2   -1    0    0  501    0  0.00000000000E+00  0.00000000000E+00  0.16414157705E+04  0.16414157705E+04  0.25500000920E-02 0.  1.
       -2   -1    0    0    0  501  0.00000000000E+00  0.00000000000E+00 -0.18602376426E+04  0.18602376426E+04  0.25500000920E-02 0. -1.
    10030    2    1    2    0    0  0.00000000000E+00  0.00000000000E+00 -0.21882187206E+03  0.35016534131E+04  0.34948095246E+04 0.  0.
        2    1    3    3  502    0  0.10634056014E+04 -0.32738067429E+03  0.12406005599E+04  0.16664631194E+04  0.25500000920E-02 0. -1.
       -2    1    3    3    0  502 -0.10634056014E+04  0.32738067429E+03 -0.14594224320E+04  0.18351902937E+04  0.25500000920E-02 0.  1.
</event>
<event>
 5   0  0.5573334E-07  0.3440800E+04  0.7818609E-02  0.8127965E-01
       -2   -1    0    0    0  501  0.00000000000E+00  0.00000000000E+00  0.20846293670E+04  0.20846293670E+04  0.25500000920E-02 0. -1.
        2   -1    0    0  501    0  0.00000000000E+00  0.00000000000E+00 -0.14198089237E+04  0.14198089237E+04  0.25500000920E-02 0.  1.
    10030    2    1    2    0    0  0.00000000000E+00  0.00000000000E+00  0.66482044326E+03  0.35044382907E+04  0.34407995453E+04 0.  0.
        4    1    3    3  502    0 -0.11956905004E+04 -0.11058408048E+04 -0.23211015372E+03  0.16451250392E+04  0.12699999809E+01 0.  1.
       -4    1    3    3    0  502  0.11956905004E+04  0.11058408048E+04  0.89693059699E+03  0.18593132514E+04  0.12699999809E+01 0. -1.
</event>
<event>
 5   0  0.1873457E-07  0.3494107E+04  0.7818609E-02  0.8115188E-01
        1   -1    0    0  501    0  0.00000000000E+00  0.00000000000E+00  0.89401812802E+03  0.89401812804E+03  0.50400001928E-02 0. -1.
       -1   -1    0    0    0  501  0.00000000000E+00  0.00000000000E+00 -0.34140200572E+04  0.34140200572E+04  0.50400001928E-02 0.  1.
    10030    2    1    2    0    0  0.00000000000E+00  0.00000000000E+00 -0.25200019292E+04  0.43080381853E+04  0.34941069363E+04 0.  0.
        3    1    3    3  502    0 -0.10600378604E+04 -0.15169555568E+02 -0.29721005087E+04  0.31555176793E+04  0.10100000352E+00 0.  1.
       -3    1    3    3    0  502  0.10600378604E+04  0.15169555568E+02  0.45209857947E+03  0.11525205059E+04  0.10100000352E+00 0. -1.
</event>
<event>
 5   0  0.5707187E-07  0.3486586E+04  0.7818609E-02  0.8116976E-01
       -2   -1    0    0    0  501  0.00000000000E+00  0.00000000000E+00  0.12301766200E+04  0.12301766200E+04  0.25500000920E-02 0. -1.
        2   -1    0    0  501    0  0.00000000000E+00  0.00000000000E+00 -0.24704338302E+04  0.24704338302E+04  0.25500000920E-02 0.  1.
    10030    2    1    2    0    0  0.00000000000E+00  0.00000000000E+00 -0.12402572102E+04  0.37006104502E+04  0.34865856876E+04 0.  0.
        1    1    3    3  502    0 -0.10000817328E+04 -0.14193484451E+04 -0.78577427877E+03  0.19058212660E+04  0.50400001928E-02 0. -1.
       -1    1    3    3    0  502  0.10000817328E+04  0.14193484451E+04 -0.45448293142E+03  0.17947891842E+04  0.50400001928E-02 0.  1.
</event>
<event>
 5   0  0.1897049E-07  0.3532882E+04  0.7818609E-02  0.8106041E-01
       -1   -1    0    0    0  501  0.00000000000E+00  0.00000000000E+00  0.13846045452E+04  0.13846045452E+04  0.50400001928E-02 0.  1.
        1   -1    0    0  501    0  0.00000000000E+00  0.00000000000E+00 -0.22535769891E+04  0.22535769891E+04  0.50400001928E-02 0. -1.
    10030    2    1    2    0    0  0.00000000000E+00  0.00000000000E+00 -0.86897244393E+03  0.36381815343E+04  0.35328815106E+04 0.  0.
        2    1    3    3  502    0 -0.20925165513E+03 -0.17096555917E+04 -0.83809182320E+03  0.19154911645E+04  0.25500000920E-02 0. -1.
       -2    1    3    3    0  502  0.20925165513E+03  0.17096555917E+04 -0.30880620725E+02  0.17226903698E+04  0.25500000920E-02 0.  1.
</event>
<event>
 5   0  0.1866421E-07  0.3525161E+04  0.7818609E-02  0.8107853E-01
        1   -1    0    0  501    0  0.00000000000E+00  0.00000000000E+00  0.13874181227E+04  0.13874181227E+04  0.50400001928E-02 0. -1.
       -1   -1    0    0    0  501  0.00000000000E+00  0.00000000000E+00 -0.22391886061E+04  0.22391886061E+04  0.50400001928E-02 0.  1.
    10030    2    1    2    0    0  0.00000000000E+00  0.00000000000E+00 -0.85177048346E+03  0.36266067288E+04  0.35251614727E+04 0.  0.
        1    1    3    3  502    0  0.71556111595E+03 -0.15731468483E+03 -0.20751138027E+04  0.22006528384E+04  0.50400001928E-02 0.  1.
       -1    1    3    3    0  502 -0.71556111595E+03  0.15731468483E+03  0.12233433193E+04  0.14259538904E+04  0.50400001928E-02 0. -1.
</event>
<event>
 5   0  0.1873457E-07  0.3520856E+04  0.7818609E-02  0.8108865E-01
        1   -1    0    0  501    0  0.00000000000E+00  0.00000000000E+00  0.14929911306E+04  0.14929911306E+04  0.50400001928E-02 0.  1.
       -1   -1    0    0    0  501  0.00000000000E+00  0.00000000000E+00 -0.20757698685E+04  0.20757698685E+04  0.50400001928E-02 0. -1.
    10030    2    1    2    0    0  0.00000000000E+00  0.00000000000E+00 -0.58277873784E+03  0.35687609991E+04  0.35208555794E+04 0.  0.
        3    1    3    3  502    0  0.16203205899E+04 -0.63322006956E+03 -0.56468647356E+03  0.18290099218E+04  0.10100000352E+00 0. -1.
       -3    1    3    3    0  502 -0.16203205899E+04  0.63322006956E+03 -0.18092264273E+02  0.17397510772E+04  0.10100000352E+00 0.  1.
</event>
<event>
 5   0  0.1866421E-07  0.3507690E+04  0.7818609E-02  0.8111970E-01
        1   -1    0    0  501    0  0.00000000000E+00  0.00000000000E+00  0.10616635077E+04  0.10616635077E+04  0.50400001928E-02 0. -1.
       -1   -1    0    0    0  501  0.00000000000E+00  0.00000000000E+00 -0.28973139565E+04  0.28973139565E+04  0.50400001928E-02 0.  1.
    10030    2    1    2    0    0  0.00000000000E+00  0.00000000000E+00 -0.18356504488E+04  0.39589774642E+04  0.35076901219E+04 0.  0.
        1    1    3    3  502    0  0.25745020858E+03  0.16790838953E+04 -0.14102729176E+04  0.22078208803E+04  0.50400001928E-02 0. -1.
       -1    1    3    3    0  502 -0.25745020858E+03 -0.16790838953E+04 -0.42537753123E+03  0.17511565839E+04  0.50400001928E-02 0.  1.
</event>
<event>
 5   0  0.1866421E-07  0.3485202E+04  0.7818609E-02  0.8117306E-01
        1   -1    0    0  501    0  0.00000000000E+00  0.00000000000E+00  0.24558266325E+04  0.24558266325E+04  0.50400001928E-02 0. -1.
       -1   -1    0    0    0  501  0.00000000000E+00  0.00000000000E+00 -0.12365119137E+04  0.12365119138E+04  0.50400001928E-02 0.  1.
    10030    2    1    2    0    0  0.00000000000E+00  0.00000000000E+00  0.12193147187E+04  0.36923385462E+04  0.34852023696E+04 0.  0.
        1    1    3    3  502    0  0.34715386411E+03 -0.56859997180E+03  0.23155870752E+04  0.24095155605E+04  0.50400001928E-02 0. -1.
       -1    1    3    3    0  502 -0.34715386411E+03  0.56859997180E+03 -0.10962723565E+04  0.12828229858E+04  0.50400001928E-02 0.  1.
</event>
<event>
 5   0  0.1897049E-07  0.3496211E+04  0.7818609E-02  0.8114689E-01
        1   -1    0    0  501    0  0.00000000000E+00  0.00000000000E+00  0.22746356051E+04  0.22746356051E+04  0.50400001928E-02 0. -1.
       -1   -1    0    0    0  501  0.00000000000E+00  0.00000000000E+00 -0.13434557718E+04  0.13434557718E+04  0.50400001928E-02 0.  1.
    10030    2    1    2    0    0  0.00000000000E+00  0.00000000000E+00  0.93117983326E+03  0.36180913769E+04  0.34962107102E+04 0.  0.
        2    1    3    3  502    0  0.39102523548E+03 -0.12789041132E+04 -0.69943348408E+03  0.15092063027E+04  0.25500000920E-02 0. -1.
       -2    1    3    3    0  502 -0.39102523548E+03  0.12789041132E+04  0.16306133173E+04  0.21088850742E+04  0.25500000920E-02 0.  1.
</event>
<event>
 5   0  0.1866421E-07  0.3467478E+04  0.7818609E-02  0.8121541E-01
       -1   -1    0    0    0  501  0.00000000000E+00  0.00000000000E+00  0.13014217428E+04  0.13014217428E+04  0.50400001928E-02 0. -1.
        1   -1    0    0  501    0  0.00000000000E+00  0.00000000000E+00 -0.23096675957E+04  0.23096675957E+04  0.50400001928E-02 0.  1.
    10030    2    1    2    0    0  0.00000000000E+00  0.00000000000E+00 -0.10082458529E+04  0.36110893385E+04  0.34674784081E+04 0.  0.
        1    1    3    3  502    0 -0.62850591869E+03  0.33621153222E+03  0.11417744551E+04  0.13459965790E+04  0.50400001928E-02 0. -1.
       -1    1    3    3    0  502  0.62850591869E+03 -0.33621153222E+03 -0.21500203080E+04  0.22650927595E+04  0.50400001928E-02 0.  1.
</event>
<event>
 5   0  0.5740827E-07  0.3500400E+04  0.7818609E-02  0.8113695E-01
        2   -1    0    0  501    0  0.00000000000E+00  0.00000000000E+00  0.17574889033E+04  0.17574889033E+04  0.25500000920E-02 0.  1.
       -2   -1    0    0    0  501  0.00000000000E+00  0.00000000000E+00 -0.17429411249E+04  0.17429411249E+04  0.25500000920E-02 0. -1.
    10030    2    1    2    0    0  0.00000000000E+00  0.00000000000E+00  0.14547778411E+02  0.35004300283E+04  0.35003997979E+04 0.  0.
        2    1    3    3  502    0  0.15706866850E+03  0.20526637034E+03 -0.17237508340E+04  0.17430208797E+04  0.25500000920E-02 0. -1.
       -2    1    3    3    0  502 -0.15706866850E+03 -0.20526637034E+03  0.17382986124E+04  0.17574091485E+04  0.25500000920E-02 0.  1.
</event>
<event>
 5   0  0.1897049E-07  0.3496731E+04  0.7818609E-02  0.8114565E-01
       -1   -1    0    0    0  501  0.00000000000E+00  0.00000000000E+00  0.20612523940E+04  0.20612523941E+04  0.50400001928E-02 0.  1.
        1   -1    0    0  501    0  0.00000000000E+00  0.00000000000E+00 -0.14829729155E+04  0.14829729155E+04  0.50400001928E-02 0. -1.
    10030    2    1    2    0    0  0.00000000000E+00  0.00000000000E+00  0.57827947852E+03  0.35442253096E+04  0.34967307431E+04 0.  0.
        2    1    3    3  502    0 -0.95707394279E+02 -0.74045531621E+03 -0.13132658515E+04  0.15106624962E+04  0.25500000920E-02 0. -1.
       -2    1    3    3    0  502  0.95707394279E+02  0.74045531621E+03  0.18915453300E+04  0.20335628134E+04  0.25500000920E-02 0.  1.
</event>
<event>
 5   0  0.1908190E-07  0.3491980E+04  0.7818609E-02  0.8115693E-01
       -1   -1    0    0    0  501  0.00000000000E+00  0.00000000000E+00  0.11810117134E+04  0.11810117134E+04  0.50400001928E-02 0. -1.
        1   -1    0    0  501    0  0.00000000000E+00  0.00000000000E+00 -0.25812447692E+04  0.25812447692E+04  0.50400001928E-02 0.  1.
    10030    2    1    2    0    0  0.00000000000E+00  0.00000000000E+00 -0.14002330558E+04  0.37622564826E+04  0.34919795575E+04 0.  0.
        5    1    3    3  502    0 -0.22485666514E+03  0.26443367308E+02 -0.25653553924E+04  0.25753310760E+04  0.46999998093E+01 0.  1.
       -5    1    3    3    0  502  0.22485666514E+03 -0.26443367308E+02  0.11651223366E+04  0.11869254066E+04  0.46999998093E+01 0. -1.
</event>
<event>
 5   0  0.5707187E-07  0.3498493E+04  0.7818609E-02  0.8114147E-01
       -2   -1    0    0    0  501  0.00000000000E+00  0.00000000000E+00  0.10794145724E+04  0.10794145724E+04  0.25500000920E-02 0. -1.
        2   -1    0    0  501    0  0.00000000000E+00  0.00000000000E+00 -0.28347438516E+04  0.28347438516E+04  0.25500000920E-02 0.  1.
    10030    2    1    2    0    0  0.00000000000E+00  0.00000000000E+00 -0.17553292792E+04  0.39141584239E+04  0.34984932885E+04 0.  0.
        1    1    3    3  502    0  0.11973810417E+04  0.91009482895E+03  0.12169863546E+03  0.15089083851E+04  0.50400001928E-02 0. -1.
       -1    1    3    3    0  502 -0.11973810417E+04 -0.91009482895E+03 -0.18770279146E+04  0.24052500388E+04  0.50400001928E-02 0.  1.
</event>
<event>
 5   0  0.5707187E-07  0.3509853E+04  0.7818609E-02  0.8111459E-01
       -2   -1    0    0    0  501  0.00000000000E+00  0.00000000000E+00  0.12109651865E+04  0.12109651865E+04  0.25500000920E-02 0.  1.
        2   -1    0    0  501    0  0.00000000000E+00  0.00000000000E+00 -0.25432334465E+04  0.25432334465E+04  0.25500000920E-02 0. -1.
    10030    2    1    2    0    0  0.00000000000E+00  0.00000000000E+00 -0.13322682599E+04  0.37541986330E+04  0.35098530823E+04 0.  0.
        1    1    3    3  502    0  0.85892314733E+03 -0.64001951105E+03 -0.21530146153E+04  0.24047548485E+04  0.50400001928E-02 0. -1.
       -1    1    3    3    0  502 -0.85892314733E+03  0.64001951105E+03  0.82074635541E+03  0.13494437845E+04  0.50400001928E-02 0.  1.
</event>
<event>
 5   0  0.5740827E-07  0.3460474E+04  0.7818609E-02  0.8123222E-01
        2   -1    0    0  501    0  0.00000000000E+00  0.00000000000E+00  0.21034582947E+04  0.21034582947E+04  0.25500000920E-02 0. -1.
       -2   -1    0    0    0  501  0.00000000000E+00  0.00000000000E+00 -0.14232368303E+04  0.14232368303E+04  0.25500000920E-02 0.  1.
    10030    2    1    2    0    0  0.00000000000E+00  0.00000000000E+00  0.68022146433E+03  0.35266951250E+04  0.34604735607E+04 0.  0.
        2    1    3    3  502    0  0.27933070422E+03 -0.56791493306E+03 -0.13010365837E+04  0.14468065543E+04  0.25500000920E-02 0.  1.
       -2    1    3    3    0  502 -0.27933070422E+03  0.56791493306E+03  0.19812580480E+04  0.20798885707E+04  0.25500000920E-02 0. -1.
</event>
<event>
 5   0  0.5554745E-07  0.3483275E+04  0.7818609E-02  0.8117765E-01
        2   -1    0    0  501    0  0.00000000000E+00  0.00000000000E+00  0.21216690382E+04  0.21216690382E+04  0.25500000920E-02 0. -1.
       -2   -1    0    0    0  501  0.00000000000E+00  0.00000000000E+00 -0.14296767296E+04  0.14296767296E+04  0.25500000920E-02 0.  1.
    10030    2    1    2    0    0  0.00000000000E+00  0.00000000000E+00  0.69199230865E+03  0.35513457678E+04  0.34832748108E+04 0.  0.
        5    1    3    3  502    0  0.62538895312E+03 -0.81474092619E+03 -0.10880343511E+04  0.14962469578E+04  0.46999998093E+01 0.  1.
       -5    1    3    3    0  502 -0.62538895312E+03  0.81474092619E+03  0.17800266598E+04  0.20550988100E+04  0.46999998093E+01 0. -1.
</event>
<event>
 5   0  0.1933647E-07  0.3526190E+04  0.7818609E-02  0.8107611E-01
        1   -1    0    0  501    0  0.00000000000E+00  0.00000000000E+00  0.20518959100E+04  0.20518959100E+04  0.50400001928E-02 0.  1.
       -1   -1    0    0    0  501  0.00000000000E+00  0.00000000000E+00 -0.15149420342E+04  0.15149420342E+04  0.50400001928E-02 0. -1.
    10030    2    1    2    0    0  0.00000000000E+00  0.00000000000E+00  0.53695387585E+03  0.35668379442E+04  0.35261896510E+04 0.  0.
        4    1    3    3  502    0  0.16271144330E+03 -0.58289921630E+03 -0.14065880036E+04  0.15312537135E+04  0.12699999809E+01 0. -1.
       -4    1    3    3    0  502 -0.16271144330E+03  0.58289921630E+03  0.19435418795E+04  0.20355842307E+04  0.12699999809E+01 0.  1.
</event>
<event>
 5   0  0.5707187E-07  0.3506867E+04  0.7818609E-02  0.8112165E-01
        2   -1    0    0  501    0  0.00000000000E+00  0.00000000000E+00  0.15826671986E+04  0.15826671986E+04  0.25500000920E-02 0. -1.
       -2   -1    0    0    0  501  0.00000000000E+00  0.00000000000E+00 -0.19426249669E+04  0.19426249669E+04  0.25500000920E-02 0.  1.
    10030    2    1    2    0    0  0.00000000000E+00  0.00000000000E+00 -0.35995776831E+03  0.35252921656E+04  0.35068668720E+04 0.  0.
        1    1    3    3  502    0  0.14914598412E+03 -0.15521296851E+04  0.62621840924E+03  0.16803275217E+04  0.50400001928E-02 0. -1.
       -1    1    3    3    0  502 -0.14914598412E+03  0.15521296851E+04 -0.98617617755E+03  0.18449646439E+04  0.50400001928E-02 0.  1.
</event>
<event>
 5   0  0.1866421E-07  0.3525867E+04  0.7818609E-02  0.8107687E-01
       -1   -1    0    0    0  501  0.00000000000E+00  0.00000000000E+00  0.31349915229E+04  0.31349915229E+04  0.50400001928E-02 0.  1.
        1   -1    0    0  501    0  0.00000000000E+00  0.00000000000E+00 -0.99136962414E+03  0.99136962415E+03  0.50400001928E-02 0. -1.
    10030    2    1    2    0    0  0.00000000000E+00  0.00000000000E+00  0.21436218987E+04  0.41263611470E+04  0.35258674778E+04 0.  0.
        1    1    3    3  502    0 -0.52713775705E+03 -0.13199432011E+04 -0.14880205699E+03  0.14290788366E+04  0.50400001928E-02 0. -1.
       -1    1    3    3    0  502  0.52713775705E+03  0.13199432011E+04  0.22924239557E+04  0.26972823104E+04  0.50400001928E-02 0.  1.
</event>
<event>
 5   0  0.1897049E-07  0.3517495E+04  0.7818609E-02  0.8109656E-01
        1   -1    0    0  501    0  0.00000000000E+00  0.00000000000E+00  0.13835023402E+04  0.13835023402E+04  0.50400001928E-02 0.  1.
       -1   -1    0    0    0  501  0.00000000000E+00  0.00000000000E+00 -0.22357702967E+04  0.22357702967E+04  0.50400001928E-02 0. -1.
    10030    2    1    2    0    0  0.00000000000E+00  0.00000000000E+00 -0.85226795645E+03  0.36192726369E+04  0.35174953803E+04 0.  0.
        2    1    3    3  502    0 -0.10529445487E+04 -0.14021414435E+04 -0.28618152318E+03  0.17766802511E+04  0.25500000920E-02 0.  1.
       -2    1    3    3    0  502  0.10529445487E+04  0.14021414435E+04 -0.56608643327E+03  0.18425923858E+04  0.25500000920E-02 0. -1.
</event>
<event>
 5   0  0.1873457E-07  0.3433181E+04  0.7818609E-02  0.8129810E-01
       -1   -1    0    0    0  501  0.00000000000E+00  0.00000000000E+00  0.10184086689E+04  0.10184086690E+04  0.50400001928E-02 0. -1.
        1   -1    0    0  501    0  0.00000000000E+00  0.00000000000E+00 -0.28934182609E+04  0.28934182609E+04  0.50400001928E-02 0.  1.
    10030    2    1    2    0    0  0.00000000000E+00  0.00000000000E+00 -0.18750095920E+04  0.39118269299E+04  0.34331805894E+04 0.  0.
        3    1    3    3  502    0 -0.98007085067E+03  0.17515176052E+03  0.65583363547E+03  0.11921974581E+04  0.10100000352E+00 0. -1.
       -3    1    3    3    0  502  0.98007085067E+03 -0.17515176052E+03 -0.25308432275E+04  0.27196294718E+04  0.10100000352E+00 0.  1.
</event>
<event>
 5   0  0.1908190E-07  0.3501427E+04  0.7818609E-02  0.8113452E-01
        1   -1    0    0  501    0  0.00000000000E+00  0.00000000000E+00  0.17956672338E+04  0.17956672338E+04  0.50400001928E-02 0. -1.
       -1   -1    0    0    0  501  0.00000000000E+00  0.00000000000E+00 -0.17068850233E+04  0.17068850233E+04  0.50400001928E-02 0.  1.
    10030    2    1    2    0    0  0.00000000000E+00  0.00000000000E+00  0.88782210482E+02  0.35025522571E+04  0.35014268567E+04 0.  0.
        5    1    3    3  502    0  0.12514063981E+04  0.73160088102E+02  0.12669152670E+04  0.17822645020E+04  0.46999998093E+01 0. -1.
       -5    1    3    3    0  502 -0.12514063981E+04 -0.73160088102E+02 -0.11781330565E+04  0.17202877551E+04  0.46999998093E+01 0.  1.
</event>
<event>
 5   0  0.1897049E-07  0.3495351E+04  0.7818609E-02  0.8114893E-01
        1   -1    0    0  501    0  0.00000000000E+00  0.00000000000E+00  0.14869094663E+04  0.14869094663E+04  0.50400001928E-02 0. -1.
       -1   -1    0    0    0  501  0.00000000000E+00  0.00000000000E+00 -0.20541728811E+04  0.20541728811E+04  0.50400001928E-02 0.  1.
    10030    2    1    2    0    0  0.00000000000E+00  0.00000000000E+00 -0.56726341489E+03  0.35410823474E+04  0.34953506847E+04 0.  0.
        2    1    3    3  502    0  0.49737420051E+03 -0.79260052961E+03  0.12117470434E+04  0.15309890895E+04  0.25500000920E-02 0. -1.
       -2    1    3    3    0  502 -0.49737420051E+03  0.79260052961E+03 -0.17790104583E+04  0.20100932579E+04  0.25500000920E-02 0.  1.
</event>
<event>
 5   0  0.5707187E-07  0.3594261E+04  0.7818609E-02  0.8091808E-01
       -2   -1    0    0    0  501  0.00000000000E+00  0.00000000000E+00  0.12765298990E+04  0.12765298990E+04  0.25500000920E-02 0. -1.
        2   -1    0    0  501    0  0.00000000000E+00  0.00000000000E+00 -0.25300445278E+04  0.25300445278E+04  0.25500000920E-02 0.  1.
    10030    2    1    2    0    0  0.00000000000E+00  0.00000000000E+00 -0.12535146289E+04  0.38065744268E+04  0.35942606948E+04 0.  0.
        1    1    3    3  502    0 -0.10711240877E+04 -0.11393402452E+04  0.31114756147E+03  0.15944327552E+04  0.50400001928E-02 0. -1.
       -1    1    3    3    0  502  0.10711240877E+04  0.11393402452E+04 -0.15646621903E+04  0.22121416717E+04  0.50400001928E-02 0.  1.
</event>
<event>
 5   0  0.5677193E-07  0.3499808E+04  0.7818609E-02  0.8113836E-01
        2   -1    0    0  501    0  0.00000000000E+00  0.00000000000E+00  0.95204093733E+03  0.95204093733E+03  0.25500000920E-02 0.  1.
       -2   -1    0    0    0  501  0.00000000000E+00  0.00000000000E+00 -0.32164199623E+04  0.32164199623E+04  0.25500000920E-02 0. -1.
    10030    2    1    2    0    0  0.00000000000E+00  0.00000000000E+00 -0.22643790249E+04  0.41684608996E+04  0.34998076951E+04 0.  0.
        3    1    3    3  502    0 -0.88104806838E+03 -0.13478709459E+04 -0.19480066363E+04  0.25273962196E+04  0.10100000352E+00 0. -1.
       -3    1    3    3    0  502  0.88104806838E+03  0.13478709459E+04 -0.31637238863E+03  0.16410646800E+04  0.10100000352E+00 0.  1.
</event>
<event>
 5   0  0.1866421E-07  0.3548846E+04  0.7818609E-02  0.8102311E-01
        1   -1    0    0  501    0  0.00000000000E+00  0.00000000000E+00  0.26004723855E+04  0.26004723855E+04  0.50400001928E-02 0.  1.
       -1   -1    0    0    0  501  0.00000000000E+00  0.00000000000E+00 -0.12107713259E+04  0.12107713259E+04  0.50400001928E-02 0. -1.
    10030    2    1    2    0    0  0.00000000000E+00  0.00000000000E+00  0.13897010596E+04  0.38112437114E+04  0.35488462340E+04 0.  0.
        1    1    3    3  502    0  0.16384780633E+04 -0.36068276829E+03  0.13153929463E+04  0.21318914199E+04  0.50400001928E-02 0.  1.
       -1    1    3    3    0  502 -0.16384780633E+04  0.36068276829E+03  0.74308113324E+02  0.16793522915E+04  0.50400001928E-02 0. -1.
</event>
<event>
 5   0  0.1897049E-07  0.3537824E+04  0.7818609E-02  0.8104884E-01
       -1   -1    0    0    0  501  0.00000000000E+00  0.00000000000E+00  0.17335125351E+04  0.17335125351E+04  0.50400001928E-02 0. -1.
        1   -1    0    0  501    0  0.00000000000E+00  0.00000000000E+00 -0.18050340704E+04  0.18050340704E+04  0.50400001928E-02 0.  1.
    10030    2    1    2    0    0  0.00000000000E+00  0.00000000000E+00 -0.71521535287E+02  0.35385466056E+04  0.35378237307E+04 0.  0.
        2    1    3    3  502    0 -0.13425620526E+04  0.99973622491E+03 -0.60780752212E+03  0.17808355815E+04  0.25500000920E-02 0.  1.
       -2    1    3    3    0  502  0.13425620526E+04 -0.99973622491E+03  0.53628598684E+03  0.17577110241E+04  0.25500000920E-02 0. -1.
</event>
<event>
 5   0  0.1866421E-07  0.3469014E+04  0.7818609E-02  0.8121173E-01
        1   -1    0    0  501    0  0.00000000000E+00  0.00000000000E+00  0.17962281283E+04  0.17962281283E+04  0.50400001928E-02 0. -1.
       -1   -1    0    0    0  501  0.00000000000E+00  0.00000000000E+00 -0.16749062853E+04  0.16749062854E+04  0.50400001928E-02 0.  1.
    10030    2    1    2    0    0  0.00000000000E+00  0.00000000000E+00  0.12132184300E+03  0.34711344137E+04  0.34690135671E+04 0.  0.
        1    1    3    3  502    0  0.15170511427E+04 -0.83972657996E+03  0.16715017148E+02  0.17340312254E+04  0.50400001928E-02 0.  1.
       -1    1    3    3    0  502 -0.15170511427E+04  0.83972657996E+03  0.10460682585E+03  0.17371031883E+04  0.50400001928E-02 0. -1.
</event>
<event>
 5   0  0.1933647E-07  0.3521449E+04  0.7818609E-02  0.8108726E-01
       -1   -1    0    0    0  501  0.00000000000E+00  0.00000000000E+00  0.18360503653E+04  0.18360503653E+04  0.50400001928E-02 0. -1.
        1   -1    0    0  501    0  0.00000000000E+00  0.00000000000E+00 -0.16884887656E+04  0.16884887656E+04  0.50400001928E-02 0.  1.
    10030    2    1    2    0    0  0.00000000000E+00  0.00000000000E+00  0.14756159973E+03  0.35245391309E+04  0.35214488012E+04 0.  0.
        4    1    3    3  502    0 -0.14149766607E+04 -0.87687926394E+03  0.64793272420E+03  0.17863075384E+04  0.12699999809E+01 0.  1.
       -4    1    3    3    0  502  0.14149766607E+04  0.87687926394E+03 -0.50037112447E+03  0.17382315925E+04  0.12699999809E+01 0. -1.
</event>
<event>
 5   0  0.1873457E-07  0.3435685E+04  0.7818609E-02  0.8129203E-01
       -1   -1    0    0    0  501  0.00000000000E+00  0.00000000000E+00  0.12133458090E+04  0.12133458090E+04  0.50400001928E-02 0. -1.
        1   -1    0    0  501    0  0.00000000000E+00  0.00000000000E+00 -0.24321036718E+04  0.24321036718E+04  0.50400001928E-02 0.  1.
    10030    2    1    2    0    0  0.00000000000E+00  0.00000000000E+00 -0.12187578628E+04  0.36454494808E+04  0.34356849665E+04 0.  0.
        3    1    3    3  502    0 -0.13559174018E+03 -0.17262679293E+03 -0.24171612381E+04  0.24271080715E+04  0.10100000352E+00 0.  1.
       -3    1    3    3    0  502  0.13559174018E+03  0.17262679293E+03  0.11984033753E+04  0.12183414093E+04  0.10100000352E+00 0. -1.
</event>
<event>
 5   0  0.5707187E-07  0.3506771E+04  0.7818609E-02  0.8112187E-01
       -2   -1    0    0    0  501  0.00000000000E+00  0.00000000000E+00  0.13331874603E+04  0.13331874603E+04  0.25500000920E-02 0.  1.
        2   -1    0    0  501    0  0.00000000000E+00  0.00000000000E+00 -0.23060222641E+04  0.23060222641E+04  0.25500000920E-02 0. -1.
    10030    2    1    2    0    0  0.00000000000E+00  0.00000000000E+00 -0.97283480383E+03  0.36392097245E+04  0.35067705746E+04 0.  0.
        1    1    3    3  502    0  0.16759989761E+04  0.33258989791E+03 -0.89468510619E+03  0.19287431263E+04  0.50400001928E-02 0.  1.
       -1    1    3    3    0  502 -0.16759989761E+04 -0.33258989791E+03 -0.78149697646E+02  0.17104665981E+04  0.50400001928E-02 0. -1.
</event>
<event>
 5   0  0.1908190E-07  0.3514185E+04  0.7818609E-02  0.8110436E-01
       -1   -1    0    0    0  501  0.00000000000E+00  0.00000000000E+00  0.29716014986E+04  0.29716014986E+04  0.50400001928E-02 0.  1.
        1   -1    0    0  501    0  0.00000000000E+00  0.00000000000E+00 -0.10389596983E+04  0.10389596983E+04  0.50400001928E-02 0. -1.
    10030    2    1    2    0    0  0.00000000000E+00  0.00000000000E+00  0.19326418003E+04  0.40105611969E+04  0.35141850813E+04 0.  0.
        5    1    3    3  502    0 -0.59638409957E+03  0.15262667510E+04  0.24256015183E+03  0.16565088912E+04  0.46999998093E+01 0. -1.
       -5    1    3    3    0  502  0.59638409957E+03 -0.15262667510E+04  0.16900816485E+04  0.23540523057E+04  0.46999998093E+01 0.  1.
</event>
<event>
 5   0  0.5740827E-07  0.3510522E+04  0.7818609E-02  0.8111301E-01
       -2   -1    0    0    0  501  0.00000000000E+00  0.00000000000E+00  0.13412371380E+04  0.13412371380E+04  0.25500000920E-02 0.  1.
        2   -1    0    0  501    0  0.00000000000E+00  0.00000000000E+00 -0.22970894432E+04  0.22970894432E+04  0.25500000920E-02 0. -1.
    10030    2    1    2    0    0  0.00000000000E+00  0.00000000000E+00 -0.95585230519E+03  0.36383265812E+04  0.35105222806E+04 0.  0.
        2    1    3    3  502    0 -0.87747290428E+02 -0.16197150293E+04 -0.11729871548E+04  0.20017680256E+04  0.25500000920E-02 0. -1.
       -2    1    3    3    0  502  0.87747290428E+02  0.16197150293E+04  0.21713484958E+03  0.16365585556E+04  0.25500000920E-02 0.  1.
</event>
<event>
 5   0  0.1933647E-07  0.3419503E+04  0.7818609E-02  0.8133136E-01
        1   -1    0    0  501    0  0.00000000000E+00  0.00000000000E+00  0.13246631934E+04  0.13246631934E+04  0.50400001928E-02 0.  1.
       -1   -1    0    0    0  501  0.00000000000E+00  0.00000000000E+00 -0.22067869992E+04  0.22067869992E+04  0.50400001928E-02 0. -1.
    10030    2    1    2    0    0  0.00000000000E+00  0.00000000000E+00 -0.88212380576E+03  0.35314501926E+04  0.34195026033E+04 0.  0.
        4    1    3    3  502    0 -0.21606304918E+03 -0.67293778688E+03  0.11667354737E+04  0.13641120865E+04  0.12699999809E+01 0.  1.
       -4    1    3    3    0  502  0.21606304918E+03  0.67293778688E+03 -0.20488592794E+04  0.21673381061E+04  0.12699999809E+01 0. -1.
</event>
<event>
 5   0  0.5677193E-07  0.3506629E+04  0.7818609E-02  0.8112221E-01
        2   -1    0    0  501    0  0.00000000000E+00  0.00000000000E+00  0.17520702339E+04  0.17520702339E+04  0.25500000920E-02 0.  1.
       -2   -1    0    0    0  501  0.00000000000E+00  0.00000000000E+00 -0.17545594849E+04  0.17545594849E+04  0.25500000920E-02 0. -1.
    10030    2    1    2    0    0  0.00000000000E+00  0.00000000000E+00 -0.24892509828E+01  0.35066297188E+04  0.35066288353E+04 0.  0.
        3    1    3    3  502    0 -0.17344873420E+04 -0.23499241309E+03 -0.10343889445E+03  0.17533874041E+04  0.10100000352E+00 0. -1.
       -3    1    3    3    0  502  0.17344873420E+04  0.23499241309E+03  0.10094964346E+03  0.17532423148E+04  0.10100000352E+00 0.  1.
</event>
<event>
 5   0  0.1866421E-07  0.3488938E+04  0.7818609E-02  0.8116417E-01
        1   -1    0    0  501    0  0.00000000000E+00  0.00000000000E+00  0.16694531809E+04  0.16694531809E+04  0.50400001928E-02 0. -1.
       -1   -1    0    0    0  501  0.00000000000E+00  0.00000000000E+00 -0.18228553346E+04  0.18228553346E+04  0.50400001928E-02 0.  1.
    10030    2    1    2    0    0  0.00000000000E+00  0.00000000000E+00 -0.15340215366E+03  0.34923085155E+04  0.34889377390E+04 0.  0.
        1    1    3    3  502    0  0.36084876584E+03  0.60612881030E+03  0.15203238942E+04  0.16760037917E+04  0.50400001928E-02 0. -1.
       -1    1    3    3    0  502 -0.36084876584E+03 -0.60612881030E+03 -0.16737260479E+04  0.18163047238E+04  0.50400001928E-02 0.  1.
</event>
<event>
 5   0  0.5677193E-07  0.3503852E+04  0.7818609E-02  0.8112878E-01
       -2   -1    0    0    0  501  0.00000000000E+00  0.00000000000E+00  0.13168879953E+04  0.13168879953E+04  0.25500000920E-02 0. -1.
        2   -1    0    0  501    0  0.00000000000E+00  0.00000000000E+00 -0.23306804934E+04  0.23306804934E+04  0.25500000920E-02 0.  1.
    10030    2    1    2    0    0  0.00000000000E+00  0.00000000000E+00 -0.10137924981E+04  0.36475684887E+04  0.35038522587E+04 0.  0.
        3    1    3    3  502    0 -0.15849900940E+04 -0.60109470226E+03 -0.46328190332E+02  0.16957755602E+04  0.10100000352E+00 0. -1.
       -3    1    3    3    0  502  0.15849900940E+04  0.60109470226E+03 -0.96746430772E+03  0.19517929286E+04  0.10100000352E+00 0.  1.
</event>
<event>
 5   0  0.1908190E-07  0.3509088E+04  0.7818609E-02  0.8111639E-01
       -1   -1    0    0    0  501  0.00000000000E+00  0.00000000000E+00  0.15363182440E+04  0.15363182440E+04  0.50400001928E-02 0.  1.
        1   -1    0    0  501    0  0.00000000000E+00  0.00000000000E+00 -0.20037679472E+04  0.20037679472E+04  0.50400001928E-02 0. -1.
    10030    2    1    2    0    0  0.00000000000E+00  0.00000000000E+00 -0.46744970318E+03  0.35400861912E+04  0.35090883455E+04 0.  0.
        5    1    3    3  502    0 -0.43465288098E+03 -0.71693628034E+03 -0.17885997160E+04  0.19753561176E+04  0.46999998093E+01 0. -1.
       -5    1    3    3    0  502  0.43465288098E+03  0.71693628034E+03  0.13211500129E+04  0.15647300737E+04  0.46999998093E+01 0.  1.
</event>
<event>
 5   0  0.1908190E-07  0.3499112E+04  0.7818609E-02  0.8114000E-01
        1   -1    0    0  501    0  0.00000000000E+00  0.00000000000E+00  0.18434986926E+04  0.18434986926E+04  0.50400001928E-02 0. -1.
       -1   -1    0    0    0  501  0.00000000000E+00  0.00000000000E+00 -0.16604004000E+04  0.16604004000E+04  0.50400001928E-02 0.  1.
    10030    2    1    2    0    0  0.00000000000E+00  0.00000000000E+00  0.18309829257E+03  0.35038990926E+04  0.34991118682E+04 0.  0.
        5    1    3    3  502    0  0.69930343118E+03  0.15682481485E+04  0.42741275140E+03  0.17695002950E+04  0.46999998093E+01 0. -1.
       -5    1    3    3    0  502 -0.69930343118E+03 -0.15682481485E+04 -0.24431445882E+03  0.17343987975E+04  0.46999998093E+01 0.  1.
</event>
<event>
 5   0  0.1873457E-07  0.3355781E+04  0.7818609E-02  0.8148845E-01
        1   -1    0    0  501    0  0.00000000000E+00  0.00000000000E+00  0.17509531619E+04  0.17509531619E+04  0.50400001928E-02 0.  1.
       -1   -1    0    0    0  501  0.00000000000E+00  0.00000000000E+00 -0.16078763783E+04  0.16078763784E+04  0.50400001928E-02 0. -1.
    10030    2    1    2    0    0  0.00000000000E+00  0.00000000000E+00  0.14307678353E+03  0.33588295402E+04  0.33557808204E+04 0.  0.
        3    1    3    3  502    0 -0.46082497162E+03 -0.12693545523E+04 -0.92520546188E+03  0.16369562580E+04  0.10100000352E+00 0. -1.
       -3    1    3    3    0  502  0.46082497162E+03  0.12693545523E+04  0.10682822454E+04  0.17218732822E+04  0.10100000352E+00 0.  1.
</event>
<event>
 5   0  0.5554745E-07  0.3453277E+04  0.7818609E-02  0.8124953E-01
        2   -1    0    0  501    0  0.00000000000E+00  0.00000000000E+00  0.15873037043E+04  0.15873037043E+04  0.25500000920E-02 0. -1.
       -2   -1    0    0    0  501  0.00000000000E+00  0.00000000000E+00 -0.18782040768E+04  0.18782040768E+04  0.25500000920E-02 0.  1.
    10030    2    1    2    0    0  0.00000000000E+00  0.00000000000E+00 -0.29090037250E+03  0.34655077812E+04  0.34532768720E+04 0.  0.
        5    1    3    3  502    0  0.80727795805E+03 -0.46955132532E+02  0.13855204505E+04  0.16042417196E+04  0.46999998093E+01 0. -1.
       -5    1    3    3    0  502 -0.80727795805E+03  0.46955132532E+02 -0.16764208230E+04  0.18612660616E+04  0.46999998093E+01 0.  1.
</event>
<event>
 5   0  0.5707187E-07  0.3506647E+04  0.7818609E-02  0.8112216E-01
       -2   -1    0    0    0  501  0.00000000000E+00  0.00000000000E+00  0.12504529063E+04  0.12504529063E+04  0.25500000920E-02 0. -1.
        2   -1    0    0  501    0  0.00000000000E+00  0.00000000000E+00 -0.24584240701E+04  0.24584240701E+04  0.25500000920E-02 0.  1.
    10030    2    1    2    0    0  0.00000000000E+00  0.00000000000E+00 -0.12079711638E+04  0.37088769764E+04  0.35066471299E+04 0.  0.
        1    1    3    3  502    0 -0.61330562590E+03 -0.36743127976E+03  0.10892763950E+04  0.13029476585E+04  0.50400001928E-02 0. -1.
       -1    1    3    3    0  502  0.61330562590E+03  0.36743127976E+03 -0.22972475588E+04  0.24059293179E+04  0.50400001928E-02 0.  1.
</event>
<event>
 5   0  0.5707187E-07  0.3497997E+04  0.7818609E-02  0.8114265E-01
        2   -1    0    0  501    0  0.00000000000E+00  0.00000000000E+00  0.24546736419E+04  0.24546736419E+04  0.25500000920E-02 0. -1.
       -2   -1    0    0    0  501  0.00000000000E+00  0.00000000000E+00 -0.12461927254E+04  0.12461927254E+04  0.25500000920E-02 0.  1.
    10030    2    1    2    0    0  0.00000000000E+00  0.00000000000E+00  0.12084809165E+04  0.37008663673E+04  0.34979973904E+04 0.  0.
        1    1    3    3  502    0  0.88801855901E+03 -0.12530685950E+04  0.14895740384E+04  0.21395300140E+04  0.50400001928E-02 0. -1.
       -1    1    3    3    0  502 -0.88801855901E+03  0.12530685950E+04 -0.28109312183E+03  0.15613363533E+04  0.50400001928E-02 0.  1.
</event>
<event>
 5   0  0.1897049E-07  0.3509649E+04  0.7818609E-02  0.8111507E-01
       -1   -1    0    0    0  501  0.00000000000E+00  0.00000000000E+00  0.14729631571E+04  0.14729631571E+04  0.50400001928E-02 0.  1.
        1   -1    0    0  501    0  0.00000000000E+00  0.00000000000E+00 -0.20906218899E+04  0.20906218899E+04  0.50400001928E-02 0. -1.
    10030    2    1    2    0    0  0.00000000000E+00  0.00000000000E+00 -0.61765873277E+03  0.35635850470E+04  0.35096489962E+04 0.  0.
        2    1    3    3  502    0  0.16737748881E+04 -0.14201673119E+03  0.20663153396E+03  0.16924502116E+04  0.25500000920E-02 0.  1.
       -2    1    3    3    0  502 -0.16737748881E+04  0.14201673119E+03 -0.82429026673E+03  0.18711348353E+04  0.25500000920E-02 0. -1.
</event>
<event>
 5   0  0.5554745E-07  0.3504757E+04  0.7818609E-02  0.8112664E-01
        2   -1    0    0  501    0  0.00000000000E+00  0.00000000000E+00  0.20456236219E+04  0.20456236219E+04  0.25500000920E-02 0. -1.
       -2   -1    0    0    0  501  0.00000000000E+00  0.00000000000E+00 -0.15011706230E+04  0.15011706230E+04  0.25500000920E-02 0.  1.
    10030    2    1    2    0    0  0.00000000000E+00  0.00000000000E+00  0.54445299894E+03  0.35467942449E+04  0.35047568172E+04 0.  0.
        5    1    3    3  502    0  0.36408829766E+01  0.46650163390E+03  0.19816198252E+04  0.20357986767E+04  0.46999998093E+01 0. -1.
       -5    1    3    3    0  502 -0.36408829766E+01 -0.46650163390E+03 -0.14371668263E+04  0.15109955682E+04  0.46999998093E+01 0.  1.
</event>
<event>
 5   0  0.5740827E-07  0.3521789E+04  0.7818609E-02  0.8108645E-01
        2   -1    0    0  501    0  0.00000000000E+00  0.00000000000E+00  0.11581644381E+04  0.11581644381E+04  0.25500000920E-02 0. -1.
       -2   -1    0    0    0  501  0.00000000000E+00  0.00000000000E+00 -0.26772968409E+04  0.26772968409E+04  0.25500000920E-02 0.  1.
    10030    2    1    2    0    0  0.00000000000E+00  0.00000000000E+00 -0.15191324029E+04  0.38354612790E+04  0.35217893130E+04 0.  0.
        2    1    3    3  502    0 -0.55425016897E+03  0.14192227086E+03 -0.25732503054E+04  0.26360865530E+04  0.25500000920E-02 0.  1.
       -2    1    3    3    0  502  0.55425016897E+03 -0.14192227086E+03  0.10541179026E+04  0.11993747260E+04  0.25500000920E-02 0. -1.
</event>
<event>
 5   0  0.1908190E-07  0.3493793E+04  0.7818609E-02  0.8115262E-01
        1   -1    0    0  501    0  0.00000000000E+00  0.00000000000E+00  0.25601179992E+04  0.25601179992E+04  0.50400001928E-02 0. -1.
       -1   -1    0    0    0  501  0.00000000000E+00  0.00000000000E+00 -0.11919949876E+04  0.11919949876E+04  0.50400001928E-02 0.  1.
    10030    2    1    2    0    0  0.00000000000E+00  0.00000000000E+00  0.13681230116E+04  0.37521129869E+04  0.34937932525E+04 0.  0.
        5    1    3    3  502    0  0.16777937453E+04  0.18263214750E+01  0.16164834579E+03  0.16855703678E+04  0.46999998093E+01 0. -1.
       -5    1    3    3    0  502 -0.16777937453E+04 -0.18263214750E+01  0.12064746658E+04  0.20665426191E+04  0.46999998093E+01 0.  1.
</event>
<event>
 5   0  0.1933647E-07  0.3485094E+04  0.7818609E-02  0.8117332E-01
       -1   -1    0    0    0  501  0.00000000000E+00  0.00000000000E+00  0.10750540097E+04  0.10750540097E+04  0.50400001928E-02 0. -1.
        1   -1    0    0  501    0  0.00000000000E+00  0.00000000000E+00 -0.28244811519E+04  0.28244811519E+04  0.50400001928E-02 0.  1.
    10030    2    1    2    0    0  0.00000000000E+00  0.00000000000E+00 -0.17494271422E+04  0.38995351616E+04  0.34850938511E+04 0.  0.
        4    1    3    3  502    0  0.15164305578E+04  0.48235023205E+03 -0.80167520053E+02  0.15933147294E+04  0.12699999809E+01 0. -1.
       -4    1    3    3    0  502 -0.15164305578E+04 -0.48235023205E+03 -0.16692596221E+04  0.23062204322E+04  0.12699999809E+01 0.  1.
</event>
<event>
 5   0  0.1873457E-07  0.3486028E+04  0.7818609E-02  0.8117109E-01
        1   -1    0    0  501    0  0.00000000000E+00  0.00000000000E+00  0.18140151623E+04  0.18140151623E+04  0.50400001928E-02 0. -1.
       -1   -1    0    0    0  501  0.00000000000E+00  0.00000000000E+00 -0.16747913802E+04  0.16747913802E+04  0.50400001928E-02 0.  1.
    10030    2    1    2    0    0  0.00000000000E+00  0.00000000000E+00  0.13922378213E+03  0.34888065426E+04  0.34860275142E+04 0.  0.
        3    1    3    3  502    0 -0.10886871825E+04  0.13492609648E+04 -0.11039815520E+03  0.17372198178E+04  0.10100000352E+00 0.  1.
       -3    1    3    3    0  502  0.10886871825E+04 -0.13492609648E+04  0.24962193732E+03  0.17515867248E+04  0.10100000352E+00 0. -1.
</event>
<event>
 5   0  0.1908190E-07  0.3494228E+04  0.7818609E-02  0.8115159E-01
        1   -1    0    0  501    0  0.00000000000E+00  0.00000000000E+00  0.22373030331E+04  0.22373030331E+04  0.50400001928E-02 0.  1.
       -1   -1    0    0    0  501  0.00000000000E+00  0.00000000000E+00 -0.13643243461E+04  0.13643243461E+04  0.50400001928E-02 0. -1.
    10030    2    1    2    0    0  0.00000000000E+00  0.00000000000E+00  0.87297868701E+03  0.36016273793E+04  0.34942278104E+04 0.  0.
        5    1    3    3  502    0  0.95077718636E+03 -0.13294391734E+04  0.10727126251E+04  0.19550243579E+04  0.46999998093E+01 0. -1.
       -5    1    3    3    0  502 -0.95077718636E+03  0.13294391734E+04 -0.19973393809E+03  0.16466030214E+04  0.46999998093E+01 0.  1.
</event>
<event>
 5   0  0.5740827E-07  0.3515246E+04  0.7818609E-02  0.8110186E-01
       -2   -1    0    0    0  501  0.00000000000E+00  0.00000000000E+00  0.13093705606E+04  0.13093705606E+04  0.25500000920E-02 0. -1.
        2   -1    0    0  501    0  0.00000000000E+00  0.00000000000E+00 -0.23593312911E+04  0.23593312911E+04  0.25500000920E-02 0.  1.
    10030    2    1    2    0    0  0.00000000000E+00  0.00000000000E+00 -0.10499607305E+04  0.36687018517E+04  0.35152461850E+04 0.  0.
        2    1    3    3  502    0 -0.23367276194E+03 -0.11465755057E+04  0.84375967078E+03  0.14426256382E+04  0.25500000920E-02 0. -1.
       -2    1    3    3    0  502  0.23367276194E+03  0.11465755057E+04 -0.18937204013E+04  0.22260762135E+04  0.25500000920E-02 0.  1.
</event>
<event>
 5   0  0.5740827E-07  0.3509880E+04  0.7818609E-02  0.8111452E-01
        2   -1    0    0  501    0  0.00000000000E+00  0.00000000000E+00  0.28106960994E+04  0.28106960994E+04  0.25500000920E-02 0.  1.
       -2   -1    0    0    0  501  0.00000000000E+00  0.00000000000E+00 -0.10957479981E+04  0.10957479981E+04  0.25500000920E-02 0. -1.
    10030    2    1    2    0    0  0.00000000000E+00  0.00000000000E+00  0.17149481013E+04  0.39064440976E+04  0.35098801258E+04 0.  0.
        2    1    3    3  502    0 -0.11064287029E+04 -0.48397349206E+03  0.22746846391E+04  0.25753844418E+04  0.25500000920E-02 0. -1.
       -2    1    3    3    0  502  0.11064287029E+04  0.48397349206E+03 -0.55973653782E+03  0.13310596558E+04  0.25500000920E-02 0.  1.
</event>
<event>
 5   0  0.1933647E-07  0.3117782E+04  0.7818609E-02  0.8210875E-01
       -1   -1    0    0    0  501  0.00000000000E+00  0.00000000000E+00  0.14914612144E+04  0.14914612144E+04  0.50400001928E-02 0. -1.
        1   -1    0    0  501    0  0.00000000000E+00  0.00000000000E+00 -0.16293697021E+04  0.16293697021E+04  0.50400001928E-02 0.  1.
    10030    2    1    2    0    0  0.00000000000E+00  0.00000000000E+00 -0.13790848771E+03  0.31208309165E+04  0.31177823623E+04 0.  0.
        4    1    3    3  502    0 -0.70503083142E+03 -0.48612974228E+03  0.12349128020E+04  0.15027980040E+04  0.12699999809E+01 0. -1.
       -4    1    3    3    0  502  0.70503083142E+03  0.48612974228E+03 -0.13728212897E+04  0.16180329125E+04  0.12699999809E+01 0.  1.
</event>
<event>
 5   0  0.1866421E-07  0.3498402E+04  0.7818609E-02  0.8114169E-01
        1   -1    0    0  501    0  0.00000000000E+00  0.00000000000E+00  0.12636953923E+04  0.12636953923E+04  0.50400001928E-02 0. -1.
       -1   -1    0    0    0  501  0.00000000000E+00  0.00000000000E+00 -0.24212348637E+04  0.24212348637E+04  0.50400001928E-02 0.  1.
    10030    2    1    2    0    0  0.00000000000E+00  0.00000000000E+00 -0.11575394713E+04  0.36849302560E+04  0.34984015441E+04 0.  0.
        1    1    3    3  502    0  0.14661321944E+04 -0.66009461464E+03 -0.13042872457E+04  0.20703704333E+04  0.50400001928E-02 0.  1.
       -1    1    3    3    0  502 -0.14661321944E+04  0.66009461464E+03  0.14674777441E+03  0.16145598227E+04  0.50400001928E-02 0. -1.
</event>
<event>
 5   0  0.1866421E-07  0.3530216E+04  0.7818609E-02  0.8106666E-01
        1   -1    0    0  501    0  0.00000000000E+00  0.00000000000E+00  0.19224291452E+04  0.19224291452E+04  0.50400001928E-02 0. -1.
       -1   -1    0    0    0  501  0.00000000000E+00  0.00000000000E+00 -0.16206613005E+04  0.16206613005E+04  0.50400001928E-02 0.  1.
    10030    2    1    2    0    0  0.00000000000E+00  0.00000000000E+00  0.30176784466E+03  0.35430904457E+04  0.35302161512E+04 0.  0.
        1    1    3    3  502    0  0.95345825023E+03  0.14460779884E+04  0.49180244929E+03  0.18005815262E+04  0.50400001928E-02 0.  1.
       -1    1    3    3    0  502 -0.95345825023E+03 -0.14460779884E+04 -0.19003460463E+03  0.17425089195E+04  0.50400001928E-02 0. -1.
</event>
<event>
 5   0  0.1908190E-07  0.3462066E+04  0.7818609E-02  0.8122839E-01
       -1   -1    0    0    0  501  0.00000000000E+00  0.00000000000E+00  0.12247840439E+04  0.12247840439E+04  0.50400001928E-02 0.  1.
        1   -1    0    0  501    0  0.00000000000E+00  0.00000000000E+00 -0.24465339457E+04  0.24465339457E+04  0.50400001928E-02 0. -1.
    10030    2    1    2    0    0  0.00000000000E+00  0.00000000000E+00 -0.12217499018E+04  0.36713179895E+04  0.34620662844E+04 0.  0.
        5    1    3    3  502    0  0.11185939326E+04  0.12214326487E+04 -0.77162591046E+02  0.16580489307E+04  0.46999998093E+01 0. -1.
       -5    1    3    3    0  502 -0.11185939326E+04 -0.12214326487E+04 -0.11445873108E+04  0.20132690588E+04  0.46999998093E+01 0.  1.
</event>
<event>
 5   0  0.5573334E-07  0.3512067E+04  0.7818609E-02  0.8110936E-01
       -2   -1    0    0    0  501  0.00000000000E+00  0.00000000000E+00  0.13218317322E+04  0.13218317322E+04  0.25500000920E-02 0. -1.
        2   -1    0    0  501    0  0.00000000000E+00  0.00000000000E+00 -0.23328636188E+04  0.23328636188E+04  0.25500000920E-02 0.  1.
    10030    2    1    2    0    0  0.00000000000E+00  0.00000000000E+00 -0.10110318866E+04  0.36546953510E+04  0.35120667182E+04 0.  0.
        4    1    3    3  502    0 -0.13801469345E+04  0.89723852857E+03 -0.11417447139E+04  0.20033534742E+04  0.12699999809E+01 0.  1.
       -4    1    3    3    0  502  0.13801469345E+04 -0.89723852857E+03  0.13071282725E+03  0.16513418768E+04  0.12699999809E+01 0. -1.
</event>
<event>
 5   0  0.5677193E-07  0.3506341E+04  0.7818609E-02  0.8112289E-01
        2   -1    0    0  501    0  0.00000000000E+00  0.00000000000E+00  0.16152014758E+04  0.16152014758E+04  0.25500000920E-02 0. -1.
       -2   -1    0    0    0  501  0.00000000000E+00  0.00000000000E+00 -0.19029246531E+04  0.19029246531E+04  0.25500000920E-02 0.  1.
    10030    2    1    2    0    0  0.00000000000E+00  0.00000000000E+00 -0.28772317726E+03  0.35181261289E+04  0.35063409464E+04 0.  0.
        3    1    3    3  502    0  0.11826832475E+04  0.11386906463E+04 -0.76094958865E+03  0.18095304194E+04  0.10100000352E+00 0.  1.
       -3    1    3    3    0  502 -0.11826832475E+04 -0.11386906463E+04  0.47322641139E+03  0.17085957095E+04  0.10100000352E+00 0. -1.
</event>
<event>
 5   0  0.5707187E-07  0.3486273E+04  0.7818609E-02  0.8117051E-01
        2   -1    0    0  501    0  0.00000000000E+00  0.00000000000E+00  0.28735658673E+04  0.28735658673E+04  0.25500000920E-02 0. -1.
       -2   -1    0    0    0  501  0.00000000000E+00  0.00000000000E+00 -0.10574054463E+04  0.10574054463E+04  0.25500000920E-02 0.  1.
    10030    2    1    2    0    0  0.00000000000E+00  0.00000000000E+00  0.18161604210E+04  0.39309713136E+04  0.34862726218E+04 0.  0.
        1    1    3    3  502    0 -0.17680710441E+03 -0.13998877382E+04 -0.24598849746E+03  0.14322907431E+04  0.50400001928E-02 0.  1.
       -1    1    3    3    0  502  0.17680710441E+03  0.13998877382E+04  0.20621489184E+04  0.24986805705E+04  0.50400001928E-02 0. -1.
</event>
<event>
 5   0  0.5677193E-07  0.3570958E+04  0.7818609E-02  0.8097177E-01
        2   -1    0    0  501    0  0.00000000000E+00  0.00000000000E+00  0.21314203539E+04  0.21314203539E+04  0.25500000920E-02 0. -1.
       -2   -1    0    0    0  501  0.00000000000E+00  0.00000000000E+00 -0.14956854895E+04  0.14956854895E+04  0.25500000920E-02 0.  1.
    10030    2    1    2    0    0  0.00000000000E+00  0.00000000000E+00  0.63573486439E+03  0.36271058434E+04  0.35709575721E+04 0.  0.
        3    1    3    3  502    0  0.14630177049E+04  0.68177448673E+02  0.13551323566E+04  0.19953577834E+04  0.10100000352E+00 0. -1.
       -3    1    3    3    0  502 -0.14630177049E+04 -0.68177448673E+02 -0.71939749225E+03  0.16317480601E+04  0.10100000352E+00 0.  1.
</event>
<event>
 5   0  0.5554745E-07  0.3490363E+04  0.7818609E-02  0.8116078E-01
        2   -1    0    0  501    0  0.00000000000E+00  0.00000000000E+00  0.15871110053E+04  0.15871110053E+04  0.25500000920E-02 0. -1.
       -2   -1    0    0    0  501  0.00000000000E+00  0.00000000000E+00 -0.19189952928E+04  0.19189952928E+04  0.25500000920E-02 0.  1.
    10030    2    1    2    0    0  0.00000000000E+00  0.00000000000E+00 -0.33188428744E+03  0.35061062981E+04  0.34903630461E+04 0.  0.
        5    1    3    3  502    0 -0.17317158872E+03  0.16452437607E+04  0.39228109024E+03  0.17002123323E+04  0.46999998093E+01 0. -1.
       -5    1    3    3    0  502  0.17317158872E+03 -0.16452437607E+04 -0.72416537768E+03  0.18058939657E+04  0.46999998093E+01 0.  1.
</event>
<event>
 5   0  0.5554745E-07  0.3489114E+04  0.7818609E-02  0.8116375E-01
        2   -1    0    0  501    0  0.00000000000E+00  0.00000000000E+00  0.21803255120E+04  0.21803255120E+04  0.25500000920E-02 0. -1.
       -2   -1    0    0    0  501  0.00000000000E+00  0.00000000000E+00 -0.13958825309E+04  0.13958825309E+04  0.25500000920E-02 0.  1.
    10030    2    1    2    0    0  0.00000000000E+00  0.00000000000E+00  0.78444298105E+03  0.35762080429E+04  0.34891135229E+04 0.  0.
        5    1    3    3  502    0  0.22331410147E+03 -0.11696188726E+04 -0.91458618545E+03  0.15014551194E+04  0.46999998093E+01 0.  1.
       -5    1    3    3    0  502 -0.22331410147E+03  0.11696188726E+04  0.16990291665E+04  0.20747529235E+04  0.46999998093E+01 0. -1.
</event>
<event>
 5   0  0.1873457E-07  0.3457724E+04  0.7818609E-02  0.8123882E-01
       -1   -1    0    0    0  501  0.00000000000E+00  0.00000000000E+00  0.16622208634E+04  0.16622208634E+04  0.50400001928E-02 0. -1.
        1   -1    0    0  501    0  0.00000000000E+00  0.00000000000E+00 -0.17981751284E+04  0.17981751284E+04  0.50400001928E-02 0.  1.
    10030    2    1    2    0    0  0.00000000000E+00  0.00000000000E+00 -0.13595426504E+03  0.34603959918E+04  0.34577242311E+04 0.  0.
        3    1    3    3  502    0  0.87127485195E+03  0.10426225735E+03  0.14227958938E+04  0.16716275457E+04  0.10100000352E+00 0. -1.
       -3    1    3    3    0  502 -0.87127485195E+03 -0.10426225735E+03 -0.15587501588E+04  0.17887684461E+04  0.10100000352E+00 0.  1.
</event>
<event>
 5   0  0.5707187E-07  0.3519568E+04  0.7818609E-02  0.8109168E-01
       -2   -1    0    0    0  501  0.00000000000E+00  0.00000000000E+00  0.13517576966E+04  0.13517576966E+04  0.25500000920E-02 0. -1.
        2   -1    0    0  501    0  0.00000000000E+00  0.00000000000E+00 -0.22909727838E+04  0.22909727838E+04  0.25500000920E-02 0.  1.
    10030    2    1    2    0    0  0.00000000000E+00  0.00000000000E+00 -0.93921508722E+03  0.36427304804E+04  0.35195682082E+04 0.  0.
        1    1    3    3  502    0  0.17342973386E+04  0.21541189105E+03 -0.25586056760E+03  0.17662542772E+04  0.50400001928E-02 0.  1.
       -1    1    3    3    0  502 -0.17342973386E+04 -0.21541189105E+03 -0.68335451962E+03  0.18764762032E+04  0.50400001928E-02 0. -1.
</event>
<event>
 5   0  0.1873457E-07  0.3495385E+04  0.7818609E-02  0.8114884E-01
       -1   -1    0    0    0  501  0.00000000000E+00  0.00000000000E+00  0.14994741773E+04  0.14994741773E+04  0.50400001928E-02 0. -1.
        1   -1    0    0  501    0  0.00000000000E+00  0.00000000000E+00 -0.20370003402E+04  0.20370003402E+04  0.50400001928E-02 0.  1.
    10030    2    1    2    0    0  0.00000000000E+00  0.00000000000E+00 -0.53752616293E+03  0.35364745175E+04  0.34953851915E+04 0.  0.
        3    1    3    3  502    0  0.13383275654E+04  0.83937039497E+03  0.48753065422E+03  0.16532844526E+04  0.10100000352E+00 0. -1.
       -3    1    3    3    0  502 -0.13383275654E+04 -0.83937039497E+03 -0.10250568172E+04  0.18831900650E+04  0.10100000352E+00 0.  1.
</event>
<event>
 5   0  0.1897049E-07  0.3477901E+04  0.7818609E-02  0.8119047E-01
       -1   -1    0    0    0  501  0.00000000000E+00  0.00000000000E+00  0.13300828757E+04  0.13300828757E+04  0.50400001928E-02 0.  1.
        1   -1    0    0  501    0  0.00000000000E+00  0.00000000000E+00 -0.22735041394E+04  0.22735041394E+04  0.50400001928E-02 0. -1.
    10030    2    1    2    0    0  0.00000000000E+00  0.00000000000E+00 -0.94342126370E+03  0.36035870152E+04  0.34779010474E+04 0.  0.
        2    1    3    3  502    0 -0.43227140541E+03 -0.14285872826E+04  0.45285280462E+03  0.15597422398E+04  0.25500000920E-02 0.  1.
       -2    1    3    3    0  502  0.43227140541E+03  0.14285872826E+04 -0.13962740683E+04  0.20438447754E+04  0.25500000920E-02 0. -1.
</event>
<event>
 5   0  0.1933647E-07  0.3487097E+04  0.7818609E-02  0.8116855E-01
        1   -1    0    0  501    0  0.00000000000E+00  0.00000000000E+00  0.18765250570E+04  0.18765250570E+04  0.50400001928E-02 0. -1.
       -1   -1    0    0    0  501  0.00000000000E+00  0.00000000000E+00 -0.16199953126E+04  0.16199953126E+04  0.50400001928E-02 0.  1.
    10030    2    1    2    0    0  0.00000000000E+00  0.00000000000E+00  0.25652974448E+03  0.34965203696E+04  0.34870972434E+04 0.  0.
        4    1    3    3  502    0  0.35151932412E+03  0.11494230712E+04  0.13946984787E+04  0.18411748128E+04  0.12699999809E+01 0. -1.
       -4    1    3    3    0  502 -0.35151932412E+03 -0.11494230712E+04 -0.11381687342E+04  0.16553455568E+04  0.12699999809E+01 0.  1.
</event>
<event>
 5   0  0.5573334E-07  0.3469454E+04  0.7818609E-02  0.8121067E-01
       -2   -1    0    0    0  501  0.00000000000E+00  0.00000000000E+00  0.12169973823E+04  0.12169973823E+04  0.25500000920E-02 0.  1.
        2   -1    0    0  501    0  0.00000000000E+00  0.00000000000E+00 -0.24727063673E+04  0.24727063673E+04  0.25500000920E-02 0. -1.
    10030    2    1    2    0    0  0.00000000000E+00  0.00000000000E+00 -0.12557089850E+04  0.36897037496E+04  0.34694536608E+04 0.  0.
        4    1    3    3  502    0 -0.14901150805E+03  0.11864371217E+04 -0.19643937203E+04  0.22997134114E+04  0.12699999809E+01 0. -1.
       -4    1    3    3    0  502  0.14901150805E+03 -0.11864371217E+04  0.70868473533E+03  0.13899903382E+04  0.12699999809E+01 0.  1.
</event>
<event>
 5   0  0.1823000E-07  0.3482478E+04  0.7818609E-02  0.8117955E-01
        3   -1    0    0  501    0  0.00000000000E+00  0.00000000000E+00  0.11423665592E+04  0.11423665636E+04  0.10100000352E+00 0. -1.
       -3   -1    0    0    0  501  0.00000000000E+00  0.00000000000E+00 -0.26540631513E+04  0.26540631532E+04  0.10100000352E+00 0.  1.
    10030    2    1    2    0    0  0.00000000000E+00  0.00000000000E+00 -0.15116965921E+04  0.37964297169E+04  0.34824778547E+04 0.  0.
        2    1    3    3  502    0  0.16565037879E+04 -0.18673424482E+03 -0.20746991617E+03  0.16798566140E+04  0.25500000920E-02 0. -1.
       -2    1    3    3    0  502 -0.16565037879E+04  0.18673424482E+03 -0.13042266760E+04  0.21165731029E+04  0.25500000920E-02 0.  1.
</event>
<event>
 5   0  0.1908190E-07  0.3499710E+04  0.7818609E-02  0.8113859E-01
       -1   -1    0    0    0  501  0.00000000000E+00  0.00000000000E+00  0.25812214525E+04  0.25812214525E+04  0.50400001928E-02 0.  1.
        1   -1    0    0  501    0  0.00000000000E+00  0.00000000000E+00 -0.11862570039E+04  0.11862570039E+04  0.50400001928E-02 0. -1.
    10030    2    1    2    0    0  0.00000000000E+00  0.00000000000E+00  0.13949644486E+04  0.37674784564E+04  0.34997097175E+04 0.  0.
        5    1    3    3  502    0 -0.11003587214E+04 -0.70011708015E+03  0.19533689798E+04  0.23487498170E+04  0.46999998093E+01 0.  1.
       -5    1    3    3    0  502  0.11003587214E+04  0.70011708015E+03 -0.55840453120E+03  0.14187286394E+04  0.46999998093E+01 0. -1.
</event>
<event>
 5   0  0.1908190E-07  0.3451891E+04  0.7818609E-02  0.8125287E-01
       -1   -1    0    0    0  501  0.00000000000E+00  0.00000000000E+00  0.19973448638E+04  0.19973448638E+04  0.50400001928E-02 0. -1.
        1   -1    0    0  501    0  0.00000000000E+00  0.00000000000E+00 -0.14914234848E+04  0.14914234848E+04  0.50400001928E-02 0.  1.
    10030    2    1    2    0    0  0.00000000000E+00  0.00000000000E+00  0.50592137899E+03  0.34887683487E+04  0.34518905181E+04 0.  0.
        5    1    3    3  502    0  0.56893711166E+03 -0.47969009714E+03 -0.13209407107E+04  0.15161459289E+04  0.46999998093E+01 0.  1.
       -5    1    3    3    0  502 -0.56893711166E+03  0.47969009714E+03  0.18268620897E+04  0.19726224198E+04  0.46999998093E+01 0. -1.
</event>
<event>
 5   0  0.5554745E-07  0.3432288E+04  0.7818609E-02  0.8130027E-01
       -2   -1    0    0    0  501  0.00000000000E+00  0.00000000000E+00  0.12956901092E+04  0.12956901092E+04  0.25500000920E-02 0.  1.
        2   -1    0    0  501    0  0.00000000000E+00  0.00000000000E+00 -0.22730363881E+04  0.22730363881E+04  0.25500000920E-02 0. -1.
    10030    2    1    2    0    0  0.00000000000E+00  0.00000000000E+00 -0.97734627890E+03  0.35687264972E+04  0.34322883129E+04 0.  0.
        5    1    3    3  502    0 -0.11879286441E+04  0.63843676421E+03 -0.15921588359E+04  0.20865684302E+04  0.46999998093E+01 0. -1.
       -5    1    3    3    0  502  0.11879286441E+04 -0.63843676421E+03  0.61481255695E+03  0.14821580670E+04  0.46999998093E+01 0.  1.
</event>
<event>
 5   0  0.5707187E-07  0.3492847E+04  0.7818609E-02  0.8115487E-01
       -2   -1    0    0    0  501  0.00000000000E+00  0.00000000000E+00  0.11202005485E+04  0.11202005485E+04  0.25500000920E-02 0.  1.
        2   -1    0    0  501    0  0.00000000000E+00  0.00000000000E+00 -0.27227216627E+04  0.27227216627E+04  0.25500000920E-02 0. -1.
    10030    2    1    2    0    0  0.00000000000E+00  0.00000000000E+00 -0.16025211142E+04  0.38429222112E+04  0.34928465755E+04 0.  0.
        1    1    3    3  502    0  0.12408473678E+04 -0.10577351695E+04 -0.11285947423E+03  0.16343938142E+04  0.50400001928E-02 0.  1.
       -1    1    3    3    0  502 -0.12408473678E+04  0.10577351695E+04 -0.14896616400E+04  0.22085283970E+04  0.50400001928E-02 0. -1.
</event>
<event>
 5   0  0.1897049E-07  0.3445713E+04  0.7818609E-02  0.8126777E-01
        1   -1    0    0  501    0  0.00000000000E+00  0.00000000000E+00  0.19362521693E+04  0.19362521694E+04  0.50400001928E-02 0. -1.
       -1   -1    0    0    0  501  0.00000000000E+00  0.00000000000E+00 -0.15329794824E+04  0.15329794824E+04  0.50400001928E-02 0.  1.
    10030    2    1    2    0    0  0.00000000000E+00  0.00000000000E+00  0.40327268691E+03  0.34692316518E+04  0.34457131909E+04 0.  0.
        2    1    3    3  502    0  0.36256076972E+03  0.10228864481E+04  0.15488605076E+04  0.18912207353E+04  0.25500000920E-02 0. -1.
       -2    1    3    3    0  502 -0.36256076972E+03 -0.10228864481E+04 -0.11455878207E+04  0.15780109165E+04  0.25500000920E-02 0.  1.
</event>
<event>
 5   0  0.5554745E-07  0.3509421E+04  0.7818609E-02  0.8111561E-01
       -2   -1    0    0    0  501  0.00000000000E+00  0.00000000000E+00  0.27402557790E+04  0.27402557790E+04  0.25500000920E-02 0. -1.
        2   -1    0    0  501    0  0.00000000000E+00  0.00000000000E+00 -0.11236207231E+04  0.11236207231E+04  0.25500000920E-02 0.  1.
    10030    2    1    2    0    0  0.00000000000E+00  0.00000000000E+00  0.16166350558E+04  0.38638765021E+04  0.35094205675E+04 0.  0.
        5    1    3    3  502    0  0.98028277747E+03  0.98850632728E+03  0.19843224436E+04  0.24239753986E+04  0.46999998093E+01 0. -1.
       -5    1    3    3    0  502 -0.98028277747E+03 -0.98850632728E+03 -0.36768738773E+03  0.14399011035E+04  0.46999998093E+01 0.  1.
</event>
<event>
 5   0  0.5707187E-07  0.3308363E+04  0.7818609E-02  0.8160771E-01
        2   -1    0    0  501    0  0.00000000000E+00  0.00000000000E+00  0.25712576684E+04  0.25712576684E+04  0.25500000920E-02 0. -1.
       -2   -1    0    0    0  501  0.00000000000E+00  0.00000000000E+00 -0.10641936804E+04  0.10641936804E+04  0.25500000920E-02 0.  1.
    10030    2    1    2    0    0  0.00000000000E+00  0.00000000000E+00  0.15070639880E+04  0.36354513487E+04  0.33083628345E+04 0.  0.
        1    1    3    3  502    0 -0.28716410760E+03 -0.48123292613E+03  0.24637689327E+04  0.25266985787E+04  0.50400001928E-02 0. -1.
       -1    1    3    3    0  502  0.28716410760E+03  0.48123292613E+03 -0.95670494467E+03  0.11087527700E+04  0.50400001928E-02 0.  1.
</event>
<event>
 5   0  0.5707187E-07  0.3472129E+04  0.7818609E-02  0.8120427E-01
        2   -1    0    0  501    0  0.00000000000E+00  0.00000000000E+00  0.25063133452E+04  0.25063133452E+04  0.25500000920E-02 0. -1.
       -2   -1    0    0    0  501  0.00000000000E+00  0.00000000000E+00 -0.12025312827E+04  0.12025312827E+04  0.25500000920E-02 0.  1.
    10030    2    1    2    0    0  0.00000000000E+00  0.00000000000E+00  0.13037820625E+04  0.37088446279E+04  0.34721291461E+04 0.  0.
        1    1    3    3  502    0 -0.85141375433E+03 -0.70857466345E+03  0.20797896124E+04  0.23563760877E+04  0.50400001928E-02 0. -1.
       -1    1    3    3    0  502  0.85141375433E+03  0.70857466345E+03 -0.77600754986E+03  0.13524685402E+04  0.50400001928E-02 0.  1.
</event>
<event>
 5   0  0.5677193E-07  0.3272317E+04  0.7818609E-02  0.8169975E-01
        2   -1    0    0  501    0  0.00000000000E+00  0.00000000000E+00  0.23791325015E+04  0.23791325015E+04  0.25500000920E-02 0. -1.
       -2   -1    0    0    0  501  0.00000000000E+00  0.00000000000E+00 -0.11252065391E+04  0.11252065391E+04  0.25500000920E-02 0.  1.
    10030    2    1    2    0    0  0.00000000000E+00  0.00000000000E+00  0.12539259624E+04  0.35043390406E+04  0.32723174957E+04 0.  0.
        3    1    3    3  502    0 -0.50692756205E+03  0.92098120689E+03  0.19695855807E+04  0.22325880288E+04  0.10100000352E+00 0. -1.
       -3    1    3    3    0  502  0.50692756205E+03 -0.92098120689E+03 -0.71565961828E+03  0.12717510118E+04  0.10100000352E+00 0.  1.
</event>
<event>
 5   0  0.1933647E-07  0.3502880E+04  0.7818609E-02  0.8113108E-01
        1   -1    0    0  501    0  0.00000000000E+00  0.00000000000E+00  0.14849815534E+04  0.14849815534E+04  0.50400001928E-02 0. -1.
       -1   -1    0    0    0  501  0.00000000000E+00  0.00000000000E+00 -0.20657102563E+04  0.20657102563E+04  0.50400001928E-02 0.  1.
    10030    2    1    2    0    0  0.00000000000E+00  0.00000000000E+00 -0.58072870292E+03  0.35506918098E+04  0.35028797441E+04 0.  0.
        4    1    3    3  502    0  0.39186601214E+02  0.45265617582E+03  0.14242039324E+04  0.14949219569E+04  0.12699999809E+01 0. -1.
       -4    1    3    3    0  502 -0.39186601214E+02 -0.45265617582E+03 -0.20049326353E+04  0.20557698529E+04  0.12699999809E+01 0.  1.
</event>
<event>
 5   0  0.1933647E-07  0.3431650E+04  0.7818609E-02  0.8130182E-01
        1   -1    0    0  501    0  0.00000000000E+00  0.00000000000E+00  0.19137101342E+04  0.19137101343E+04  0.50400001928E-02 0. -1.
       -1   -1    0    0    0  501  0.00000000000E+00  0.00000000000E+00 -0.15384022161E+04  0.15384022162E+04  0.50400001928E-02 0.  1.
    10030    2    1    2    0    0  0.00000000000E+00  0.00000000000E+00  0.37530791810E+03  0.34521123504E+04  0.34316502803E+04 0.  0.
        4    1    3    3  502    0  0.55459423196E+02 -0.14833892590E+04 -0.67802059524E+03  0.16319414762E+04  0.12699999809E+01 0.  1.
       -4    1    3    3    0  502 -0.55459423196E+02  0.14833892590E+04  0.10533285133E+04  0.18201708742E+04  0.12699999809E+01 0. -1.
</event>
<event>
 5   0  0.1866421E-07  0.3499990E+04  0.7818609E-02  0.8113792E-01
        1   -1    0    0  501    0  0.00000000000E+00  0.00000000000E+00  0.19106987280E+04  0.19106987280E+04  0.50400001928E-02 0. -1.
       -1   -1    0    0    0  501  0.00000000000E+00  0.00000000000E+00 -0.16028077634E+04  0.16028077634E+04  0.50400001928E-02 0.  1.
    10030    2    1    2    0    0  0.00000000000E+00  0.00000000000E+00  0.30789096468E+03  0.35135064914E+04  0.34999901456E+04 0.  0.
        1    1    3    3  502    0  0.78000166833E+03  0.42277814016E+01  0.17265398961E+04  0.18945607643E+04  0.50400001928E-02 0. -1.
       -1    1    3    3    0  502 -0.78000166833E+03 -0.42277814016E+01 -0.14186489314E+04  0.16189457271E+04  0.50400001928E-02 0.  1.
</event>
<event>
 5   0  0.5554745E-07  0.3503655E+04  0.7818609E-02  0.8112924E-01
       -2   -1    0    0    0  501  0.00000000000E+00  0.00000000000E+00  0.18574192056E+04  0.18574192056E+04  0.25500000920E-02 0. -1.
        2   -1    0    0  501    0  0.00000000000E+00  0.00000000000E+00 -0.16522382212E+04  0.16522382212E+04  0.25500000920E-02 0.  1.
    10030    2    1    2    0    0  0.00000000000E+00  0.00000000000E+00  0.20518098443E+03  0.35096574268E+04  0.35036546658E+04 0.  0.
        5    1    3    3  502    0 -0.76605168200E+03 -0.78500646788E+03  0.14708760531E+04  0.18348211868E+04  0.46999998093E+01 0. -1.
       -5    1    3    3    0  502  0.76605168200E+03  0.78500646788E+03 -0.12656950686E+04  0.16748362400E+04  0.46999998093E+01 0.  1.
</event>
<event>
 5   0  0.1873457E-07  0.3493211E+04  0.7818609E-02  0.8115401E-01
       -1   -1    0    0    0  501  0.00000000000E+00  0.00000000000E+00  0.20375508768E+04  0.20375508768E+04  0.50400001928E-02 0. -1.
        1   -1    0    0  501    0  0.00000000000E+00  0.00000000000E+00 -0.14972046710E+04  0.14972046710E+04  0.50400001928E-02 0.  1.
    10030    2    1    2    0    0  0.00000000000E+00  0.00000000000E+00  0.54034620581E+03  0.35347555478E+04  0.34932109527E+04 0.  0.
        3    1    3    3  502    0 -0.15485799962E+04  0.24640392196E+03  0.10486179406E+04  0.18863760211E+04  0.10100000352E+00 0. -1.
       -3    1    3    3    0  502  0.15485799962E+04 -0.24640392196E+03 -0.50827173479E+03  0.16483795267E+04  0.10100000352E+00 0.  1.
</event>
<event>
 5   0  0.5554745E-07  0.3494673E+04  0.7818609E-02  0.8115054E-01
       -2   -1    0    0    0  501  0.00000000000E+00  0.00000000000E+00  0.24366921279E+04  0.24366921279E+04  0.25500000920E-02 0.  1.
        2   -1    0    0  501    0  0.00000000000E+00  0.00000000000E+00 -0.12530038061E+04  0.12530038061E+04  0.25500000920E-02 0. -1.
    10030    2    1    2    0    0  0.00000000000E+00  0.00000000000E+00  0.11836883219E+04  0.36896959340E+04  0.34946728090E+04 0.  0.
        5    1    3    3  502    0 -0.87342296118E+03 -0.13238785198E+04 -0.18231456110E+03  0.15964907433E+04  0.46999998093E+01 0. -1.
       -5    1    3    3    0  502  0.87342296118E+03  0.13238785198E+04  0.13660028830E+04  0.20932051907E+04  0.46999998093E+01 0.  1.
</event>
<event>
 5   0  0.5707187E-07  0.3494615E+04  0.7818609E-02  0.8115067E-01
        2   -1    0    0  501    0  0.00000000000E+00  0.00000000000E+00  0.16751995005E+04  0.16751995005E+04  0.25500000920E-02 0. -1.
       -2   -1    0    0    0  501  0.00000000000E+00  0.00000000000E+00 -0.18225197136E+04  0.18225197136E+04  0.25500000920E-02 0.  1.
    10030    2    1    2    0    0  0.00000000000E+00  0.00000000000E+00 -0.14732021309E+03  0.34977192141E+04  0.34946153516E+04 0.  0.
        1    1    3    3  502    0 -0.17213099738E+04 -0.28619193964E+03  0.17361644801E+02  0.17450258677E+04  0.50400001928E-02 0. -1.
       -1    1    3    3    0  502  0.17213099738E+04  0.28619193964E+03 -0.16468185790E+03  0.17526933464E+04  0.50400001928E-02 0.  1.
</event>
<event>
 5   0  0.5573334E-07  0.3738862E+04  0.7818609E-02  0.8059404E-01
        2   -1    0    0  501    0  0.00000000000E+00  0.00000000000E+00  0.22862825441E+04  0.22862825441E+04  0.25500000920E-02 0.  1.
       -2   -1    0    0    0  501  0.00000000000E+00  0.00000000000E+00 -0.15285827535E+04  0.15285827535E+04  0.25500000920E-02 0. -1.
    10030    2    1    2    0    0  0.00000000000E+00  0.00000000000E+00  0.75769979058E+03  0.38148652976E+04  0.37388618945E+04 0.  0.
        4    1    3    3  502    0  0.60896672159E+03 -0.69939471056E+03  0.20350458441E+04  0.22363824873E+04  0.12699999809E+01 0.  1.
       -4    1    3    3    0  502 -0.60896672159E+03  0.69939471056E+03 -0.12773460535E+04  0.15784828103E+04  0.12699999809E+01 0. -1.
</event>
<event>
 5   0  0.5554745E-07  0.3481809E+04  0.7818609E-02  0.8118115E-01
        2   -1    0    0  501    0  0.00000000000E+00  0.00000000000E+00  0.23502755136E+04  0.23502755137E+04  0.25500000920E-02 0.  1.
       -2   -1    0    0    0  501  0.00000000000E+00  0.00000000000E+00 -0.12895291002E+04  0.12895291002E+04  0.25500000920E-02 0. -1.
    10030    2    1    2    0    0  0.00000000000E+00  0.00000000000E+00  0.10607464135E+04  0.36398046138E+04  0.34818091092E+04 0.  0.
        5    1    3    3  502    0 -0.36481801181E+03 -0.12862009000E+04 -0.63526791602E+03  0.14802001054E+04  0.46999998093E+01 0. -1.
       -5    1    3    3    0  502  0.36481801181E+03  0.12862009000E+04  0.16960143295E+04  0.21596045084E+04  0.46999998093E+01 0.  1.
</event>
<event>
 5   0  0.1933647E-07  0.3490933E+04  0.7818609E-02  0.8115942E-01
       -1   -1    0    0    0  501  0.00000000000E+00  0.00000000000E+00  0.13050454003E+04  0.13050454003E+04  0.50400001928E-02 0.  1.
        1   -1    0    0  501    0  0.00000000000E+00  0.00000000000E+00 -0.23345189717E+04  0.23345189718E+04  0.50400001928E-02 0. -1.
    10030    2    1    2    0    0  0.00000000000E+00  0.00000000000E+00 -0.10294735714E+04  0.36395643721E+04  0.34909329676E+04 0.  0.
        4    1    3    3  502    0 -0.11004301219E+04  0.50709097903E+03  0.79516574563E+03  0.14492680532E+04  0.12699999809E+01 0.  1.
       -4    1    3    3    0  502  0.11004301219E+04 -0.50709097903E+03 -0.18246393170E+04  0.21902963189E+04  0.12699999809E+01 0. -1.
</event>
<event>
 5   0  0.5707187E-07  0.3485912E+04  0.7818609E-02  0.8117137E-01
        2   -1    0    0  501    0  0.00000000000E+00  0.00000000000E+00  0.21862100828E+04  0.21862100828E+04  0.25500000920E-02 0.  1.
       -2   -1    0    0    0  501  0.00000000000E+00  0.00000000000E+00 -0.13895719261E+04  0.13895719261E+04  0.25500000920E-02 0. -1.
    10030    2    1    2    0    0  0.00000000000E+00  0.00000000000E+00  0.79663815665E+03  0.35757820089E+04  0.34859123085E+04 0.  0.
        1    1    3    3  502    0  0.89661514324E+02 -0.45607413032E+03 -0.13248258161E+04  0.14039965251E+04  0.50400001928E-02 0. -1.
       -1    1    3    3    0  502 -0.89661514324E+02  0.45607413032E+03  0.21214639728E+04  0.21717854837E+04  0.50400001928E-02 0.  1.
</event>
<event>
 5   0  0.1933647E-07  0.3525120E+04  0.7818609E-02  0.8107862E-01
       -1   -1    0    0    0  501  0.00000000000E+00  0.00000000000E+00  0.12655081628E+04  0.12655081628E+04  0.50400001928E-02 0. -1.
        1   -1    0    0  501    0  0.00000000000E+00  0.00000000000E+00 -0.24548386717E+04  0.24548386717E+04  0.50400001928E-02 0.  1.
    10030    2    1    2    0    0  0.00000000000E+00  0.00000000000E+00 -0.11893305090E+04  0.37203468345E+04  0.35251203539E+04 0.  0.
        4    1    3    3  502    0 -0.33768556532E+03 -0.17089692233E+04 -0.87787234924E+03  0.19507098250E+04  0.12699999809E+01 0.  1.
       -4    1    3    3    0  502  0.33768556532E+03  0.17089692233E+04 -0.31145815975E+03  0.17696370095E+04  0.12699999809E+01 0. -1.
</event>
<event>
 5   0  0.1897049E-07  0.3555557E+04  0.7818609E-02  0.8100748E-01
        1   -1    0    0  501    0  0.00000000000E+00  0.00000000000E+00  0.26772882261E+04  0.26772882261E+04  0.50400001928E-02 0.  1.
       -1   -1    0    0    0  501  0.00000000000E+00  0.00000000000E+00 -0.11804843847E+04  0.11804843847E+04  0.50400001928E-02 0. -1.
    10030    2    1    2    0    0  0.00000000000E+00  0.00000000000E+00  0.14968038414E+04  0.38577726109E+04  0.35555573090E+04 0.  0.
        2    1    3    3  502    0 -0.54968446401E+03  0.14237611008E+04 -0.24082133466E+03  0.15450707419E+04  0.25500000920E-02 0.  1.
       -2    1    3    3    0  502  0.54968446401E+03 -0.14237611008E+04  0.17376251761E+04  0.23127018690E+04  0.25500000920E-02 0. -1.
</event>
<event>
 5   0  0.1897049E-07  0.3502569E+04  0.7818609E-02  0.8113181E-01
        1   -1    0    0  501    0  0.00000000000E+00  0.00000000000E+00  0.18354392092E+04  0.18354392092E+04  0.50400001928E-02 0.  1.
       -1   -1    0    0    0  501  0.00000000000E+00  0.00000000000E+00 -0.16709879870E+04  0.16709879870E+04  0.50400001928E-02 0. -1.
    10030    2    1    2    0    0  0.00000000000E+00  0.00000000000E+00  0.16445122213E+03  0.35064271962E+04  0.35025686971E+04 0.  0.
        2    1    3    3  502    0  0.16200735863E+04 -0.57278242711E+03 -0.25619817328E+03  0.17373415432E+04  0.25500000920E-02 0.  1.
       -2    1    3    3    0  502 -0.16200735863E+04  0.57278242711E+03  0.42064939541E+03  0.17690856530E+04  0.25500000920E-02 0. -1.
</event>
<event>
 5   0  0.1866421E-07  0.3518493E+04  0.7818609E-02  0.8109421E-01
        1   -1    0    0  501    0  0.00000000000E+00  0.00000000000E+00  0.29751436415E+04  0.29751436416E+04  0.50400001928E-02 0.  1.
       -1   -1    0    0    0  501  0.00000000000E+00  0.00000000000E+00 -0.10402687273E+04  0.10402687273E+04  0.50400001928E-02 0. -1.
    10030    2    1    2    0    0  0.00000000000E+00  0.00000000000E+00  0.19348749142E+04  0.40154123689E+04  0.35184933648E+04 0.  0.
        1    1    3    3  502    0 -0.88361690147E+03  0.88899800483E+03  0.23762230365E+04  0.26865465193E+04  0.50400001928E-02 0.  1.
       -1    1    3    3    0  502  0.88361690147E+03 -0.88899800483E+03 -0.44134812224E+03  0.13288658496E+04  0.50400001928E-02 0. -1.
</event>
<event>
 5   0  0.1933647E-07  0.3514779E+04  0.7818609E-02  0.8110296E-01
        1   -1    0    0  501    0  0.00000000000E+00  0.00000000000E+00  0.25336468798E+04  0.25336468798E+04  0.50400001928E-02 0.  1.
       -1   -1    0    0    0  501  0.00000000000E+00  0.00000000000E+00 -0.12189613489E+04  0.12189613489E+04  0.50400001928E-02 0. -1.
    10030    2    1    2    0    0  0.00000000000E+00  0.00000000000E+00  0.13146855308E+04  0.37526082287E+04  0.35147788655E+04 0.  0.
        4    1    3    3  502    0 -0.15443689379E+03 -0.13082104892E+03 -0.12064756281E+04  0.12233355856E+04  0.12699999809E+01 0. -1.
       -4    1    3    3    0  502  0.15443689379E+03  0.13082104892E+03  0.25211611589E+04  0.25292726431E+04  0.12699999809E+01 0.  1.
</event>
<event>
 5   0  0.5573334E-07  0.3522046E+04  0.7818609E-02  0.8108585E-01
        2   -1    0    0  501    0  0.00000000000E+00  0.00000000000E+00  0.25932615930E+04  0.25932615930E+04  0.25500000920E-02 0.  1.
       -2   -1    0    0    0  501  0.00000000000E+00  0.00000000000E+00 -0.11958690882E+04  0.11958690882E+04  0.25500000920E-02 0. -1.
    10030    2    1    2    0    0  0.00000000000E+00  0.00000000000E+00  0.13973925049E+04  0.37891306812E+04  0.35220456423E+04 0.  0.
        4    1    3    3  502    0  0.12048878713E+04  0.11959391797E+04  0.12023587055E+04  0.20803108839E+04  0.12699999809E+01 0.  1.
       -4    1    3    3    0  502 -0.12048878713E+04 -0.11959391797E+04  0.19503379938E+03  0.17088197973E+04  0.12699999809E+01 0. -1.
</event>
<event>
 5   0  0.5573334E-07  0.3509514E+04  0.7818609E-02  0.8111539E-01
       -2   -1    0    0    0  501  0.00000000000E+00  0.00000000000E+00  0.14936319116E+04  0.14936319116E+04  0.25500000920E-02 0. -1.
        2   -1    0    0  501    0  0.00000000000E+00  0.00000000000E+00 -0.20615333576E+04  0.20615333576E+04  0.25500000920E-02 0.  1.
    10030    2    1    2    0    0  0.00000000000E+00  0.00000000000E+00 -0.56790144605E+03  0.35551652692E+04  0.35095139320E+04 0.  0.
        4    1    3    3  502    0  0.15153249707E+04  0.59084752531E+03 -0.95119912987E+03  0.18841687723E+04  0.12699999809E+01 0.  1.
       -4    1    3    3    0  502 -0.15153249707E+04 -0.59084752531E+03  0.38329768382E+03  0.16709964968E+04  0.12699999809E+01 0. -1.
</event>
<event>
 5   0  0.1908190E-07  0.3490120E+04  0.7818609E-02  0.8116135E-01
        1   -1    0    0  501    0  0.00000000000E+00  0.00000000000E+00  0.19637264217E+04  0.19637264217E+04  0.50400001928E-02 0.  1.
       -1   -1    0    0    0  501  0.00000000000E+00  0.00000000000E+00 -0.15507422910E+04  0.15507422910E+04  0.50400001928E-02 0. -1.
    10030    2    1    2    0    0  0.00000000000E+00  0.00000000000E+00  0.41298413072E+03  0.35144687127E+04  0.34901195453E+04 0.  0.
        5    1    3    3  502    0  0.16182368805E+04 -0.57479769700E+03 -0.10571700795E+03  0.17205467648E+04  0.46999998093E+01 0. -1.
       -5    1    3    3    0  502 -0.16182368805E+04  0.57479769700E+03  0.51870113867E+03  0.17939219479E+04  0.46999998093E+01 0.  1.
</event>
<event>
 5   0  0.5740827E-07  0.3502230E+04  0.7818609E-02  0.8113262E-01
       -2   -1    0    0    0  501  0.00000000000E+00  0.00000000000E+00  0.14519815715E+04  0.14519815715E+04  0.25500000920E-02 0. -1.
        2   -1    0    0  501    0  0.00000000000E+00  0.00000000000E+00 -0.21118747905E+04  0.21118747905E+04  0.25500000920E-02 0.  1.
    10030    2    1    2    0    0  0.00000000000E+00  0.00000000000E+00 -0.65989321902E+03  0.35638563620E+04  0.35022297338E+04 0.  0.
        2    1    3    3  502    0  0.43777849098E+02  0.14081148008E+04  0.72840231415E+03  0.15859614508E+04  0.25500000920E-02 0. -1.
       -2    1    3    3    0  502 -0.43777849098E+02 -0.14081148008E+04 -0.13882955332E+04  0.19778949112E+04  0.25500000920E-02 0.  1.
</event>
<event>
 5   0  0.1908190E-07  0.3547825E+04  0.7818609E-02  0.8102549E-01
        1   -1    0    0  501    0  0.00000000000E+00  0.00000000000E+00  0.19941904947E+04  0.19941904947E+04  0.50400001928E-02 0.  1.
       -1   -1    0    0    0  501  0.00000000000E+00  0.00000000000E+00 -0.15779663533E+04  0.15779663533E+04  0.50400001928E-02 0. -1.
    10030    2    1    2    0    0  0.00000000000E+00  0.00000000000E+00  0.41622414142E+03  0.35721568481E+04  0.35478249691E+04 0.  0.
        5    1    3    3  502    0 -0.14109067700E+04 -0.61604662085E+03  0.10953890516E+04  0.18894630500E+04  0.46999998093E+01 0.  1.
       -5    1    3    3    0  502  0.14109067700E+04  0.61604662085E+03 -0.67916491020E+03  0.16826937981E+04  0.46999998093E+01 0. -1.
</event>
<event>
 5   0  0.5707187E-07  0.3485417E+04  0.7818609E-02  0.8117255E-01
       -2   -1    0    0    0  501  0.00000000000E+00  0.00000000000E+00  0.19111503661E+04  0.19111503661E+04  0.25500000920E-02 0. -1.
        2   -1    0    0  501    0  0.00000000000E+00  0.00000000000E+00 -0.15891122674E+04  0.15891122674E+04  0.25500000920E-02 0.  1.
    10030    2    1    2    0    0  0.00000000000E+00  0.00000000000E+00  0.32203809875E+03  0.35002626335E+04  0.34854167565E+04 0.  0.
        1    1    3    3  502    0 -0.16192134554E+04  0.29211831104E+02 -0.48540500167E+03  0.16906577303E+04  0.50400001928E-02 0. -1.
       -1    1    3    3    0  502  0.16192134554E+04 -0.29211831104E+02  0.80744310042E+03  0.18096049032E+04  0.50400001928E-02 0.  1.
</event>
<event>
 5   0  0.5573334E-07  0.3502222E+04  0.7818609E-02  0.8113264E-01
       -2   -1    0    0    0  501  0.00000000000E+00  0.00000000000E+00  0.20930133807E+04  0.20930133807E+04  0.25500000920E-02 0.  1.
        2   -1    0    0  501    0  0.00000000000E+00  0.00000000000E+00 -0.14650596891E+04  0.14650596891E+04  0.25500000920E-02 0. -1.
    10030    2    1    2    0    0  0.00000000000E+00  0.00000000000E+00  0.62795369150E+03  0.35580730698E+04  0.35022218849E+04 0.  0.
        4    1    3    3  502    0  0.78353273653E+02  0.15087633910E+03 -0.14566550251E+04  0.14665430032E+04  0.12699999809E+01 0. -1.
       -4    1    3    3    0  502 -0.78353273653E+02 -0.15087633910E+03  0.20846087166E+04  0.20915300666E+04  0.12699999809E+01 0.  1.
</event>
<event>
 5   0  0.1908190E-07  0.3531764E+04  0.7818609E-02  0.8106303E-01
       -1   -1    0    0    0  501  0.00000000000E+00  0.00000000000E+00  0.20368119687E+04  0.20368119687E+04  0.50400001928E-02 0. -1.
        1   -1    0    0  501    0  0.00000000000E+00  0.00000000000E+00 -0.15309905235E+04  0.15309905235E+04  0.50400001928E-02 0.  1.
    10030    2    1    2    0    0  0.00000000000E+00  0.00000000000E+00  0.50582144526E+03  0.35678024922E+04  0.35317643308E+04 0.  0.
        5    1    3    3  502    0  0.14752754278E+04  0.93739139357E+03 -0.10054562529E+01  0.17479025469E+04  0.46999998093E+01 0. -1.
       -5    1    3    3    0  502 -0.14752754278E+04 -0.93739139357E+03  0.50682690151E+03  0.18198999452E+04  0.46999998093E+01 0.  1.
</event>
<event>
 5   0  0.5573334E-07  0.3497417E+04  0.7818609E-02  0.8114402E-01
       -2   -1    0    0    0  501  0.00000000000E+00  0.00000000000E+00  0.10993916802E+04  0.10993916802E+04  0.25500000920E-02 0.  1.
        2   -1    0    0  501    0  0.00000000000E+00  0.00000000000E+00 -0.27815211502E+04  0.27815211502E+04  0.25500000920E-02 0. -1.
    10030    2    1    2    0    0  0.00000000000E+00  0.00000000000E+00 -0.16821294700E+04  0.38809128304E+04  0.34974168815E+04 0.  0.
        4    1    3    3  502    0 -0.11966061582E+04  0.89339695986E+03 -0.18507590195E+04  0.23780948230E+04  0.12699999809E+01 0. -1.
       -4    1    3    3    0  502  0.11966061582E+04 -0.89339695986E+03  0.16862954949E+03  0.15028180075E+04  0.12699999809E+01 0.  1.
</event>
<event>
 5   0  0.5554745E-07  0.3476023E+04  0.7818609E-02  0.8119496E-01
        2   -1    0    0  501    0  0.00000000000E+00  0.00000000000E+00  0.12745732458E+04  0.12745732458E+04  0.25500000920E-02 0.  1.
       -2   -1    0    0    0  501  0.00000000000E+00  0.00000000000E+00 -0.23699576870E+04  0.23699576870E+04  0.25500000920E-02 0. -1.
    10030    2    1    2    0    0  0.00000000000E+00  0.00000000000E+00 -0.10953844411E+04  0.36445309328E+04  0.34760233955E+04 0.  0.
        5    1    3    3  502    0 -0.13756389881E+04 -0.17468934851E+03  0.55084141376E+03  0.14920949525E+04  0.46999998093E+01 0.  1.
       -5    1    3    3    0  502  0.13756389881E+04  0.17468934851E+03 -0.16462258549E+04  0.21524359803E+04  0.46999998093E+01 0. -1.
</event>
<event>
 5   0  0.5707187E-07  0.3498364E+04  0.7818609E-02  0.8114178E-01
        2   -1    0    0  501    0  0.00000000000E+00  0.00000000000E+00  0.17179430105E+04  0.17179430105E+04  0.25500000920E-02 0. -1.
       -2   -1    0    0    0  501  0.00000000000E+00  0.00000000000E+00 -0.17809890696E+04  0.17809890696E+04  0.25500000920E-02 0.  1.
    10030    2    1    2    0    0  0.00000000000E+00  0.00000000000E+00 -0.63046059124E+02  0.34989320801E+04  0.34983640313E+04 0.  0.
        1    1    3    3  502    0  0.64144872725E+03  0.48377738035E+03  0.15224797886E+04  0.17214649954E+04  0.50400001928E-02 0. -1.
       -1    1    3    3    0  502 -0.64144872725E+03 -0.48377738035E+03 -0.15855258478E+04  0.17774670848E+04  0.50400001928E-02 0.  1.
</event>
<event>
 5   0  0.1933647E-07  0.3500219E+04  0.7818609E-02  0.8113738E-01
        1   -1    0    0  501    0  0.00000000000E+00  0.00000000000E+00  0.17047958038E+04  0.17047958038E+04  0.50400001928E-02 0. -1.
       -1   -1    0    0    0  501  0.00000000000E+00  0.00000000000E+00 -0.17966272803E+04  0.17966272803E+04  0.50400001928E-02 0.  1.
    10030    2    1    2    0    0  0.00000000000E+00  0.00000000000E+00 -0.91831476532E+02  0.35014230841E+04  0.35002186495E+04 0.  0.
        4    1    3    3  502    0 -0.49447732165E+03 -0.12229621108E+04  0.11045830061E+04  0.17205375254E+04  0.12699999809E+01 0. -1.
       -4    1    3    3    0  502  0.49447732165E+03  0.12229621108E+04 -0.11964144827E+04  0.17808855587E+04  0.12699999809E+01 0.  1.
</event>
<event>
 5   0  0.5707187E-07  0.3499786E+04  0.7818609E-02  0.8113841E-01
        2   -1    0    0  501    0  0.00000000000E+00  0.00000000000E+00  0.21942318425E+04  0.21942318425E+04  0.25500000920E-02 0. -1.
       -2   -1    0    0    0  501  0.00000000000E+00  0.00000000000E+00 -0.13955343360E+04  0.13955343360E+04  0.25500000920E-02 0.  1.
    10030    2    1    2    0    0  0.00000000000E+00  0.00000000000E+00  0.79869750654E+03  0.35897661785E+04  0.34997862091E+04 0.  0.
        1    1    3    3  502    0 -0.30517710429E+02 -0.19190109839E+03  0.21831316689E+04  0.21917621326E+04  0.50400001928E-02 0. -1.
       -1    1    3    3    0  502  0.30517710429E+02  0.19190109839E+03 -0.13844341624E+04  0.13980040458E+04  0.50400001928E-02 0.  1.
</event>
<event>
 5   0  0.1897049E-07  0.3446401E+04  0.7818609E-02  0.8126611E-01
        1   -1    0    0  501    0  0.00000000000E+00  0.00000000000E+00  0.22599740638E+04  0.22599740638E+04  0.50400001928E-02 0. -1.
       -1   -1    0    0    0  501  0.00000000000E+00  0.00000000000E+00 -0.13139178898E+04  0.13139178898E+04  0.50400001928E-02 0.  1.
    10030    2    1    2    0    0  0.00000000000E+00  0.00000000000E+00  0.94605617398E+03  0.35738919536E+04  0.34464012261E+04 0.  0.
        2    1    3    3  502    0  0.12114331115E+04 -0.12036310345E+04  0.71203741117E+03  0.18502148863E+04  0.25500000920E-02 0. -1.
       -2    1    3    3    0  502 -0.12114331115E+04  0.12036310345E+04  0.23401876280E+03  0.17236770672E+04  0.25500000920E-02 0.  1.
</event>
<event>
 5   0  0.5677193E-07  0.3290453E+04  0.7818609E-02  0.8165329E-01
        2   -1    0    0  501    0  0.00000000000E+00  0.00000000000E+00  0.13876650259E+04  0.13876650259E+04  0.25500000920E-02 0.  1.
       -2   -1    0    0    0  501  0.00000000000E+00  0.00000000000E+00 -0.19505933129E+04  0.19505933129E+04  0.25500000920E-02 0. -1.
    10030    2    1    2    0    0  0.00000000000E+00  0.00000000000E+00 -0.56292828700E+03  0.33382583389E+04  0.32904529294E+04 0.  0.
        3    1    3    3  502    0 -0.10802141934E+04  0.50649458107E+02  0.97644568836E+03  0.14570086698E+04  0.10100000352E+00 0.  1.
       -3    1    3    3    0  502  0.10802141934E+04 -0.50649458107E+02 -0.15393739754E+04  0.18812496691E+04  0.10100000352E+00 0. -1.
</event>
<event>
 5   0  0.1933647E-07  0.3526685E+04  0.7818609E-02  0.8107495E-01
       -1   -1    0    0    0  501  0.00000000000E+00  0.00000000000E+00  0.31924681180E+04  0.31924681180E+04  0.50400001928E-02 0. -1.
        1   -1    0    0  501    0  0.00000000000E+00  0.00000000000E+00 -0.97397293409E+03  0.97397293410E+03  0.50400001928E-02 0.  1.
    10030    2    1    2    0    0  0.00000000000E+00  0.00000000000E+00  0.22184951839E+04  0.41664410521E+04  0.35266854353E+04 0.  0.
        4    1    3    3  502    0 -0.71786461488E+02 -0.16271556627E+04  0.19075369260E+04  0.25082837925E+04  0.12699999809E+01 0. -1.
       -4    1    3    3    0  502  0.71786461488E+02  0.16271556627E+04  0.31095825798E+03  0.16581572597E+04  0.12699999809E+01 0.  1.
</event>
<event>
 5   0  0.1866421E-07  0.3526648E+04  0.7818609E-02  0.8107504E-01
        1   -1    0    0  501    0  0.00000000000E+00  0.00000000000E+00  0.17804050758E+04  0.17804050758E+04  0.50400001928E-02 0. -1.
       -1   -1    0    0    0  501  0.00000000000E+00  0.00000000000E+00 -0.17464069562E+04  0.17464069562E+04  0.50400001928E-02 0.  1.
    10030    2    1    2    0    0  0.00000000000E+00  0.00000000000E+00  0.33998119647E+02  0.35268120320E+04  0.35266481590E+04 0.  0.
        1    1    3    3  502    0  0.80831099600E+03  0.64983906620E+03  0.14431278518E+04  0.17771537567E+04  0.50400001928E-02 0. -1.
       -1    1    3    3    0  502 -0.80831099600E+03 -0.64983906620E+03 -0.14091297322E+04  0.17496582753E+04  0.50400001928E-02 0.  1.
</event>
<event>
 5   0  0.5707187E-07  0.3518456E+04  0.7818609E-02  0.8109430E-01
        2   -1    0    0  501    0  0.00000000000E+00  0.00000000000E+00  0.16351098554E+04  0.16351098554E+04  0.25500000920E-02 0. -1.
       -2   -1    0    0    0  501  0.00000000000E+00  0.00000000000E+00 -0.18927682047E+04  0.18927682047E+04  0.25500000920E-02 0.  1.
    10030    2    1    2    0    0  0.00000000000E+00  0.00000000000E+00 -0.25765834935E+03  0.35278780601E+04  0.35184564488E+04 0.  0.
        1    1    3    3  502    0  0.94169154047E+03 -0.10490813088E+04  0.92638111309E+03  0.16868718139E+04  0.50400001928E-02 0. -1.
       -1    1    3    3    0  502 -0.94169154047E+03  0.10490813088E+04 -0.11840394624E+04  0.18410062462E+04  0.50400001928E-02 0.  1.
</event>
<event>
 5   0  0.5573334E-07  0.3507891E+04  0.7818609E-02  0.8111922E-01
       -2   -1    0    0    0  501  0.00000000000E+00  0.00000000000E+00  0.15922147823E+04  0.15922147823E+04  0.25500000920E-02 0. -1.
        2   -1    0    0  501    0  0.00000000000E+00  0.00000000000E+00 -0.19321045239E+04  0.19321045239E+04  0.25500000920E-02 0.  1.
    10030    2    1    2    0    0  0.00000000000E+00  0.00000000000E+00 -0.33988974153E+03  0.35243193062E+04  0.35078913233E+04 0.  0.
        4    1    3    3  502    0  0.25954976773E+03  0.38294441476E+03 -0.18697046506E+04  0.19260866024E+04  0.12699999809E+01 0.  1.
       -4    1    3    3    0  502 -0.25954976773E+03 -0.38294441476E+03  0.15298149090E+04  0.15982327038E+04  0.12699999809E+01 0. -1.
</event>
<event>
 5   0  0.1823000E-07  0.3502932E+04  0.7818609E-02  0.8113095E-01
       -3   -1    0    0    0  501  0.00000000000E+00  0.00000000000E+00  0.15165228522E+04  0.15165228556E+04  0.10100000352E+00 0.  1.
        3   -1    0    0  501    0  0.00000000000E+00  0.00000000000E+00 -0.20228070926E+04  0.20228070951E+04  0.10100000352E+00 0. -1.
    10030    2    1    2    0    0  0.00000000000E+00  0.00000000000E+00 -0.50628424034E+03  0.35393299507E+04  0.35029320245E+04 0.  0.
        2    1    3    3  502    0 -0.98683713723E+03  0.10819221299E+04  0.71769044026E+03  0.16307920157E+04  0.25500000920E-02 0. -1.
       -2    1    3    3    0  502  0.98683713723E+03 -0.10819221299E+04 -0.12239746806E+04  0.19085379350E+04  0.25500000920E-02 0.  1.
</event>
<event>
 5   0  0.5707187E-07  0.3500081E+04  0.7818609E-02  0.8113771E-01
       -2   -1    0    0    0  501  0.00000000000E+00  0.00000000000E+00  0.98215485220E+03  0.98215485220E+03  0.25500000920E-02 0.  1.
        2   -1    0    0  501    0  0.00000000000E+00  0.00000000000E+00 -0.31182877621E+04  0.31182877621E+04  0.25500000920E-02 0. -1.
    10030    2    1    2    0    0  0.00000000000E+00  0.00000000000E+00 -0.21361329099E+04  0.41004426143E+04  0.35000808311E+04 0.  0.
        1    1    3    3  502    0 -0.79893557152E+03 -0.12528535417E+04 -0.21511448053E+04  0.26144529099E+04  0.50400001928E-02 0. -1.
       -1    1    3    3    0  502  0.79893557152E+03  0.12528535417E+04  0.15011895466E+02  0.14859897044E+04  0.50400001928E-02 0.  1.
</event>
<event>
 5   0  0.5677193E-07  0.3557264E+04  0.7818609E-02  0.8100352E-01
        2   -1    0    0  501    0  0.00000000000E+00  0.00000000000E+00  0.20686166400E+04  0.20686166400E+04  0.25500000920E-02 0. -1.
       -2   -1    0    0    0  501  0.00000000000E+00  0.00000000000E+00 -0.15292980209E+04  0.15292980209E+04  0.25500000920E-02 0.  1.
    10030    2    1    2    0    0  0.00000000000E+00  0.00000000000E+00  0.53931861905E+03  0.35979146609E+04  0.35572637426E+04 0.  0.
        3    1    3    3  502    0  0.10918513064E+04  0.61624048766E+03 -0.10063597904E+04  0.16076851843E+04  0.10100000352E+00 0.  1.
       -3    1    3    3    0  502 -0.10918513064E+04 -0.61624048766E+03  0.15456784094E+04  0.19902294766E+04  0.10100000352E+00 0. -1.
</event>
<event>
 5   0  0.1866421E-07  0.3223747E+04  0.7818609E-02  0.8182574E-01
       -1   -1    0    0    0  501  0.00000000000E+00  0.00000000000E+00  0.17401300937E+04  0.17401300937E+04  0.50400001928E-02 0.  1.
        1   -1    0    0  501    0  0.00000000000E+00  0.00000000000E+00 -0.14930703537E+04  0.14930703537E+04  0.50400001928E-02 0. -1.
    10030    2    1    2    0    0  0.00000000000E+00  0.00000000000E+00  0.24705973995E+03  0.32332004474E+04  0.32237472944E+04 0.  0.
        1    1    3    3  502    0 -0.22914289382E+03  0.10763351485E+03  0.17200662510E+04  0.17385969479E+04  0.50400001928E-02 0.  1.
       -1    1    3    3    0  502  0.22914289382E+03 -0.10763351485E+03 -0.14730065110E+04  0.14946034996E+04  0.50400001928E-02 0. -1.
</event>
<event>
 5   0  0.1866421E-07  0.3515893E+04  0.7818609E-02  0.8110034E-01
        1   -1    0    0  501    0  0.00000000000E+00  0.00000000000E+00  0.21924837174E+04  0.21924837174E+04  0.50400001928E-02 0. -1.
       -1   -1    0    0    0  501  0.00000000000E+00  0.00000000000E+00 -0.14095319495E+04  0.14095319496E+04  0.50400001928E-02 0.  1.
    10030    2    1    2    0    0  0.00000000000E+00  0.00000000000E+00  0.78295176786E+03  0.36020156670E+04  0.35158929725E+04 0.  0.
        1    1    3    3  502    0  0.82170890099E+02  0.46956944631E+03 -0.13420501100E+04  0.14242001327E+04  0.50400001928E-02 0.  1.
       -1    1    3    3    0  502 -0.82170890099E+02 -0.46956944631E+03  0.21250018779E+04  0.21778155343E+04  0.50400001928E-02 0. -1.
</event>
<event>
 5   0  0.1873457E-07  0.3492935E+04  0.7818609E-02  0.8115466E-01
       -1   -1    0    0    0  501  0.00000000000E+00  0.00000000000E+00  0.33602577567E+04  0.33602577567E+04  0.50400001928E-02 0.  1.
        1   -1    0    0  501    0  0.00000000000E+00  0.00000000000E+00 -0.90771253825E+03  0.90771253826E+03  0.50400001928E-02 0. -1.
    10030    2    1    2    0    0  0.00000000000E+00  0.00000000000E+00  0.24525452185E+04  0.42679702950E+04  0.34929346387E+04 0.  0.
        3    1    3    3  502    0  0.92180159593E+03 -0.14582855049E+04  0.15582871036E+04  0.23247738607E+04  0.10100000352E+00 0.  1.
       -3    1    3    3    0  502 -0.92180159593E+03  0.14582855049E+04  0.89425811485E+03  0.19431964343E+04  0.10100000352E+00 0. -1.
</event>
<event>
 5   0  0.1908190E-07  0.3538511E+04  0.7818609E-02  0.8104724E-01
        1   -1    0    0  501    0  0.00000000000E+00  0.00000000000E+00  0.12492635771E+04  0.12492635771E+04  0.50400001928E-02 0.  1.
       -1   -1    0    0    0  501  0.00000000000E+00  0.00000000000E+00 -0.25056880459E+04  0.25056880459E+04  0.50400001928E-02 0. -1.
    10030    2    1    2    0    0  0.00000000000E+00  0.00000000000E+00 -0.12564244688E+04  0.37549516230E+04  0.35385108796E+04 0.  0.
        5    1    3    3  502    0  0.59270033634E+03 -0.56972783185E+03  0.10342541596E+04  0.13212067392E+04  0.46999998093E+01 0.  1.
       -5    1    3    3    0  502 -0.59270033634E+03  0.56972783185E+03 -0.22906786283E+04  0.24337448838E+04  0.46999998093E+01 0. -1.
</event>
<event>
 5   0  0.1908190E-07  0.3501890E+04  0.7818609E-02  0.8113342E-01
        1   -1    0    0  501    0  0.00000000000E+00  0.00000000000E+00  0.19217064547E+04  0.19217064547E+04  0.50400001928E-02 0. -1.
       -1   -1    0    0    0  501  0.00000000000E+00  0.00000000000E+00 -0.15953575410E+04  0.15953575411E+04  0.50400001928E-02 0.  1.
    10030    2    1    2    0    0  0.00000000000E+00  0.00000000000E+00  0.32634891363E+03  0.35170639957E+04  0.35018902805E+04 0.  0.
        5    1    3    3  502    0  0.84982562103E+02  0.73570574285E+03  0.17566499205E+04  0.19063908333E+04  0.46999998093E+01 0. -1.
       -5    1    3    3    0  502 -0.84982562103E+02 -0.73570574285E+03 -0.14303010069E+04  0.16106731625E+04  0.46999998093E+01 0.  1.
</event>
<event>
 5   0  0.5573334E-07  0.3466075E+04  0.7818609E-02  0.8121877E-01
       -2   -1    0    0    0  501  0.00000000000E+00  0.00000000000E+00  0.18313350132E+04  0.18313350132E+04  0.25500000920E-02 0.  1.
        2   -1    0    0  501    0  0.00000000000E+00  0.00000000000E+00 -0.16400163900E+04  0.16400163900E+04  0.25500000920E-02 0. -1.
    10030    2    1    2    0    0  0.00000000000E+00  0.00000000000E+00  0.19131862323E+03  0.34713514031E+04  0.34660752659E+04 0.  0.
        4    1    3    3  502    0 -0.67322434891E+02 -0.22012841288E+03 -0.16246366660E+04  0.16408640217E+04  0.12699999809E+01 0. -1.
       -4    1    3    3    0  502  0.67322434891E+02  0.22012841288E+03  0.18159552892E+04  0.18304873815E+04  0.12699999809E+01 0.  1.
</event>
<event>
 5   0  0.5707187E-07  0.3519001E+04  0.7818609E-02  0.8109302E-01
        2   -1    0    0  501    0  0.00000000000E+00  0.00000000000E+00  0.28635922315E+04  0.28635922315E+04  0.25500000920E-02 0. -1.
       -2   -1    0    0    0  501  0.00000000000E+00  0.00000000000E+00 -0.10811041940E+04  0.10811041940E+04  0.25500000920E-02 0.  1.
    10030    2    1    2    0    0  0.00000000000E+00  0.00000000000E+00  0.17824880376E+04  0.39446964255E+04  0.35190007510E+04 0.  0.
        1    1    3    3  502    0 -0.28229594332E+03  0.15081163916E+04  0.18566695189E+04  0.24085945596E+04  0.50400001928E-02 0. -1.
       -1    1    3    3    0  502  0.28229594332E+03 -0.15081163916E+04 -0.74181481310E+02  0.15361018659E+04  0.50400001928E-02 0.  1.
</event>
<event>
 5   0  0.1897049E-07  0.3476976E+04  0.7818609E-02  0.8119268E-01
       -1   -1    0    0    0  501  0.00000000000E+00  0.00000000000E+00  0.19653939008E+04  0.19653939008E+04  0.50400001928E-02 0. -1.
        1   -1    0    0  501    0  0.00000000000E+00  0.00000000000E+00 -0.15377783586E+04  0.15377783586E+04  0.50400001928E-02 0.  1.
    10030    2    1    2    0    0  0.00000000000E+00  0.00000000000E+00  0.42761554222E+03  0.35031722594E+04  0.34769758163E+04 0.  0.
        2    1    3    3  502    0  0.10394021746E+04 -0.32039080817E+01  0.16178540528E+04  0.19229713679E+04  0.25500000920E-02 0. -1.
       -2    1    3    3    0  502 -0.10394021746E+04  0.32039080817E+01 -0.11902385106E+04  0.15802008915E+04  0.25500000920E-02 0.  1.
</event>
<event>
 5   0  0.5554745E-07  0.3492522E+04  0.7818609E-02  0.8115564E-01
       -2   -1    0    0    0  501  0.00000000000E+00  0.00000000000E+00  0.21191356503E+04  0.21191356503E+04  0.25500000920E-02 0.  1.
        2   -1    0    0  501    0  0.00000000000E+00  0.00000000000E+00 -0.14389956651E+04  0.14389956651E+04  0.25500000920E-02 0. -1.
    10030    2    1    2    0    0  0.00000000000E+00  0.00000000000E+00  0.68013998525E+03  0.35581313154E+04  0.34925217334E+04 0.  0.
        5    1    3    3  502    0  0.15152820731E+04 -0.77885639788E+03 -0.50150046373E+02  0.17044747480E+04  0.46999998093E+01 0. -1.
       -5    1    3    3    0  502 -0.15152820731E+04  0.77885639788E+03  0.73029003162E+03  0.18536565674E+04  0.46999998093E+01 0.  1.
</event>
<event>
 5   0  0.1897049E-07  0.3294817E+04  0.7818609E-02  0.8164215E-01
        1   -1    0    0  501    0  0.00000000000E+00  0.00000000000E+00  0.10014286620E+04  0.10014286620E+04  0.50400001928E-02 0. -1.
       -1   -1    0    0    0  501  0.00000000000E+00  0.00000000000E+00 -0.27100837772E+04  0.27100837772E+04  0.50400001928E-02 0.  1.
    10030    2    1    2    0    0  0.00000000000E+00  0.00000000000E+00 -0.17086551151E+04  0.37115124392E+04  0.32948174887E+04 0.  0.
        2    1    3    3  502    0 -0.10662647841E+04 -0.59962125077E+03 -0.20972732140E+04  0.24279664677E+04  0.25500000920E-02 0.  1.
       -2    1    3    3    0  502  0.10662647841E+04  0.59962125077E+03  0.38861809885E+03  0.12835459715E+04  0.25500000920E-02 0. -1.
</event>
<event>
 5   0  0.5740827E-07  0.3499239E+04  0.7818609E-02  0.8113970E-01
       -2   -1    0    0    0  501  0.00000000000E+00  0.00000000000E+00  0.14493020696E+04  0.14493020696E+04  0.25500000920E-02 0. -1.
        2   -1    0    0  501    0  0.00000000000E+00  0.00000000000E+00 -0.21121675612E+04  0.21121675612E+04  0.25500000920E-02 0.  1.
    10030    2    1    2    0    0  0.00000000000E+00  0.00000000000E+00 -0.66286549164E+03  0.35614696308E+04  0.34992392418E+04 0.  0.
        2    1    3    3  502    0 -0.12842970453E+04 -0.16051998748E+03  0.86678183565E+03  0.15577215147E+04  0.25500000920E-02 0. -1.
       -2    1    3    3    0  502  0.12842970453E+04  0.16051998748E+03 -0.15296473273E+04  0.20037481161E+04  0.25500000920E-02 0.  1.
</event>
<event>
 5   0  0.5677193E-07  0.3491500E+04  0.7818609E-02  0.8115807E-01
        2   -1    0    0  501    0  0.00000000000E+00  0.00000000000E+00  0.21320792850E+04  0.21320792850E+04  0.25500000920E-02 0. -1.
       -2   -1    0    0    0  501  0.00000000000E+00  0.00000000000E+00 -0.14294231624E+04  0.14294231624E+04  0.25500000920E-02 0.  1.
    10030    2    1    2    0    0  0.00000000000E+00  0.00000000000E+00  0.70265612265E+03  0.35615024474E+04  0.34915002587E+04 0.  0.
        3    1    3    3  502    0  0.12106769698E+03 -0.12417278908E+04  0.15969156061E+04  0.20264957452E+04  0.10100000352E+00 0. -1.
       -3    1    3    3    0  502 -0.12106769698E+03  0.12417278908E+04 -0.89425948345E+03  0.15350067022E+04  0.10100000352E+00 0.  1.
</event>
<event>
 5   0  0.5707187E-07  0.3656623E+04  0.7818609E-02  0.8077643E-01
        2   -1    0    0  501    0  0.00000000000E+00  0.00000000000E+00  0.21874983040E+04  0.21874983040E+04  0.25500000920E-02 0.  1.
       -2   -1    0    0    0  501  0.00000000000E+00  0.00000000000E+00 -0.15281032967E+04  0.15281032967E+04  0.25500000920E-02 0. -1.
    10030    2    1    2    0    0  0.00000000000E+00  0.00000000000E+00  0.65939500734E+03  0.37156016007E+04  0.36566232345E+04 0.  0.
        1    1    3    3  502    0 -0.33129477854E+03 -0.12480590999E+04 -0.98551898835E+03  0.16243938634E+04  0.50400001928E-02 0. -1.
       -1    1    3    3    0  502  0.33129477854E+03  0.12480590999E+04  0.16449139957E+04  0.20912077373E+04  0.50400001928E-02 0.  1.
</event>
<event>
 5   0  0.5573334E-07  0.3506210E+04  0.7818609E-02  0.8112320E-01
       -2   -1    0    0    0  501  0.00000000000E+00  0.00000000000E+00  0.16188133331E+04  0.16188133331E+04  0.25500000920E-02 0.  1.
        2   -1    0    0  501    0  0.00000000000E+00  0.00000000000E+00 -0.18985368843E+04  0.18985368843E+04  0.25500000920E-02 0. -1.
    10030    2    1    2    0    0  0.00000000000E+00  0.00000000000E+00 -0.27972355126E+03  0.35173502174E+04  0.35062098179E+04 0.  0.
        4    1    3    3  502    0  0.67881599400E+03  0.72268615308E+03 -0.15902455524E+04  0.18740194662E+04  0.12699999809E+01 0. -1.
       -4    1    3    3    0  502 -0.67881599400E+03 -0.72268615308E+03  0.13105220012E+04  0.16433307513E+04  0.12699999809E+01 0.  1.
</event>
<event>
 5   0  0.1908190E-07  0.3501930E+04  0.7818609E-02  0.8113333E-01
       -1   -1    0    0    0  501  0.00000000000E+00  0.00000000000E+00  0.11450847247E+04  0.11450847247E+04  0.50400001928E-02 0. -1.
        1   -1    0    0  501    0  0.00000000000E+00  0.00000000000E+00 -0.26774250835E+04  0.26774250835E+04  0.50400001928E-02 0.  1.
    10030    2    1    2    0    0  0.00000000000E+00  0.00000000000E+00 -0.15323403589E+04  0.38225098082E+04  0.35019300762E+04 0.  0.
        5    1    3    3  502    0 -0.91214712552E+03  0.21510713279E+03  0.84827170885E+03  0.12640690010E+04  0.46999998093E+01 0. -1.
       -5    1    3    3    0  502  0.91214712552E+03 -0.21510713279E+03 -0.23806120677E+04  0.25584408072E+04  0.46999998093E+01 0.  1.
</event>
<event>
 5   0  0.1933647E-07  0.3489338E+04  0.7818609E-02  0.8116321E-01
        1   -1    0    0  501    0  0.00000000000E+00  0.00000000000E+00  0.17353688567E+04  0.17353688567E+04  0.50400001928E-02 0. -1.
       -1   -1    0    0    0  501  0.00000000000E+00  0.00000000000E+00 -0.17540188914E+04  0.17540188914E+04  0.50400001928E-02 0.  1.
    10030    2    1    2    0    0  0.00000000000E+00  0.00000000000E+00 -0.18650034693E+02  0.34893877481E+04  0.34893379075E+04 0.  0.
        4    1    3    3  502    0 -0.50333341753E+03  0.16607069663E+04 -0.18981578930E+03  0.17456585588E+04  0.12699999809E+01 0. -1.
       -4    1    3    3    0  502  0.50333341753E+03 -0.16607069663E+04  0.17116575461E+03  0.17437291893E+04  0.12699999809E+01 0.  1.
</event>
<event>
 5   0  0.1823000E-07  0.3503020E+04  0.7818609E-02  0.8113075E-01
       -3   -1    0    0    0  501  0.00000000000E+00  0.00000000000E+00  0.23496921499E+04  0.23496921521E+04  0.10100000352E+00 0. -1.
        3   -1    0    0  501    0  0.00000000000E+00  0.00000000000E+00 -0.13056127103E+04  0.13056127142E+04  0.10100000352E+00 0.  1.
    10030    2    1    2    0    0  0.00000000000E+00  0.00000000000E+00  0.10440794396E+04  0.36553048663E+04  0.35030203809E+04 0.  0.
        4    1    3    3  502    0  0.26648325231E+03  0.14337543718E+04 -0.49024753227E+03  0.15385087514E+04  0.12699999809E+01 0.  1.
       -4    1    3    3    0  502 -0.26648325231E+03 -0.14337543718E+04  0.15343269718E+04  0.21167961148E+04  0.12699999809E+01 0. -1.
</event>
<event>
 5   0  0.5677193E-07  0.3669162E+04  0.7818609E-02  0.8074830E-01
        2   -1    0    0  501    0  0.00000000000E+00  0.00000000000E+00  0.17895919964E+04  0.17895919964E+04  0.25500000920E-02 0.  1.
       -2   -1    0    0    0  501  0.00000000000E+00  0.00000000000E+00 -0.18807010764E+04  0.18807010764E+04  0.25500000920E-02 0. -1.
    10030    2    1    2    0    0  0.00000000000E+00  0.00000000000E+00 -0.91109080016E+02  0.36702930727E+04  0.36691620808E+04 0.  0.
        3    1    3    3  502    0  0.11320379184E+04 -0.13305314351E+04 -0.60596274623E+03  0.18490577623E+04  0.10100000352E+00 0. -1.
       -3    1    3    3    0  502 -0.11320379184E+04  0.13305314351E+04  0.51485366622E+03  0.18212353105E+04  0.10100000352E+00 0.  1.
</event>
<event>
 5   0  0.5740827E-07  0.3543373E+04  0.7818609E-02  0.8103587E-01
        2   -1    0    0  501    0  0.00000000000E+00  0.00000000000E+00  0.21805458837E+04  0.21805458837E+04  0.25500000920E-02 0.  1.
       -2   -1    0    0    0  501  0.00000000000E+00  0.00000000000E+00 -0.14394898220E+04  0.14394898220E+04  0.25500000920E-02 0. -1.
    10030    2    1    2    0    0  0.00000000000E+00  0.00000000000E+00  0.74105606173E+03  0.36200357057E+04  0.35433733114E+04 0.  0.
        2    1    3    3  502    0  0.72413993266E+03 -0.56805990724E+03 -0.11760953713E+04  0.14934091947E+04  0.25500000920E-02 0. -1.
       -2    1    3    3    0  502 -0.72413993266E+03  0.56805990724E+03  0.19171514330E+04  0.21266265111E+04  0.25500000920E-02 0.  1.
</event>
<event>
 5   0  0.5554745E-07  0.3488954E+04  0.7818609E-02  0.8116413E-01
        2   -1    0    0  501    0  0.00000000000E+00  0.00000000000E+00  0.32337060730E+04  0.32337060730E+04  0.25500000920E-02 0.  1.
       -2   -1    0    0    0  501  0.00000000000E+00  0.00000000000E+00 -0.94108720328E+03  0.94108720329E+03  0.25500000920E-02 0. -1.
    10030    2    1    2    0    0  0.00000000000E+00  0.00000000000E+00  0.22926188697E+04  0.41747932763E+04  0.34889536566E+04 0.  0.
        5    1    3    3  502    0 -0.68772536129E+03  0.11620535573E+04 -0.17526517173E+03  0.13616440846E+04  0.46999998093E+01 0. -1.
       -5    1    3    3    0  502  0.68772536129E+03 -0.11620535573E+04  0.24678840414E+04  0.28131491917E+04  0.46999998093E+01 0.  1.
</event>
<event>
 5   0  0.1933647E-07  0.3512624E+04  0.7818609E-02  0.8110805E-01
       -1   -1    0    0    0  501  0.00000000000E+00  0.00000000000E+00  0.91555360824E+03  0.91555360825E+03  0.50400001928E-02 0. -1.
        1   -1    0    0  501    0  0.00000000000E+00  0.00000000000E+00 -0.33691445796E+04  0.33691445796E+04  0.50400001928E-02 0.  1.
    10030    2    1    2    0    0  0.00000000000E+00  0.00000000000E+00 -0.24535909714E+04  0.42846981879E+04  0.35126243617E+04 0.  0.
        4    1    3    3  502    0 -0.16875336819E+04 -0.56782900727E+02 -0.63719341354E+03  0.18047191705E+04  0.12699999809E+01 0.  1.
       -4    1    3    3    0  502  0.16875336819E+04  0.56782900727E+02 -0.18163975579E+04  0.24799790173E+04  0.12699999809E+01 0. -1.
</event>
<event>
 5   0  0.1866421E-07  0.3449585E+04  0.7818609E-02  0.8125843E-01
        1   -1    0    0  501    0  0.00000000000E+00  0.00000000000E+00  0.20726026177E+04  0.20726026177E+04  0.50400001928E-02 0.  1.
       -1   -1    0    0    0  501  0.00000000000E+00  0.00000000000E+00 -0.14353491495E+04  0.14353491495E+04  0.50400001928E-02 0. -1.
    10030    2    1    2    0    0  0.00000000000E+00  0.00000000000E+00  0.63725346827E+03  0.35079517672E+04  0.34495845573E+04 0.  0.
        1    1    3    3  502    0  0.13908647131E+02  0.58452325697E+02 -0.14342845798E+04  0.14355425389E+04  0.50400001928E-02 0. -1.
       -1    1    3    3    0  502 -0.13908647131E+02 -0.58452325697E+02  0.20715380481E+04  0.20724092283E+04  0.50400001928E-02 0.  1.
</event>
<event>
 5   0  0.5740827E-07  0.3500002E+04  0.7818609E-02  0.8113790E-01
       -2   -1    0    0    0  501  0.00000000000E+00  0.00000000000E+00  0.16338994484E+04  0.16338994484E+04  0.25500000920E-02 0. -1.
        2   -1    0    0  501    0  0.00000000000E+00  0.00000000000E+00 -0.18743522345E+04  0.18743522345E+04  0.25500000920E-02 0.  1.
    10030    2    1    2    0    0  0.00000000000E+00  0.00000000000E+00 -0.24045278604E+03  0.35082516829E+04  0.35000017612E+04 0.  0.
        2    1    3    3  502    0  0.92551610491E+03  0.34867187980E+03  0.13269047863E+04  0.16549406189E+04  0.25500000920E-02 0. -1.
       -2    1    3    3    0  502 -0.92551610491E+03 -0.34867187980E+03 -0.15673575724E+04  0.18533110640E+04  0.25500000920E-02 0.  1.
</event>
<event>
 5   0  0.1933647E-07  0.3510345E+04  0.7818609E-02  0.8111343E-01
        1   -1    0    0  501    0  0.00000000000E+00  0.00000000000E+00  0.11730329959E+04  0.11730329960E+04  0.50400001928E-02 0. -1.
       -1   -1    0    0    0  501  0.00000000000E+00  0.00000000000E+00 -0.26262094228E+04  0.26262094229E+04  0.50400001928E-02 0.  1.
    10030    2    1    2    0    0  0.00000000000E+00  0.00000000000E+00 -0.14531764269E+04  0.37992424188E+04  0.35103448875E+04 0.  0.
        4    1    3    3  502    0 -0.14600436608E+04 -0.92636778292E+03 -0.40055937355E+03  0.17749180785E+04  0.12699999809E+01 0.  1.
       -4    1    3    3    0  502  0.14600436608E+04  0.92636778292E+03 -0.10526170534E+04  0.20243243403E+04  0.12699999809E+01 0. -1.
</event>
<event>
 5   0  0.5573334E-07  0.3525658E+04  0.7818609E-02  0.8107736E-01
       -2   -1    0    0    0  501  0.00000000000E+00  0.00000000000E+00  0.17828649633E+04  0.17828649633E+04  0.25500000920E-02 0.  1.
        2   -1    0    0  501    0  0.00000000000E+00  0.00000000000E+00 -0.17430186019E+04  0.17430186019E+04  0.25500000920E-02 0. -1.
    10030    2    1    2    0    0  0.00000000000E+00  0.00000000000E+00  0.39846361418E+02  0.35258835652E+04  0.35256584041E+04 0.  0.
        4    1    3    3  502    0 -0.13394785038E+04 -0.20893050968E+03 -0.11069631243E+04  0.17502067282E+04  0.12699999809E+01 0. -1.
       -4    1    3    3    0  502  0.13394785038E+04  0.20893050968E+03  0.11468094857E+04  0.17756768370E+04  0.12699999809E+01 0.  1.
</event>
<event>
 5   0  0.1908190E-07  0.3433433E+04  0.7818609E-02  0.8129749E-01
        1   -1    0    0  501    0  0.00000000000E+00  0.00000000000E+00  0.16744266895E+04  0.16744266895E+04  0.50400001928E-02 0.  1.
       -1   -1    0    0    0  501  0.00000000000E+00  0.00000000000E+00 -0.17600747105E+04  0.17600747105E+04  0.50400001928E-02 0. -1.
    10030    2    1    2    0    0  0.00000000000E+00  0.00000000000E+00 -0.85648021011E+02  0.34345014000E+04  0.34334333084E+04 0.  0.
        5    1    3    3  502    0 -0.12958921360E+03 -0.85921145722E+03 -0.15238440423E+04  0.17541836984E+04  0.46999998093E+01 0. -1.
       -5    1    3    3    0  502  0.12958921360E+03  0.85921145722E+03  0.14381960213E+04  0.16803177016E+04  0.46999998093E+01 0.  1.
</event>
<event>
 5   0  0.5677193E-07  0.3517228E+04  0.7818609E-02  0.8109719E-01
        2   -1    0    0  501    0  0.00000000000E+00  0.00000000000E+00  0.20628089775E+04  0.20628089775E+04  0.25500000920E-02 0. -1.
       -2   -1    0    0    0  501  0.00000000000E+00  0.00000000000E+00 -0.14992775375E+04  0.14992775375E+04  0.25500000920E-02 0.  1.
    10030    2    1    2    0    0  0.00000000000E+00  0.00000000000E+00  0.56353144005E+03  0.35620865150E+04  0.35172279791E+04 0.  0.
        3    1    3    3  502    0  0.12790734289E+04  0.12054289370E+04  0.34282894927E+03  0.17907036207E+04  0.10100000352E+00 0. -1.
       -3    1    3    3    0  502 -0.12790734289E+04 -0.12054289370E+04  0.22070249078E+03  0.17713828943E+04  0.10100000352E+00 0.  1.
</event>
<event>
 5   0  0.5707187E-07  0.3529428E+04  0.7818609E-02  0.8106851E-01
        2   -1    0    0  501    0  0.00000000000E+00  0.00000000000E+00  0.22743481586E+04  0.22743481586E+04  0.25500000920E-02 0.  1.
       -2   -1    0    0    0  501  0.00000000000E+00  0.00000000000E+00 -0.13692782763E+04  0.13692782763E+04  0.25500000920E-02 0. -1.
    10030    2    1    2    0    0  0.00000000000E+00  0.00000000000E+00  0.90506988236E+03  0.36436264349E+04  0.35294280139E+04 0.  0.
        1    1    3    3  502    0  0.95422292397E+03 -0.12521216980E+04  0.12757477320E+04  0.20262977103E+04  0.50400001928E-02 0.  1.
       -1    1    3    3    0  502 -0.95422292397E+03  0.12521216980E+04 -0.37067784963E+03  0.16173287246E+04  0.50400001928E-02 0. -1.
</event>
<event>
 5   0  0.1873457E-07  0.3497490E+04  0.7818609E-02  0.8114385E-01
        1   -1    0    0  501    0  0.00000000000E+00  0.00000000000E+00  0.18720834517E+04  0.18720834517E+04  0.50400001928E-02 0. -1.
       -1   -1    0    0    0  501  0.00000000000E+00  0.00000000000E+00 -0.16335326865E+04  0.16335326865E+04  0.50400001928E-02 0.  1.
    10030    2    1    2    0    0  0.00000000000E+00  0.00000000000E+00  0.23855076522E+03  0.35056161382E+04  0.34974902488E+04 0.  0.
        3    1    3    3  502    0 -0.16175034842E+04  0.14786548169E+03  0.76879930193E+03  0.17970069836E+04  0.10100000352E+00 0. -1.
       -3    1    3    3    0  502  0.16175034842E+04 -0.14786548169E+03 -0.53024853671E+03  0.17086091546E+04  0.10100000352E+00 0.  1.
</event>
<event>
 5   0  0.1933647E-07  0.3505445E+04  0.7818609E-02  0.8112501E-01
        1   -1    0    0  501    0  0.00000000000E+00  0.00000000000E+00  0.17243581624E+04  0.17243581624E+04  0.50400001928E-02 0. -1.
       -1   -1    0    0    0  501  0.00000000000E+00  0.00000000000E+00 -0.17815535351E+04  0.17815535351E+04  0.50400001928E-02 0.  1.
    10030    2    1    2    0    0  0.00000000000E+00  0.00000000000E+00 -0.57195372709E+02  0.35059116975E+04  0.35054451244E+04 0.  0.
        4    1    3    3  502    0  0.89968291034E+02  0.15727262520E+04 -0.79712211915E+03  0.17654935408E+04  0.12699999809E+01 0.  1.
       -4    1    3    3    0  502 -0.89968291034E+02 -0.15727262520E+04  0.73992674644E+03  0.17404181566E+04  0.12699999809E+01 0. -1.
</event>
<event>
 5   0  0.1933647E-07  0.3498959E+04  0.7818609E-02  0.8114037E-01
        1   -1    0    0  501    0  0.00000000000E+00  0.00000000000E+00  0.15165330288E+04  0.15165330288E+04  0.50400001928E-02 0. -1.
       -1   -1    0    0    0  501  0.00000000000E+00  0.00000000000E+00 -0.20182081495E+04  0.20182081495E+04  0.50400001928E-02 0.  1.
    10030    2    1    2    0    0  0.00000000000E+00  0.00000000000E+00 -0.50167512070E+03  0.35347411784E+04  0.34989594555E+04 0.  0.
        4    1    3    3  502    0 -0.55697508550E+03 -0.72740231915E+03  0.12548208523E+04  0.15536770462E+04  0.12699999809E+01 0. -1.
       -4    1    3    3    0  502  0.55697508550E+03  0.72740231915E+03 -0.17564959730E+04  0.19810641322E+04  0.12699999809E+01 0.  1.
</event>
<event>
 5   0  0.1933647E-07  0.3508232E+04  0.7818609E-02  0.8111842E-01
       -1   -1    0    0    0  501  0.00000000000E+00  0.00000000000E+00  0.14213005223E+04  0.14213005224E+04  0.50400001928E-02 0. -1.
        1   -1    0    0  501    0  0.00000000000E+00  0.00000000000E+00 -0.21648640945E+04  0.21648640945E+04  0.50400001928E-02 0.  1.
    10030    2    1    2    0    0  0.00000000000E+00  0.00000000000E+00 -0.74356357218E+03  0.35861646169E+04  0.35082317303E+04 0.  0.
        4    1    3    3  502    0 -0.37112836809E+03 -0.41823095898E+03  0.13277605182E+04  0.14406953207E+04  0.12699999809E+01 0. -1.
       -4    1    3    3    0  502  0.37112836809E+03  0.41823095898E+03 -0.20713240903E+04  0.21454692962E+04  0.12699999809E+01 0.  1.
</event>
<event>
 5   0  0.1873457E-07  0.3498257E+04  0.7818609E-02  0.8114203E-01
        1   -1    0    0  501    0  0.00000000000E+00  0.00000000000E+00  0.20922067915E+04  0.20922067915E+04  0.50400001928E-02 0. -1.
       -1   -1    0    0    0  501  0.00000000000E+00  0.00000000000E+00 -0.14623080316E+04  0.14623080316E+04  0.50400001928E-02 0.  1.
    10030    2    1    2    0    0  0.00000000000E+00  0.00000000000E+00  0.62989875997E+03  0.35545148231E+04  0.34982571632E+04 0.  0.
        3    1    3    3  502    0  0.56078933947E+02 -0.17229460059E+02  0.20912068526E+04  0.20920295915E+04  0.10100000352E+00 0. -1.
       -3    1    3    3    0  502 -0.56078933947E+02  0.17229460059E+02 -0.14613080926E+04  0.14624852317E+04  0.10100000352E+00 0.  1.
</event>
<event>
 5   0  0.5554745E-07  0.3502027E+04  0.7818609E-02  0.8113310E-01
        2   -1    0    0  501    0  0.00000000000E+00  0.00000000000E+00  0.15428910792E+04  0.15428910792E+04  0.25500000920E-02 0.  1.
       -2   -1    0    0    0  501  0.00000000000E+00  0.00000000000E+00 -0.19872102884E+04  0.19872102884E+04  0.25500000920E-02 0. -1.
    10030    2    1    2    0    0  0.00000000000E+00  0.00000000000E+00 -0.44431920914E+03  0.35301013676E+04  0.35020274279E+04 0.  0.
        5    1    3    3  502    0 -0.30950068264E+03 -0.15057452764E+04 -0.10673124034E+04  0.18714265592E+04  0.46999998093E+01 0.  1.
       -5    1    3    3    0  502  0.30950068264E+03  0.15057452764E+04  0.62299319427E+03  0.16586748084E+04  0.46999998093E+01 0. -1.
</event>
<event>
 5   0  0.5740827E-07  0.3479209E+04  0.7818609E-02  0.8118735E-01
       -2   -1    0    0    0  501  0.00000000000E+00  0.00000000000E+00  0.16863606615E+04  0.16863606615E+04  0.25500000920E-02 0. -1.
        2   -1    0    0  501    0  0.00000000000E+00  0.00000000000E+00 -0.17945291172E+04  0.17945291172E+04  0.25500000920E-02 0.  1.
    10030    2    1    2    0    0  0.00000000000E+00  0.00000000000E+00 -0.10816845565E+03  0.34808897787E+04  0.34792087084E+04 0.  0.
        2    1    3    3  502    0  0.30081647866E+03 -0.13719222264E+04  0.97284348049E+03  0.17085331681E+04  0.25500000920E-02 0. -1.
       -2    1    3    3    0  502 -0.30081647866E+03  0.13719222264E+04 -0.10810119361E+04  0.17723566106E+04  0.25500000920E-02 0.  1.
</event>
<event>
 5   0  0.1897049E-07  0.3494342E+04  0.7818609E-02  0.8115132E-01
       -1   -1    0    0    0  501  0.00000000000E+00  0.00000000000E+00  0.13669668152E+04  0.13669668153E+04  0.50400001928E-02 0. -1.
        1   -1    0    0  501    0  0.00000000000E+00  0.00000000000E+00 -0.22331244283E+04  0.22331244283E+04  0.50400001928E-02 0.  1.
    10030    2    1    2    0    0  0.00000000000E+00  0.00000000000E+00 -0.86615761301E+03  0.36000912435E+04  0.34943422773E+04 0.  0.
        2    1    3    3  502    0  0.11369308493E+04  0.12657461567E+04 -0.23710482254E+02  0.17015543707E+04  0.25500000920E-02 0. -1.
       -2    1    3    3    0  502 -0.11369308493E+04 -0.12657461567E+04 -0.84244713076E+03  0.18985368728E+04  0.25500000920E-02 0.  1.
</event>
<event>
 5   0  0.1866421E-07  0.3503592E+04  0.7818609E-02  0.8112939E-01
       -1   -1    0    0    0  501  0.00000000000E+00  0.00000000000E+00  0.16404368681E+04  0.16404368681E+04  0.50400001928E-02 0.  1.
        1   -1    0    0  501    0  0.00000000000E+00  0.00000000000E+00 -0.18707144423E+04  0.18707144423E+04  0.50400001928E-02 0. -1.
    10030    2    1    2    0    0  0.00000000000E+00  0.00000000000E+00 -0.23027757422E+03  0.35111513105E+04  0.35035918375E+04 0.  0.
        1    1    3    3  502    0 -0.23142144941E+03 -0.12474894187E+04  0.10953594531E+04  0.16761855710E+04  0.50400001928E-02 0.  1.
       -1    1    3    3    0  502  0.23142144941E+03  0.12474894187E+04 -0.13256370273E+04  0.18349657395E+04  0.50400001928E-02 0. -1.
</event>
<event>
 5   0  0.1873457E-07  0.3440660E+04  0.7818609E-02  0.8127998E-01
       -1   -1    0    0    0  501  0.00000000000E+00  0.00000000000E+00  0.16654584743E+04  0.16654584743E+04  0.50400001928E-02 0.  1.
        1   -1    0    0  501    0  0.00000000000E+00  0.00000000000E+00 -0.17770096088E+04  0.17770096088E+04  0.50400001928E-02 0. -1.
    10030    2    1    2    0    0  0.00000000000E+00  0.00000000000E+00 -0.11155113449E+03  0.34424680831E+04  0.34406602343E+04 0.  0.
        3    1    3    3  502    0 -0.26664556726E+03 -0.65089794106E+03  0.15150072161E+04  0.16703337580E+04  0.10100000352E+00 0.  1.
       -3    1    3    3    0  502  0.26664556726E+03  0.65089794106E+03 -0.16265583506E+04  0.17721343251E+04  0.10100000352E+00 0. -1.
</event>
<event>
 5   0  0.1866421E-07  0.3508935E+04  0.7818609E-02  0.8111676E-01
        1   -1    0    0  501    0  0.00000000000E+00  0.00000000000E+00  0.11147545583E+04  0.11147545583E+04  0.50400001928E-02 0.  1.
       -1   -1    0    0    0  501  0.00000000000E+00  0.00000000000E+00 -0.27612863579E+04  0.27612863579E+04  0.50400001928E-02 0. -1.
    10030    2    1    2    0    0  0.00000000000E+00  0.00000000000E+00 -0.16465317997E+04  0.38760409162E+04  0.35089351970E+04 0.  0.
        1    1    3    3  502    0  0.37087088503E+03 -0.11628882162E+04 -0.22153952593E+04  0.25293932813E+04  0.50400001928E-02 0. -1.
       -1    1    3    3    0  502 -0.37087088503E+03  0.11628882162E+04  0.56886345960E+03  0.13466476349E+04  0.50400001928E-02 0.  1.
</event>
<event>
 5   0  0.1933647E-07  0.3519977E+04  0.7818609E-02  0.8109072E-01
        1   -1    0    0  501    0  0.00000000000E+00  0.00000000000E+00  0.28939217502E+04  0.28939217502E+04  0.50400001928E-02 0.  1.
       -1   -1    0    0    0  501  0.00000000000E+00  0.00000000000E+00 -0.10703672646E+04  0.10703672646E+04  0.50400001928E-02 0. -1.
    10030    2    1    2    0    0  0.00000000000E+00  0.00000000000E+00  0.18235544856E+04  0.39642890148E+04  0.35199767656E+04 0.  0.
        4    1    3    3  502    0 -0.11787986682E+04  0.23504817043E+03  0.23596428368E+04  0.26481559381E+04  0.12699999809E+01 0.  1.
       -4    1    3    3    0  502  0.11787986682E+04 -0.23504817043E+03 -0.53608835112E+03  0.13161330767E+04  0.12699999809E+01 0. -1.
</event>
<event>
 5   0  0.1933647E-07  0.3914537E+04  0.7818609E-02  0.8022013E-01
       -1   -1    0    0    0  501  0.00000000000E+00  0.00000000000E+00  0.16761244201E+04  0.16761244201E+04  0.50400001928E-02 0.  1.
        1   -1    0    0  501    0  0.00000000000E+00  0.00000000000E+00 -0.22855704445E+04  0.22855704445E+04  0.50400001928E-02 0. -1.
    10030    2    1    2    0    0  0.00000000000E+00  0.00000000000E+00 -0.60944602442E+03  0.39616948646E+04  0.39145372323E+04 0.  0.
        4    1    3    3  502    0 -0.16376401200E+04  0.46017313075E+03 -0.12845151730E+04  0.21315734366E+04  0.12699999809E+01 0. -1.
       -4    1    3    3    0  502  0.16376401200E+04 -0.46017313075E+03  0.67506914856E+03  0.18301214280E+04  0.12699999809E+01 0.  1.
</event>
<event>
 5   0  0.1873457E-07  0.3484054E+04  0.7818609E-02  0.8117579E-01
       -1   -1    0    0    0  501  0.00000000000E+00  0.00000000000E+00  0.25729296236E+04  0.25729296236E+04  0.50400001928E-02 0. -1.
        1   -1    0    0  501    0  0.00000000000E+00  0.00000000000E+00 -0.11794566042E+04  0.11794566042E+04  0.50400001928E-02 0.  1.
    10030    2    1    2    0    0  0.00000000000E+00  0.00000000000E+00  0.13934730194E+04  0.37523862277E+04  0.34840544408E+04 0.  0.
        3    1    3    3  502    0  0.32975301202E+03 -0.15013111655E+04  0.15796189819E+04  0.22040572594E+04  0.10100000352E+00 0. -1.
       -3    1    3    3    0  502 -0.32975301202E+03  0.15013111655E+04 -0.18614596251E+03  0.15483289683E+04  0.10100000352E+00 0.  1.
</event>
<event>
 5   0  0.5740827E-07  0.3454231E+04  0.7818609E-02  0.8124723E-01
        2   -1    0    0  501    0  0.00000000000E+00  0.00000000000E+00  0.24991142753E+04  0.24991142753E+04  0.25500000920E-02 0. -1.
       -2   -1    0    0    0  501  0.00000000000E+00  0.00000000000E+00 -0.11935943642E+04  0.11935943642E+04  0.25500000920E-02 0.  1.
    10030    2    1    2    0    0  0.00000000000E+00  0.00000000000E+00  0.13055199111E+04  0.36927086395E+04  0.34542314424E+04 0.  0.
        2    1    3    3  502    0  0.29352924221E+03  0.97378961452E+03 -0.83949887761E+03  0.13187812536E+04  0.25500000920E-02 0. -1.
       -2    1    3    3    0  502 -0.29352924221E+03 -0.97378961452E+03  0.21450187887E+04  0.23739273859E+04  0.25500000920E-02 0.  1.
</event>
<event>
 5   0  0.1823000E-07  0.3489745E+04  0.7818609E-02  0.8116225E-01
        3   -1    0    0  501    0  0.00000000000E+00  0.00000000000E+00  0.19131666883E+04  0.19131666910E+04  0.10100000352E+00 0. -1.
       -3   -1    0    0    0  501  0.00000000000E+00  0.00000000000E+00 -0.15913822415E+04  0.15913822447E+04  0.10100000352E+00 0.  1.
    10030    2    1    2    0    0  0.00000000000E+00  0.00000000000E+00  0.32178444686E+03  0.35045489356E+04  0.34897446915E+04 0.  0.
        4    1    3    3  502    0  0.61056410001E+03  0.16334871361E+04  0.10140287741E+03  0.17468122110E+04  0.12699999809E+01 0. -1.
       -4    1    3    3    0  502 -0.61056410001E+03 -0.16334871361E+04  0.22038156945E+03  0.17577367246E+04  0.12699999809E+01 0.  1.
</event>
<event>
 5   0  0.5707187E-07  0.3492152E+04  0.7818609E-02  0.8115652E-01
        2   -1    0    0  501    0  0.00000000000E+00  0.00000000000E+00  0.19904923998E+04  0.19904923998E+04  0.25500000920E-02 0. -1.
       -2   -1    0    0    0  501  0.00000000000E+00  0.00000000000E+00 -0.15316716304E+04  0.15316716304E+04  0.25500000920E-02 0.  1.
    10030    2    1    2    0    0  0.00000000000E+00  0.00000000000E+00  0.45882076940E+03  0.35221640302E+04  0.34921516229E+04 0.  0.
        1    1    3    3  502    0 -0.59276629907E+03 -0.15024709215E+04 -0.43960773587E+03  0.16739312163E+04  0.50400001928E-02 0. -1.
       -1    1    3    3    0  502  0.59276629907E+03  0.15024709215E+04  0.89842850526E+03  0.18482328139E+04  0.50400001928E-02 0.  1.
</event>
<event>
 5   0  0.1873457E-07  0.3482414E+04  0.7818609E-02  0.8117970E-01
       -1   -1    0    0    0  501  0.00000000000E+00  0.00000000000E+00  0.13267986509E+04  0.13267986509E+04  0.50400001928E-02 0.  1.
        1   -1    0    0  501    0  0.00000000000E+00  0.00000000000E+00 -0.22850501882E+04  0.22850501882E+04  0.50400001928E-02 0. -1.
    10030    2    1    2    0    0  0.00000000000E+00  0.00000000000E+00 -0.95825153728E+03  0.36118488391E+04  0.34824138220E+04 0.  0.
        3    1    3    3  502    0  0.70541963524E+03  0.13537506966E+04 -0.13478392246E+04  0.20364008436E+04  0.10100000352E+00 0. -1.
       -3    1    3    3    0  502 -0.70541963524E+03 -0.13537506966E+04  0.38958768736E+03  0.15754479955E+04  0.10100000352E+00 0.  1.
</event>
<event>
 5   0  0.5707187E-07  0.3505202E+04  0.7818609E-02  0.8112558E-01
       -2   -1    0    0    0  501  0.00000000000E+00  0.00000000000E+00  0.12627942009E+04  0.12627942009E+04  0.25500000920E-02 0.  1.
        2   -1    0    0  501    0  0.00000000000E+00  0.00000000000E+00 -0.24323911374E+04  0.24323911374E+04  0.25500000920E-02 0. -1.
    10030    2    1    2    0    0  0.00000000000E+00  0.00000000000E+00 -0.11695969365E+04  0.36951853382E+04  0.35052015192E+04 0.  0.
        1    1    3    3  502    0  0.12856242528E+04 -0.79649931738E+03 -0.15184467840E+04  0.21431102440E+04  0.50400001928E-02 0. -1.
       -1    1    3    3    0  502 -0.12856242528E+04  0.79649931738E+03  0.34884984754E+03  0.15520750942E+04  0.50400001928E-02 0.  1.
</event>
<event>
 5   0  0.1866421E-07  0.3489987E+04  0.7818609E-02  0.8116167E-01
        1   -1    0    0  501    0  0.00000000000E+00  0.00000000000E+00  0.16055941088E+04  0.16055941088E+04  0.50400001928E-02 0. -1.
       -1   -1    0    0    0  501  0.00000000000E+00  0.00000000000E+00 -0.18964956903E+04  0.18964956903E+04  0.50400001928E-02 0.  1.
    10030    2    1    2    0    0  0.00000000000E+00  0.00000000000E+00 -0.29090158148E+03  0.35020897992E+04  0.34899869959E+04 0.  0.
        1    1    3    3  502    0 -0.66992110770E+03  0.16105608295E+04 -0.97307003450E+02  0.17470458291E+04  0.50400001928E-02 0. -1.
       -1    1    3    3    0  502  0.66992110770E+03 -0.16105608295E+04 -0.19359457802E+03  0.17550439700E+04  0.50400001928E-02 0.  1.
</event>
<event>
 5   0  0.5554745E-07  0.3503058E+04  0.7818609E-02  0.8113066E-01
        2   -1    0    0  501    0  0.00000000000E+00  0.00000000000E+00  0.18426477978E+04  0.18426477978E+04  0.25500000920E-02 0.  1.
       -2   -1    0    0    0  501  0.00000000000E+00  0.00000000000E+00 -0.16649158734E+04  0.16649158734E+04  0.25500000920E-02 0. -1.
    10030    2    1    2    0    0  0.00000000000E+00  0.00000000000E+00  0.17773192442E+03  0.35075636712E+04  0.35030578457E+04 0.  0.
        5    1    3    3  502    0  0.66245391262E+03 -0.13066089398E+04  0.10501838751E+04  0.18024928210E+04  0.46999998093E+01 0.  1.
       -5    1    3    3    0  502 -0.66245391262E+03  0.13066089398E+04 -0.87245195069E+03  0.17050708502E+04  0.46999998093E+01 0. -1.
</event>
<event>
 5   0  0.1897049E-07  0.3520995E+04  0.7818609E-02  0.8108832E-01
        1   -1    0    0  501    0  0.00000000000E+00  0.00000000000E+00  0.22653452958E+04  0.22653452958E+04  0.50400001928E-02 0. -1.
       -1   -1    0    0    0  501  0.00000000000E+00  0.00000000000E+00 -0.13681585131E+04  0.13681585131E+04  0.50400001928E-02 0.  1.
    10030    2    1    2    0    0  0.00000000000E+00  0.00000000000E+00  0.89718678276E+03  0.36335038089E+04  0.35209950023E+04 0.  0.
        2    1    3    3  502    0  0.17410248047E+04 -0.20299436805E+03  0.61808960263E+03  0.18586040033E+04  0.25500000920E-02 0.  1.
       -2    1    3    3    0  502 -0.17410248047E+04  0.20299436805E+03  0.27909718013E+03  0.17748998056E+04  0.25500000920E-02 0. -1.
</event>
<event>
 5   0  0.5677193E-07  0.3528931E+04  0.7818609E-02  0.8106968E-01
        2   -1    0    0  501    0  0.00000000000E+00  0.00000000000E+00  0.19865309117E+04  0.19865309117E+04  0.25500000920E-02 0.  1.
       -2   -1    0    0    0  501  0.00000000000E+00  0.00000000000E+00 -0.15672235605E+04  0.15672235605E+04  0.25500000920E-02 0. -1.
    10030    2    1    2    0    0  0.00000000000E+00  0.00000000000E+00  0.41930735116E+03  0.35537544722E+04  0.35289307437E+04 0.  0.
        3    1    3    3  502    0 -0.15030428094E+04 -0.84432271133E+03  0.58822293556E+03  0.18215446083E+04  0.10100000352E+00 0.  1.
       -3    1    3    3    0  502  0.15030428094E+04  0.84432271133E+03 -0.16891558440E+03  0.17322098639E+04  0.10100000352E+00 0. -1.
</event>
<event>
 5   0  0.5740827E-07  0.3486763E+04  0.7818609E-02  0.8116934E-01
        2   -1    0    0  501    0  0.00000000000E+00  0.00000000000E+00  0.20670380602E+04  0.20670380602E+04  0.25500000920E-02 0. -1.
       -2   -1    0    0    0  501  0.00000000000E+00  0.00000000000E+00 -0.14704031121E+04  0.14704031121E+04  0.25500000920E-02 0.  1.
    10030    2    1    2    0    0  0.00000000000E+00  0.00000000000E+00  0.59663494810E+03  0.35374411724E+04  0.34867630815E+04 0.  0.
        2    1    3    3  502    0  0.13223157443E+04 -0.64461952472E+03  0.12475042655E+04  0.19288131459E+04  0.25500000920E-02 0.  1.
       -2    1    3    3    0  502 -0.13223157443E+04  0.64461952472E+03 -0.65086931736E+03  0.16086280265E+04  0.25500000920E-02 0. -1.
</event>
<event>
 5   0  0.1897049E-07  0.3494812E+04  0.7818609E-02  0.8115021E-01
        1   -1    0    0  501    0  0.00000000000E+00  0.00000000000E+00  0.26338212669E+04  0.26338212669E+04  0.50400001928E-02 0. -1.
       -1   -1    0    0    0  501  0.00000000000E+00  0.00000000000E+00 -0.11593147324E+04  0.11593147324E+04  0.50400001928E-02 0.  1.
    10030    2    1    2    0    0  0.00000000000E+00  0.00000000000E+00  0.14745065345E+04  0.37931359993E+04  0.34948120392E+04 0.  0.
        2    1    3    3  502    0 -0.98136044138E+03 -0.58217755155E+03  0.21736381707E+04  0.24549341976E+04  0.25500000920E-02 0. -1.
       -2    1    3    3    0  502  0.98136044138E+03  0.58217755155E+03 -0.69913163623E+03  0.13382018018E+04  0.25500000920E-02 0.  1.
</event>
<event>
 5   0  0.5554745E-07  0.3497399E+04  0.7818609E-02  0.8114407E-01
        2   -1    0    0  501    0  0.00000000000E+00  0.00000000000E+00  0.10308061441E+04  0.10308061441E+04  0.25500000920E-02 0. -1.
       -2   -1    0    0    0  501  0.00000000000E+00  0.00000000000E+00 -0.29665612832E+04  0.29665612832E+04  0.25500000920E-02 0.  1.
    10030    2    1    2    0    0  0.00000000000E+00  0.00000000000E+00 -0.19357551391E+04  0.39973674273E+04  0.34973988034E+04 0.  0.
        5    1    3    3  502    0 -0.14249225156E+03  0.60104997112E+03  0.90194919499E+03  0.10932060876E+04  0.46999998093E+01 0. -1.
       -5    1    3    3    0  502  0.14249225156E+03 -0.60104997112E+03 -0.28377043341E+04  0.29041613397E+04  0.46999998093E+01 0.  1.
</event>
<event>
 5   0  0.5554745E-07  0.3500335E+04  0.7818609E-02  0.8113711E-01
        2   -1    0    0  501    0  0.00000000000E+00  0.00000000000E+00  0.14446123697E+04  0.14446123697E+04  0.25500000920E-02 0. -1.
       -2   -1    0    0    0  501  0.00000000000E+00  0.00000000000E+00 -0.21203517607E+04  0.21203517607E+04  0.25500000920E-02 0.  1.
    10030    2    1    2    0    0  0.00000000000E+00  0.00000000000E+00 -0.67573939093E+03  0.35649641304E+04  0.35003350592E+04 0.  0.
        5    1    3    3  502    0  0.58026691128E+03  0.11146658504E+02 -0.20194856579E+04  0.21012325784E+04  0.46999998093E+01 0.  1.
       -5    1    3    3    0  502 -0.58026691128E+03 -0.11146658504E+02  0.13437462669E+04  0.14637315520E+04  0.46999998093E+01 0. -1.
</event>
<event>
 5   0  0.5677193E-07  0.3495098E+04  0.7818609E-02  0.8114953E-01
        2   -1    0    0  501    0  0.00000000000E+00  0.00000000000E+00  0.17185494586E+04  0.17185494586E+04  0.25500000920E-02 0.  1.
       -2   -1    0    0    0  501  0.00000000000E+00  0.00000000000E+00 -0.17770377486E+04  0.17770377486E+04  0.25500000920E-02 0. -1.
    10030    2    1    2    0    0  0.00000000000E+00  0.00000000000E+00 -0.58488290036E+02  0.34955872072E+04  0.34950978588E+04 0.  0.
        3    1    3    3  502    0  0.17390255371E+04  0.36408099171E+02  0.13927835534E+03  0.17449738791E+04  0.10100000352E+00 0. -1.
       -3    1    3    3    0  502 -0.17390255371E+04 -0.36408099171E+02 -0.19776664537E+03  0.17506133281E+04  0.10100000352E+00 0.  1.
</event>
<event>
 5   0  0.5707187E-07  0.3455136E+04  0.7818609E-02  0.8124505E-01
       -2   -1    0    0    0  501  0.00000000000E+00  0.00000000000E+00  0.20752510293E+04  0.20752510293E+04  0.25500000920E-02 0. -1.
        2   -1    0    0  501    0  0.00000000000E+00  0.00000000000E+00 -0.14381352814E+04  0.14381352814E+04  0.25500000920E-02 0.  1.
    10030    2    1    2    0    0  0.00000000000E+00  0.00000000000E+00  0.63711574785E+03  0.35133863107E+04  0.34551363058E+04 0.  0.
        1    1    3    3  502    0  0.12005515642E+03 -0.50707881511E+03  0.19934297080E+04  0.20604135911E+04  0.50400001928E-02 0. -1.
       -1    1    3    3    0  502 -0.12005515642E+03  0.50707881511E+03 -0.13563139602E+04  0.14529727196E+04  0.50400001928E-02 0.  1.
</event>
<event>
 5   0  0.1908190E-07  0.3558462E+04  0.7818609E-02  0.8100073E-01
       -1   -1    0    0    0  501  0.00000000000E+00  0.00000000000E+00  0.11753077399E+04  0.11753077399E+04  0.50400001928E-02 0. -1.
        1   -1    0    0  501    0  0.00000000000E+00  0.00000000000E+00 -0.26934760408E+04  0.26934760408E+04  0.50400001928E-02 0.  1.
    10030    2    1    2    0    0  0.00000000000E+00  0.00000000000E+00 -0.15181683009E+04  0.38687837807E+04  0.35584621611E+04 0.  0.
        5    1    3    3  502    0 -0.17139259539E+03 -0.16292409990E+04 -0.15137649539E+04  0.22305398629E+04  0.46999998093E+01 0.  1.
       -5    1    3    3    0  502  0.17139259539E+03  0.16292409990E+04 -0.44033470010E+01  0.16382439177E+04  0.46999998093E+01 0. -1.
</event>
<event>
 5   0  0.1866421E-07  0.3498581E+04  0.7818609E-02  0.8114126E-01
        1   -1    0    0  501    0  0.00000000000E+00  0.00000000000E+00  0.14867998949E+04  0.14867998949E+04  0.50400001928E-02 0.  1.
       -1   -1    0    0    0  501  0.00000000000E+00  0.00000000000E+00 -0.20581236820E+04  0.20581236820E+04  0.50400001928E-02 0. -1.
    10030    2    1    2    0    0  0.00000000000E+00  0.00000000000E+00 -0.57132378711E+03  0.35449235768E+04  0.34985814691E+04 0.  0.
        1    1    3    3  502    0  0.38373559016E+02 -0.11041819562E+04  0.10885207127E+04  0.15509892535E+04  0.50400001928E-02 0.  1.
       -1    1    3    3    0  502 -0.38373559016E+02  0.11041819562E+04 -0.16598444998E+04  0.19939343234E+04  0.50400001928E-02 0. -1.
</event>
<event>
 5   0  0.5740827E-07  0.3486951E+04  0.7818609E-02  0.8116889E-01
       -2   -1    0    0    0  501  0.00000000000E+00  0.00000000000E+00  0.10807122746E+04  0.10807122746E+04  0.25500000920E-02 0. -1.
        2   -1    0    0  501    0  0.00000000000E+00  0.00000000000E+00 -0.28126886651E+04  0.28126886651E+04  0.25500000920E-02 0.  1.
    10030    2    1    2    0    0  0.00000000000E+00  0.00000000000E+00 -0.17319763905E+04  0.38934009397E+04  0.34869511984E+04 0.  0.
        2    1    3    3  502    0 -0.90448128748E+03  0.10409841972E+04 -0.20570908031E+04  0.24765615418E+04  0.25500000920E-02 0.  1.
       -2    1    3    3    0  502  0.90448128748E+03 -0.10409841972E+04  0.32511441263E+03  0.14168393979E+04  0.25500000920E-02 0. -1.
</event>
<event>
 5   0  0.1897049E-07  0.3511393E+04  0.7818609E-02  0.8111095E-01
        1   -1    0    0  501    0  0.00000000000E+00  0.00000000000E+00  0.19017669951E+04  0.19017669951E+04  0.50400001928E-02 0.  1.
       -1   -1    0    0    0  501  0.00000000000E+00  0.00000000000E+00 -0.16208458164E+04  0.16208458164E+04  0.50400001928E-02 0. -1.
    10030    2    1    2    0    0  0.00000000000E+00  0.00000000000E+00  0.28092117873E+03  0.35226128115E+04  0.35113934999E+04 0.  0.
        2    1    3    3  502    0 -0.15219873039E+03 -0.10742756748E+04  0.15251745549E+04  0.18717345170E+04  0.25500000920E-02 0.  1.
       -2    1    3    3    0  502  0.15219873039E+03  0.10742756748E+04 -0.12442533762E+04  0.16508782945E+04  0.25500000920E-02 0. -1.
</event>
<event>
 5   0  0.5707187E-07  0.3522206E+04  0.7818609E-02  0.8108547E-01
        2   -1    0    0  501    0  0.00000000000E+00  0.00000000000E+00  0.16093999089E+04  0.16093999089E+04  0.25500000920E-02 0. -1.
       -2   -1    0    0    0  501  0.00000000000E+00  0.00000000000E+00 -0.19271062374E+04  0.19271062374E+04  0.25500000920E-02 0.  1.
    10030    2    1    2    0    0  0.00000000000E+00  0.00000000000E+00 -0.31770632846E+03  0.35365061463E+04  0.35222064692E+04 0.  0.
        1    1    3    3  502    0 -0.88871608035E+03  0.25107358301E+03 -0.16644844985E+04  0.19035132942E+04  0.50400001928E-02 0.  1.
       -1    1    3    3    0  502  0.88871608035E+03 -0.25107358301E+03  0.13467781700E+04  0.16329928520E+04  0.50400001928E-02 0. -1.
</event>
<event>
 5   0  0.5554745E-07  0.3511385E+04  0.7818609E-02  0.8111097E-01
        2   -1    0    0  501    0  0.00000000000E+00  0.00000000000E+00  0.20165821241E+04  0.20165821241E+04  0.25500000920E-02 0. -1.
       -2   -1    0    0    0  501  0.00000000000E+00  0.00000000000E+00 -0.15285548995E+04  0.15285548995E+04  0.25500000920E-02 0.  1.
    10030    2    1    2    0    0  0.00000000000E+00  0.00000000000E+00  0.48802722464E+03  0.35451370236E+04  0.35113851888E+04 0.  0.
        5    1    3    3  502    0  0.12924626354E+04  0.31234666969E+03  0.14015127840E+04  0.19319110434E+04  0.46999998093E+01 0. -1.
       -5    1    3    3    0  502 -0.12924626354E+04 -0.31234666969E+03 -0.91348555939E+03  0.16132259802E+04  0.46999998093E+01 0.  1.
</event>
<event>
 5   0  0.1908190E-07  0.3535061E+04  0.7818609E-02  0.8105531E-01
        1   -1    0    0  501    0  0.00000000000E+00  0.00000000000E+00  0.18544271640E+04  0.18544271640E+04  0.50400001928E-02 0.  1.
       -1   -1    0    0    0  501  0.00000000000E+00  0.00000000000E+00 -0.16847056807E+04  0.16847056807E+04  0.50400001928E-02 0. -1.
    10030    2    1    2    0    0  0.00000000000E+00  0.00000000000E+00  0.16972148327E+03  0.35391328446E+04  0.35350609486E+04 0.  0.
        5    1    3    3  502    0  0.71677375286E+02 -0.16018423805E+02  0.18528925604E+04  0.18543535710E+04  0.46999998093E+01 0.  1.
       -5    1    3    3    0  502 -0.71677375286E+02  0.16018423805E+02 -0.16831710771E+04  0.16847792736E+04  0.46999998093E+01 0. -1.
</event>
<event>
 5   0  0.1908190E-07  0.3485136E+04  0.7818609E-02  0.8117322E-01
       -1   -1    0    0    0  501  0.00000000000E+00  0.00000000000E+00  0.17051927393E+04  0.17051927393E+04  0.50400001928E-02 0. -1.
        1   -1    0    0  501    0  0.00000000000E+00  0.00000000000E+00 -0.17807625412E+04  0.17807625412E+04  0.50400001928E-02 0.  1.
    10030    2    1    2    0    0  0.00000000000E+00  0.00000000000E+00 -0.75569801906E+02  0.34859552805E+04  0.34851360694E+04 0.  0.
        5    1    3    3  502    0 -0.38620377666E+03  0.16326495087E+04  0.43330721919E+03  0.17327651345E+04  0.46999998093E+01 0.  1.
       -5    1    3    3    0  502  0.38620377666E+03 -0.16326495087E+04 -0.50887702109E+03  0.17531901459E+04  0.46999998093E+01 0. -1.
</event>
<event>
 5   0  0.5707187E-07  0.3510518E+04  0.7818609E-02  0.8111302E-01
        2   -1    0    0  501    0  0.00000000000E+00  0.00000000000E+00  0.18967014853E+04  0.18967014853E+04  0.25500000920E-02 0.  1.
       -2   -1    0    0    0  501  0.00000000000E+00  0.00000000000E+00 -0.16243642944E+04  0.16243642944E+04  0.25500000920E-02 0. -1.
    10030    2    1    2    0    0  0.00000000000E+00  0.00000000000E+00  0.27233719089E+03  0.35210657798E+04  0.35105180073E+04 0.  0.
        1    1    3    3  502    0  0.11874134810E+04 -0.87788896497E+03  0.10878579212E+04  0.18341413976E+04  0.50400001928E-02 0.  1.
       -1    1    3    3    0  502 -0.11874134810E+04  0.87788896497E+03 -0.81552073027E+03  0.16869243822E+04  0.50400001928E-02 0. -1.
</event>
<event>
 5   0  0.5573334E-07  0.3502094E+04  0.7818609E-02  0.8113294E-01
       -2   -1    0    0    0  501  0.00000000000E+00  0.00000000000E+00  0.13085393293E+04  0.13085393293E+04  0.25500000920E-02 0.  1.
        2   -1    0    0  501    0  0.00000000000E+00  0.00000000000E+00 -0.23431970506E+04  0.23431970506E+04  0.25500000920E-02 0. -1.
    10030    2    1    2    0    0  0.00000000000E+00  0.00000000000E+00 -0.10346577213E+04  0.36517363800E+04  0.35020939434E+04 0.  0.
        4    1    3    3  502    0  0.15023319846E+04 -0.68579413624E+03  0.89651533429E+02  0.16538905645E+04  0.12699999809E+01 0.  1.
       -4    1    3    3    0  502 -0.15023319846E+04  0.68579413624E+03 -0.11243092547E+04  0.19978458154E+04  0.12699999809E+01 0. -1.
</event>
<event>
 5   0  0.1897049E-07  0.3503147E+04  0.7818609E-02  0.8113044E-01
       -1   -1    0    0    0  501  0.00000000000E+00  0.00000000000E+00  0.20090948412E+04  0.20090948412E+04  0.50400001928E-02 0.  1.
        1   -1    0    0  501    0  0.00000000000E+00  0.00000000000E+00 -0.15270610670E+04  0.15270610670E+04  0.50400001928E-02 0. -1.
    10030    2    1    2    0    0  0.00000000000E+00  0.00000000000E+00  0.48203377420E+03  0.35361559081E+04  0.35031474487E+04 0.  0.
        2    1    3    3  502    0 -0.15421083524E+03  0.10638548220E+03 -0.15169183347E+04  0.15284436812E+04  0.25500000920E-02 0. -1.
       -2    1    3    3    0  502  0.15421083524E+03 -0.10638548220E+03  0.19989521089E+04  0.20077122269E+04  0.25500000920E-02 0.  1.
</event>
<event>
 5   0  0.1933647E-07  0.3067447E+04  0.7818609E-02  0.8224729E-01
       -1   -1    0    0    0  501  0.00000000000E+00  0.00000000000E+00  0.13514284377E+04  0.13514284377E+04  0.50400001928E-02 0.  1.
        1   -1    0    0  501    0  0.00000000000E+00  0.00000000000E+00 -0.17406087769E+04  0.17406087769E+04  0.50400001928E-02 0. -1.
    10030    2    1    2    0    0  0.00000000000E+00  0.00000000000E+00 -0.38918033918E+03  0.30920372146E+04  0.30674472775E+04 0.  0.
        4    1    3    3  502    0  0.13445960887E+03 -0.11622072993E+03  0.13410129033E+04  0.13527393926E+04  0.12699999809E+01 0.  1.
       -4    1    3    3    0  502 -0.13445960887E+03  0.11622072993E+03 -0.17301932425E+04  0.17392978220E+04  0.12699999809E+01 0. -1.
</event>
<event>
 5   0  0.5677193E-07  0.3481833E+04  0.7818609E-02  0.8118109E-01
        2   -1    0    0  501    0  0.00000000000E+00  0.00000000000E+00  0.19899599800E+04  0.19899599800E+04  0.25500000920E-02 0. -1.
       -2   -1    0    0    0  501  0.00000000000E+00  0.00000000000E+00 -0.15230411777E+04  0.15230411777E+04  0.25500000920E-02 0.  1.
    10030    2    1    2    0    0  0.00000000000E+00  0.00000000000E+00  0.46691880229E+03  0.35130011578E+04  0.34818334203E+04 0.  0.
        3    1    3    3  502    0  0.81748382444E+03  0.60711339793E+03 -0.11912446469E+04  0.15671408042E+04  0.10100000352E+00 0.  1.
       -3    1    3    3    0  502 -0.81748382444E+03 -0.60711339793E+03  0.16581634492E+04  0.19458603536E+04  0.10100000352E+00 0. -1.
</event>
<event>
 5   0  0.1866421E-07  0.3481789E+04  0.7818609E-02  0.8118119E-01
       -1   -1    0    0    0  501  0.00000000000E+00  0.00000000000E+00  0.14894814473E+04  0.14894814473E+04  0.50400001928E-02 0. -1.
        1   -1    0    0  501    0  0.00000000000E+00  0.00000000000E+00 -0.20347442296E+04  0.20347442296E+04  0.50400001928E-02 0.  1.
    10030    2    1    2    0    0  0.00000000000E+00  0.00000000000E+00 -0.54526278230E+03  0.35242256768E+04  0.34817890688E+04 0.  0.
        1    1    3    3  502    0  0.79351641019E+03 -0.13095071918E+04  0.56585907562E+03  0.16323828816E+04  0.50400001928E-02 0. -1.
       -1    1    3    3    0  502 -0.79351641019E+03  0.13095071918E+04 -0.11111218579E+04  0.18918427952E+04  0.50400001928E-02 0.  1.
</event>
<event>
 5   0  0.5677193E-07  0.3465754E+04  0.7818609E-02  0.8121954E-01
       -2   -1    0    0    0  501  0.00000000000E+00  0.00000000000E+00  0.12868592251E+04  0.12868592251E+04  0.25500000920E-02 0.  1.
        2   -1    0    0  501    0  0.00000000000E+00  0.00000000000E+00 -0.23334814405E+04  0.23334814405E+04  0.25500000920E-02 0. -1.
    10030    2    1    2    0    0  0.00000000000E+00  0.00000000000E+00 -0.10466222154E+04  0.36203406656E+04  0.34657536660E+04 0.  0.
        3    1    3    3  502    0  0.28341725520E+03 -0.59979946594E+03  0.11489619288E+04  0.13267246375E+04  0.10100000352E+00 0.  1.
       -3    1    3    3    0  502 -0.28341725520E+03  0.59979946594E+03 -0.21955841441E+04  0.22936160280E+04  0.10100000352E+00 0. -1.
</event>
<event>
 5   0  0.1897049E-07  0.3289306E+04  0.7818609E-02  0.8165622E-01
       -1   -1    0    0    0  501  0.00000000000E+00  0.00000000000E+00  0.98570017077E+03  0.98570017079E+03  0.50400001928E-02 0. -1.
        1   -1    0    0  501    0  0.00000000000E+00  0.00000000000E+00 -0.27441237924E+04  0.27441237924E+04  0.50400001928E-02 0.  1.
    10030    2    1    2    0    0  0.00000000000E+00  0.00000000000E+00 -0.17584236216E+04  0.37298239632E+04  0.32893058786E+04 0.  0.
        2    1    3    3  502    0  0.49079458565E+03  0.20292482300E+03 -0.26442135594E+04  0.26970211635E+04  0.25500000920E-02 0.  1.
       -2    1    3    3    0  502 -0.49079458565E+03 -0.20292482300E+03  0.88578993775E+03  0.10328027996E+04  0.25500000920E-02 0. -1.
</event>
<event>
 5   0  0.5707187E-07  0.3486262E+04  0.7818609E-02  0.8117053E-01
        2   -1    0    0  501    0  0.00000000000E+00  0.00000000000E+00  0.23692986156E+04  0.23692986156E+04  0.25500000920E-02 0.  1.
       -2   -1    0    0    0  501  0.00000000000E+00  0.00000000000E+00 -0.12824493025E+04  0.12824493025E+04  0.25500000920E-02 0. -1.
    10030    2    1    2    0    0  0.00000000000E+00  0.00000000000E+00  0.10868493131E+04  0.36517479182E+04  0.34862618130E+04 0.  0.
        1    1    3    3  502    0 -0.17348077332E+04 -0.89584711035E+02  0.39191403895E+03  0.17807807012E+04  0.50400001928E-02 0. -1.
       -1    1    3    3    0  502  0.17348077332E+04  0.89584711035E+02  0.69493527414E+03  0.18709672170E+04  0.50400001928E-02 0.  1.
</event>
<event>
 5   0  0.5740827E-07  0.3482336E+04  0.7818609E-02  0.8117989E-01
        2   -1    0    0  501    0  0.00000000000E+00  0.00000000000E+00  0.18092099759E+04  0.18092099759E+04  0.25500000920E-02 0. -1.
       -2   -1    0    0    0  501  0.00000000000E+00  0.00000000000E+00 -0.16756853240E+04  0.16756853240E+04  0.25500000920E-02 0.  1.
    10030    2    1    2    0    0  0.00000000000E+00  0.00000000000E+00  0.13352465190E+03  0.34848952999E+04  0.34823363449E+04 0.  0.
        2    1    3    3  502    0 -0.15188532752E+04  0.45507486249E+02 -0.78396847682E+03  0.17098516824E+04  0.25500000920E-02 0.  1.
       -2    1    3    3    0  502  0.15188532752E+04 -0.45507486249E+02  0.91749312871E+03  0.17750436176E+04  0.25500000920E-02 0. -1.
</event>
<event>
 5   0  0.1933647E-07  0.3491961E+04  0.7818609E-02  0.8115698E-01
       -1   -1    0    0    0  501  0.00000000000E+00  0.00000000000E+00  0.18441265648E+04  0.18441265648E+04  0.50400001928E-02 0. -1.
        1   -1    0    0  501    0  0.00000000000E+00  0.00000000000E+00 -0.16530582799E+04  0.16530582799E+04  0.50400001928E-02 0.  1.
    10030    2    1    2    0    0  0.00000000000E+00  0.00000000000E+00  0.19106828493E+03  0.34971848448E+04  0.34919614472E+04 0.  0.
        4    1    3    3  502    0 -0.46677941285E+03  0.51192193814E+03 -0.15095172068E+04  0.16609006297E+04  0.12699999809E+01 0.  1.
       -4    1    3    3    0  502  0.46677941285E+03 -0.51192193814E+03  0.17005854917E+04  0.18362842151E+04  0.12699999809E+01 0. -1.
</event>
<event>
 5   0  0.5573334E-07  0.3571673E+04  0.7818609E-02  0.8097011E-01
       -2   -1    0    0    0  501  0.00000000000E+00  0.00000000000E+00  0.26933652473E+04  0.26933652473E+04  0.25500000920E-02 0. -1.
        2   -1    0    0  501    0  0.00000000000E+00  0.00000000000E+00 -0.11840990416E+04  0.11840990417E+04  0.25500000920E-02 0.  1.
    10030    2    1    2    0    0  0.00000000000E+00  0.00000000000E+00  0.15092662057E+04  0.38774642890E+04  0.35716725539E+04 0.  0.
        4    1    3    3  502    0 -0.11752652813E+04  0.90275062834E+03 -0.32717772238E+03  0.15176475393E+04  0.12699999809E+01 0. -1.
       -4    1    3    3    0  502  0.11752652813E+04 -0.90275062834E+03  0.18364439280E+04  0.23598167497E+04  0.12699999809E+01 0.  1.
</event>
<event>
 5   0  0.5554745E-07  0.3486605E+04  0.7818609E-02  0.8116972E-01
       -2   -1    0    0    0  501  0.00000000000E+00  0.00000000000E+00  0.14445794538E+04  0.14445794538E+04  0.25500000920E-02 0. -1.
        2   -1    0    0  501    0  0.00000000000E+00  0.00000000000E+00 -0.21037976852E+04  0.21037976852E+04  0.25500000920E-02 0.  1.
    10030    2    1    2    0    0  0.00000000000E+00  0.00000000000E+00 -0.65921823139E+03  0.35483771390E+04  0.34866046010E+04 0.  0.
        5    1    3    3  502    0 -0.12416396591E+04  0.89362461774E+03  0.52117244837E+03  0.16161301963E+04  0.46999998093E+01 0. -1.
       -5    1    3    3    0  502  0.12416396591E+04 -0.89362461774E+03 -0.11803906798E+04  0.19322469427E+04  0.46999998093E+01 0.  1.
</event>
<event>
 5   0  0.1866421E-07  0.3445207E+04  0.7818609E-02  0.8126899E-01
       -1   -1    0    0    0  501  0.00000000000E+00  0.00000000000E+00  0.11923895664E+04  0.11923895664E+04  0.50400001928E-02 0.  1.
        1   -1    0    0  501    0  0.00000000000E+00  0.00000000000E+00 -0.24885848909E+04  0.24885848909E+04  0.50400001928E-02 0. -1.
    10030    2    1    2    0    0  0.00000000000E+00  0.00000000000E+00 -0.12961953246E+04  0.36809744573E+04  0.34452069076E+04 0.  0.
        1    1    3    3  502    0 -0.13473369096E+04 -0.84816863319E+03 -0.13508767017E+04  0.20879594444E+04  0.50400001928E-02 0.  1.
       -1    1    3    3    0  502  0.13473369096E+04  0.84816863319E+03  0.54681377134E+02  0.15930150129E+04  0.50400001928E-02 0. -1.
</event>
<event>
 5   0  0.5573334E-07  0.3842490E+04  0.7818609E-02  0.8037098E-01
        2   -1    0    0  501    0  0.00000000000E+00  0.00000000000E+00  0.13736604821E+04  0.13736604821E+04  0.25500000920E-02 0. -1.
       -2   -1    0    0    0  501  0.00000000000E+00  0.00000000000E+00 -0.26871136573E+04  0.26871136573E+04  0.25500000920E-02 0.  1.
    10030    2    1    2    0    0  0.00000000000E+00  0.00000000000E+00 -0.13134531752E+04  0.40607741394E+04  0.38424897356E+04 0.  0.
        4    1    3    3  502    0  0.12572758297E+04 -0.62934560842E+03 -0.20404438596E+04  0.24779489833E+04  0.12699999809E+01 0.  1.
       -4    1    3    3    0  502 -0.12572758297E+04  0.62934560842E+03  0.72699068442E+03  0.15828251561E+04  0.12699999809E+01 0. -1.
</event>
<event>
 5   0  0.1873457E-07  0.3490100E+04  0.7818609E-02  0.8116140E-01
        1   -1    0    0  501    0  0.00000000000E+00  0.00000000000E+00  0.11105098142E+04  0.11105098142E+04  0.50400001928E-02 0. -1.
       -1   -1    0    0    0  501  0.00000000000E+00  0.00000000000E+00 -0.27421634041E+04  0.27421634041E+04  0.50400001928E-02 0.  1.
    10030    2    1    2    0    0  0.00000000000E+00  0.00000000000E+00 -0.16316535898E+04  0.38526732183E+04  0.34900999255E+04 0.  0.
        3    1    3    3  502    0  0.45146217822E+03  0.15137996648E+04  0.26822008003E+01  0.15796881743E+04  0.10100000352E+00 0. -1.
       -3    1    3    3    0  502 -0.45146217822E+03 -0.15137996648E+04 -0.16343357906E+04  0.22729850440E+04  0.10100000352E+00 0.  1.
</event>
<event>
 5   0  0.1897049E-07  0.3485794E+04  0.7818609E-02  0.8117165E-01
       -1   -1    0    0    0  501  0.00000000000E+00  0.00000000000E+00  0.18535622275E+04  0.18535622275E+04  0.50400001928E-02 0. -1.
        1   -1    0    0  501    0  0.00000000000E+00  0.00000000000E+00 -0.16388392223E+04  0.16388392223E+04  0.50400001928E-02 0.  1.
    10030    2    1    2    0    0  0.00000000000E+00  0.00000000000E+00  0.21472300528E+03  0.34924014498E+04  0.34857943022E+04 0.  0.
        2    1    3    3  502    0 -0.41189333308E+03 -0.10255644139E+04 -0.12428769016E+04  0.16631841381E+04  0.25500000920E-02 0.  1.
       -2    1    3    3    0  502  0.41189333308E+03  0.10255644139E+04  0.14575999068E+04  0.18292173117E+04  0.25500000920E-02 0. -1.
</event>
<event>
 5   0  0.1897049E-07  0.3493371E+04  0.7818609E-02  0.8115363E-01
       -1   -1    0    0    0  501  0.00000000000E+00  0.00000000000E+00  0.15250828562E+04  0.15250828563E+04  0.50400001928E-02 0. -1.
        1   -1    0    0  501    0  0.00000000000E+00  0.00000000000E+00 -0.20004878025E+04  0.20004878025E+04  0.50400001928E-02 0.  1.
    10030    2    1    2    0    0  0.00000000000E+00  0.00000000000E+00 -0.47540494628E+03  0.35255706588E+04  0.34933706656E+04 0.  0.
        2    1    3    3  502    0 -0.23402543110E+03  0.84055438274E+03  0.12893906385E+04  0.15568647313E+04  0.25500000920E-02 0. -1.
       -2    1    3    3    0  502  0.23402543110E+03 -0.84055438274E+03 -0.17647955848E+04  0.19687059275E+04  0.25500000920E-02 0.  1.
</event>
<event>
 5   0  0.1866421E-07  0.3096706E+04  0.7818609E-02  0.8216643E-01
        1   -1    0    0  501    0  0.00000000000E+00  0.00000000000E+00  0.16070426364E+04  0.16070426364E+04  0.50400001928E-02 0.  1.
       -1   -1    0    0    0  501  0.00000000000E+00  0.00000000000E+00 -0.14918062686E+04  0.14918062686E+04  0.50400001928E-02 0. -1.
    10030    2    1    2    0    0  0.00000000000E+00  0.00000000000E+00  0.11523636784E+03  0.30988489050E+04  0.30967055262E+04 0.  0.
        1    1    3    3  502    0 -0.15670868764E+03 -0.13197349566E+04  0.85261019345E+03  0.15789876853E+04  0.50400001928E-02 0.  1.
       -1    1    3    3    0  502  0.15670868764E+03  0.13197349566E+04 -0.73737382561E+03  0.15198612197E+04  0.50400001928E-02 0. -1.
</event>
<event>
 5   0  0.1908190E-07  0.3449248E+04  0.7818609E-02  0.8125924E-01
       -1   -1    0    0    0  501  0.00000000000E+00  0.00000000000E+00  0.16100226738E+04  0.16100226738E+04  0.50400001928E-02 0. -1.
        1   -1    0    0  501    0  0.00000000000E+00  0.00000000000E+00 -0.18473824471E+04  0.18473824471E+04  0.50400001928E-02 0.  1.
    10030    2    1    2    0    0  0.00000000000E+00  0.00000000000E+00 -0.23735977331E+03  0.34574051209E+04  0.34492478177E+04 0.  0.
        5    1    3    3  502    0 -0.12757559724E+04  0.97015749142E+03  0.51965164339E+03  0.16848794555E+04  0.46999998093E+01 0.  1.
       -5    1    3    3    0  502  0.12757559724E+04 -0.97015749142E+03 -0.75701141670E+03  0.17725256653E+04  0.46999998093E+01 0. -1.
</event>
<event>
 5   0  0.1897049E-07  0.3507906E+04  0.7818609E-02  0.8111919E-01
        1   -1    0    0  501    0  0.00000000000E+00  0.00000000000E+00  0.18246705027E+04  0.18246705027E+04  0.50400001928E-02 0. -1.
       -1   -1    0    0    0  501  0.00000000000E+00  0.00000000000E+00 -0.16859759170E+04  0.16859759170E+04  0.50400001928E-02 0.  1.
    10030    2    1    2    0    0  0.00000000000E+00  0.00000000000E+00  0.13869458570E+03  0.35106464198E+04  0.35079056568E+04 0.  0.
        2    1    3    3  502    0  0.16547133361E+04  0.21688022478E+03 -0.47073838443E+03  0.17339861254E+04  0.25500000920E-02 0. -1.
       -2    1    3    3    0  502 -0.16547133361E+04 -0.21688022478E+03  0.60943297013E+03  0.17766602944E+04  0.25500000920E-02 0.  1.
</event>
<event>
 5   0  0.5573334E-07  0.3366797E+04  0.7818609E-02  0.8146104E-01
       -2   -1    0    0    0  501  0.00000000000E+00  0.00000000000E+00  0.11513688655E+04  0.11513688655E+04  0.25500000920E-02 0.  1.
        2   -1    0    0  501    0  0.00000000000E+00  0.00000000000E+00 -0.24612707539E+04  0.24612707539E+04  0.25500000920E-02 0. -1.
    10030    2    1    2    0    0  0.00000000000E+00  0.00000000000E+00 -0.13099018884E+04  0.36126396193E+04  0.33667970034E+04 0.  0.
        4    1    3    3  502    0  0.84319931062E+03  0.10963854131E+04 -0.16845931104E+04  0.21796563060E+04  0.12699999809E+01 0. -1.
       -4    1    3    3    0  502 -0.84319931062E+03 -0.10963854131E+04  0.37469122202E+03  0.14329833134E+04  0.12699999809E+01 0.  1.
</event>
<event>
 5   0  0.5573334E-07  0.3523731E+04  0.7818609E-02  0.8108189E-01
       -2   -1    0    0    0  501  0.00000000000E+00  0.00000000000E+00  0.15126205384E+04  0.15126205384E+04  0.25500000920E-02 0.  1.
        2   -1    0    0  501    0  0.00000000000E+00  0.00000000000E+00 -0.20521802826E+04  0.20521802826E+04  0.25500000920E-02 0. -1.
    10030    2    1    2    0    0  0.00000000000E+00  0.00000000000E+00 -0.53955974418E+03  0.35648008210E+04  0.35237310022E+04 0.  0.
        4    1    3    3  502    0  0.10484728279E+04 -0.13951133501E+03  0.11556885357E+04  0.15666449145E+04  0.12699999809E+01 0.  1.
       -4    1    3    3    0  502 -0.10484728279E+04  0.13951133501E+03 -0.16952482799E+04  0.19981559066E+04  0.12699999809E+01 0. -1.
</event>
<event>
 5   0  0.5707187E-07  0.3466883E+04  0.7818609E-02  0.8121683E-01
        2   -1    0    0  501    0  0.00000000000E+00  0.00000000000E+00  0.17193224097E+04  0.17193224097E+04  0.25500000920E-02 0.  1.
       -2   -1    0    0    0  501  0.00000000000E+00  0.00000000000E+00 -0.17476767386E+04  0.17476767386E+04  0.25500000920E-02 0. -1.
    10030    2    1    2    0    0  0.00000000000E+00  0.00000000000E+00 -0.28354328979E+02  0.34669991483E+04  0.34668832006E+04 0.  0.
        1    1    3    3  502    0  0.12673319802E+03  0.11251540929E+04  0.12984164445E+04  0.17227647255E+04  0.50400001928E-02 0.  1.
       -1    1    3    3    0  502 -0.12673319802E+03 -0.11251540929E+04 -0.13267707734E+04  0.17442344228E+04  0.50400001928E-02 0. -1.
</event>
<event>
 5   0  0.1933647E-07  0.3502113E+04  0.7818609E-02  0.8113289E-01
        1   -1    0    0  501    0  0.00000000000E+00  0.00000000000E+00  0.10918180798E+04  0.10918180798E+04  0.50400001928E-02 0. -1.
       -1   -1    0    0    0  501  0.00000000000E+00  0.00000000000E+00 -0.28083427141E+04  0.28083427141E+04  0.50400001928E-02 0.  1.
    10030    2    1    2    0    0  0.00000000000E+00  0.00000000000E+00 -0.17165246343E+04  0.39001607939E+04  0.35021132761E+04 0.  0.
        4    1    3    3  502    0  0.40052388654E+03  0.15720500877E+04 -0.15922954499E+04  0.22731403992E+04  0.12699999809E+01 0. -1.
       -4    1    3    3    0  502 -0.40052388654E+03 -0.15720500877E+04 -0.12422918445E+03  0.16270203948E+04  0.12699999809E+01 0.  1.
</event>
<event>
 5   0  0.1933647E-07  0.3645049E+04  0.7818609E-02  0.8080250E-01
        1   -1    0    0  501    0  0.00000000000E+00  0.00000000000E+00  0.17409148491E+04  0.17409148492E+04  0.50400001928E-02 0. -1.
       -1   -1    0    0    0  501  0.00000000000E+00  0.00000000000E+00 -0.19079602683E+04  0.19079602683E+04  0.50400001928E-02 0.  1.
    10030    2    1    2    0    0  0.00000000000E+00  0.00000000000E+00 -0.16704541916E+03  0.36488751175E+04  0.36450494442E+04 0.  0.
        4    1    3    3  502    0  0.14230787962E+04  0.19277518770E+03  0.10398311816E+04  0.17730104434E+04  0.12699999809E+01 0. -1.
       -4    1    3    3    0  502 -0.14230787962E+04 -0.19277518770E+03 -0.12068766007E+04  0.18758646741E+04  0.12699999809E+01 0.  1.
</event>
<event>
 5   0  0.5554745E-07  0.3488482E+04  0.7818609E-02  0.8116525E-01
       -2   -1    0    0    0  501  0.00000000000E+00  0.00000000000E+00  0.26910757103E+04  0.26910757104E+04  0.25500000920E-02 0.  1.
        2   -1    0    0  501    0  0.00000000000E+00  0.00000000000E+00 -0.11305427097E+04  0.11305427097E+04  0.25500000920E-02 0. -1.
    10030    2    1    2    0    0  0.00000000000E+00  0.00000000000E+00  0.15605330007E+04  0.38216184200E+04  0.34884816328E+04 0.  0.
        5    1    3    3  502    0  0.38228666728E+03  0.16999228243E+04  0.69212682794E+03  0.18748179486E+04  0.46999998093E+01 0. -1.
       -5    1    3    3    0  502 -0.38228666728E+03 -0.16999228243E+04  0.86840617273E+03  0.19468004714E+04  0.46999998093E+01 0.  1.
</event>
<event>
 5   0  0.1908190E-07  0.3108253E+04  0.7818609E-02  0.8213477E-01
       -1   -1    0    0    0  501  0.00000000000E+00  0.00000000000E+00  0.12739116538E+04  0.12739116538E+04  0.50400001928E-02 0. -1.
        1   -1    0    0  501    0  0.00000000000E+00  0.00000000000E+00 -0.18959788478E+04  0.18959788478E+04  0.50400001928E-02 0.  1.
    10030    2    1    2    0    0  0.00000000000E+00  0.00000000000E+00 -0.62206719405E+03  0.31698905016E+04  0.31082532391E+04 0.  0.
        5    1    3    3  502    0  0.12242335012E+04 -0.78930071487E+03 -0.86357471169E+03  0.16933772931E+04  0.46999998093E+01 0. -1.
       -5    1    3    3    0  502 -0.12242335012E+04  0.78930071487E+03  0.24150751764E+03  0.14765132086E+04  0.46999998093E+01 0.  1.
</event>
<event>
 5   0  0.1823000E-07  0.3601316E+04  0.7818609E-02  0.8090190E-01
        3   -1    0    0  501    0  0.00000000000E+00  0.00000000000E+00  0.14512519493E+04  0.14512519528E+04  0.10100000352E+00 0. -1.
       -3   -1    0    0    0  501  0.00000000000E+00  0.00000000000E+00 -0.22341882008E+04  0.22341882031E+04  0.10100000352E+00 0.  1.
    10030    2    1    2    0    0  0.00000000000E+00  0.00000000000E+00 -0.78293625154E+03  0.36854401558E+04  0.36013164216E+04 0.  0.
        4    1    3    3  502    0 -0.17631294771E+04  0.13035688698E+02 -0.76548160557E+03  0.19221756381E+04  0.12699999809E+01 0.  1.
       -4    1    3    3    0  502  0.17631294771E+04 -0.13035688698E+02 -0.17454645975E+02  0.17632645178E+04  0.12699999809E+01 0. -1.
</event>
<event>
 5   0  0.5740827E-07  0.3497146E+04  0.7818609E-02  0.8114467E-01
       -2   -1    0    0    0  501  0.00000000000E+00  0.00000000000E+00  0.24382837296E+04  0.24382837296E+04  0.25500000920E-02 0.  1.
        2   -1    0    0  501    0  0.00000000000E+00  0.00000000000E+00 -0.12539588599E+04  0.12539588599E+04  0.25500000920E-02 0. -1.
    10030    2    1    2    0    0  0.00000000000E+00  0.00000000000E+00  0.11843248698E+04  0.36922425895E+04  0.34971459710E+04 0.  0.
        2    1    3    3  502    0 -0.86876269890E+02  0.71043085270E+03  0.22765480353E+04  0.23864053385E+04  0.25500000920E-02 0.  1.
       -2    1    3    3    0  502  0.86876269890E+02 -0.71043085270E+03 -0.10922231655E+04  0.13058372510E+04  0.25500000920E-02 0. -1.
</event>
<event>
 5   0  0.1873457E-07  0.3519589E+04  0.7818609E-02  0.8109163E-01
       -1   -1    0    0    0  501  0.00000000000E+00  0.00000000000E+00  0.20627536217E+04  0.20627536217E+04  0.50400001928E-02 0. -1.
        1   -1    0    0  501    0  0.00000000000E+00  0.00000000000E+00 -0.15013313300E+04  0.15013313300E+04  0.50400001928E-02 0.  1.
    10030    2    1    2    0    0  0.00000000000E+00  0.00000000000E+00  0.56142229174E+03  0.35640849518E+04  0.35195889751E+04 0.  0.
        3    1    3    3  502    0 -0.14906602831E+04 -0.27675051348E+03 -0.62401423890E+03  0.16395281964E+04  0.10100000352E+00 0.  1.
       -3    1    3    3    0  502  0.14906602831E+04  0.27675051348E+03  0.11854365306E+04  0.19245567554E+04  0.10100000352E+00 0. -1.
</event>
<event>
 5   0  0.5677193E-07  0.3492332E+04  0.7818609E-02  0.8115610E-01
       -2   -1    0    0    0  501  0.00000000000E+00  0.00000000000E+00  0.11531697978E+04  0.11531697978E+04  0.25500000920E-02 0. -1.
        2   -1    0    0  501    0  0.00000000000E+00  0.00000000000E+00 -0.26440994085E+04  0.26440994085E+04  0.25500000920E-02 0.  1.
    10030    2    1    2    0    0  0.00000000000E+00  0.00000000000E+00 -0.14909296107E+04  0.37972692064E+04  0.34923319318E+04 0.  0.
        3    1    3    3  502    0 -0.24529308734E+03 -0.16237685802E+04 -0.13908421504E+04  0.21520304362E+04  0.10100000352E+00 0.  1.
       -3    1    3    3    0  502  0.24529308734E+03  0.16237685802E+04 -0.10008746032E+03  0.16452387702E+04  0.10100000352E+00 0. -1.
</event>
<event>
 5   0  0.5573334E-07  0.3540347E+04  0.7818609E-02  0.8104294E-01
        2   -1    0    0  501    0  0.00000000000E+00  0.00000000000E+00  0.19844311588E+04  0.19844311588E+04  0.25500000920E-02 0. -1.
       -2   -1    0    0    0  501  0.00000000000E+00  0.00000000000E+00 -0.15790491227E+04  0.15790491227E+04  0.25500000920E-02 0.  1.
    10030    2    1    2    0    0  0.00000000000E+00  0.00000000000E+00  0.40538203609E+03  0.35634802814E+04  0.35403470340E+04 0.  0.
        4    1    3    3  502    0 -0.54494192500E+03  0.16839583737E+04  0.17360302966E+03  0.17784310869E+04  0.12699999809E+01 0. -1.
       -4    1    3    3    0  502  0.54494192500E+03 -0.16839583737E+04  0.23177900643E+03  0.17850491945E+04  0.12699999809E+01 0.  1.
</event>
<event>
 5   0  0.5573334E-07  0.3478977E+04  0.7818609E-02  0.8118790E-01
        2   -1    0    0  501    0  0.00000000000E+00  0.00000000000E+00  0.14567901686E+04  0.14567901686E+04  0.25500000920E-02 0.  1.
       -2   -1    0    0    0  501  0.00000000000E+00  0.00000000000E+00 -0.20770463695E+04  0.20770463695E+04  0.25500000920E-02 0. -1.
    10030    2    1    2    0    0  0.00000000000E+00  0.00000000000E+00 -0.62025620090E+03  0.35338365381E+04  0.34789772812E+04 0.  0.
        4    1    3    3  502    0 -0.27290528087E+03 -0.46615358501E+03  0.13694395743E+04  0.14721218760E+04  0.12699999809E+01 0.  1.
       -4    1    3    3    0  502  0.27290528087E+03  0.46615358501E+03 -0.19896957752E+04  0.20617146621E+04  0.12699999809E+01 0. -1.
</event>
<event>
 5   0  0.1897049E-07  0.3533477E+04  0.7818609E-02  0.8105902E-01
        1   -1    0    0  501    0  0.00000000000E+00  0.00000000000E+00  0.23033998824E+04  0.23033998824E+04  0.50400001928E-02 0. -1.
       -1   -1    0    0    0  501  0.00000000000E+00  0.00000000000E+00 -0.13551117399E+04  0.13551117399E+04  0.50400001928E-02 0.  1.
    10030    2    1    2    0    0  0.00000000000E+00  0.00000000000E+00  0.94828814257E+03  0.36585116223E+04  0.35334766009E+04 0.  0.
        2    1    3    3  502    0  0.53194988777E+03  0.16595941342E+04  0.77447887617E+03  0.19071027510E+04  0.25500000920E-02 0. -1.
       -2    1    3    3    0  502 -0.53194988777E+03 -0.16595941342E+04  0.17380926640E+03  0.17514088713E+04  0.25500000920E-02 0.  1.
</event>
<event>
 5   0  0.5707187E-07  0.3489072E+04  0.7818609E-02  0.8116385E-01
       -2   -1    0    0    0  501  0.00000000000E+00  0.00000000000E+00  0.14624860521E+04  0.14624860521E+04  0.25500000920E-02 0.  1.
        2   -1    0    0  501    0  0.00000000000E+00  0.00000000000E+00 -0.20809816679E+04  0.20809816679E+04  0.25500000920E-02 0. -1.
    10030    2    1    2    0    0  0.00000000000E+00  0.00000000000E+00 -0.61849561577E+03  0.35434677200E+04  0.34890724635E+04 0.  0.
        1    1    3    3  502    0 -0.53069039610E+03 -0.12118542770E+03  0.13740261860E+04  0.14779263054E+04  0.50400001928E-02 0.  1.
       -1    1    3    3    0  502  0.53069039610E+03  0.12118542770E+03 -0.19925218018E+04  0.20655414145E+04  0.50400001928E-02 0. -1.
</event>
<event>
 5   0  0.1866421E-07  0.3500411E+04  0.7818609E-02  0.8113693E-01
        1   -1    0    0  501    0  0.00000000000E+00  0.00000000000E+00  0.19970100521E+04  0.19970100521E+04  0.50400001928E-02 0.  1.
       -1   -1    0    0    0  501  0.00000000000E+00  0.00000000000E+00 -0.15339028602E+04  0.15339028602E+04  0.50400001928E-02 0. -1.
    10030    2    1    2    0    0  0.00000000000E+00  0.00000000000E+00  0.46310719197E+03  0.35309129123E+04  0.35004110792E+04 0.  0.
        1    1    3    3  502    0 -0.16348303479E+04 -0.40086768464E+03 -0.25205525239E+03  0.17020273257E+04  0.50400001928E-02 0.  1.
       -1    1    3    3    0  502  0.16348303479E+04  0.40086768464E+03  0.71516244436E+03  0.18288855866E+04  0.50400001928E-02 0. -1.
</event>
<event>
 5   0  0.1908190E-07  0.3510212E+04  0.7818609E-02  0.8111374E-01
        1   -1    0    0  501    0  0.00000000000E+00  0.00000000000E+00  0.17998126817E+04  0.17998126817E+04  0.50400001928E-02 0. -1.
       -1   -1    0    0    0  501  0.00000000000E+00  0.00000000000E+00 -0.17115095559E+04  0.17115095559E+04  0.50400001928E-02 0.  1.
    10030    2    1    2    0    0  0.00000000000E+00  0.00000000000E+00  0.88303125818E+02  0.35113222376E+04  0.35102117336E+04 0.  0.
        5    1    3    3  502    0  0.47676988009E+03  0.10567999133E+04  0.13622326221E+04  0.17888083693E+04  0.46999998093E+01 0. -1.
       -5    1    3    3    0  502 -0.47676988009E+03 -0.10567999133E+04 -0.12739294962E+04  0.17225138684E+04  0.46999998093E+01 0.  1.
</event>
<event>
 5   0  0.5707187E-07  0.3494162E+04  0.7818609E-02  0.8115175E-01
        2   -1    0    0  501    0  0.00000000000E+00  0.00000000000E+00  0.20036648541E+04  0.20036648541E+04  0.25500000920E-02 0. -1.
       -2   -1    0    0    0  501  0.00000000000E+00  0.00000000000E+00 -0.15233546805E+04  0.15233546805E+04  0.25500000920E-02 0.  1.
    10030    2    1    2    0    0  0.00000000000E+00  0.00000000000E+00  0.48031017366E+03  0.35270195346E+04  0.34941621219E+04 0.  0.
        1    1    3    3  502    0  0.52559473867E+03  0.16655857046E+04  0.28376628271E+03  0.17694487480E+04  0.50400001928E-02 0.  1.
       -1    1    3    3    0  502 -0.52559473867E+03 -0.16655857046E+04  0.19654389096E+03  0.17575707866E+04  0.50400001928E-02 0. -1.
</event>
<event>
 5   0  0.1908190E-07  0.3484330E+04  0.7818609E-02  0.8117514E-01
       -1   -1    0    0    0  501  0.00000000000E+00  0.00000000000E+00  0.19878012845E+04  0.19878012845E+04  0.50400001928E-02 0. -1.
        1   -1    0    0  501    0  0.00000000000E+00  0.00000000000E+00 -0.15268822782E+04  0.15268822782E+04  0.50400001928E-02 0.  1.
    10030    2    1    2    0    0  0.00000000000E+00  0.00000000000E+00  0.46091900630E+03  0.35146835627E+04  0.34843298086E+04 0.  0.
        5    1    3    3  502    0 -0.13480878526E+04  0.72529647883E+03  0.10694022738E+04  0.18673615488E+04  0.46999998093E+01 0. -1.
       -5    1    3    3    0  502  0.13480878526E+04 -0.72529647883E+03 -0.60848326749E+03  0.16473220139E+04  0.46999998093E+01 0.  1.
</event>
<event>
 5   0  0.1873457E-07  0.3493405E+04  0.7818609E-02  0.8115355E-01
        1   -1    0    0  501    0  0.00000000000E+00  0.00000000000E+00  0.24026744062E+04  0.24026744062E+04  0.50400001928E-02 0. -1.
       -1   -1    0    0    0  501  0.00000000000E+00  0.00000000000E+00 -0.12698221796E+04  0.12698221796E+04  0.50400001928E-02 0.  1.
    10030    2    1    2    0    0  0.00000000000E+00  0.00000000000E+00  0.11328522267E+04  0.36724965858E+04  0.34934047869E+04 0.  0.
        3    1    3    3  502    0  0.11038863144E+04 -0.22632534563E+03 -0.83660249589E+03  0.14034571257E+04  0.10100000352E+00 0.  1.
       -3    1    3    3    0  502 -0.11038863144E+04  0.22632534563E+03  0.19694547226E+04  0.22690394602E+04  0.10100000352E+00 0. -1.
</event>
<event>
 5   0  0.1933647E-07  0.3518150E+04  0.7818609E-02  0.8109502E-01
        1   -1    0    0  501    0  0.00000000000E+00  0.00000000000E+00  0.11536176675E+04  0.11536176675E+04  0.50400001928E-02 0. -1.
       -1   -1    0    0    0  501  0.00000000000E+00  0.00000000000E+00 -0.26822966953E+04  0.26822966953E+04  0.50400001928E-02 0.  1.
    10030    2    1    2    0    0  0.00000000000E+00  0.00000000000E+00 -0.15286790278E+04  0.38359143627E+04  0.35181500008E+04 0.  0.
        4    1    3    3  502    0 -0.12080964217E+04  0.12497212679E+04 -0.10590149593E+04  0.20353905051E+04  0.12699999809E+01 0.  1.
       -4    1    3    3    0  502  0.12080964217E+04 -0.12497212679E+04 -0.46966406855E+03  0.18005238576E+04  0.12699999809E+01 0. -1.
</event>
<event>
 5   0  0.5554745E-07  0.3515533E+04  0.7818609E-02  0.8110119E-01
        2   -1    0    0  501    0  0.00000000000E+00  0.00000000000E+00  0.25237810580E+04  0.25237810580E+04  0.25500000920E-02 0.  1.
       -2   -1    0    0    0  501  0.00000000000E+00  0.00000000000E+00 -0.12242518283E+04  0.12242518283E+04  0.25500000920E-02 0. -1.
    10030    2    1    2    0    0  0.00000000000E+00  0.00000000000E+00  0.12995292297E+04  0.37480328863E+04  0.35155332879E+04 0.  0.
        5    1    3    3  502    0  0.24447637072E+03  0.17289884842E+04  0.43507243266E+03  0.17995777243E+04  0.46999998093E+01 0.  1.
       -5    1    3    3    0  502 -0.24447637072E+03 -0.17289884842E+04  0.86445679705E+03  0.19484551620E+04  0.46999998093E+01 0. -1.
</event>
<event>
 5   0  0.5707187E-07  0.3503505E+04  0.7818609E-02  0.8112960E-01
       -2   -1    0    0    0  501  0.00000000000E+00  0.00000000000E+00  0.18096194023E+04  0.18096194023E+04  0.25500000920E-02 0.  1.
        2   -1    0    0  501    0  0.00000000000E+00  0.00000000000E+00 -0.16957360561E+04  0.16957360561E+04  0.25500000920E-02 0. -1.
    10030    2    1    2    0    0  0.00000000000E+00  0.00000000000E+00  0.11388334626E+03  0.35053554584E+04  0.35035050269E+04 0.  0.
        1    1    3    3  502    0  0.97273784469E+03  0.14473006329E+04  0.22357942723E+03  0.17580915211E+04  0.50400001928E-02 0.  1.
       -1    1    3    3    0  502 -0.97273784469E+03 -0.14473006329E+04 -0.10969608097E+03  0.17472639373E+04  0.50400001928E-02 0. -1.
</event>
<event>
 5   0  0.1897049E-07  0.3487026E+04  0.7818609E-02  0.8116871E-01
       -1   -1    0    0    0  501  0.00000000000E+00  0.00000000000E+00  0.34791493829E+04  0.34791493829E+04  0.50400001928E-02 0. -1.
        1   -1    0    0  501    0  0.00000000000E+00  0.00000000000E+00 -0.87373012224E+03  0.87373012226E+03  0.50400001928E-02 0.  1.
    10030    2    1    2    0    0  0.00000000000E+00  0.00000000000E+00  0.26054192607E+04  0.43528795052E+04  0.34870260198E+04 0.  0.
        2    1    3    3  502    0 -0.16040544486E+03  0.17138752263E+04  0.95690507784E+03  0.19694581809E+04  0.25500000920E-02 0.  1.
       -2    1    3    3    0  502  0.16040544486E+03 -0.17138752263E+04  0.16485141828E+04  0.23834213243E+04  0.25500000920E-02 0. -1.
</event>
<event>
 5   0  0.1908190E-07  0.3532328E+04  0.7818609E-02  0.8106171E-01
       -1   -1    0    0    0  501  0.00000000000E+00  0.00000000000E+00  0.23687120161E+04  0.23687120161E+04  0.50400001928E-02 0. -1.
        1   -1    0    0  501    0  0.00000000000E+00  0.00000000000E+00 -0.13168910217E+04  0.13168910217E+04  0.50400001928E-02 0.  1.
    10030    2    1    2    0    0  0.00000000000E+00  0.00000000000E+00  0.10518209944E+04  0.36856030378E+04  0.35323281767E+04 0.  0.
        5    1    3    3  502    0  0.49351617287E+03 -0.80061884006E+03 -0.10338697581E+04  0.13976614421E+04  0.46999998093E+01 0.  1.
       -5    1    3    3    0  502 -0.49351617287E+03  0.80061884006E+03  0.20856907526E+04  0.22879415957E+04  0.46999998093E+01 0. -1.
</event>
<event>
 5   0  0.5677193E-07  0.3499034E+04  0.7818609E-02  0.8114019E-01
        2   -1    0    0  501    0  0.00000000000E+00  0.00000000000E+00  0.24183251030E+04  0.24183251030E+04  0.25500000920E-02 0.  1.
       -2   -1    0    0    0  501  0.00000000000E+00  0.00000000000E+00 -0.12656735243E+04  0.12656735243E+04  0.25500000920E-02 0. -1.
    10030    2    1    2    0    0  0.00000000000E+00  0.00000000000E+00  0.11526515787E+04  0.36839986273E+04  0.34990341845E+04 0.  0.
        3    1    3    3  502    0 -0.12038643401E+04 -0.27914619769E+03  0.18801740583E+04  0.22499480991E+04  0.10100000352E+00 0.  1.
       -3    1    3    3    0  502  0.12038643401E+04  0.27914619769E+03 -0.72752247954E+03  0.14340505282E+04  0.10100000352E+00 0. -1.
</event>
<event>
 5   0  0.5707187E-07  0.3443019E+04  0.7818609E-02  0.8127428E-01
       -2   -1    0    0    0  501  0.00000000000E+00  0.00000000000E+00  0.14475618178E+04  0.14475618178E+04  0.25500000920E-02 0.  1.
        2   -1    0    0  501    0  0.00000000000E+00  0.00000000000E+00 -0.20473009395E+04  0.20473009395E+04  0.25500000920E-02 0. -1.
    10030    2    1    2    0    0  0.00000000000E+00  0.00000000000E+00 -0.59973912171E+03  0.34948627573E+04  0.34430188321E+04 0.  0.
        1    1    3    3  502    0 -0.23770707631E+03 -0.12164889208E+03 -0.20261516433E+04  0.20436715952E+04  0.50400001928E-02 0. -1.
       -1    1    3    3    0  502  0.23770707631E+03  0.12164889208E+03  0.14264125216E+04  0.14511911621E+04  0.50400001928E-02 0.  1.
</event>
<event>
 5   0  0.1823000E-07  0.3567121E+04  0.7818609E-02  0.8098065E-01
        3   -1    0    0  501    0  0.00000000000E+00  0.00000000000E+00  0.28403662283E+04  0.28403662301E+04  0.10100000352E+00 0.  1.
       -3   -1    0    0    0  501  0.00000000000E+00  0.00000000000E+00 -0.11199572543E+04  0.11199572588E+04  0.10100000352E+00 0. -1.
    10030    2    1    2    0    0  0.00000000000E+00  0.00000000000E+00  0.17204089740E+04  0.39603234889E+04  0.35671214023E+04 0.  0.
        3    1    3    3  502    0 -0.87844303878E+03  0.11868573162E+04  0.19708759605E+04  0.24626498986E+04  0.10100000352E+00 0.  1.
       -3    1    3    3    0  502  0.87844303878E+03 -0.11868573162E+04 -0.25046698644E+03  0.14976735903E+04  0.10100000352E+00 0. -1.
</event>
<event>
 5   0  0.1897049E-07  0.3261994E+04  0.7818609E-02  0.8172634E-01
        1   -1    0    0  501    0  0.00000000000E+00  0.00000000000E+00  0.19826713405E+04  0.19826713405E+04  0.50400001928E-02 0. -1.
       -1   -1    0    0    0  501  0.00000000000E+00  0.00000000000E+00 -0.13417008397E+04  0.13417008397E+04  0.50400001928E-02 0.  1.
    10030    2    1    2    0    0  0.00000000000E+00  0.00000000000E+00  0.64097050083E+03  0.33243721802E+04  0.32619943608E+04 0.  0.
        2    1    3    3  502    0  0.32073249933E+03 -0.72584421207E+02  0.19485360688E+04  0.19760897362E+04  0.25500000920E-02 0. -1.
       -2    1    3    3    0  502 -0.32073249933E+03  0.72584421207E+02 -0.13075655679E+04  0.13482824440E+04  0.25500000920E-02 0.  1.
</event>
<event>
 5   0  0.1908190E-07  0.3502432E+04  0.7818609E-02  0.8113214E-01
       -1   -1    0    0    0  501  0.00000000000E+00  0.00000000000E+00  0.14036122945E+04  0.14036122945E+04  0.50400001928E-02 0.  1.
        1   -1    0    0  501    0  0.00000000000E+00  0.00000000000E+00 -0.21849035131E+04  0.21849035131E+04  0.50400001928E-02 0. -1.
    10030    2    1    2    0    0  0.00000000000E+00  0.00000000000E+00 -0.78129121860E+03  0.35885158075E+04  0.35024319740E+04 0.  0.
        5    1    3    3  502    0  0.12752540205E+04 -0.11318201539E+04  0.18475147022E+02  0.17051841832E+04  0.46999998093E+01 0.  1.
       -5    1    3    3    0  502 -0.12752540205E+04  0.11318201539E+04 -0.79976636562E+03  0.18833316243E+04  0.46999998093E+01 0. -1.
</event>
<event>
 5   0  0.1897049E-07  0.3498189E+04  0.7818609E-02  0.8114219E-01
       -1   -1    0    0    0  501  0.00000000000E+00  0.00000000000E+00  0.10693599372E+04  0.10693599372E+04  0.50400001928E-02 0. -1.
        1   -1    0    0  501    0  0.00000000000E+00  0.00000000000E+00 -0.28608995768E+04  0.28608995768E+04  0.50400001928E-02 0.  1.
    10030    2    1    2    0    0  0.00000000000E+00  0.00000000000E+00 -0.17915396396E+04  0.39302595140E+04  0.34981888982E+04 0.  0.
        2    1    3    3  502    0  0.83254116347E+03 -0.13046475482E+04 -0.18113474246E+04  0.23824796970E+04  0.25500000920E-02 0.  1.
       -2    1    3    3    0  502 -0.83254116347E+03  0.13046475482E+04  0.19807784930E+02  0.15477798171E+04  0.25500000920E-02 0. -1.
</event>
<event>
 5   0  0.1908190E-07  0.3494386E+04  0.7818609E-02  0.8115122E-01
       -1   -1    0    0    0  501  0.00000000000E+00  0.00000000000E+00  0.12547000741E+04  0.12547000741E+04  0.50400001928E-02 0.  1.
        1   -1    0    0  501    0  0.00000000000E+00  0.00000000000E+00 -0.24329980853E+04  0.24329980853E+04  0.50400001928E-02 0. -1.
    10030    2    1    2    0    0  0.00000000000E+00  0.00000000000E+00 -0.11782980112E+04  0.36876981594E+04  0.34943857131E+04 0.  0.
        5    1    3    3  502    0  0.51341691137E+03 -0.16524858891E+04 -0.84407890184E+03  0.19253046047E+04  0.46999998093E+01 0.  1.
       -5    1    3    3    0  502 -0.51341691137E+03  0.16524858891E+04 -0.33421910938E+03  0.17623935547E+04  0.46999998093E+01 0. -1.
</event>
<event>
 5   0  0.1897049E-07  0.3492427E+04  0.7818609E-02  0.8115587E-01
        1   -1    0    0  501    0  0.00000000000E+00  0.00000000000E+00  0.17594935695E+04  0.17594935695E+04  0.50400001928E-02 0.  1.
       -1   -1    0    0    0  501  0.00000000000E+00  0.00000000000E+00 -0.17330332845E+04  0.17330332845E+04  0.50400001928E-02 0. -1.
    10030    2    1    2    0    0  0.00000000000E+00  0.00000000000E+00  0.26460284975E+02  0.34925268540E+04  0.34924266176E+04 0.  0.
        2    1    3    3  502    0 -0.16478583494E+03  0.32571440311E+03 -0.16944536878E+04  0.17333255735E+04  0.25500000920E-02 0. -1.
       -2    1    3    3    0  502  0.16478583494E+03 -0.32571440311E+03  0.17209139727E+04  0.17592012805E+04  0.25500000920E-02 0.  1.
</event>
<event>
 5   0  0.5677193E-07  0.3525504E+04  0.7818609E-02  0.8107772E-01
        2   -1    0    0  501    0  0.00000000000E+00  0.00000000000E+00  0.25582665576E+04  0.25582665576E+04  0.25500000920E-02 0.  1.
       -2   -1    0    0    0  501  0.00000000000E+00  0.00000000000E+00 -0.12146093560E+04  0.12146093560E+04  0.25500000920E-02 0. -1.
    10030    2    1    2    0    0  0.00000000000E+00  0.00000000000E+00  0.13436572017E+04  0.37728759136E+04  0.35255039333E+04 0.  0.
        3    1    3    3  502    0 -0.80073701122E+03  0.13911422358E+04  0.14515371971E+04  0.21641203123E+04  0.10100000352E+00 0.  1.
       -3    1    3    3    0  502  0.80073701122E+03 -0.13911422358E+04 -0.10787999539E+03  0.16087556014E+04  0.10100000352E+00 0. -1.
</event>
<event>
 5   0  0.5740827E-07  0.3492607E+04  0.7818609E-02  0.8115544E-01
       -2   -1    0    0    0  501  0.00000000000E+00  0.00000000000E+00  0.17310612895E+04  0.17310612895E+04  0.25500000920E-02 0.  1.
        2   -1    0    0  501    0  0.00000000000E+00  0.00000000000E+00 -0.17616803024E+04  0.17616803024E+04  0.25500000920E-02 0. -1.
    10030    2    1    2    0    0  0.00000000000E+00  0.00000000000E+00 -0.30619012828E+02  0.34927415919E+04  0.34926073790E+04 0.  0.
        2    1    3    3  502    0 -0.16641510941E+04 -0.44188360789E+03  0.27610620286E+03  0.17438161090E+04  0.25500000920E-02 0.  1.
       -2    1    3    3    0  502  0.16641510941E+04  0.44188360789E+03 -0.30672521568E+03  0.17489254829E+04  0.25500000920E-02 0. -1.
</event>
<event>
 5   0  0.5707187E-07  0.3498897E+04  0.7818609E-02  0.8114052E-01
       -2   -1    0    0    0  501  0.00000000000E+00  0.00000000000E+00  0.11715496212E+04  0.11715496212E+04  0.25500000920E-02 0. -1.
        2   -1    0    0  501    0  0.00000000000E+00  0.00000000000E+00 -0.26124110849E+04  0.26124110849E+04  0.25500000920E-02 0.  1.
    10030    2    1    2    0    0  0.00000000000E+00  0.00000000000E+00 -0.14408614637E+04  0.37839607061E+04  0.34988965215E+04 0.  0.
        1    1    3    3  502    0 -0.11082921843E+04  0.26420407224E+03  0.71530463086E+03  0.13452791802E+04  0.50400001928E-02 0.  1.
       -1    1    3    3    0  502  0.11082921843E+04 -0.26420407224E+03 -0.21561660946E+04  0.24386815260E+04  0.50400001928E-02 0. -1.
</event>
<event>
 5   0  0.1897049E-07  0.3374064E+04  0.7818609E-02  0.8144301E-01
        1   -1    0    0  501    0  0.00000000000E+00  0.00000000000E+00  0.14845826418E+04  0.14845826418E+04  0.50400001928E-02 0. -1.
       -1   -1    0    0    0  501  0.00000000000E+00  0.00000000000E+00 -0.19170892470E+04  0.19170892470E+04  0.50400001928E-02 0.  1.
    10030    2    1    2    0    0  0.00000000000E+00  0.00000000000E+00 -0.43250660526E+03  0.34016718888E+04  0.33740642666E+04 0.  0.
        2    1    3    3  502    0  0.11101177946E+04  0.84537021989E+03 -0.11722021161E+04  0.18223803466E+04  0.25500000920E-02 0.  1.
       -2    1    3    3    0  502 -0.11101177946E+04 -0.84537021989E+03  0.73969551082E+03  0.15792915422E+04  0.25500000920E-02 0. -1.
</event>
<event>
 5   0  0.5573334E-07  0.3499412E+04  0.7818609E-02  0.8113929E-01
       -2   -1    0    0    0  501  0.00000000000E+00  0.00000000000E+00  0.14372224386E+04  0.14372224386E+04  0.25500000920E-02 0. -1.
        2   -1    0    0  501    0  0.00000000000E+00  0.00000000000E+00 -0.21301298132E+04  0.21301298132E+04  0.25500000920E-02 0.  1.
    10030    2    1    2    0    0  0.00000000000E+00  0.00000000000E+00 -0.69290737464E+03  0.35673522518E+04  0.34994115875E+04 0.  0.
        4    1    3    3  502    0 -0.10518026199E+04 -0.85768696902E+02 -0.17691945198E+04  0.20600232723E+04  0.12699999809E+01 0.  1.
       -4    1    3    3    0  502  0.10518026199E+04  0.85768696902E+02  0.10762871451E+04  0.15073289795E+04  0.12699999809E+01 0. -1.
</event>
<event>
 5   0  0.1866421E-07  0.3465870E+04  0.7818609E-02  0.8121926E-01
       -1   -1    0    0    0  501  0.00000000000E+00  0.00000000000E+00  0.10959067845E+04  0.10959067845E+04  0.50400001928E-02 0. -1.
        1   -1    0    0  501    0  0.00000000000E+00  0.00000000000E+00 -0.27402549347E+04  0.27402549347E+04  0.50400001928E-02 0.  1.
    10030    2    1    2    0    0  0.00000000000E+00  0.00000000000E+00 -0.16443481501E+04  0.38361617192E+04  0.34658701500E+04 0.  0.
        1    1    3    3  502    0 -0.95431163558E+01 -0.37779408479E+02  0.10954218306E+04  0.10961146572E+04  0.50400001928E-02 0. -1.
       -1    1    3    3    0  502  0.95431163558E+01  0.37779408479E+02 -0.27397699807E+04  0.27400470620E+04  0.50400001928E-02 0.  1.
</event>
<event>
 5   0  0.1933647E-07  0.3466120E+04  0.7818609E-02  0.8121866E-01
       -1   -1    0    0    0  501  0.00000000000E+00  0.00000000000E+00  0.31423601839E+04  0.31423601839E+04  0.50400001928E-02 0. -1.
        1   -1    0    0  501    0  0.00000000000E+00  0.00000000000E+00 -0.95580920349E+03  0.95580920350E+03  0.50400001928E-02 0.  1.
    10030    2    1    2    0    0  0.00000000000E+00  0.00000000000E+00  0.21865509804E+04  0.40981693874E+04  0.34661198966E+04 0.  0.
        4    1    3    3  502    0 -0.15489036224E+04  0.14582921588E+03  0.19961507282E+04  0.25308077633E+04  0.12699999809E+01 0. -1.
       -4    1    3    3    0  502  0.15489036224E+04 -0.14582921588E+03  0.19040025213E+03  0.15673616241E+04  0.12699999809E+01 0.  1.
</event>
<event>
 5   0  0.5677193E-07  0.3502926E+04  0.7818609E-02  0.8113097E-01
       -2   -1    0    0    0  501  0.00000000000E+00  0.00000000000E+00  0.20307611552E+04  0.20307611552E+04  0.25500000920E-02 0. -1.
        2   -1    0    0  501    0  0.00000000000E+00  0.00000000000E+00 -0.15105773584E+04  0.15105773584E+04  0.25500000920E-02 0.  1.
    10030    2    1    2    0    0  0.00000000000E+00  0.00000000000E+00  0.52018379675E+03  0.35413385136E+04  0.35029255324E+04 0.  0.
        3    1    3    3  502    0 -0.11518143572E+04 -0.31795629623E+03  0.15547005529E+04  0.19608330727E+04  0.10100000352E+00 0. -1.
       -3    1    3    3    0  502  0.11518143572E+04  0.31795629623E+03 -0.10345167561E+04  0.15805054409E+04  0.10100000352E+00 0.  1.
</event>
<event>
 5   0  0.1908190E-07  0.3481632E+04  0.7818609E-02  0.8118157E-01
       -1   -1    0    0    0  501  0.00000000000E+00  0.00000000000E+00  0.17454987284E+04  0.17454987284E+04  0.50400001928E-02 0.  1.
        1   -1    0    0  501    0  0.00000000000E+00  0.00000000000E+00 -0.17361458881E+04  0.17361458881E+04  0.50400001928E-02 0. -1.
    10030    2    1    2    0    0  0.00000000000E+00  0.00000000000E+00  0.93528403146E+01  0.34816446166E+04  0.34816320542E+04 0.  0.
        5    1    3    3  502    0 -0.10876384244E+04 -0.50392672715E+03  0.12670275445E+04  0.17442133978E+04  0.46999998093E+01 0.  1.
       -5    1    3    3    0  502  0.10876384244E+04  0.50392672715E+03 -0.12576747042E+04  0.17374312188E+04  0.46999998093E+01 0. -1.
</event>
<event>
 5   0  0.5677193E-07  0.3061247E+04  0.7818609E-02  0.8226454E-01
        2   -1    0    0  501    0  0.00000000000E+00  0.00000000000E+00  0.12339323294E+04  0.12339323294E+04  0.25500000920E-02 0.  1.
       -2   -1    0    0    0  501  0.00000000000E+00  0.00000000000E+00 -0.18986523391E+04  0.18986523391E+04  0.25500000920E-02 0. -1.
    10030    2    1    2    0    0  0.00000000000E+00  0.00000000000E+00 -0.66472000965E+03  0.31325846685E+04  0.30612471337E+04 0.  0.
        3    1    3    3  502    0  0.64986969042E+03 -0.13629327063E+03 -0.17435922685E+04  0.18657493077E+04  0.10100000352E+00 0. -1.
       -3    1    3    3    0  502 -0.64986969042E+03  0.13629327063E+03  0.10788722589E+04  0.12668353608E+04  0.10100000352E+00 0.  1.
</event>
<event>
 5   0  0.1933647E-07  0.3500258E+04  0.7818609E-02  0.8113729E-01
        1   -1    0    0  501    0  0.00000000000E+00  0.00000000000E+00  0.24148372776E+04  0.24148372776E+04  0.50400001928E-02 0. -1.
       -1   -1    0    0    0  501  0.00000000000E+00  0.00000000000E+00 -0.12683880477E+04  0.12683880477E+04  0.50400001928E-02 0.  1.
    10030    2    1    2    0    0  0.00000000000E+00  0.00000000000E+00  0.11464492299E+04  0.36832253253E+04  0.35002575563E+04 0.  0.
        4    1    3    3  502    0  0.76191186802E+03  0.90308161345E+03 -0.78534172157E+03  0.14187421639E+04  0.12699999809E+01 0.  1.
       -4    1    3    3    0  502 -0.76191186802E+03 -0.90308161345E+03  0.19317909514E+04  0.22644831614E+04  0.12699999809E+01 0. -1.
</event>
<event>
 5   0  0.1908190E-07  0.3501942E+04  0.7818609E-02  0.8113330E-01
       -1   -1    0    0    0  501  0.00000000000E+00  0.00000000000E+00  0.13939740865E+04  0.13939740865E+04  0.50400001928E-02 0. -1.
        1   -1    0    0  501    0  0.00000000000E+00  0.00000000000E+00 -0.21993953256E+04  0.21993953257E+04  0.50400001928E-02 0.  1.
    10030    2    1    2    0    0  0.00000000000E+00  0.00000000000E+00 -0.80542123915E+03  0.35933694122E+04  0.35019423696E+04 0.  0.
        5    1    3    3  502    0  0.15171152828E+04  0.34780016700E+03 -0.12256938003E+04  0.19811489393E+04  0.46999998093E+01 0.  1.
       -5    1    3    3    0  502 -0.15171152828E+04 -0.34780016700E+03  0.42027256118E+03  0.16122204729E+04  0.46999998093E+01 0. -1.
</event>
<event>
 5   0  0.5554745E-07  0.3493989E+04  0.7818609E-02  0.8115216E-01
       -2   -1    0    0    0  501  0.00000000000E+00  0.00000000000E+00  0.14462682558E+04  0.14462682558E+04  0.25500000920E-02 0.  1.
        2   -1    0    0  501    0  0.00000000000E+00  0.00000000000E+00 -0.21102515385E+04  0.21102515385E+04  0.25500000920E-02 0. -1.
    10030    2    1    2    0    0  0.00000000000E+00  0.00000000000E+00 -0.66398328277E+03  0.35565197943E+04  0.34939890165E+04 0.  0.
        5    1    3    3  502    0 -0.71961001240E+03 -0.87806673719E+03  0.10196003528E+04  0.15259248783E+04  0.46999998093E+01 0.  1.
       -5    1    3    3    0  502  0.71961001240E+03  0.87806673719E+03 -0.16835836356E+04  0.20305949160E+04  0.46999998093E+01 0. -1.
</event>
<event>
 5   0  0.1866421E-07  0.3512985E+04  0.7818609E-02  0.8110720E-01
        1   -1    0    0  501    0  0.00000000000E+00  0.00000000000E+00  0.14151563959E+04  0.14151563959E+04  0.50400001928E-02 0.  1.
       -1   -1    0    0    0  501  0.00000000000E+00  0.00000000000E+00 -0.21801589523E+04  0.21801589523E+04  0.50400001928E-02 0. -1.
    10030    2    1    2    0    0  0.00000000000E+00  0.00000000000E+00 -0.76500255647E+03  0.35953153482E+04  0.35129849902E+04 0.  0.
        1    1    3    3  502    0  0.58346049430E+03  0.16462584588E+04 -0.57307161480E+03  0.18382067722E+04  0.50400001928E-02 0.  1.
       -1    1    3    3    0  502 -0.58346049430E+03 -0.16462584588E+04 -0.19193094167E+03  0.17571085760E+04  0.50400001928E-02 0. -1.
</event>
<event>
 5   0  0.5554745E-07  0.3495529E+04  0.7818609E-02  0.8114850E-01
       -2   -1    0    0    0  501  0.00000000000E+00  0.00000000000E+00  0.11884650302E+04  0.11884650303E+04  0.25500000920E-02 0. -1.
        2   -1    0    0  501    0  0.00000000000E+00  0.00000000000E+00 -0.25702737049E+04  0.25702737049E+04  0.25500000920E-02 0.  1.
    10030    2    1    2    0    0  0.00000000000E+00  0.00000000000E+00 -0.13818086747E+04  0.37587387352E+04  0.34955288106E+04 0.  0.
        5    1    3    3  502    0  0.16970673051E+04  0.36001210150E+02 -0.24323267024E+03  0.17147937914E+04  0.46999998093E+01 0. -1.
       -5    1    3    3    0  502 -0.16970673051E+04 -0.36001210150E+02 -0.11385760044E+04  0.20439449437E+04  0.46999998093E+01 0.  1.
</event>
<event>
 5   0  0.1897049E-07  0.3510603E+04  0.7818609E-02  0.8111282E-01
       -1   -1    0    0    0  501  0.00000000000E+00  0.00000000000E+00  0.20340308571E+04  0.20340308571E+04  0.50400001928E-02 0.  1.
        1   -1    0    0  501    0  0.00000000000E+00  0.00000000000E+00 -0.15147674143E+04  0.15147674143E+04  0.50400001928E-02 0. -1.
    10030    2    1    2    0    0  0.00000000000E+00  0.00000000000E+00  0.51926344282E+03  0.35487982713E+04  0.35106031743E+04 0.  0.
        2    1    3    3  502    0 -0.76007717720E+03  0.14836028271E+03  0.18520020364E+04  0.20073962318E+04  0.25500000920E-02 0.  1.
       -2    1    3    3    0  502  0.76007717720E+03 -0.14836028271E+03 -0.13327385935E+04  0.15414020395E+04  0.25500000920E-02 0. -1.
</event>
<event>
 5   0  0.1873457E-07  0.3490616E+04  0.7818609E-02  0.8116017E-01
        1   -1    0    0  501    0  0.00000000000E+00  0.00000000000E+00  0.14516241644E+04  0.14516241644E+04  0.50400001928E-02 0.  1.
       -1   -1    0    0    0  501  0.00000000000E+00  0.00000000000E+00 -0.20984081014E+04  0.20984081014E+04  0.50400001928E-02 0. -1.
    10030    2    1    2    0    0  0.00000000000E+00  0.00000000000E+00 -0.64678393704E+03  0.35500322658E+04  0.34906159381E+04 0.  0.
        3    1    3    3  502    0 -0.11962667669E+04  0.75212207008E+03  0.71842660268E+03  0.15852061631E+04  0.10100000352E+00 0.  1.
       -3    1    3    3    0  502  0.11962667669E+04 -0.75212207008E+03 -0.13652105397E+04  0.19648261027E+04  0.10100000352E+00 0. -1.
</event>
<event>
 5   0  0.1908190E-07  0.3525460E+04  0.7818609E-02  0.8107783E-01
        1   -1    0    0  501    0  0.00000000000E+00  0.00000000000E+00  0.14448619819E+04  0.14448619819E+04  0.50400001928E-02 0.  1.
       -1   -1    0    0    0  501  0.00000000000E+00  0.00000000000E+00 -0.21505281626E+04  0.21505281626E+04  0.50400001928E-02 0. -1.
    10030    2    1    2    0    0  0.00000000000E+00  0.00000000000E+00 -0.70566618062E+03  0.35953901445E+04  0.35254596201E+04 0.  0.
        5    1    3    3  502    0 -0.17130798664E+03  0.18067661971E+02  0.14362512795E+04  0.14465520020E+04  0.46999998093E+01 0.  1.
       -5    1    3    3    0  502  0.17130798664E+03 -0.18067661971E+02 -0.21419174601E+04  0.21488381425E+04  0.46999998093E+01 0. -1.
</event>
<event>
 5   0  0.5740827E-07  0.3488071E+04  0.7818609E-02  0.8116623E-01
        2   -1    0    0  501    0  0.00000000000E+00  0.00000000000E+00  0.12373138223E+04  0.12373138223E+04  0.25500000920E-02 0. -1.
       -2   -1    0    0    0  501  0.00000000000E+00  0.00000000000E+00 -0.24582767733E+04  0.24582767733E+04  0.25500000920E-02 0.  1.
    10030    2    1    2    0    0  0.00000000000E+00  0.00000000000E+00 -0.12209629510E+04  0.36955905956E+04  0.34880710031E+04 0.  0.
        2    1    3    3  502    0 -0.14720671320E+04 -0.76231194844E+03 -0.11845265590E+04  0.20374504452E+04  0.25500000920E-02 0.  1.
       -2    1    3    3    0  502  0.14720671320E+04  0.76231194844E+03 -0.36436391989E+02  0.16581401504E+04  0.25500000920E-02 0. -1.
</event>
<event>
 5   0  0.5707187E-07  0.3496974E+04  0.7818609E-02  0.8114508E-01
        2   -1    0    0  501    0  0.00000000000E+00  0.00000000000E+00  0.10393352223E+04  0.10393352223E+04  0.25500000920E-02 0.  1.
       -2   -1    0    0    0  501  0.00000000000E+00  0.00000000000E+00 -0.29415013286E+04  0.29415013286E+04  0.25500000920E-02 0. -1.
    10030    2    1    2    0    0  0.00000000000E+00  0.00000000000E+00 -0.19021661064E+04  0.39808365509E+04  0.34969735127E+04 0.  0.
        1    1    3    3  502    0 -0.25441276375E+03 -0.17153862448E+04 -0.12054515256E+04  0.21119633529E+04  0.50400001928E-02 0. -1.
       -1    1    3    3    0  502  0.25441276375E+03  0.17153862448E+04 -0.69671458075E+03  0.18688731980E+04  0.50400001928E-02 0.  1.
</event>
<event>
 5   0  0.1866421E-07  0.3499455E+04  0.7818609E-02  0.8113919E-01
        1   -1    0    0  501    0  0.00000000000E+00  0.00000000000E+00  0.26289118672E+04  0.26289118672E+04  0.50400001928E-02 0.  1.
       -1   -1    0    0    0  501  0.00000000000E+00  0.00000000000E+00 -0.11645678646E+04  0.11645678646E+04  0.50400001928E-02 0. -1.
    10030    2    1    2    0    0  0.00000000000E+00  0.00000000000E+00  0.14643440026E+04  0.37934797317E+04  0.34994549743E+04 0.  0.
        1    1    3    3  502    0  0.67602043792E+03 -0.72286512308E+03  0.22963228110E+04  0.25005271586E+04  0.50400001928E-02 0.  1.
       -1    1    3    3    0  502 -0.67602043792E+03  0.72286512308E+03 -0.83197880840E+03  0.12929525731E+04  0.50400001928E-02 0. -1.
</event>
<event>
 5   0  0.1873457E-07  0.3477660E+04  0.7818609E-02  0.8119105E-01
       -1   -1    0    0    0  501  0.00000000000E+00  0.00000000000E+00  0.15894493140E+04  0.15894493140E+04  0.50400001928E-02 0.  1.
        1   -1    0    0  501    0  0.00000000000E+00  0.00000000000E+00 -0.19022504231E+04  0.19022504232E+04  0.50400001928E-02 0. -1.
    10030    2    1    2    0    0  0.00000000000E+00  0.00000000000E+00 -0.31280110918E+03  0.34916997371E+04  0.34776604953E+04 0.  0.
        3    1    3    3  502    0  0.15755408414E+04 -0.14268820513E+01  0.58223202249E+03  0.16796800639E+04  0.10100000352E+00 0. -1.
       -3    1    3    3    0  502 -0.15755408414E+04  0.14268820513E+01 -0.89503313167E+03  0.18120196732E+04  0.10100000352E+00 0.  1.
</event>
<event>
 5   0  0.1873457E-07  0.3495354E+04  0.7818609E-02  0.8114892E-01
       -1   -1    0    0    0  501  0.00000000000E+00  0.00000000000E+00  0.14149558632E+04  0.14149558632E+04  0.50400001928E-02 0. -1.
        1   -1    0    0  501    0  0.00000000000E+00  0.00000000000E+00 -0.21586360131E+04  0.21586360131E+04  0.50400001928E-02 0.  1.
    10030    2    1    2    0    0  0.00000000000E+00  0.00000000000E+00 -0.74368014990E+03  0.35735918764E+04  0.34953538781E+04 0.  0.
        3    1    3    3  502    0  0.11003457290E+04  0.11297029997E+04  0.39826991556E+03  0.16265326700E+04  0.10100000352E+00 0. -1.
       -3    1    3    3    0  502 -0.11003457290E+04 -0.11297029997E+04 -0.11419500655E+04  0.19470592063E+04  0.10100000352E+00 0.  1.
</event>
<event>
 5   0  0.1897049E-07  0.3492083E+04  0.7818609E-02  0.8115669E-01
        1   -1    0    0  501    0  0.00000000000E+00  0.00000000000E+00  0.14382372560E+04  0.14382372560E+04  0.50400001928E-02 0.  1.
       -1   -1    0    0    0  501  0.00000000000E+00  0.00000000000E+00 -0.21197207767E+04  0.21197207767E+04  0.50400001928E-02 0. -1.
    10030    2    1    2    0    0  0.00000000000E+00  0.00000000000E+00 -0.68148352070E+03  0.35579580327E+04  0.34920832712E+04 0.  0.
        2    1    3    3  502    0 -0.10211429582E+04  0.59274360007E+03 -0.16513128136E+04  0.20300029371E+04  0.25500000920E-02 0. -1.
       -2    1    3    3    0  502  0.10211429582E+04 -0.59274360007E+03  0.96982929286E+03  0.15279550955E+04  0.25500000920E-02 0.  1.
</event>
<event>
 5   0  0.5707187E-07  0.3534112E+04  0.7818609E-02  0.8105753E-01
        2   -1    0    0  501    0  0.00000000000E+00  0.00000000000E+00  0.25262057634E+04  0.25262057634E+04  0.25500000920E-02 0.  1.
       -2   -1    0    0    0  501  0.00000000000E+00  0.00000000000E+00 -0.12360381104E+04  0.12360381104E+04  0.25500000920E-02 0. -1.
    10030    2    1    2    0    0  0.00000000000E+00  0.00000000000E+00  0.12901676530E+04  0.37622438738E+04  0.35341118252E+04 0.  0.
        1    1    3    3  502    0  0.12845434731E+04  0.67280723216E+03  0.17201042800E+04  0.22497733752E+04  0.50400001928E-02 0.  1.
       -1    1    3    3    0  502 -0.12845434731E+04 -0.67280723216E+03 -0.42993662695E+03  0.15124704986E+04  0.50400001928E-02 0. -1.
</event>
<event>
 5   0  0.5677193E-07  0.3507994E+04  0.7818609E-02  0.8111898E-01
       -2   -1    0    0    0  501  0.00000000000E+00  0.00000000000E+00  0.17895847331E+04  0.17895847331E+04  0.25500000920E-02 0.  1.
        2   -1    0    0  501    0  0.00000000000E+00  0.00000000000E+00 -0.17191171925E+04  0.17191171925E+04  0.25500000920E-02 0. -1.
    10030    2    1    2    0    0  0.00000000000E+00  0.00000000000E+00  0.70467540629E+02  0.35087019256E+04  0.35079942316E+04 0.  0.
        3    1    3    3  502    0 -0.40684215708E+03  0.12662329924E+04 -0.11085175109E+04  0.17313802627E+04  0.10100000352E+00 0. -1.
       -3    1    3    3    0  502  0.40684215708E+03 -0.12662329924E+04  0.11789850515E+04  0.17773216630E+04  0.10100000352E+00 0.  1.
</event>
<event>
 5   0  0.1873457E-07  0.3582931E+04  0.7818609E-02  0.8094413E-01
       -1   -1    0    0    0  501  0.00000000000E+00  0.00000000000E+00  0.17271231230E+04  0.17271231230E+04  0.50400001928E-02 0. -1.
        1   -1    0    0  501    0  0.00000000000E+00  0.00000000000E+00 -0.18582051492E+04  0.18582051492E+04  0.50400001928E-02 0.  1.
    10030    2    1    2    0    0  0.00000000000E+00  0.00000000000E+00 -0.13108202619E+03  0.35853282722E+04  0.35829312472E+04 0.  0.
        3    1    3    3  502    0  0.36923067541E+03  0.15318376597E+04 -0.91845575170E+03  0.18238472757E+04  0.10100000352E+00 0. -1.
       -3    1    3    3    0  502 -0.36923067541E+03 -0.15318376597E+04  0.78737372551E+03  0.17614809965E+04  0.10100000352E+00 0.  1.
</event>
<event>
 5   0  0.5573334E-07  0.3498363E+04  0.7818609E-02  0.8114178E-01
        2   -1    0    0  501    0  0.00000000000E+00  0.00000000000E+00  0.13224144837E+04  0.13224144837E+04  0.25500000920E-02 0.  1.
       -2   -1    0    0    0  501  0.00000000000E+00  0.00000000000E+00 -0.23136733622E+04  0.23136733622E+04  0.25500000920E-02 0. -1.
    10030    2    1    2    0    0  0.00000000000E+00  0.00000000000E+00 -0.99125887848E+03  0.36360878459E+04  0.34983625682E+04 0.  0.
        4    1    3    3  502    0  0.16430410912E+04 -0.93171363121E+01  0.12795936450E+03  0.16480430967E+04  0.12699999809E+01 0.  1.
       -4    1    3    3    0  502 -0.16430410912E+04  0.93171363121E+01 -0.11192182430E+04  0.19880447492E+04  0.12699999809E+01 0. -1.
</event>
<event>
 5   0  0.1873457E-07  0.3443966E+04  0.7818609E-02  0.8127199E-01
        1   -1    0    0  501    0  0.00000000000E+00  0.00000000000E+00  0.17357755035E+04  0.17357755035E+04  0.50400001928E-02 0.  1.
       -1   -1    0    0    0  501  0.00000000000E+00  0.00000000000E+00 -0.17083003618E+04  0.17083003618E+04  0.50400001928E-02 0. -1.
    10030    2    1    2    0    0  0.00000000000E+00  0.00000000000E+00  0.27475141732E+02  0.34440758653E+04  0.34439662719E+04 0.  0.
        3    1    3    3  502    0  0.17164606341E+04  0.12003225565E+03  0.81423249559E+02  0.17225778957E+04  0.10100000352E+00 0.  1.
       -3    1    3    3    0  502 -0.17164606341E+04 -0.12003225565E+03 -0.53948107827E+02  0.17214979696E+04  0.10100000352E+00 0. -1.
</event>
<event>
 5   0  0.1873457E-07  0.3460679E+04  0.7818609E-02  0.8123172E-01
       -1   -1    0    0    0  501  0.00000000000E+00  0.00000000000E+00  0.15111907303E+04  0.15111907303E+04  0.50400001928E-02 0.  1.
        1   -1    0    0  501    0  0.00000000000E+00  0.00000000000E+00 -0.19812682369E+04  0.19812682369E+04  0.50400001928E-02 0. -1.
    10030    2    1    2    0    0  0.00000000000E+00  0.00000000000E+00 -0.47007750659E+03  0.34924589671E+04  0.34606786581E+04 0.  0.
        3    1    3    3  502    0  0.13117601926E+04 -0.34623542359E+03 -0.13189036465E+04  0.18921153798E+04  0.10100000352E+00 0. -1.
       -3    1    3    3    0  502 -0.13117601926E+04  0.34623542359E+03  0.84882613992E+03  0.16003435873E+04  0.10100000352E+00 0.  1.
</event>
<event>
 5   0  0.5677193E-07  0.3566765E+04  0.7818609E-02  0.8098147E-01
        2   -1    0    0  501    0  0.00000000000E+00  0.00000000000E+00  0.19275216128E+04  0.19275216128E+04  0.25500000920E-02 0. -1.
       -2   -1    0    0    0  501  0.00000000000E+00  0.00000000000E+00 -0.16500224265E+04  0.16500224265E+04  0.25500000920E-02 0.  1.
    10030    2    1    2    0    0  0.00000000000E+00  0.00000000000E+00  0.27749918629E+03  0.35775440393E+04  0.35667654191E+04 0.  0.
        3    1    3    3  502    0  0.32341877042E+03 -0.17467513979E+04  0.29643067894E+03  0.18010028608E+04  0.10100000352E+00 0. -1.
       -3    1    3    3    0  502 -0.32341877042E+03  0.17467513979E+04 -0.18931492647E+02  0.17765411785E+04  0.10100000352E+00 0.  1.
</event>
<event>
 5   0  0.1933647E-07  0.3498352E+04  0.7818609E-02  0.8114181E-01
        1   -1    0    0  501    0  0.00000000000E+00  0.00000000000E+00  0.15442896410E+04  0.15442896410E+04  0.50400001928E-02 0.  1.
       -1   -1    0    0    0  501  0.00000000000E+00  0.00000000000E+00 -0.19812455961E+04  0.19812455961E+04  0.50400001928E-02 0. -1.
    10030    2    1    2    0    0  0.00000000000E+00  0.00000000000E+00 -0.43695595518E+03  0.35255352371E+04  0.34983522123E+04 0.  0.
        4    1    3    3  502    0  0.75962608315E+03  0.37845152521E+03  0.13229025948E+04  0.15717284217E+04  0.12699999809E+01 0.  1.
       -4    1    3    3    0  502 -0.75962608315E+03 -0.37845152521E+03 -0.17598585500E+04  0.19538068155E+04  0.12699999809E+01 0. -1.
</event>
<event>
 5   0  0.1873457E-07  0.3502706E+04  0.7818609E-02  0.8113149E-01
        1   -1    0    0  501    0  0.00000000000E+00  0.00000000000E+00  0.15121284315E+04  0.15121284315E+04  0.50400001928E-02 0. -1.
       -1   -1    0    0    0  501  0.00000000000E+00  0.00000000000E+00 -0.20284242889E+04  0.20284242889E+04  0.50400001928E-02 0.  1.
    10030    2    1    2    0    0  0.00000000000E+00  0.00000000000E+00 -0.51629585737E+03  0.35405527204E+04  0.35027064041E+04 0.  0.
        3    1    3    3  502    0 -0.13225018341E+04  0.67912540188E+03 -0.11939019385E+04  0.19067313029E+04  0.10100000352E+00 0.  1.
       -3    1    3    3    0  502  0.13225018341E+04 -0.67912540188E+03  0.67760608114E+03  0.16338214174E+04  0.10100000352E+00 0. -1.
</event>
<event>
 5   0  0.5740827E-07  0.3507584E+04  0.7818609E-02  0.8111995E-01
        2   -1    0    0  501    0  0.00000000000E+00  0.00000000000E+00  0.31219170643E+04  0.31219170643E+04  0.25500000920E-02 0.  1.
       -2   -1    0    0    0  501  0.00000000000E+00  0.00000000000E+00 -0.98522358304E+03  0.98522358304E+03  0.25500000920E-02 0. -1.
    10030    2    1    2    0    0  0.00000000000E+00  0.00000000000E+00  0.21366934813E+04  0.41071406474E+04  0.35075839640E+04 0.  0.
        2    1    3    3  502    0 -0.15512645145E+04 -0.39750390443E+03  0.19056695254E+04  0.24891780346E+04  0.25500000920E-02 0. -1.
       -2    1    3    3    0  502  0.15512645145E+04  0.39750390443E+03  0.23102395593E+03  0.16179626128E+04  0.25500000920E-02 0.  1.
</event>
<event>
 5   0  0.1866421E-07  0.3482331E+04  0.7818609E-02  0.8117990E-01
        1   -1    0    0  501    0  0.00000000000E+00  0.00000000000E+00  0.27376222584E+04  0.27376222584E+04  0.50400001928E-02 0.  1.
       -1   -1    0    0    0  501  0.00000000000E+00  0.00000000000E+00 -0.11074051561E+04  0.11074051561E+04  0.50400001928E-02 0. -1.
    10030    2    1    2    0    0  0.00000000000E+00  0.00000000000E+00  0.16302171023E+04  0.38450274145E+04  0.34823308312E+04 0.  0.
        1    1    3    3  502    0 -0.30499468015E+03 -0.67544880595E+03 -0.92455657622E+03  0.11849294101E+04  0.50400001928E-02 0. -1.
       -1    1    3    3    0  502  0.30499468015E+03  0.67544880595E+03  0.25547736785E+04  0.26600980044E+04  0.50400001928E-02 0.  1.
</event>
<event>
 5   0  0.5707187E-07  0.3500110E+04  0.7818609E-02  0.8113764E-01
       -2   -1    0    0    0  501  0.00000000000E+00  0.00000000000E+00  0.20291305348E+04  0.20291305348E+04  0.25500000920E-02 0.  1.
        2   -1    0    0  501    0  0.00000000000E+00  0.00000000000E+00 -0.15093615882E+04  0.15093615882E+04  0.25500000920E-02 0. -1.
    10030    2    1    2    0    0  0.00000000000E+00  0.00000000000E+00  0.51976894659E+03  0.35384921230E+04  0.35001095335E+04 0.  0.
        1    1    3    3  502    0 -0.70447912935E+03 -0.85190880817E+03 -0.11116997083E+04  0.15677741236E+04  0.50400001928E-02 0. -1.
       -1    1    3    3    0  502  0.70447912935E+03  0.85190880817E+03  0.16314686549E+04  0.19707179994E+04  0.50400001928E-02 0.  1.
</event>
<event>
 5   0  0.1897049E-07  0.3497459E+04  0.7818609E-02  0.8114392E-01
       -1   -1    0    0    0  501  0.00000000000E+00  0.00000000000E+00  0.15674647686E+04  0.15674647686E+04  0.50400001928E-02 0. -1.
        1   -1    0    0  501    0  0.00000000000E+00  0.00000000000E+00 -0.19509557651E+04  0.19509557651E+04  0.50400001928E-02 0.  1.
    10030    2    1    2    0    0  0.00000000000E+00  0.00000000000E+00 -0.38349099653E+03  0.35184205337E+04  0.34974587499E+04 0.  0.
        2    1    3    3  502    0 -0.40820014459E+03 -0.84464357641E+03  0.12929059688E+04  0.15973903635E+04  0.25500000920E-02 0. -1.
       -2    1    3    3    0  502  0.40820014459E+03  0.84464357641E+03 -0.16763969653E+04  0.19210301702E+04  0.25500000920E-02 0.  1.
</event>
<event>
 5   0  0.1933647E-07  0.3498192E+04  0.7818609E-02  0.8114219E-01
        1   -1    0    0  501    0  0.00000000000E+00  0.00000000000E+00  0.15189122404E+04  0.15189122404E+04  0.50400001928E-02 0. -1.
       -1   -1    0    0    0  501  0.00000000000E+00  0.00000000000E+00 -0.20141629859E+04  0.20141629859E+04  0.50400001928E-02 0.  1.
    10030    2    1    2    0    0  0.00000000000E+00  0.00000000000E+00 -0.49525074548E+03  0.35330752263E+04  0.34981919978E+04 0.  0.
        4    1    3    3  502    0 -0.16905123533E+03 -0.18887640370E+03 -0.19955135446E+04  0.20115487903E+04  0.12699999809E+01 0.  1.
       -4    1    3    3    0  502  0.16905123533E+03  0.18887640370E+03  0.15002627991E+04  0.15215264360E+04  0.12699999809E+01 0. -1.
</event>
<event>
 5   0  0.5677193E-07  0.3504090E+04  0.7818609E-02  0.8112821E-01
        2   -1    0    0  501    0  0.00000000000E+00  0.00000000000E+00  0.22385488002E+04  0.22385488002E+04  0.25500000920E-02 0. -1.
       -2   -1    0    0    0  501  0.00000000000E+00  0.00000000000E+00 -0.13712729225E+04  0.13712729225E+04  0.25500000920E-02 0.  1.
    10030    2    1    2    0    0  0.00000000000E+00  0.00000000000E+00  0.86727587767E+03  0.36098217227E+04  0.35040898136E+04 0.  0.
        3    1    3    3  502    0 -0.16791719567E+04 -0.46344326074E+03  0.62708920019E+03  0.18513883955E+04  0.10100000352E+00 0. -1.
       -3    1    3    3    0  502  0.16791719567E+04  0.46344326074E+03  0.24018667748E+03  0.17584333272E+04  0.10100000352E+00 0.  1.
</event>
<event>
 5   0  0.1873457E-07  0.3514338E+04  0.7818609E-02  0.8110400E-01
       -1   -1    0    0    0  501  0.00000000000E+00  0.00000000000E+00  0.14203895476E+04  0.14203895476E+04  0.50400001928E-02 0.  1.
        1   -1    0    0  501    0  0.00000000000E+00  0.00000000000E+00 -0.21737998920E+04  0.21737998920E+04  0.50400001928E-02 0. -1.
    10030    2    1    2    0    0  0.00000000000E+00  0.00000000000E+00 -0.75341034445E+03  0.35941894396E+04  0.35143378581E+04 0.  0.
        3    1    3    3  502    0  0.13310999467E+03  0.35080899209E+02 -0.21682769948E+04  0.21726421879E+04  0.10100000352E+00 0. -1.
       -3    1    3    3    0  502 -0.13310999467E+03 -0.35080899209E+02  0.14148666504E+04  0.14215472517E+04  0.10100000352E+00 0.  1.
</event>
<event>
 5   0  0.5740827E-07  0.3562443E+04  0.7818609E-02  0.8099149E-01
        2   -1    0    0  501    0  0.00000000000E+00  0.00000000000E+00  0.19125399181E+04  0.19125399181E+04  0.25500000920E-02 0. -1.
       -2   -1    0    0    0  501  0.00000000000E+00  0.00000000000E+00 -0.16589197651E+04  0.16589197651E+04  0.25500000920E-02 0.  1.
    10030    2    1    2    0    0  0.00000000000E+00  0.00000000000E+00  0.25362015303E+03  0.35714596832E+04  0.35624431345E+04 0.  0.
        2    1    3    3  502    0  0.90003634270E+03  0.15340775608E+04  0.30176847807E+02  0.17788676238E+04  0.25500000920E-02 0.  1.
       -2    1    3    3    0  502 -0.90003634270E+03 -0.15340775608E+04  0.22344330522E+03  0.17925920594E+04  0.25500000920E-02 0. -1.
</event>
<event>
 5   0  0.5677193E-07  0.3485208E+04  0.7818609E-02  0.8117304E-01
        2   -1    0    0  501    0  0.00000000000E+00  0.00000000000E+00  0.14726261720E+04  0.14726261720E+04  0.25500000920E-02 0.  1.
       -2   -1    0    0    0  501  0.00000000000E+00  0.00000000000E+00 -0.20620776156E+04  0.20620776156E+04  0.25500000920E-02 0. -1.
    10030    2    1    2    0    0  0.00000000000E+00  0.00000000000E+00 -0.58945144356E+03  0.35347037876E+04  0.34852084388E+04 0.  0.
        3    1    3    3  502    0  0.75038908996E+03 -0.14537488600E+04 -0.90341559272E+03  0.18688577468E+04  0.10100000352E+00 0. -1.
       -3    1    3    3    0  502 -0.75038908996E+03  0.14537488600E+04  0.31396414916E+03  0.16658460408E+04  0.10100000352E+00 0.  1.
</event>
<event>
 5   0  0.5740827E-07  0.3507307E+04  0.7818609E-02  0.8112060E-01
       -2   -1    0    0    0  501  0.00000000000E+00  0.00000000000E+00  0.24406032840E+04  0.24406032840E+04  0.25500000920E-02 0.  1.
        2   -1    0    0  501    0  0.00000000000E+00  0.00000000000E+00 -0.12600575528E+04  0.12600575528E+04  0.25500000920E-02 0. -1.
    10030    2    1    2    0    0  0.00000000000E+00  0.00000000000E+00  0.11805457312E+04  0.37006608368E+04  0.35073070019E+04 0.  0.
        2    1    3    3  502    0  0.81905858611E+03  0.15479891573E+04  0.49488313242E+03  0.18199001933E+04  0.25500000920E-02 0. -1.
       -2    1    3    3    0  502 -0.81905858611E+03 -0.15479891573E+04  0.68566259880E+03  0.18807606435E+04  0.25500000920E-02 0.  1.
</event>
<event>
 5   0  0.5740827E-07  0.3562650E+04  0.7818609E-02  0.8099101E-01
        2   -1    0    0  501    0  0.00000000000E+00  0.00000000000E+00  0.28759469415E+04  0.28759469415E+04  0.25500000920E-02 0.  1.
       -2   -1    0    0    0  501  0.00000000000E+00  0.00000000000E+00 -0.11033303580E+04  0.11033303580E+04  0.25500000920E-02 0. -1.
    10030    2    1    2    0    0  0.00000000000E+00  0.00000000000E+00  0.17726165835E+04  0.39792772995E+04  0.35626504564E+04 0.  0.
        2    1    3    3  502    0 -0.75098777963E+03 -0.50253312827E+03  0.26009511905E+04  0.27534468009E+04  0.25500000920E-02 0.  1.
       -2    1    3    3    0  502  0.75098777963E+03  0.50253312827E+03 -0.82833460702E+03  0.12258304986E+04  0.25500000920E-02 0. -1.
</event>
<event>
 5   0  0.1908190E-07  0.3497677E+04  0.7818609E-02  0.8114341E-01
       -1   -1    0    0    0  501  0.00000000000E+00  0.00000000000E+00  0.18669276169E+04  0.18669276169E+04  0.50400001928E-02 0. -1.
        1   -1    0    0  501    0  0.00000000000E+00  0.00000000000E+00 -0.16382188268E+04  0.16382188268E+04  0.50400001928E-02 0.  1.
    10030    2    1    2    0    0  0.00000000000E+00  0.00000000000E+00  0.22870879016E+03  0.35051464437E+04  0.34976769264E+04 0.  0.
        5    1    3    3  502    0 -0.25170380345E+03  0.12122255214E+04  0.13521311197E+04  0.18333374415E+04  0.46999998093E+01 0. -1.
       -5    1    3    3    0  502  0.25170380345E+03 -0.12122255214E+04 -0.11234223296E+04  0.16718090022E+04  0.46999998093E+01 0.  1.
</event>
<event>
 5   0  0.1866421E-07  0.3399706E+04  0.7818609E-02  0.8137978E-01
        1   -1    0    0  501    0  0.00000000000E+00  0.00000000000E+00  0.19154759864E+04  0.19154759864E+04  0.50400001928E-02 0. -1.
       -1   -1    0    0    0  501  0.00000000000E+00  0.00000000000E+00 -0.15085025758E+04  0.15085025758E+04  0.50400001928E-02 0.  1.
    10030    2    1    2    0    0  0.00000000000E+00  0.00000000000E+00  0.40697341055E+03  0.34239785622E+04  0.33997061399E+04 0.  0.
        1    1    3    3  502    0  0.36382641905E+02  0.14876446052E+04  0.10309916326E+04  0.18103463521E+04  0.50400001928E-02 0. -1.
       -1    1    3    3    0  502 -0.36382641905E+02 -0.14876446052E+04 -0.62401822208E+03  0.16136322101E+04  0.50400001928E-02 0.  1.
</event>
<event>
 5   0  0.5740827E-07  0.3435331E+04  0.7818609E-02  0.8129289E-01
       -2   -1    0    0    0  501  0.00000000000E+00  0.00000000000E+00  0.13992047342E+04  0.13992047342E+04  0.25500000920E-02 0. -1.
        2   -1    0    0  501    0  0.00000000000E+00  0.00000000000E+00 -0.21086083120E+04  0.21086083120E+04  0.25500000920E-02 0.  1.
    10030    2    1    2    0    0  0.00000000000E+00  0.00000000000E+00 -0.70940357778E+03  0.35078130462E+04  0.34353309783E+04 0.  0.
        2    1    3    3  502    0  0.11940829078E+04  0.88893557004E+03 -0.12297152992E+04  0.19308651314E+04  0.25500000920E-02 0. -1.
       -2    1    3    3    0  502 -0.11940829078E+04 -0.88893557004E+03  0.52031172145E+03  0.15769479148E+04  0.25500000920E-02 0.  1.
</event>
<event>
 5   0  0.5740827E-07  0.3487142E+04  0.7818609E-02  0.8116844E-01
       -2   -1    0    0    0  501  0.00000000000E+00  0.00000000000E+00  0.22152263185E+04  0.22152263185E+04  0.25500000920E-02 0. -1.
        2   -1    0    0  501    0  0.00000000000E+00  0.00000000000E+00 -0.13723380694E+04  0.13723380694E+04  0.25500000920E-02 0.  1.
    10030    2    1    2    0    0  0.00000000000E+00  0.00000000000E+00  0.84288824916E+03  0.35875643879E+04  0.34871417575E+04 0.  0.
        2    1    3    3  502    0  0.45804296802E+03 -0.60654226993E+03 -0.11929305444E+04  0.14144893671E+04  0.25500000920E-02 0.  1.
       -2    1    3    3    0  502 -0.45804296802E+03  0.60654226993E+03  0.20358187936E+04  0.21730750208E+04  0.25500000920E-02 0. -1.
</event>
<event>
 5   0  0.5677193E-07  0.3508758E+04  0.7818609E-02  0.8111718E-01
        2   -1    0    0  501    0  0.00000000000E+00  0.00000000000E+00  0.19256319382E+04  0.19256319382E+04  0.25500000920E-02 0.  1.
       -2   -1    0    0    0  501  0.00000000000E+00  0.00000000000E+00 -0.15983559754E+04  0.15983559754E+04  0.25500000920E-02 0. -1.
    10030    2    1    2    0    0  0.00000000000E+00  0.00000000000E+00  0.32727596283E+03  0.35239879135E+04  0.35087577943E+04 0.  0.
        3    1    3    3  502    0  0.94698727611E+03  0.66759313544E+03 -0.11594182114E+04  0.16391205247E+04  0.10100000352E+00 0. -1.
       -3    1    3    3    0  502 -0.94698727611E+03 -0.66759313544E+03  0.14866941742E+04  0.18848673888E+04  0.10100000352E+00 0.  1.
</event>
<event>
 5   0  0.1897049E-07  0.3519544E+04  0.7818609E-02  0.8109174E-01
       -1   -1    0    0    0  501  0.00000000000E+00  0.00000000000E+00  0.10488039155E+04  0.10488039155E+04  0.50400001928E-02 0. -1.
        1   -1    0    0  501    0  0.00000000000E+00  0.00000000000E+00 -0.29526946082E+04  0.29526946082E+04  0.50400001928E-02 0.  1.
    10030    2    1    2    0    0  0.00000000000E+00  0.00000000000E+00 -0.19038906927E+04  0.40014985237E+04  0.35195440991E+04 0.  0.
        2    1    3    3  502    0 -0.14400133508E+04 -0.31067937703E+03 -0.20463834254E+04  0.25214767993E+04  0.25500000920E-02 0.  1.
       -2    1    3    3    0  502  0.14400133508E+04  0.31067937703E+03  0.14249273266E+03  0.14800217244E+04  0.25500000920E-02 0. -1.
</event>
<event>
 5   0  0.1866421E-07  0.3483488E+04  0.7818609E-02  0.8117714E-01
        1   -1    0    0  501    0  0.00000000000E+00  0.00000000000E+00  0.22038485778E+04  0.22038485778E+04  0.50400001928E-02 0. -1.
       -1   -1    0    0    0  501  0.00000000000E+00  0.00000000000E+00 -0.13765338094E+04  0.13765338095E+04  0.50400001928E-02 0.  1.
    10030    2    1    2    0    0  0.00000000000E+00  0.00000000000E+00  0.82731476835E+03  0.35803823873E+04  0.34834879522E+04 0.  0.
        1    1    3    3  502    0  0.34403464535E+03  0.17071545356E+04  0.44509631423E+03  0.17974557504E+04  0.50400001928E-02 0.  1.
       -1    1    3    3    0  502 -0.34403464535E+03 -0.17071545356E+04  0.38221845413E+03  0.17829266369E+04  0.50400001928E-02 0. -1.
</event>
<event>
 5   0  0.5740827E-07  0.3472013E+04  0.7818609E-02  0.8120455E-01
       -2   -1    0    0    0  501  0.00000000000E+00  0.00000000000E+00  0.20177443851E+04  0.20177443851E+04  0.25500000920E-02 0. -1.
        2   -1    0    0  501    0  0.00000000000E+00  0.00000000000E+00 -0.14936078594E+04  0.14936078594E+04  0.25500000920E-02 0.  1.
    10030    2    1    2    0    0  0.00000000000E+00  0.00000000000E+00  0.52413652567E+03  0.35113522445E+04  0.34720131750E+04 0.  0.
        2    1    3    3  502    0 -0.33321964934E+03  0.12208398883E+04 -0.93977072677E+03  0.15762786513E+04  0.25500000920E-02 0.  1.
       -2    1    3    3    0  502  0.33321964934E+03 -0.12208398883E+04  0.14639072524E+04  0.19350735932E+04  0.25500000920E-02 0. -1.
</event>
<event>
 5   0  0.5554745E-07  0.3506216E+04  0.7818609E-02  0.8112318E-01
       -2   -1    0    0    0  501  0.00000000000E+00  0.00000000000E+00  0.10187390024E+04  0.10187390024E+04  0.25500000920E-02 0.  1.
        2   -1    0    0  501    0  0.00000000000E+00  0.00000000000E+00 -0.30168550804E+04  0.30168550804E+04  0.25500000920E-02 0. -1.
    10030    2    1    2    0    0  0.00000000000E+00  0.00000000000E+00 -0.19981160780E+04  0.40355940828E+04  0.35062161570E+04 0.  0.
        5    1    3    3  502    0  0.32795909075E+03 -0.94469883968E+03 -0.26563743011E+04  0.28383726993E+04  0.46999998093E+01 0. -1.
       -5    1    3    3    0  502 -0.32795909075E+03  0.94469883968E+03  0.65825822301E+03  0.11972213835E+04  0.46999998093E+01 0.  1.
</event>
<event>
 5   0  0.1897049E-07  0.3497059E+04  0.7818609E-02  0.8114487E-01
       -1   -1    0    0    0  501  0.00000000000E+00  0.00000000000E+00  0.19327849902E+04  0.19327849902E+04  0.50400001928E-02 0.  1.
        1   -1    0    0  501    0  0.00000000000E+00  0.00000000000E+00 -0.15818398318E+04  0.15818398318E+04  0.50400001928E-02 0. -1.
    10030    2    1    2    0    0  0.00000000000E+00  0.00000000000E+00  0.35094515839E+03  0.35146248220E+04  0.34970594984E+04 0.  0.
        2    1    3    3  502    0 -0.93962364573E+03 -0.14642438878E+04  0.35085850391E+03  0.17748251881E+04  0.25500000920E-02 0.  1.
       -2    1    3    3    0  502  0.93962364573E+03  0.14642438878E+04  0.86654476074E-01  0.17397996339E+04  0.25500000920E-02 0. -1.
</event>
<event>
 5   0  0.1908190E-07  0.3423240E+04  0.7818609E-02  0.8132226E-01
        1   -1    0    0  501    0  0.00000000000E+00  0.00000000000E+00  0.28154715831E+04  0.28154715831E+04  0.50400001928E-02 0. -1.
       -1   -1    0    0    0  501  0.00000000000E+00  0.00000000000E+00 -0.10405514005E+04  0.10405514005E+04  0.50400001928E-02 0.  1.
    10030    2    1    2    0    0  0.00000000000E+00  0.00000000000E+00  0.17749201826E+04  0.38560229836E+04  0.34232399267E+04 0.  0.
        5    1    3    3  502    0 -0.15373965597E+04  0.64756993617E+03  0.13188761620E+04  0.21265915040E+04  0.46999998093E+01 0.  1.
       -5    1    3    3    0  502  0.15373965597E+04 -0.64756993617E+03  0.45604402061E+03  0.17294314796E+04  0.46999998093E+01 0. -1.
</event>
<event>
 5   0  0.5573334E-07  0.3507938E+04  0.7818609E-02  0.8111911E-01
        2   -1    0    0  501    0  0.00000000000E+00  0.00000000000E+00  0.21285626927E+04  0.21285626927E+04  0.25500000920E-02 0. -1.
       -2   -1    0    0    0  501  0.00000000000E+00  0.00000000000E+00 -0.14452981646E+04  0.14452981646E+04  0.25500000920E-02 0.  1.
    10030    2    1    2    0    0  0.00000000000E+00  0.00000000000E+00  0.68326452810E+03  0.35738608573E+04  0.35079382851E+04 0.  0.
        4    1    3    3  502    0 -0.50166405143E+03  0.26554117661E+03  0.20324063286E+04  0.21101791475E+04  0.12699999809E+01 0. -1.
       -4    1    3    3    0  502  0.50166405143E+03 -0.26554117661E+03 -0.13491418005E+04  0.14636817099E+04  0.12699999809E+01 0.  1.
</event>
<event>
 5   0  0.1873457E-07  0.3535018E+04  0.7818609E-02  0.8105541E-01
        1   -1    0    0  501    0  0.00000000000E+00  0.00000000000E+00  0.26101238318E+04  0.26101238318E+04  0.50400001928E-02 0. -1.
       -1   -1    0    0    0  501  0.00000000000E+00  0.00000000000E+00 -0.11969117407E+04  0.11969117407E+04  0.50400001928E-02 0.  1.
    10030    2    1    2    0    0  0.00000000000E+00  0.00000000000E+00  0.14132120911E+04  0.38070355725E+04  0.35350178834E+04 0.  0.
        3    1    3    3  502    0 -0.81865630148E+03 -0.14938919685E+04  0.12142326503E+04  0.20919541804E+04  0.10100000352E+00 0. -1.
       -3    1    3    3    0  502  0.81865630148E+03  0.14938919685E+04  0.19897944085E+03  0.17150813921E+04  0.10100000352E+00 0.  1.
</event>
<event>
 5   0  0.1897049E-07  0.3498875E+04  0.7818609E-02  0.8114057E-01
       -1   -1    0    0    0  501  0.00000000000E+00  0.00000000000E+00  0.20409808282E+04  0.20409808282E+04  0.50400001928E-02 0. -1.
        1   -1    0    0  501    0  0.00000000000E+00  0.00000000000E+00 -0.14995391703E+04  0.14995391703E+04  0.50400001928E-02 0.  1.
    10030    2    1    2    0    0  0.00000000000E+00  0.00000000000E+00  0.54144165794E+03  0.35405199985E+04  0.34988745035E+04 0.  0.
        2    1    3    3  502    0 -0.43341108391E+03  0.15685995391E+04 -0.37893401195E+03  0.16709101314E+04  0.25500000920E-02 0.  1.
       -2    1    3    3    0  502  0.43341108391E+03 -0.15685995391E+04  0.92037566989E+03  0.18696098672E+04  0.25500000920E-02 0. -1.
</event>
<event>
 5   0  0.5740827E-07  0.3550228E+04  0.7818609E-02  0.8101989E-01
       -2   -1    0    0    0  501  0.00000000000E+00  0.00000000000E+00  0.16993300435E+04  0.16993300436E+04  0.25500000920E-02 0.  1.
        2   -1    0    0  501    0  0.00000000000E+00  0.00000000000E+00 -0.18542777441E+04  0.18542777441E+04  0.25500000920E-02 0. -1.
    10030    2    1    2    0    0  0.00000000000E+00  0.00000000000E+00 -0.15494770056E+03  0.35536077877E+04  0.35502280939E+04 0.  0.
        2    1    3    3  502    0  0.14910820378E+03  0.16427437266E+04  0.57903899272E+03  0.17481780123E+04  0.25500000920E-02 0.  1.
       -2    1    3    3    0  502 -0.14910820378E+03 -0.16427437266E+04 -0.73398669328E+03  0.18054297753E+04  0.25500000920E-02 0. -1.
</event>
<event>
 5   0  0.5677193E-07  0.3490943E+04  0.7818609E-02  0.8115940E-01
        2   -1    0    0  501    0  0.00000000000E+00  0.00000000000E+00  0.12180127885E+04  0.12180127885E+04  0.25500000920E-02 0.  1.
       -2   -1    0    0    0  501  0.00000000000E+00  0.00000000000E+00 -0.25013448972E+04  0.25013448972E+04  0.25500000920E-02 0. -1.
    10030    2    1    2    0    0  0.00000000000E+00  0.00000000000E+00 -0.12833321087E+04  0.37193576857E+04  0.34909426081E+04 0.  0.
        3    1    3    3  502    0 -0.12467337289E+04  0.12208511683E+04 -0.59587115421E+03  0.18438777098E+04  0.10100000352E+00 0. -1.
       -3    1    3    3    0  502  0.12467337289E+04 -0.12208511683E+04 -0.68746095444E+03  0.18754799759E+04  0.10100000352E+00 0.  1.
</event>
<event>
 5   0  0.1933647E-07  0.3501663E+04  0.7818609E-02  0.8113396E-01
        1   -1    0    0  501    0  0.00000000000E+00  0.00000000000E+00  0.18010497258E+04  0.18010497258E+04  0.50400001928E-02 0. -1.
       -1   -1    0    0    0  501  0.00000000000E+00  0.00000000000E+00 -0.17020134927E+04  0.17020134927E+04  0.50400001928E-02 0.  1.
    10030    2    1    2    0    0  0.00000000000E+00  0.00000000000E+00  0.99036233096E+02  0.35030632185E+04  0.35016629959E+04 0.  0.
        4    1    3    3  502    0  0.15467311295E+04  0.77554784995E+03  0.31712773241E+03  0.17590972872E+04  0.12699999809E+01 0.  1.
       -4    1    3    3    0  502 -0.15467311295E+04 -0.77554784995E+03 -0.21809149931E+03  0.17439659312E+04  0.12699999809E+01 0. -1.
</event>
<event>
 5   0  0.5677193E-07  0.3484002E+04  0.7818609E-02  0.8117592E-01
       -2   -1    0    0    0  501  0.00000000000E+00  0.00000000000E+00  0.18023108592E+04  0.18023108592E+04  0.25500000920E-02 0. -1.
        2   -1    0    0  501    0  0.00000000000E+00  0.00000000000E+00 -0.16837092242E+04  0.16837092242E+04  0.25500000920E-02 0.  1.
    10030    2    1    2    0    0  0.00000000000E+00  0.00000000000E+00  0.11860163507E+03  0.34860200834E+04  0.34840019624E+04 0.  0.
        3    1    3    3  502    0  0.39789089989E+03  0.16716001647E+04  0.34582857914E+03  0.17527583106E+04  0.10100000352E+00 0. -1.
       -3    1    3    3    0  502 -0.39789089989E+03 -0.16716001647E+04 -0.22722694407E+03  0.17332617728E+04  0.10100000352E+00 0.  1.
</event>
<event>
 5   0  0.1873457E-07  0.3549017E+04  0.7818609E-02  0.8102271E-01
       -1   -1    0    0    0  501  0.00000000000E+00  0.00000000000E+00  0.12814006717E+04  0.12814006717E+04  0.50400001928E-02 0. -1.
        1   -1    0    0  501    0  0.00000000000E+00  0.00000000000E+00 -0.24573734500E+04  0.24573734500E+04  0.50400001928E-02 0.  1.
    10030    2    1    2    0    0  0.00000000000E+00  0.00000000000E+00 -0.11759727783E+04  0.37387741217E+04  0.35490167593E+04 0.  0.
        3    1    3    3  502    0 -0.94570505727E+03  0.13861737760E+04 -0.11959423297E+04  0.20606100696E+04  0.10100000352E+00 0.  1.
       -3    1    3    3    0  502  0.94570505727E+03 -0.13861737760E+04  0.19969551402E+02  0.16781640521E+04  0.10100000352E+00 0. -1.
</event>
<event>
 5   0  0.5740827E-07  0.3492883E+04  0.7818609E-02  0.8115479E-01
       -2   -1    0    0    0  501  0.00000000000E+00  0.00000000000E+00  0.21730194848E+04  0.21730194848E+04  0.25500000920E-02 0. -1.
        2   -1    0    0  501    0  0.00000000000E+00  0.00000000000E+00 -0.14036031733E+04  0.14036031733E+04  0.25500000920E-02 0.  1.
    10030    2    1    2    0    0  0.00000000000E+00  0.00000000000E+00  0.76941631151E+03  0.35766226580E+04  0.34928825027E+04 0.  0.
        2    1    3    3  502    0  0.27936853380E+03 -0.13409071141E+04  0.14941874357E+04  0.20269866205E+04  0.25500000920E-02 0. -1.
       -2    1    3    3    0  502 -0.27936853380E+03  0.13409071141E+04 -0.72477112420E+03  0.15496360376E+04  0.25500000920E-02 0.  1.
</event>
<event>
 5   0  0.5677193E-07  0.3487371E+04  0.7818609E-02  0.8116789E-01
       -2   -1    0    0    0  501  0.00000000000E+00  0.00000000000E+00  0.14890593332E+04  0.14890593332E+04  0.25500000920E-02 0.  1.
        2   -1    0    0  501    0  0.00000000000E+00  0.00000000000E+00 -0.20418523753E+04  0.20418523753E+04  0.25500000920E-02 0. -1.
    10030    2    1    2    0    0  0.00000000000E+00  0.00000000000E+00 -0.55279304208E+03  0.35309117086E+04  0.34873711225E+04 0.  0.
        3    1    3    3  502    0 -0.17862311969E+03 -0.19303652359E+03  0.14688619339E+04  0.14922214009E+04  0.10100000352E+00 0.  1.
       -3    1    3    3    0  502  0.17862311969E+03  0.19303652359E+03 -0.20216549760E+04  0.20386903076E+04  0.10100000352E+00 0. -1.
</event>
<event>
 5   0  0.5707187E-07  0.3516043E+04  0.7818609E-02  0.8109999E-01
        2   -1    0    0  501    0  0.00000000000E+00  0.00000000000E+00  0.16566597892E+04  0.16566597892E+04  0.25500000920E-02 0. -1.
       -2   -1    0    0    0  501  0.00000000000E+00  0.00000000000E+00 -0.18655846887E+04  0.18655846887E+04  0.25500000920E-02 0.  1.
    10030    2    1    2    0    0  0.00000000000E+00  0.00000000000E+00 -0.20892489950E+03  0.35222444779E+04  0.35160427399E+04 0.  0.
        1    1    3    3  502    0  0.65297658598E+03 -0.58778127460E+02 -0.17385372946E+04  0.18580487655E+04  0.50400001928E-02 0.  1.
       -1    1    3    3    0  502 -0.65297658598E+03  0.58778127460E+02  0.15296123951E+04  0.16641957124E+04  0.50400001928E-02 0. -1.
</event>
<event>
 5   0  0.1866421E-07  0.3510359E+04  0.7818609E-02  0.8111339E-01
       -1   -1    0    0    0  501  0.00000000000E+00  0.00000000000E+00  0.11461746703E+04  0.11461746704E+04  0.50400001928E-02 0. -1.
        1   -1    0    0  501    0  0.00000000000E+00  0.00000000000E+00 -0.26877707351E+04  0.26877707351E+04  0.50400001928E-02 0.  1.
    10030    2    1    2    0    0  0.00000000000E+00  0.00000000000E+00 -0.15415960647E+04  0.38339454054E+04  0.35103588057E+04 0.  0.
        1    1    3    3  502    0 -0.98545875452E+03 -0.81781792936E+03 -0.20817329603E+04  0.24440882227E+04  0.50400001928E-02 0.  1.
       -1    1    3    3    0  502  0.98545875452E+03  0.81781792936E+03  0.54013689554E+03  0.13898571827E+04  0.50400001928E-02 0. -1.
</event>
<event>
 5   0  0.5677193E-07  0.3487325E+04  0.7818609E-02  0.8116800E-01
        2   -1    0    0  501    0  0.00000000000E+00  0.00000000000E+00  0.18950855817E+04  0.18950855817E+04  0.25500000920E-02 0. -1.
       -2   -1    0    0    0  501  0.00000000000E+00  0.00000000000E+00 -0.16043389218E+04  0.16043389218E+04  0.25500000920E-02 0.  1.
    10030    2    1    2    0    0  0.00000000000E+00  0.00000000000E+00  0.29074665987E+03  0.34994245035E+04  0.34873253699E+04 0.  0.
        3    1    3    3  502    0  0.10978044069E+04 -0.94377222921E+03  0.11205882008E+04  0.18307371363E+04  0.10100000352E+00 0. -1.
       -3    1    3    3    0  502 -0.10978044069E+04  0.94377222921E+03 -0.82984154088E+03  0.16686873672E+04  0.10100000352E+00 0.  1.
</event>
<event>
 5   0  0.1933647E-07  0.3501589E+04  0.7818609E-02  0.8113414E-01
        1   -1    0    0  501    0  0.00000000000E+00  0.00000000000E+00  0.12322716295E+04  0.12322716295E+04  0.50400001928E-02 0.  1.
       -1   -1    0    0    0  501  0.00000000000E+00  0.00000000000E+00 -0.24875041853E+04  0.24875041853E+04  0.50400001928E-02 0. -1.
    10030    2    1    2    0    0  0.00000000000E+00  0.00000000000E+00 -0.12552325558E+04  0.37197758148E+04  0.35015886885E+04 0.  0.
        4    1    3    3  502    0  0.43381471177E+03 -0.16247052245E+04 -0.11452320471E+04  0.20345565426E+04  0.12699999809E+01 0. -1.
       -4    1    3    3    0  502 -0.43381471177E+03  0.16247052245E+04 -0.11000050871E+03  0.16852192722E+04  0.12699999809E+01 0.  1.
</event>
<event>
 5   0  0.5554745E-07  0.3499308E+04  0.7818609E-02  0.8113954E-01
       -2   -1    0    0    0  501  0.00000000000E+00  0.00000000000E+00  0.14969029609E+04  0.14969029609E+04  0.25500000920E-02 0. -1.
        2   -1    0    0  501    0  0.00000000000E+00  0.00000000000E+00 -0.20450816810E+04  0.20450816810E+04  0.25500000920E-02 0.  1.
    10030    2    1    2    0    0  0.00000000000E+00  0.00000000000E+00 -0.54817872014E+03  0.35419846419E+04  0.34993078307E+04 0.  0.
        5    1    3    3  502    0 -0.83728709319E+03  0.15024628323E+04 -0.59865952303E+03  0.18212247399E+04  0.46999998093E+01 0.  1.
       -5    1    3    3    0  502  0.83728709319E+03 -0.15024628323E+04  0.50480802887E+02  0.17207599020E+04  0.46999998093E+01 0. -1.
</event>
<event>
 5   0  0.1933647E-07  0.3458638E+04  0.7818609E-02  0.8123663E-01
       -1   -1    0    0    0  501  0.00000000000E+00  0.00000000000E+00  0.21336665754E+04  0.21336665754E+04  0.50400001928E-02 0. -1.
        1   -1    0    0  501    0  0.00000000000E+00  0.00000000000E+00 -0.14015986486E+04  0.14015986487E+04  0.50400001928E-02 0.  1.
    10030    2    1    2    0    0  0.00000000000E+00  0.00000000000E+00  0.73206792672E+03  0.35352652240E+04  0.34586379913E+04 0.  0.
        4    1    3    3  502    0 -0.38372889299E+03  0.11953955262E+04 -0.84956798418E+03  0.15159108483E+04  0.12699999809E+01 0.  1.
       -4    1    3    3    0  502  0.38372889299E+03 -0.11953955262E+04  0.15816359109E+04  0.20193543757E+04  0.12699999809E+01 0. -1.
</event>
<event>
 5   0  0.1908190E-07  0.3501954E+04  0.7818609E-02  0.8113327E-01
        1   -1    0    0  501    0  0.00000000000E+00  0.00000000000E+00  0.17808507798E+04  0.17808507798E+04  0.50400001928E-02 0. -1.
       -1   -1    0    0    0  501  0.00000000000E+00  0.00000000000E+00 -0.17216046083E+04  0.17216046083E+04  0.50400001928E-02 0.  1.
    10030    2    1    2    0    0  0.00000000000E+00  0.00000000000E+00  0.59246171528E+02  0.35024553881E+04  0.35019542597E+04 0.  0.
        5    1    3    3  502    0 -0.13247166240E+03 -0.15267303141E+04 -0.81751915294E+03  0.17368977658E+04  0.46999998093E+01 0.  1.
       -5    1    3    3    0  502  0.13247166240E+03  0.15267303141E+04  0.87676532447E+03  0.17655576223E+04  0.46999998093E+01 0. -1.
</event>
<event>
 5   0  0.5707187E-07  0.3464269E+04  0.7818609E-02  0.8122310E-01
        2   -1    0    0  501    0  0.00000000000E+00  0.00000000000E+00  0.13116332089E+04  0.13116332089E+04  0.25500000920E-02 0. -1.
       -2   -1    0    0    0  501  0.00000000000E+00  0.00000000000E+00 -0.22874457379E+04  0.22874457379E+04  0.25500000920E-02 0.  1.
    10030    2    1    2    0    0  0.00000000000E+00  0.00000000000E+00 -0.97581252906E+03  0.35990789468E+04  0.34642689233E+04 0.  0.
        1    1    3    3  502    0 -0.95548035506E+03  0.71180008772E+03  0.81827308931E+03  0.14453971504E+04  0.50400001928E-02 0. -1.
       -1    1    3    3    0  502  0.95548035506E+03 -0.71180008772E+03 -0.17940856184E+04  0.21536817963E+04  0.50400001928E-02 0.  1.
</event>
<event>
 5   0  0.5573334E-07  0.3501955E+04  0.7818609E-02  0.8113327E-01
       -2   -1    0    0    0  501  0.00000000000E+00  0.00000000000E+00  0.16154743991E+04  0.16154743991E+04  0.25500000920E-02 0.  1.
        2   -1    0    0  501    0  0.00000000000E+00  0.00000000000E+00 -0.18978465696E+04  0.18978465696E+04  0.25500000920E-02 0. -1.
    10030    2    1    2    0    0  0.00000000000E+00  0.00000000000E+00 -0.28237217056E+03  0.35133209687E+04  0.35019551948E+04 0.  0.
        4    1    3    3  502    0  0.50856478802E+03  0.45386522773E+03  0.14768997527E+04  0.16266119023E+04  0.12699999809E+01 0.  1.
       -4    1    3    3    0  502 -0.50856478802E+03 -0.45386522773E+03 -0.17592719232E+04  0.18867090664E+04  0.12699999809E+01 0. -1.
</event>
<event>
 5   0  0.5677193E-07  0.3500718E+04  0.7818609E-02  0.8113620E-01
        2   -1    0    0  501    0  0.00000000000E+00  0.00000000000E+00  0.11804305594E+04  0.11804305594E+04  0.25500000920E-02 0. -1.
       -2   -1    0    0    0  501  0.00000000000E+00  0.00000000000E+00 -0.25954574123E+04  0.25954574123E+04  0.25500000920E-02 0.  1.
    10030    2    1    2    0    0  0.00000000000E+00  0.00000000000E+00 -0.14150268529E+04  0.37758879717E+04  0.35007183521E+04 0.  0.
        3    1    3    3  502    0 -0.15363189050E+04  0.26607310870E+01 -0.16121748492E+04  0.22269689293E+04  0.10100000352E+00 0.  1.
       -3    1    3    3    0  502  0.15363189050E+04 -0.26607310870E+01  0.19714799627E+03  0.15489190424E+04  0.10100000352E+00 0. -1.
</event>
<event>
 5   0  0.1933647E-07  0.3500991E+04  0.7818609E-02  0.8113555E-01
        1   -1    0    0  501    0  0.00000000000E+00  0.00000000000E+00  0.20487674071E+04  0.20487674071E+04  0.50400001928E-02 0. -1.
       -1   -1    0    0    0  501  0.00000000000E+00  0.00000000000E+00 -0.14956478207E+04  0.14956478207E+04  0.50400001928E-02 0.  1.
    10030    2    1    2    0    0  0.00000000000E+00  0.00000000000E+00  0.55311958638E+03  0.35444152278E+04  0.35009910069E+04 0.  0.
        4    1    3    3  502    0  0.73226595462E+03  0.56085904009E+03  0.17827822016E+04  0.20072593959E+04  0.12699999809E+01 0. -1.
       -4    1    3    3    0  502 -0.73226595462E+03 -0.56085904009E+03 -0.12296626153E+04  0.15371558319E+04  0.12699999809E+01 0.  1.
</event>
<event>
 5   0  0.1897049E-07  0.3515132E+04  0.7818609E-02  0.8110213E-01
        1   -1    0    0  501    0  0.00000000000E+00  0.00000000000E+00  0.11349836882E+04  0.11349836882E+04  0.50400001928E-02 0. -1.
       -1   -1    0    0    0  501  0.00000000000E+00  0.00000000000E+00 -0.27216592287E+04  0.27216592287E+04  0.50400001928E-02 0.  1.
    10030    2    1    2    0    0  0.00000000000E+00  0.00000000000E+00 -0.15866755405E+04  0.38566429169E+04  0.35151323328E+04 0.  0.
        2    1    3    3  502    0 -0.83202246917E+01  0.16396929072E+04 -0.99109671166E+02  0.16427065420E+04  0.25500000920E-02 0. -1.
       -2    1    3    3    0  502  0.83202246917E+01 -0.16396929072E+04 -0.14875658694E+04  0.22139363749E+04  0.25500000920E-02 0.  1.
</event>
<event>
 5   0  0.5554745E-07  0.3498865E+04  0.7818609E-02  0.8114059E-01
       -2   -1    0    0    0  501  0.00000000000E+00  0.00000000000E+00  0.25034161181E+04  0.25034161181E+04  0.25500000920E-02 0. -1.
        2   -1    0    0  501    0  0.00000000000E+00  0.00000000000E+00 -0.12225354383E+04  0.12225354383E+04  0.25500000920E-02 0.  1.
    10030    2    1    2    0    0  0.00000000000E+00  0.00000000000E+00  0.12808806798E+04  0.37259515564E+04  0.34988654854E+04 0.  0.
        5    1    3    3  502    0 -0.55145612759E+03  0.56429010746E+03 -0.10222973779E+04  0.12913718306E+04  0.46999998093E+01 0.  1.
       -5    1    3    3    0  502  0.55145612759E+03 -0.56429010746E+03  0.23031780577E+04  0.24345797258E+04  0.46999998093E+01 0. -1.
</event>
<event>
 5   0  0.1866421E-07  0.3521320E+04  0.7818609E-02  0.8108756E-01
        1   -1    0    0  501    0  0.00000000000E+00  0.00000000000E+00  0.22053751164E+04  0.22053751164E+04  0.50400001928E-02 0. -1.
       -1   -1    0    0    0  501  0.00000000000E+00  0.00000000000E+00 -0.14056219862E+04  0.14056219863E+04  0.50400001928E-02 0.  1.
    10030    2    1    2    0    0  0.00000000000E+00  0.00000000000E+00  0.79975313015E+03  0.36109971026E+04  0.35213200658E+04 0.  0.
        1    1    3    3  502    0  0.81573496221E+03  0.84241618789E+03  0.17466527880E+04  0.21037786300E+04  0.50400001928E-02 0. -1.
       -1    1    3    3    0  502 -0.81573496221E+03 -0.84241618789E+03 -0.94689965786E+03  0.15072184726E+04  0.50400001928E-02 0.  1.
</event>
<event>
 5   0  0.5677193E-07  0.3506078E+04  0.7818609E-02  0.8112351E-01
        2   -1    0    0  501    0  0.00000000000E+00  0.00000000000E+00  0.10981008524E+04  0.10981008524E+04  0.25500000920E-02 0. -1.
       -2   -1    0    0    0  501  0.00000000000E+00  0.00000000000E+00 -0.27986010851E+04  0.27986010851E+04  0.25500000920E-02 0.  1.
    10030    2    1    2    0    0  0.00000000000E+00  0.00000000000E+00 -0.17005002327E+04  0.38967019375E+04  0.35060782861E+04 0.  0.
        3    1    3    3  502    0  0.45556404792E+03 -0.58003828879E+03  0.91726853850E+03  0.11770151232E+04  0.10100000352E+00 0. -1.
       -3    1    3    3    0  502 -0.45556404792E+03  0.58003828879E+03 -0.26177687712E+04  0.27196868143E+04  0.10100000352E+00 0.  1.
</event>
<event>
 5   0  0.1897049E-07  0.3501276E+04  0.7818609E-02  0.8113488E-01
       -1   -1    0    0    0  501  0.00000000000E+00  0.00000000000E+00  0.21075201145E+04  0.21075201145E+04  0.50400001928E-02 0. -1.
        1   -1    0    0  501    0  0.00000000000E+00  0.00000000000E+00 -0.14541895864E+04  0.14541895864E+04  0.50400001928E-02 0.  1.
    10030    2    1    2    0    0  0.00000000000E+00  0.00000000000E+00  0.65333052813E+03  0.35617097009E+04  0.35012762266E+04 0.  0.
        2    1    3    3  502    0  0.31020397546E+03  0.15941918791E+04  0.99144284243E+03  0.19027961435E+04  0.25500000920E-02 0. -1.
       -2    1    3    3    0  502 -0.31020397546E+03 -0.15941918791E+04 -0.33811231429E+03  0.16589135574E+04  0.25500000920E-02 0.  1.
</event>
<event>
 5   0  0.1933647E-07  0.3423012E+04  0.7818609E-02  0.8132281E-01
       -1   -1    0    0    0  501  0.00000000000E+00  0.00000000000E+00  0.11750284358E+04  0.11750284358E+04  0.50400001928E-02 0. -1.
        1   -1    0    0  501    0  0.00000000000E+00  0.00000000000E+00 -0.24929214531E+04  0.24929214531E+04  0.50400001928E-02 0.  1.
    10030    2    1    2    0    0  0.00000000000E+00  0.00000000000E+00 -0.13178930173E+04  0.36679498890E+04  0.34230124719E+04 0.  0.
        4    1    3    3  502    0  0.53619699343E+03  0.13130588823E+03  0.10770086108E+04  0.12102469222E+04  0.12699999809E+01 0. -1.
       -4    1    3    3    0  502 -0.53619699343E+03 -0.13130588823E+03 -0.23949016280E+04  0.24577029668E+04  0.12699999809E+01 0.  1.
</event>
<event>
 5   0  0.1823000E-07  0.3536764E+04  0.7818609E-02  0.8105132E-01
       -3   -1    0    0    0  501  0.00000000000E+00  0.00000000000E+00  0.25810086838E+04  0.25810086858E+04  0.10100000352E+00 0.  1.
        3   -1    0    0  501    0  0.00000000000E+00  0.00000000000E+00 -0.12116098804E+04  0.12116098846E+04  0.10100000352E+00 0. -1.
    10030    2    1    2    0    0  0.00000000000E+00  0.00000000000E+00  0.13693988035E+04  0.37926185704E+04  0.35367644165E+04 0.  0.
        5    1    3    3  502    0  0.39569120037E+03 -0.65096283907E+03  0.23960262431E+04  0.25142171727E+04  0.46999998093E+01 0.  1.
       -5    1    3    3    0  502 -0.39569120037E+03  0.65096283907E+03 -0.10266274396E+04  0.12784013977E+04  0.46999998093E+01 0. -1.
</event>
<event>
 5   0  0.5573334E-07  0.3483671E+04  0.7818609E-02  0.8117671E-01
       -2   -1    0    0    0  501  0.00000000000E+00  0.00000000000E+00  0.12457343650E+04  0.12457343650E+04  0.25500000920E-02 0. -1.
        2   -1    0    0  501    0  0.00000000000E+00  0.00000000000E+00 -0.24355035074E+04  0.24355035074E+04  0.25500000920E-02 0.  1.
    10030    2    1    2    0    0  0.00000000000E+00  0.00000000000E+00 -0.11897691424E+04  0.36812378724E+04  0.34836707165E+04 0.  0.
        4    1    3    3  502    0 -0.10415486106E+04 -0.36942777432E+03  0.82783191119E+03  0.13807996505E+04  0.12699999809E+01 0. -1.
       -4    1    3    3    0  502  0.10415486106E+04  0.36942777432E+03 -0.20176010536E+04  0.23004382219E+04  0.12699999809E+01 0.  1.
</event>
<event>
 5   0  0.1908190E-07  0.3502810E+04  0.7818609E-02  0.8113124E-01
       -1   -1    0    0    0  501  0.00000000000E+00  0.00000000000E+00  0.13388276101E+04  0.13388276102E+04  0.50400001928E-02 0.  1.
        1   -1    0    0  501    0  0.00000000000E+00  0.00000000000E+00 -0.22911235057E+04  0.22911235057E+04  0.50400001928E-02 0. -1.
    10030    2    1    2    0    0  0.00000000000E+00  0.00000000000E+00 -0.95229589559E+03  0.36299511159E+04  0.35028099622E+04 0.  0.
        5    1    3    3  502    0 -0.17271080575E+03 -0.12592550209E+04 -0.17248083515E+04  0.21425541229E+04  0.46999998093E+01 0. -1.
       -5    1    3    3    0  502  0.17271080575E+03  0.12592550209E+04  0.77251245593E+03  0.14873969930E+04  0.46999998093E+01 0.  1.
</event>
<event>
 5   0  0.5740827E-07  0.3373211E+04  0.7818609E-02  0.8144513E-01
        2   -1    0    0  501    0  0.00000000000E+00  0.00000000000E+00  0.19883574394E+04  0.19883574394E+04  0.25500000920E-02 0. -1.
       -2   -1    0    0    0  501  0.00000000000E+00  0.00000000000E+00 -0.14306468584E+04  0.14306468584E+04  0.25500000920E-02 0.  1.
    10030    2    1    2    0    0  0.00000000000E+00  0.00000000000E+00  0.55771058103E+03  0.34190042978E+04  0.33732105325E+04 0.  0.
        2    1    3    3  502    0  0.16784258123E+04  0.36623887176E+02  0.44286301582E+03  0.17362552138E+04  0.25500000920E-02 0.  1.
       -2    1    3    3    0  502 -0.16784258123E+04 -0.36623887176E+02  0.11484756522E+03  0.16827490840E+04  0.25500000920E-02 0. -1.
</event>
<event>
 5   0  0.1933647E-07  0.3372915E+04  0.7818609E-02  0.8144586E-01
        1   -1    0    0  501    0  0.00000000000E+00  0.00000000000E+00  0.32212650019E+04  0.32212650019E+04  0.50400001928E-02 0. -1.
       -1   -1    0    0    0  501  0.00000000000E+00  0.00000000000E+00 -0.88292618259E+03  0.88292618260E+03  0.50400001928E-02 0.  1.
    10030    2    1    2    0    0  0.00000000000E+00  0.00000000000E+00  0.23383388193E+04  0.41041911845E+04  0.33729151850E+04 0.  0.
        4    1    3    3  502    0  0.78293268833E+03 -0.14139961204E+04  0.58336880854E+03  0.17183391408E+04  0.12699999809E+01 0.  1.
       -4    1    3    3    0  502 -0.78293268833E+03  0.14139961204E+04  0.17549700108E+04  0.23858520437E+04  0.12699999809E+01 0. -1.
</event>
<event>
 5   0  0.1866421E-07  0.3535593E+04  0.7818609E-02  0.8105406E-01
        1   -1    0    0  501    0  0.00000000000E+00  0.00000000000E+00  0.13362270378E+04  0.13362270378E+04  0.50400001928E-02 0. -1.
       -1   -1    0    0    0  501  0.00000000000E+00  0.00000000000E+00 -0.23387519593E+04  0.23387519593E+04  0.50400001928E-02 0.  1.
    10030    2    1    2    0    0  0.00000000000E+00  0.00000000000E+00 -0.10025249215E+04  0.36749789971E+04  0.35355925120E+04 0.  0.
        1    1    3    3  502    0 -0.12894721561E+04  0.78645845589E+03  0.45356485567E+03  0.15770150356E+04  0.50400001928E-02 0. -1.
       -1    1    3    3    0  502  0.12894721561E+04 -0.78645845589E+03 -0.14560897772E+04  0.20979639615E+04  0.50400001928E-02 0.  1.
</event>
<event>
 5   0  0.5740827E-07  0.3501996E+04  0.7818609E-02  0.8113317E-01
        2   -1    0    0  501    0  0.00000000000E+00  0.00000000000E+00  0.18841634009E+04  0.18841634009E+04  0.25500000920E-02 0. -1.
       -2   -1    0    0    0  501  0.00000000000E+00  0.00000000000E+00 -0.16272446094E+04  0.16272446094E+04  0.25500000920E-02 0.  1.
    10030    2    1    2    0    0  0.00000000000E+00  0.00000000000E+00  0.25691879154E+03  0.35114080103E+04  0.35019964234E+04 0.  0.
        2    1    3    3  502    0  0.12058919917E+03 -0.56073959766E+02  0.18790922299E+04  0.18837923591E+04  0.25500000920E-02 0. -1.
       -2    1    3    3    0  502 -0.12058919917E+03  0.56073959766E+02 -0.16221734383E+04  0.16276156512E+04  0.25500000920E-02 0.  1.
</event>
<event>
 5   0  0.5573334E-07  0.3552135E+04  0.7818609E-02  0.8101545E-01
        2   -1    0    0  501    0  0.00000000000E+00  0.00000000000E+00  0.18523042141E+04  0.18523042141E+04  0.25500000920E-02 0. -1.
       -2   -1    0    0    0  501  0.00000000000E+00  0.00000000000E+00 -0.17029683847E+04  0.17029683847E+04  0.25500000920E-02 0.  1.
    10030    2    1    2    0    0  0.00000000000E+00  0.00000000000E+00  0.14933582940E+03  0.35552725987E+04  0.35521348597E+04 0.  0.
        4    1    3    3  502    0 -0.15415033559E+04  0.50937977659E+03  0.79552182082E+03  0.18079150791E+04  0.12699999809E+01 0.  1.
       -4    1    3    3    0  502  0.15415033559E+04 -0.50937977659E+03 -0.64618599143E+03  0.17473575196E+04  0.12699999809E+01 0. -1.
</event>
<event>
 5   0  0.1897049E-07  0.3512182E+04  0.7818609E-02  0.8110909E-01
       -1   -1    0    0    0  501  0.00000000000E+00  0.00000000000E+00  0.12954202663E+04  0.12954202663E+04  0.50400001928E-02 0. -1.
        1   -1    0    0  501    0  0.00000000000E+00  0.00000000000E+00 -0.23805826526E+04  0.23805826526E+04  0.50400001928E-02 0.  1.
    10030    2    1    2    0    0  0.00000000000E+00  0.00000000000E+00 -0.10851623863E+04  0.36760029189E+04  0.35121816660E+04 0.  0.
        2    1    3    3  502    0 -0.16019897291E+04 -0.17626196555E+03 -0.12725472093E+04  0.20534886834E+04  0.25500000920E-02 0.  1.
       -2    1    3    3    0  502  0.16019897291E+04  0.17626196555E+03  0.18738482301E+03  0.16225142355E+04  0.25500000920E-02 0. -1.
</event>
<event>
 5   0  0.1866421E-07  0.3536895E+04  0.7818609E-02  0.8105101E-01
        1   -1    0    0  501    0  0.00000000000E+00  0.00000000000E+00  0.17287297687E+04  0.17287297688E+04  0.50400001928E-02 0.  1.
       -1   -1    0    0    0  501  0.00000000000E+00  0.00000000000E+00 -0.18090781006E+04  0.18090781006E+04  0.50400001928E-02 0. -1.
    10030    2    1    2    0    0  0.00000000000E+00  0.00000000000E+00 -0.80348331815E+02  0.35378078693E+04  0.35368953428E+04 0.  0.
        1    1    3    3  502    0 -0.19445380458E+03  0.10518406039E+04  0.13684598226E+04  0.17369119794E+04  0.50400001928E-02 0. -1.
       -1    1    3    3    0  502  0.19445380458E+03 -0.10518406039E+04 -0.14488081544E+04  0.18008958899E+04  0.50400001928E-02 0.  1.
</event>
<event>
 5   0  0.1866421E-07  0.3509729E+04  0.7818609E-02  0.8111488E-01
       -1   -1    0    0    0  501  0.00000000000E+00  0.00000000000E+00  0.18806579022E+04  0.18806579022E+04  0.50400001928E-02 0.  1.
        1   -1    0    0  501    0  0.00000000000E+00  0.00000000000E+00 -0.16374849795E+04  0.16374849795E+04  0.50400001928E-02 0. -1.
    10030    2    1    2    0    0  0.00000000000E+00  0.00000000000E+00  0.24317292272E+03  0.35181428818E+04  0.35097288024E+04 0.  0.
        1    1    3    3  502    0  0.14156200194E+04 -0.92958946345E+03  0.58250666141E+03  0.17909300993E+04  0.50400001928E-02 0.  1.
       -1    1    3    3    0  502 -0.14156200194E+04  0.92958946345E+03 -0.33933373868E+03  0.17272127825E+04  0.50400001928E-02 0. -1.
</event>
<event>
 5   0  0.5573334E-07  0.3490550E+04  0.7818609E-02  0.8116033E-01
       -2   -1    0    0    0  501  0.00000000000E+00  0.00000000000E+00  0.20456121919E+04  0.20456121919E+04  0.25500000920E-02 0.  1.
        2   -1    0    0  501    0  0.00000000000E+00  0.00000000000E+00 -0.14890331989E+04  0.14890331989E+04  0.25500000920E-02 0. -1.
    10030    2    1    2    0    0  0.00000000000E+00  0.00000000000E+00  0.55657899305E+03  0.35346453908E+04  0.34905497938E+04 0.  0.
        4    1    3    3  502    0 -0.10916940900E+04 -0.13300299761E+04 -0.17300668731E+02  0.17207779198E+04  0.12699999809E+01 0. -1.
       -4    1    3    3    0  502  0.10916940900E+04  0.13300299761E+04  0.57387966179E+03  0.18138674710E+04  0.12699999809E+01 0.  1.
</event>
<event>
 5   0  0.1873457E-07  0.3497144E+04  0.7818609E-02  0.8114467E-01
       -1   -1    0    0    0  501  0.00000000000E+00  0.00000000000E+00  0.19140892445E+04  0.19140892445E+04  0.50400001928E-02 0. -1.
        1   -1    0    0  501    0  0.00000000000E+00  0.00000000000E+00 -0.15973675484E+04  0.15973675484E+04  0.50400001928E-02 0.  1.
    10030    2    1    2    0    0  0.00000000000E+00  0.00000000000E+00  0.31672169611E+03  0.35114567929E+04  0.34971440027E+04 0.  0.
        3    1    3    3  502    0 -0.56080835706E+02  0.55356031560E+03 -0.15061117202E+04  0.16055985199E+04  0.10100000352E+00 0.  1.
       -3    1    3    3    0  502  0.56080835706E+02 -0.55356031560E+03  0.18228334163E+04  0.19058582730E+04  0.10100000352E+00 0. -1.
</event>
<event>
 5   0  0.1866421E-07  0.3499696E+04  0.7818609E-02  0.8113862E-01
        1   -1    0    0  501    0  0.00000000000E+00  0.00000000000E+00  0.18819050660E+04  0.18819050660E+04  0.50400001928E-02 0. -1.
       -1   -1    0    0    0  501  0.00000000000E+00  0.00000000000E+00 -0.16270579524E+04  0.16270579524E+04  0.50400001928E-02 0.  1.
    10030    2    1    2    0    0  0.00000000000E+00  0.00000000000E+00  0.25484711359E+03  0.35089630184E+04  0.34996963316E+04 0.  0.
        1    1    3    3  502    0 -0.53401750302E+03 -0.16162056349E+04 -0.27945046743E+03  0.17249312774E+04  0.50400001928E-02 0.  1.
       -1    1    3    3    0  502  0.53401750302E+03  0.16162056349E+04  0.53429758101E+03  0.17840317410E+04  0.50400001928E-02 0. -1.
</event>
<event>
 5   0  0.1866421E-07  0.3519050E+04  0.7818609E-02  0.8109290E-01
       -1   -1    0    0    0  501  0.00000000000E+00  0.00000000000E+00  0.18359699236E+04  0.18359699236E+04  0.50400001928E-02 0. -1.
        1   -1    0    0  501    0  0.00000000000E+00  0.00000000000E+00 -0.16862631067E+04  0.16862631067E+04  0.50400001928E-02 0.  1.
    10030    2    1    2    0    0  0.00000000000E+00  0.00000000000E+00  0.14970681695E+03  0.35222330303E+04  0.35190500691E+04 0.  0.
        1    1    3    3  502    0 -0.15674642615E+04  0.54642123154E+03 -0.50911923338E+03  0.17362957027E+04  0.50400001928E-02 0.  1.
       -1    1    3    3    0  502  0.15674642615E+04 -0.54642123154E+03  0.65882605033E+03  0.17859373276E+04  0.50400001928E-02 0. -1.
</event>
<event>
 5   0  0.5573334E-07  0.3548990E+04  0.7818609E-02  0.8102277E-01
        2   -1    0    0  501    0  0.00000000000E+00  0.00000000000E+00  0.23324622351E+04  0.23324622351E+04  0.25500000920E-02 0.  1.
       -2   -1    0    0    0  501  0.00000000000E+00  0.00000000000E+00 -0.13500037158E+04  0.13500037158E+04  0.25500000920E-02 0. -1.
    10030    2    1    2    0    0  0.00000000000E+00  0.00000000000E+00  0.98245851929E+03  0.36824659509E+04  0.35489901010E+04 0.  0.
        4    1    3    3  502    0 -0.42632521914E+03 -0.97538080042E+03 -0.98192421943E+03  0.14482049868E+04  0.12699999809E+01 0. -1.
       -4    1    3    3    0  502  0.42632521914E+03  0.97538080042E+03  0.19643827387E+04  0.22342609640E+04  0.12699999809E+01 0.  1.
</event>
<event>
 5   0  0.5677193E-07  0.3533454E+04  0.7818609E-02  0.8105907E-01
       -2   -1    0    0    0  501  0.00000000000E+00  0.00000000000E+00  0.14838871387E+04  0.14838871387E+04  0.25500000920E-02 0.  1.
        2   -1    0    0  501    0  0.00000000000E+00  0.00000000000E+00 -0.21034786837E+04  0.21034786837E+04  0.25500000920E-02 0. -1.
    10030    2    1    2    0    0  0.00000000000E+00  0.00000000000E+00 -0.61959154497E+03  0.35873658223E+04  0.35334543807E+04 0.  0.
        3    1    3    3  502    0  0.14946495955E+04  0.94113799448E+03 -0.35049248892E+03  0.18007118407E+04  0.10100000352E+00 0. -1.
       -3    1    3    3    0  502 -0.14946495955E+04 -0.94113799448E+03 -0.26909905605E+03  0.17866539817E+04  0.10100000352E+00 0.  1.
</event>
<event>
 5   0  0.5554745E-07  0.3535043E+04  0.7818609E-02  0.8105535E-01
       -2   -1    0    0    0  501  0.00000000000E+00  0.00000000000E+00  0.16349375283E+04  0.16349375283E+04  0.25500000920E-02 0.  1.
        2   -1    0    0  501    0  0.00000000000E+00  0.00000000000E+00 -0.19108576017E+04  0.19108576017E+04  0.25500000920E-02 0. -1.
    10030    2    1    2    0    0  0.00000000000E+00  0.00000000000E+00 -0.27592007340E+03  0.35457951300E+04  0.35350433119E+04 0.  0.
        5    1    3    3  502    0 -0.11820753743E+04 -0.11774893453E+04  0.44719013382E+03  0.17273634402E+04  0.46999998093E+01 0. -1.
       -5    1    3    3    0  502  0.11820753743E+04  0.11774893453E+04 -0.72311020722E+03  0.18184316898E+04  0.46999998093E+01 0.  1.
</event>
<event>
 5   0  0.5677193E-07  0.3461493E+04  0.7818609E-02  0.8122977E-01
        2   -1    0    0  501    0  0.00000000000E+00  0.00000000000E+00  0.22378605895E+04  0.22378605895E+04  0.25500000920E-02 0.  1.
       -2   -1    0    0    0  501  0.00000000000E+00  0.00000000000E+00 -0.13385481421E+04  0.13385481421E+04  0.25500000920E-02 0. -1.
    10030    2    1    2    0    0  0.00000000000E+00  0.00000000000E+00  0.89931244740E+03  0.35764087316E+04  0.34614933970E+04 0.  0.
        3    1    3    3  502    0  0.21275667387E+03 -0.75167350421E+03 -0.11460265444E+04  0.13869590152E+04  0.10100000352E+00 0. -1.
       -3    1    3    3    0  502 -0.21275667387E+03  0.75167350421E+03  0.20453389918E+04  0.21894497164E+04  0.10100000352E+00 0.  1.
</event>
<event>
 5   0  0.1908190E-07  0.3509321E+04  0.7818609E-02  0.8111584E-01
       -1   -1    0    0    0  501  0.00000000000E+00  0.00000000000E+00  0.14348626342E+04  0.14348626342E+04  0.50400001928E-02 0.  1.
        1   -1    0    0  501    0  0.00000000000E+00  0.00000000000E+00 -0.21457342322E+04  0.21457342322E+04  0.50400001928E-02 0. -1.
    10030    2    1    2    0    0  0.00000000000E+00  0.00000000000E+00 -0.71087159795E+03  0.35805968664E+04  0.35093212294E+04 0.  0.
        5    1    3    3  502    0  0.10543265167E+04  0.11495899545E+04  0.46440775690E+03  0.16275312968E+04  0.46999998093E+01 0.  1.
       -5    1    3    3    0  502 -0.10543265167E+04 -0.11495899545E+04 -0.11752793549E+04  0.19530655696E+04  0.46999998093E+01 0. -1.
</event>
<event>
 5   0  0.5554745E-07  0.3458551E+04  0.7818609E-02  0.8123684E-01
        2   -1    0    0  501    0  0.00000000000E+00  0.00000000000E+00  0.15559776709E+04  0.15559776709E+04  0.25500000920E-02 0.  1.
       -2   -1    0    0    0  501  0.00000000000E+00  0.00000000000E+00 -0.19218741940E+04  0.19218741940E+04  0.25500000920E-02 0. -1.
    10030    2    1    2    0    0  0.00000000000E+00  0.00000000000E+00 -0.36589652313E+03  0.34778518649E+04  0.34585507555E+04 0.  0.
        5    1    3    3  502    0 -0.10493409416E+04  0.98631263536E+03 -0.11456005988E+04  0.18402042953E+04  0.46999998093E+01 0. -1.
       -5    1    3    3    0  502  0.10493409416E+04 -0.98631263536E+03  0.77970407570E+03  0.16376475696E+04  0.46999998093E+01 0.  1.
</event>
<event>
 5   0  0.5740827E-07  0.3506407E+04  0.7818609E-02  0.8112273E-01
       -2   -1    0    0    0  501  0.00000000000E+00  0.00000000000E+00  0.26465877813E+04  0.26465877813E+04  0.25500000920E-02 0.  1.
        2   -1    0    0  501    0  0.00000000000E+00  0.00000000000E+00 -0.11613910553E+04  0.11613910553E+04  0.25500000920E-02 0. -1.
    10030    2    1    2    0    0  0.00000000000E+00  0.00000000000E+00  0.14851967260E+04  0.38079788365E+04  0.35064074927E+04 0.  0.
        2    1    3    3  502    0  0.10581885775E+04  0.28338255462E+03  0.22291394306E+04  0.24837736086E+04  0.25500000920E-02 0.  1.
       -2    1    3    3    0  502 -0.10581885775E+04 -0.28338255462E+03 -0.74394270466E+03  0.13242052279E+04  0.25500000920E-02 0. -1.
</event>
<event>
 5   0  0.5554745E-07  0.3494538E+04  0.7818609E-02  0.8115086E-01
        2   -1    0    0  501    0  0.00000000000E+00  0.00000000000E+00  0.16229877116E+04  0.16229877116E+04  0.25500000920E-02 0. -1.
       -2   -1    0    0    0  501  0.00000000000E+00  0.00000000000E+00 -0.18810671627E+04  0.18810671627E+04  0.25500000920E-02 0.  1.
    10030    2    1    2    0    0  0.00000000000E+00  0.00000000000E+00 -0.25807945116E+03  0.35040548743E+04  0.34945379607E+04 0.  0.
        5    1    3    3  502    0  0.12242176034E+04  0.10581206154E+04 -0.79007617760E+03  0.18007138678E+04  0.46999998093E+01 0.  1.
       -5    1    3    3    0  502 -0.12242176034E+04 -0.10581206154E+04  0.53199672644E+03  0.17033410065E+04  0.46999998093E+01 0. -1.
</event>
<event>
 5   0  0.1866421E-07  0.3477095E+04  0.7818609E-02  0.8119240E-01
        1   -1    0    0  501    0  0.00000000000E+00  0.00000000000E+00  0.10002453820E+04  0.10002453820E+04  0.50400001928E-02 0.  1.
       -1   -1    0    0    0  501  0.00000000000E+00  0.00000000000E+00 -0.30218067129E+04  0.30218067129E+04  0.50400001928E-02 0. -1.
    10030    2    1    2    0    0  0.00000000000E+00  0.00000000000E+00 -0.20215613310E+04  0.40220520949E+04  0.34770954602E+04 0.  0.
        1    1    3    3  502    0 -0.12889458539E+04  0.82054602230E+03 -0.51414088362E+02  0.15288298131E+04  0.50400001928E-02 0.  1.
       -1    1    3    3    0  502  0.12889458539E+04 -0.82054602230E+03 -0.19701472426E+04  0.24932222818E+04  0.50400001928E-02 0. -1.
</event>
<event>
 5   0  0.5740827E-07  0.3473007E+04  0.7818609E-02  0.8120217E-01
        2   -1    0    0  501    0  0.00000000000E+00  0.00000000000E+00  0.22676302242E+04  0.22676302242E+04  0.25500000920E-02 0.  1.
       -2   -1    0    0    0  501  0.00000000000E+00  0.00000000000E+00 -0.13297778093E+04  0.13297778093E+04  0.25500000920E-02 0. -1.
    10030    2    1    2    0    0  0.00000000000E+00  0.00000000000E+00  0.93785241489E+03  0.35974080336E+04  0.34730069691E+04 0.  0.
        2    1    3    3  502    0 -0.16251788204E+04  0.17174890512E+03  0.10771034684E+04  0.19572572049E+04  0.25500000920E-02 0.  1.
       -2    1    3    3    0  502  0.16251788204E+04 -0.17174890512E+03 -0.13925105350E+03  0.16401508286E+04  0.25500000920E-02 0. -1.
</event>
<event>
 5   0  0.1908190E-07  0.3497704E+04  0.7818609E-02  0.8114334E-01
       -1   -1    0    0    0  501  0.00000000000E+00  0.00000000000E+00  0.14538033722E+04  0.14538033722E+04  0.50400001928E-02 0.  1.
        1   -1    0    0  501    0  0.00000000000E+00  0.00000000000E+00 -0.21037805158E+04  0.21037805158E+04  0.50400001928E-02 0. -1.
    10030    2    1    2    0    0  0.00000000000E+00  0.00000000000E+00 -0.64997714359E+03  0.35575838880E+04  0.34977039373E+04 0.  0.
        5    1    3    3  502    0  0.77812881242E+03  0.15287039254E+04  0.21491127472E+02  0.17154894633E+04  0.46999998093E+01 0.  1.
       -5    1    3    3    0  502 -0.77812881242E+03 -0.15287039254E+04 -0.67146827106E+03  0.18420944246E+04  0.46999998093E+01 0. -1.
</event>
<event>
 5   0  0.1873457E-07  0.3455656E+04  0.7818609E-02  0.8124380E-01
       -1   -1    0    0    0  501  0.00000000000E+00  0.00000000000E+00  0.14823505754E+04  0.14823505754E+04  0.50400001928E-02 0.  1.
        1   -1    0    0  501    0  0.00000000000E+00  0.00000000000E+00 -0.20139568502E+04  0.20139568502E+04  0.50400001928E-02 0. -1.
    10030    2    1    2    0    0  0.00000000000E+00  0.00000000000E+00 -0.53160627475E+03  0.34963074256E+04  0.34556562883E+04 0.  0.
        3    1    3    3  502    0  0.21459991827E+03 -0.62376725141E+03 -0.18815397581E+04  0.19938231066E+04  0.10100000352E+00 0. -1.
       -3    1    3    3    0  502 -0.21459991827E+03  0.62376725141E+03  0.13499334834E+04  0.15024843189E+04  0.10100000352E+00 0.  1.
</event>
<event>
 5   0  0.5573334E-07  0.3517623E+04  0.7818609E-02  0.8109626E-01
       -2   -1    0    0    0  501  0.00000000000E+00  0.00000000000E+00  0.15547411245E+04  0.15547411245E+04  0.25500000920E-02 0. -1.
        2   -1    0    0  501    0  0.00000000000E+00  0.00000000000E+00 -0.19896679707E+04  0.19896679708E+04  0.25500000920E-02 0.  1.
    10030    2    1    2    0    0  0.00000000000E+00  0.00000000000E+00 -0.43492684625E+03  0.35444090953E+04  0.35176234126E+04 0.  0.
        4    1    3    3  502    0 -0.47164843816E+03 -0.15030919864E+04  0.57059128584E+03  0.16755040427E+04  0.12699999809E+01 0. -1.
       -4    1    3    3    0  502  0.47164843816E+03  0.15030919864E+04 -0.10055181321E+04  0.18689050526E+04  0.12699999809E+01 0.  1.
</event>
<event>
 5   0  0.1908190E-07  0.3490461E+04  0.7818609E-02  0.8116054E-01
       -1   -1    0    0    0  501  0.00000000000E+00  0.00000000000E+00  0.12577073873E+04  0.12577073873E+04  0.50400001928E-02 0. -1.
        1   -1    0    0  501    0  0.00000000000E+00  0.00000000000E+00 -0.24217311565E+04  0.24217311565E+04  0.50400001928E-02 0.  1.
    10030    2    1    2    0    0  0.00000000000E+00  0.00000000000E+00 -0.11640237692E+04  0.36794385438E+04  0.34904608094E+04 0.  0.
        5    1    3    3  502    0 -0.72716859600E+03 -0.85565769130E+03  0.82631555948E+03  0.13941821063E+04  0.46999998093E+01 0. -1.
       -5    1    3    3    0  502  0.72716859600E+03  0.85565769130E+03 -0.19903393287E+04  0.22852564375E+04  0.46999998093E+01 0.  1.
</event>
<event>
 5   0  0.1866421E-07  0.3386145E+04  0.7818609E-02  0.8141315E-01
       -1   -1    0    0    0  501  0.00000000000E+00  0.00000000000E+00  0.13150339340E+04  0.13150339340E+04  0.50400001928E-02 0. -1.
        1   -1    0    0  501    0  0.00000000000E+00  0.00000000000E+00 -0.21797877467E+04  0.21797877467E+04  0.50400001928E-02 0.  1.
    10030    2    1    2    0    0  0.00000000000E+00  0.00000000000E+00 -0.86475381268E+03  0.34948216808E+04  0.33861452160E+04 0.  0.
        1    1    3    3  502    0  0.14177596490E+03  0.16276315147E+04 -0.89071293917E+03  0.18608208704E+04  0.50400001928E-02 0. -1.
       -1    1    3    3    0  502 -0.14177596490E+03 -0.16276315147E+04  0.25959126492E+02  0.16340008103E+04  0.50400001928E-02 0.  1.
</event>
<event>
 5   0  0.1908190E-07  0.3446634E+04  0.7818609E-02  0.8126555E-01
       -1   -1    0    0    0  501  0.00000000000E+00  0.00000000000E+00  0.12211100168E+04  0.12211100168E+04  0.50400001928E-02 0.  1.
        1   -1    0    0  501    0  0.00000000000E+00  0.00000000000E+00 -0.24320668392E+04  0.24320668392E+04  0.50400001928E-02 0. -1.
    10030    2    1    2    0    0  0.00000000000E+00  0.00000000000E+00 -0.12109568224E+04  0.36531768560E+04  0.34466338238E+04 0.  0.
        5    1    3    3  502    0  0.13056277945E+04 -0.17822111672E+03 -0.17826036243E+04  0.22167824602E+04  0.46999998093E+01 0. -1.
       -5    1    3    3    0  502 -0.13056277945E+04  0.17822111672E+03  0.57164680194E+03  0.14363943958E+04  0.46999998093E+01 0.  1.
</event>
<event>
 5   0  0.5554745E-07  0.3535495E+04  0.7818609E-02  0.8105429E-01
        2   -1    0    0  501    0  0.00000000000E+00  0.00000000000E+00  0.23857162676E+04  0.23857162676E+04  0.25500000920E-02 0.  1.
       -2   -1    0    0    0  501  0.00000000000E+00  0.00000000000E+00 -0.13098504975E+04  0.13098504975E+04  0.25500000920E-02 0. -1.
    10030    2    1    2    0    0  0.00000000000E+00  0.00000000000E+00  0.10758657701E+04  0.36955667651E+04  0.35354952355E+04 0.  0.
        5    1    3    3  502    0 -0.10446128904E+04  0.14247762349E+04  0.60156724544E+03  0.18663088306E+04  0.46999998093E+01 0. -1.
       -5    1    3    3    0  502  0.10446128904E+04 -0.14247762349E+04  0.47429852465E+03  0.18292579345E+04  0.46999998093E+01 0.  1.
</event>
<event>
 5   0  0.1866421E-07  0.3494375E+04  0.7818609E-02  0.8115124E-01
        1   -1    0    0  501    0  0.00000000000E+00  0.00000000000E+00  0.18911332214E+04  0.18911332214E+04  0.50400001928E-02 0.  1.
       -1   -1    0    0    0  501  0.00000000000E+00  0.00000000000E+00 -0.16141983196E+04  0.16141983196E+04  0.50400001928E-02 0. -1.
    10030    2    1    2    0    0  0.00000000000E+00  0.00000000000E+00  0.27693490178E+03  0.35053315410E+04  0.34943749474E+04 0.  0.
        1    1    3    3  502    0  0.92240993900E+03  0.78450413118E+03 -0.11249964352E+04  0.16528471819E+04  0.50400001928E-02 0. -1.
       -1    1    3    3    0  502 -0.92240993900E+03 -0.78450413118E+03  0.14019313370E+04  0.18524843592E+04  0.50400001928E-02 0.  1.
</event>
<event>
 5   0  0.1823000E-07  0.3502643E+04  0.7818609E-02  0.8113164E-01
       -3   -1    0    0    0  501  0.00000000000E+00  0.00000000000E+00  0.25348184943E+04  0.25348184963E+04  0.10100000352E+00 0.  1.
        3   -1    0    0  501    0  0.00000000000E+00  0.00000000000E+00 -0.12099984371E+04  0.12099984413E+04  0.10100000352E+00 0. -1.
    10030    2    1    2    0    0  0.00000000000E+00  0.00000000000E+00  0.13248200572E+04  0.37448169377E+04  0.35026426756E+04 0.  0.
        1    1    3    3  502    0 -0.12563442212E+04 -0.12147343761E+03  0.19604230666E+04  0.23316121458E+04  0.50400001928E-02 0.  1.
       -1    1    3    3    0  502  0.12563442212E+04  0.12147343761E+03 -0.63560300945E+03  0.14132047919E+04  0.50400001928E-02 0. -1.
</event>
<event>
 5   0  0.5554745E-07  0.3517587E+04  0.7818609E-02  0.8109635E-01
       -2   -1    0    0    0  501  0.00000000000E+00  0.00000000000E+00  0.15569677714E+04  0.15569677714E+04  0.25500000920E-02 0.  1.
        2   -1    0    0  501    0  0.00000000000E+00  0.00000000000E+00 -0.19867812810E+04  0.19867812810E+04  0.25500000920E-02 0. -1.
    10030    2    1    2    0    0  0.00000000000E+00  0.00000000000E+00 -0.42981350960E+03  0.35437490524E+04  0.35175869134E+04 0.  0.
        5    1    3    3  502    0 -0.10177646354E+04  0.90028535618E+03  0.91007837048E+03  0.16354275606E+04  0.46999998093E+01 0.  1.
       -5    1    3    3    0  502  0.10177646354E+04 -0.90028535618E+03 -0.13398918801E+04  0.19083214918E+04  0.46999998093E+01 0. -1.
</event>
<event>
 5   0  0.1908190E-07  0.3529164E+04  0.7818609E-02  0.8106913E-01
       -1   -1    0    0    0  501  0.00000000000E+00  0.00000000000E+00  0.17895949713E+04  0.17895949713E+04  0.50400001928E-02 0.  1.
        1   -1    0    0  501    0  0.00000000000E+00  0.00000000000E+00 -0.17399185736E+04  0.17399185736E+04  0.50400001928E-02 0. -1.
    10030    2    1    2    0    0  0.00000000000E+00  0.00000000000E+00  0.49676397670E+02  0.35295135450E+04  0.35291639406E+04 0.  0.
        5    1    3    3  502    0 -0.59728192801E+03  0.88669445253E+02 -0.16333729333E+04  0.17414181581E+04  0.46999998093E+01 0. -1.
       -5    1    3    3    0  502  0.59728192801E+03 -0.88669445253E+02  0.16830493310E+04  0.17880953869E+04  0.46999998093E+01 0.  1.
</event>
<event>
 5   0  0.5573334E-07  0.3485817E+04  0.7818609E-02  0.8117159E-01
        2   -1    0    0  501    0  0.00000000000E+00  0.00000000000E+00  0.27009735959E+04  0.27009735959E+04  0.25500000920E-02 0. -1.
       -2   -1    0    0    0  501  0.00000000000E+00  0.00000000000E+00 -0.11246794719E+04  0.11246794719E+04  0.25500000920E-02 0.  1.
    10030    2    1    2    0    0  0.00000000000E+00  0.00000000000E+00  0.15762941240E+04  0.38256530679E+04  0.34858167236E+04 0.  0.
        4    1    3    3  502    0  0.13211681418E+04  0.24627659682E+03 -0.42981624109E+03  0.14109858380E+04  0.12699999809E+01 0.  1.
       -4    1    3    3    0  502 -0.13211681418E+04 -0.24627659682E+03  0.20061103651E+04  0.24146672299E+04  0.12699999809E+01 0. -1.
</event>
<event>
 5   0  0.1933647E-07  0.3502411E+04  0.7818609E-02  0.8113219E-01
        1   -1    0    0  501    0  0.00000000000E+00  0.00000000000E+00  0.15335313804E+04  0.15335313804E+04  0.50400001928E-02 0. -1.
       -1   -1    0    0    0  501  0.00000000000E+00  0.00000000000E+00 -0.19997771427E+04  0.19997771427E+04  0.50400001928E-02 0.  1.
    10030    2    1    2    0    0  0.00000000000E+00  0.00000000000E+00 -0.46624576224E+03  0.35333085231E+04  0.35024111707E+04 0.  0.
        4    1    3    3  502    0  0.15485072614E+04 -0.79515753924E+03 -0.40205304934E+02  0.17411973840E+04  0.12699999809E+01 0. -1.
       -4    1    3    3    0  502 -0.15485072614E+04  0.79515753924E+03 -0.42604045730E+03  0.17921111391E+04  0.12699999809E+01 0.  1.
</event>
<event>
 5   0  0.1897049E-07  0.3511023E+04  0.7818609E-02  0.8111182E-01
       -1   -1    0    0    0  501  0.00000000000E+00  0.00000000000E+00  0.14932738465E+04  0.14932738465E+04  0.50400001928E-02 0. -1.
        1   -1    0    0  501    0  0.00000000000E+00  0.00000000000E+00 -0.20638019619E+04  0.20638019619E+04  0.50400001928E-02 0.  1.
    10030    2    1    2    0    0  0.00000000000E+00  0.00000000000E+00 -0.57052811544E+03  0.35570758084E+04  0.35110234941E+04 0.  0.
        2    1    3    3  502    0 -0.23501013680E+03  0.97523750952E+03  0.11742931554E+04  0.15444359421E+04  0.25500000920E-02 0. -1.
       -2    1    3    3    0  502  0.23501013680E+03 -0.97523750952E+03 -0.17448212708E+04  0.20126398663E+04  0.25500000920E-02 0.  1.
</event>
<event>
 5   0  0.1873457E-07  0.3455216E+04  0.7818609E-02  0.8124486E-01
        1   -1    0    0  501    0  0.00000000000E+00  0.00000000000E+00  0.22453470606E+04  0.22453470606E+04  0.50400001928E-02 0. -1.
       -1   -1    0    0    0  501  0.00000000000E+00  0.00000000000E+00 -0.13292506685E+04  0.13292506685E+04  0.50400001928E-02 0.  1.
    10030    2    1    2    0    0  0.00000000000E+00  0.00000000000E+00  0.91609639211E+03  0.35745977292E+04  0.34552158147E+04 0.  0.
        3    1    3    3  502    0  0.67215802220E+03  0.15915784161E+02 -0.11883448657E+04  0.13653619480E+04  0.10100000352E+00 0.  1.
       -3    1    3    3    0  502 -0.67215802220E+03 -0.15915784161E+02  0.21044412578E+04  0.22092357812E+04  0.10100000352E+00 0. -1.
</event>
<event>
 5   0  0.5677193E-07  0.3499332E+04  0.7818609E-02  0.8113948E-01
        2   -1    0    0  501    0  0.00000000000E+00  0.00000000000E+00  0.21330429297E+04  0.21330429297E+04  0.25500000920E-02 0.  1.
       -2   -1    0    0    0  501  0.00000000000E+00  0.00000000000E+00 -0.14351945663E+04  0.14351945663E+04  0.25500000920E-02 0. -1.
    10030    2    1    2    0    0  0.00000000000E+00  0.00000000000E+00  0.69784836342E+03  0.35682374960E+04  0.34993322919E+04 0.  0.
        3    1    3    3  502    0 -0.15307908779E+04 -0.55364103850E+03 -0.30518392340E+03  0.16561933307E+04  0.10100000352E+00 0. -1.
       -3    1    3    3    0  502  0.15307908779E+04  0.55364103850E+03  0.10030322868E+04  0.19120441653E+04  0.10100000352E+00 0.  1.
</event>
<event>
 5   0  0.1897049E-07  0.3524728E+04  0.7818609E-02  0.8107955E-01
        1   -1    0    0  501    0  0.00000000000E+00  0.00000000000E+00  0.25587738829E+04  0.25587738829E+04  0.50400001928E-02 0. -1.
       -1   -1    0    0    0  501  0.00000000000E+00  0.00000000000E+00 -0.12138341508E+04  0.12138341508E+04  0.50400001928E-02 0.  1.
    10030    2    1    2    0    0  0.00000000000E+00  0.00000000000E+00  0.13449397321E+04  0.37726080337E+04  0.35247281446E+04 0.  0.
        2    1    3    3  502    0  0.96913435671E+03 -0.14234003144E+04  0.27108012550E+03  0.17432080458E+04  0.25500000920E-02 0. -1.
       -2    1    3    3    0  502 -0.96913435671E+03  0.14234003144E+04  0.10738596066E+04  0.20293999879E+04  0.25500000920E-02 0.  1.
</event>
<event>
 5   0  0.1897049E-07  0.3441475E+04  0.7818609E-02  0.8127801E-01
       -1   -1    0    0    0  501  0.00000000000E+00  0.00000000000E+00  0.24814524366E+04  0.24814524366E+04  0.50400001928E-02 0.  1.
        1   -1    0    0  501    0  0.00000000000E+00  0.00000000000E+00 -0.11932275514E+04  0.11932275514E+04  0.50400001928E-02 0. -1.
    10030    2    1    2    0    0  0.00000000000E+00  0.00000000000E+00  0.12882248852E+04  0.36746799880E+04  0.34414749250E+04 0.  0.
        2    1    3    3  502    0  0.10880768633E+04  0.29941534672E+03 -0.74290181802E+03  0.13510973028E+04  0.25500000920E-02 0. -1.
       -2    1    3    3    0  502 -0.10880768633E+04 -0.29941534672E+03  0.20311267032E+04  0.23235826852E+04  0.25500000920E-02 0.  1.
</event>
<event>
 5   0  0.5554745E-07  0.3487440E+04  0.7818609E-02  0.8116773E-01
        2   -1    0    0  501    0  0.00000000000E+00  0.00000000000E+00  0.11975458100E+04  0.11975458100E+04  0.25500000920E-02 0. -1.
       -2   -1    0    0    0  501  0.00000000000E+00  0.00000000000E+00 -0.25389920217E+04  0.25389920217E+04  0.25500000920E-02 0.  1.
    10030    2    1    2    0    0  0.00000000000E+00  0.00000000000E+00 -0.13414462117E+04  0.37365378318E+04  0.34874398962E+04 0.  0.
        5    1    3    3  502    0  0.16326131666E+04  0.51748948333E+03 -0.31973290473E+03  0.17422606974E+04  0.46999998093E+01 0.  1.
       -5    1    3    3    0  502 -0.16326131666E+04 -0.51748948333E+03 -0.10217133069E+04  0.19942771344E+04  0.46999998093E+01 0. -1.
</event>
<event>
 5   0  0.5573334E-07  0.3491188E+04  0.7818609E-02  0.8115882E-01
        2   -1    0    0  501    0  0.00000000000E+00  0.00000000000E+00  0.28787464528E+04  0.28787464528E+04  0.25500000920E-02 0.  1.
       -2   -1    0    0    0  501  0.00000000000E+00  0.00000000000E+00 -0.10584807026E+04  0.10584807026E+04  0.25500000920E-02 0. -1.
    10030    2    1    2    0    0  0.00000000000E+00  0.00000000000E+00  0.18202657502E+04  0.39372271553E+04  0.34911875159E+04 0.  0.
        4    1    3    3  502    0 -0.34640362095E+03 -0.13228310829E+04 -0.31348501762E+03  0.14029084117E+04  0.12699999809E+01 0. -1.
       -4    1    3    3    0  502  0.34640362095E+03  0.13228310829E+04  0.21337507678E+04  0.25343187437E+04  0.12699999809E+01 0.  1.
</event>
<event>
 5   0  0.1897049E-07  0.3483203E+04  0.7818609E-02  0.8117782E-01
       -1   -1    0    0    0  501  0.00000000000E+00  0.00000000000E+00  0.15972866956E+04  0.15972866956E+04  0.50400001928E-02 0. -1.
        1   -1    0    0  501    0  0.00000000000E+00  0.00000000000E+00 -0.18989555245E+04  0.18989555245E+04  0.50400001928E-02 0.  1.
    10030    2    1    2    0    0  0.00000000000E+00  0.00000000000E+00 -0.30166882889E+03  0.34962422202E+04  0.34832033503E+04 0.  0.
        2    1    3    3  502    0 -0.31566561844E+03  0.16818212685E+04 -0.47609811555E+03  0.17761860763E+04  0.25500000920E-02 0. -1.
       -2    1    3    3    0  502  0.31566561844E+03 -0.16818212685E+04  0.17442928666E+03  0.17200561439E+04  0.25500000920E-02 0.  1.
</event>
<event>
 5   0  0.1873457E-07  0.3501248E+04  0.7818609E-02  0.8113494E-01
       -1   -1    0    0    0  501  0.00000000000E+00  0.00000000000E+00  0.20594757501E+04  0.20594757501E+04  0.50400001928E-02 0. -1.
        1   -1    0    0  501    0  0.00000000000E+00  0.00000000000E+00 -0.14880899777E+04  0.14880899777E+04  0.50400001928E-02 0.  1.
    10030    2    1    2    0    0  0.00000000000E+00  0.00000000000E+00  0.57138577245E+03  0.35475657278E+04  0.35012484762E+04 0.  0.
        3    1    3    3  502    0  0.39021116748E+02  0.23182478569E+03 -0.14720239284E+04  0.14906776428E+04  0.10100000352E+00 0.  1.
       -3    1    3    3    0  502 -0.39021116748E+02 -0.23182478569E+03  0.20434097008E+04  0.20568880850E+04  0.10100000352E+00 0. -1.
</event>
<event>
 5   0  0.1873457E-07  0.3505882E+04  0.7818609E-02  0.8112397E-01
        1   -1    0    0  501    0  0.00000000000E+00  0.00000000000E+00  0.18773789966E+04  0.18773789966E+04  0.50400001928E-02 0.  1.
       -1   -1    0    0    0  501  0.00000000000E+00  0.00000000000E+00 -0.16367508550E+04  0.16367508550E+04  0.50400001928E-02 0. -1.
    10030    2    1    2    0    0  0.00000000000E+00  0.00000000000E+00  0.24062814165E+03  0.35141298516E+04  0.35058817310E+04 0.  0.
        3    1    3    3  502    0  0.10959192892E+04 -0.11251014244E+04 -0.65991903907E+03  0.17036388854E+04  0.10100000352E+00 0. -1.
       -3    1    3    3    0  502 -0.10959192892E+04  0.11251014244E+04  0.90054718072E+03  0.18104909662E+04  0.10100000352E+00 0.  1.
</event>
<event>
 5   0  0.5740827E-07  0.3502422E+04  0.7818609E-02  0.8113216E-01
       -2   -1    0    0    0  501  0.00000000000E+00  0.00000000000E+00  0.12396069974E+04  0.12396069974E+04  0.25500000920E-02 0.  1.
        2   -1    0    0  501    0  0.00000000000E+00  0.00000000000E+00 -0.24739615560E+04  0.24739615560E+04  0.25500000920E-02 0. -1.
    10030    2    1    2    0    0  0.00000000000E+00  0.00000000000E+00 -0.12343545585E+04  0.37135685534E+04  0.35024220512E+04 0.  0.
        2    1    3    3  502    0  0.12757706856E+04 -0.51079090427E+03  0.53372961636E+03  0.14742338666E+04  0.25500000920E-02 0.  1.
       -2    1    3    3    0  502 -0.12757706856E+04  0.51079090427E+03 -0.17680841749E+04  0.22393346868E+04  0.25500000920E-02 0. -1.
</event>
<event>
 5   0  0.1866421E-07  0.3624317E+04  0.7818609E-02  0.8084944E-01
       -1   -1    0    0    0  501  0.00000000000E+00  0.00000000000E+00  0.13852981824E+04  0.13852981824E+04  0.50400001928E-02 0.  1.
        1   -1    0    0  501    0  0.00000000000E+00  0.00000000000E+00 -0.23705493121E+04  0.23705493121E+04  0.50400001928E-02 0. -1.
    10030    2    1    2    0    0  0.00000000000E+00  0.00000000000E+00 -0.98525112966E+03  0.37558474945E+04  0.36243165719E+04 0.  0.
        1    1    3    3  502    0 -0.91947496491E+03 -0.34909412382E+03  0.10846548814E+04  0.14641643112E+04  0.50400001928E-02 0.  1.
       -1    1    3    3    0  502  0.91947496491E+03  0.34909412382E+03 -0.20699060110E+04  0.22916831834E+04  0.50400001928E-02 0. -1.
</event>
<event>
 5   0  0.5554745E-07  0.3513529E+04  0.7818609E-02  0.8110591E-01
        2   -1    0    0  501    0  0.00000000000E+00  0.00000000000E+00  0.11091718879E+04  0.11091718879E+04  0.25500000920E-02 0.  1.
       -2   -1    0    0    0  501  0.00000000000E+00  0.00000000000E+00 -0.27824549506E+04  0.27824549506E+04  0.25500000920E-02 0. -1.
    10030    2    1    2    0    0  0.00000000000E+00  0.00000000000E+00 -0.16732830627E+04  0.38916268385E+04  0.35135286028E+04 0.  0.
        5    1    3    3  502    0 -0.70962283179E+03 -0.14606863808E+04 -0.15788486427E+04  0.22649402626E+04  0.46999998093E+01 0. -1.
       -5    1    3    3    0  502  0.70962283179E+03  0.14606863808E+04 -0.94434419945E+02  0.16266865759E+04  0.46999998093E+01 0.  1.
</event>
<event>
 5   0  0.1873457E-07  0.3510143E+04  0.7818609E-02  0.8111390E-01
        1   -1    0    0  501    0  0.00000000000E+00  0.00000000000E+00  0.19534617784E+04  0.19534617784E+04  0.50400001928E-02 0. -1.
       -1   -1    0    0    0  501  0.00000000000E+00  0.00000000000E+00 -0.15768298299E+04  0.15768298299E+04  0.50400001928E-02 0.  1.
    10030    2    1    2    0    0  0.00000000000E+00  0.00000000000E+00  0.37663194849E+03  0.35302916083E+04  0.35101434750E+04 0.  0.
        3    1    3    3  502    0 -0.91434593081E+03 -0.33437839088E+03  0.16569854255E+04  0.19218319645E+04  0.10100000352E+00 0. -1.
       -3    1    3    3    0  502  0.91434593081E+03  0.33437839088E+03 -0.12803534770E+04  0.16084596438E+04  0.10100000352E+00 0.  1.
</event>
<event>
 5   0  0.5740827E-07  0.3505620E+04  0.7818609E-02  0.8112459E-01
        2   -1    0    0  501    0  0.00000000000E+00  0.00000000000E+00  0.20438553136E+04  0.20438553136E+04  0.25500000920E-02 0. -1.
       -2   -1    0    0    0  501  0.00000000000E+00  0.00000000000E+00 -0.15032095095E+04  0.15032095095E+04  0.25500000920E-02 0.  1.
    10030    2    1    2    0    0  0.00000000000E+00  0.00000000000E+00  0.54064580408E+03  0.35470648230E+04  0.35056199129E+04 0.  0.
        2    1    3    3  502    0  0.60113689560E+03  0.12162554559E+03  0.19317416015E+04  0.20267668726E+04  0.25500000920E-02 0. -1.
       -2    1    3    3    0  502 -0.60113689560E+03 -0.12162554559E+03 -0.13910957974E+04  0.15202979505E+04  0.25500000920E-02 0.  1.
</event>
<event>
 5   0  0.5554745E-07  0.3485165E+04  0.7818609E-02  0.8117315E-01
       -2   -1    0    0    0  501  0.00000000000E+00  0.00000000000E+00  0.18134608041E+04  0.18134608041E+04  0.25500000920E-02 0. -1.
        2   -1    0    0  501    0  0.00000000000E+00  0.00000000000E+00 -0.16744739731E+04  0.16744739731E+04  0.25500000920E-02 0.  1.
    10030    2    1    2    0    0  0.00000000000E+00  0.00000000000E+00  0.13898683103E+03  0.34879347772E+04  0.34851645113E+04 0.  0.
        5    1    3    3  502    0  0.14130800419E+04  0.99329610465E+03  0.30019448127E+03  0.17531603386E+04  0.46999998093E+01 0. -1.
       -5    1    3    3    0  502 -0.14130800419E+04 -0.99329610465E+03 -0.16120765024E+03  0.17347744386E+04  0.46999998093E+01 0.  1.
</event>
<event>
 5   0  0.1866421E-07  0.3796736E+04  0.7818609E-02  0.8046856E-01
        1   -1    0    0  501    0  0.00000000000E+00  0.00000000000E+00  0.14972448883E+04  0.14972448883E+04  0.50400001928E-02 0.  1.
       -1   -1    0    0    0  501  0.00000000000E+00  0.00000000000E+00 -0.24069551105E+04  0.24069551105E+04  0.50400001928E-02 0. -1.
    10030    2    1    2    0    0  0.00000000000E+00  0.00000000000E+00 -0.90971022224E+03  0.39041999988E+04  0.37967360907E+04 0.  0.
        1    1    3    3  502    0  0.15929023707E+04 -0.90505754447E+03 -0.96625856552E+03  0.20712611465E+04  0.50400001928E-02 0. -1.
       -1    1    3    3    0  502 -0.15929023707E+04  0.90505754447E+03  0.56548343277E+02  0.18329388524E+04  0.50400001928E-02 0.  1.
</event>
<event>
 5   0  0.1933647E-07  0.3447919E+04  0.7818609E-02  0.8126245E-01
        1   -1    0    0  501    0  0.00000000000E+00  0.00000000000E+00  0.10266969820E+04  0.10266969820E+04  0.50400001928E-02 0.  1.
       -1   -1    0    0    0  501  0.00000000000E+00  0.00000000000E+00 -0.28947545888E+04  0.28947545888E+04  0.50400001928E-02 0. -1.
    10030    2    1    2    0    0  0.00000000000E+00  0.00000000000E+00 -0.18680576068E+04  0.39214515708E+04  0.34479186765E+04 0.  0.
        4    1    3    3  502    0  0.63080943991E+03  0.16043547514E+04 -0.91966636303E+03  0.19538839653E+04  0.12699999809E+01 0.  1.
       -4    1    3    3    0  502 -0.63080943991E+03 -0.16043547514E+04 -0.94839124380E+03  0.19675676055E+04  0.12699999809E+01 0. -1.
</event>
<event>
 5   0  0.5677193E-07  0.3501160E+04  0.7818609E-02  0.8113515E-01
        2   -1    0    0  501    0  0.00000000000E+00  0.00000000000E+00  0.25256798185E+04  0.25256798185E+04  0.25500000920E-02 0. -1.
       -2   -1    0    0    0  501  0.00000000000E+00  0.00000000000E+00 -0.12133489783E+04  0.12133489783E+04  0.25500000920E-02 0.  1.
    10030    2    1    2    0    0  0.00000000000E+00  0.00000000000E+00  0.13123308402E+04  0.37390287969E+04  0.35011603947E+04 0.  0.
        3    1    3    3  502    0 -0.16480251820E+04 -0.40445574387E+03  0.11154535317E+04  0.20307161399E+04  0.10100000352E+00 0. -1.
       -3    1    3    3    0  502  0.16480251820E+04  0.40445574387E+03  0.19687730851E+03  0.17083126570E+04  0.10100000352E+00 0.  1.
</event>
<event>
 5   0  0.1908190E-07  0.3479849E+04  0.7818609E-02  0.8118582E-01
       -1   -1    0    0    0  501  0.00000000000E+00  0.00000000000E+00  0.91845631469E+03  0.91845631471E+03  0.50400001928E-02 0. -1.
        1   -1    0    0  501    0  0.00000000000E+00  0.00000000000E+00 -0.32961146615E+04  0.32961146615E+04  0.50400001928E-02 0.  1.
    10030    2    1    2    0    0  0.00000000000E+00  0.00000000000E+00 -0.23776583468E+04  0.42145709762E+04  0.34798490340E+04 0.  0.
        5    1    3    3  502    0 -0.16219692660E+04 -0.22201255830E+03 -0.47514068410E+03  0.17046567501E+04  0.46999998093E+01 0.  1.
       -5    1    3    3    0  502  0.16219692660E+04  0.22201255830E+03 -0.19025176627E+04  0.25099142262E+04  0.46999998093E+01 0. -1.
</event>
<event>
 5   0  0.5707187E-07  0.3507896E+04  0.7818609E-02  0.8111921E-01
        2   -1    0    0  501    0  0.00000000000E+00  0.00000000000E+00  0.22255001049E+04  0.22255001049E+04  0.25500000920E-02 0.  1.
       -2   -1    0    0    0  501  0.00000000000E+00  0.00000000000E+00 -0.13823110860E+04  0.13823110860E+04  0.25500000920E-02 0. -1.
    10030    2    1    2    0    0  0.00000000000E+00  0.00000000000E+00  0.84318901892E+03  0.36078111910E+04  0.35078959318E+04 0.  0.
        1    1    3    3  502    0  0.22101755647E+03  0.95013107883E+03  0.19207599150E+04  0.21542786446E+04  0.50400001928E-02 0.  1.
       -1    1    3    3    0  502 -0.22101755647E+03 -0.95013107883E+03 -0.10775708961E+04  0.14535325464E+04  0.50400001928E-02 0. -1.
</event>
<event>
 5   0  0.1866421E-07  0.3502432E+04  0.7818609E-02  0.8113214E-01
        1   -1    0    0  501    0  0.00000000000E+00  0.00000000000E+00  0.16328157314E+04  0.16328157314E+04  0.50400001928E-02 0.  1.
       -1   -1    0    0    0  501  0.00000000000E+00  0.00000000000E+00 -0.18782013425E+04  0.18782013425E+04  0.50400001928E-02 0. -1.
    10030    2    1    2    0    0  0.00000000000E+00  0.00000000000E+00 -0.24538561113E+03  0.35110170740E+04  0.35024315547E+04 0.  0.
        1    1    3    3  502    0 -0.48105461628E+03  0.12551951030E+04 -0.12478649789E+04  0.18341470214E+04  0.50400001928E-02 0. -1.
       -1    1    3    3    0  502  0.48105461628E+03 -0.12551951030E+04  0.10024793678E+04  0.16768700526E+04  0.50400001928E-02 0.  1.
</event>
<event>
 5   0  0.5740827E-07  0.3472512E+04  0.7818609E-02  0.8120335E-01
       -2   -1    0    0    0  501  0.00000000000E+00  0.00000000000E+00  0.14364040760E+04  0.14364040760E+04  0.25500000920E-02 0.  1.
        2   -1    0    0  501    0  0.00000000000E+00  0.00000000000E+00 -0.20987029842E+04  0.20987029842E+04  0.25500000920E-02 0. -1.
    10030    2    1    2    0    0  0.00000000000E+00  0.00000000000E+00 -0.66229890829E+03  0.35351070602E+04  0.34725123590E+04 0.  0.
        2    1    3    3  502    0  0.56295264619E+03 -0.80671119592E+03  0.11253344599E+04  0.14946826694E+04  0.25500000920E-02 0.  1.
       -2    1    3    3    0  502 -0.56295264619E+03  0.80671119592E+03 -0.17876333682E+04  0.20404243908E+04  0.25500000920E-02 0. -1.
</event>
<event>
 5   0  0.1873457E-07  0.3489296E+04  0.7818609E-02  0.8116331E-01
       -1   -1    0    0    0  501  0.00000000000E+00  0.00000000000E+00  0.16495565657E+04  0.16495565657E+04  0.50400001928E-02 0. -1.
        1   -1    0    0  501    0  0.00000000000E+00  0.00000000000E+00 -0.18452213526E+04  0.18452213526E+04  0.50400001928E-02 0.  1.
    10030    2    1    2    0    0  0.00000000000E+00  0.00000000000E+00 -0.19566478694E+03  0.34947779183E+04  0.34892962026E+04 0.  0.
        3    1    3    3  502    0  0.63610924707E+03  0.40502023794E+03  0.14778908062E+04  0.16591677470E+04  0.10100000352E+00 0. -1.
       -3    1    3    3    0  502 -0.63610924707E+03 -0.40502023794E+03 -0.16735555932E+04  0.18356101713E+04  0.10100000352E+00 0.  1.
</event>
<event>
 5   0  0.5573334E-07  0.3509338E+04  0.7818609E-02  0.8111580E-01
        2   -1    0    0  501    0  0.00000000000E+00  0.00000000000E+00  0.12894091106E+04  0.12894091106E+04  0.25500000920E-02 0. -1.
       -2   -1    0    0    0  501  0.00000000000E+00  0.00000000000E+00 -0.23878096513E+04  0.23878096513E+04  0.25500000920E-02 0.  1.
    10030    2    1    2    0    0  0.00000000000E+00  0.00000000000E+00 -0.10984005406E+04  0.36772187619E+04  0.35093381250E+04 0.  0.
        4    1    3    3  502    0 -0.56976309548E+03  0.16313103098E+04 -0.22955189870E+03  0.17431290827E+04  0.12699999809E+01 0. -1.
       -4    1    3    3    0  502  0.56976309548E+03 -0.16313103098E+04 -0.86884864195E+03  0.19340896792E+04  0.12699999809E+01 0.  1.
</event>
<event>
 5   0  0.5707187E-07  0.3497611E+04  0.7818609E-02  0.8114356E-01
        2   -1    0    0  501    0  0.00000000000E+00  0.00000000000E+00  0.25889157828E+04  0.25889157828E+04  0.25500000920E-02 0. -1.
       -2   -1    0    0    0  501  0.00000000000E+00  0.00000000000E+00 -0.11813131094E+04  0.11813131094E+04  0.25500000920E-02 0.  1.
    10030    2    1    2    0    0  0.00000000000E+00  0.00000000000E+00  0.14076026734E+04  0.37702288922E+04  0.34976107006E+04 0.  0.
        1    1    3    3  502    0  0.16996725988E+04 -0.33569773291E+03  0.96056989436E+03  0.19809781505E+04  0.50400001928E-02 0.  1.
       -1    1    3    3    0  502 -0.16996725988E+04  0.33569773291E+03  0.44703277905E+03  0.17892507416E+04  0.50400001928E-02 0. -1.
</event>
<event>
 5   0  0.1873457E-07  0.3466715E+04  0.7818609E-02  0.8121724E-01
       -1   -1    0    0    0  501  0.00000000000E+00  0.00000000000E+00  0.93097646851E+03  0.93097646852E+03  0.50400001928E-02 0. -1.
        1   -1    0    0  501    0  0.00000000000E+00  0.00000000000E+00 -0.32272871884E+04  0.32272871884E+04  0.50400001928E-02 0.  1.
    10030    2    1    2    0    0  0.00000000000E+00  0.00000000000E+00 -0.22963107199E+04  0.41582636570E+04  0.34667151193E+04 0.  0.
        3    1    3    3  502    0  0.13994182495E+04  0.36426380819E+03 -0.17433119401E+01  0.14460506935E+04  0.10100000352E+00 0. -1.
       -3    1    3    3    0  502 -0.13994182495E+04 -0.36426380819E+03 -0.22945674080E+04  0.27122129634E+04  0.10100000352E+00 0.  1.
</event>
<event>
 5   0  0.1908190E-07  0.3502674E+04  0.7818609E-02  0.8113157E-01
        1   -1    0    0  501    0  0.00000000000E+00  0.00000000000E+00  0.98420242868E+03  0.98420242869E+03  0.50400001928E-02 0.  1.
       -1   -1    0    0    0  501  0.00000000000E+00  0.00000000000E+00 -0.31164124666E+04  0.31164124666E+04  0.50400001928E-02 0. -1.
    10030    2    1    2    0    0  0.00000000000E+00  0.00000000000E+00 -0.21322100379E+04  0.41006148953E+04  0.35026736750E+04 0.  0.
        5    1    3    3  502    0 -0.68987392090E+03 -0.13750684459E+04 -0.86325446096E+02  0.15408482827E+04  0.46999998093E+01 0.  1.
       -5    1    3    3    0  502  0.68987392090E+03  0.13750684459E+04 -0.20458845918E+04  0.25597666126E+04  0.46999998093E+01 0. -1.
</event>
<event>
 5   0  0.1873457E-07  0.3529714E+04  0.7818609E-02  0.8106784E-01
       -1   -1    0    0    0  501  0.00000000000E+00  0.00000000000E+00  0.11385389013E+04  0.11385389013E+04  0.50400001928E-02 0. -1.
        1   -1    0    0  501    0  0.00000000000E+00  0.00000000000E+00 -0.27357171440E+04  0.27357171440E+04  0.50400001928E-02 0.  1.
    10030    2    1    2    0    0  0.00000000000E+00  0.00000000000E+00 -0.15971782427E+04  0.38742560453E+04  0.35297140911E+04 0.  0.
        3    1    3    3  502    0  0.11465605701E+04 -0.47520232018E+03  0.57859755858E+03  0.13693770594E+04  0.10100000352E+00 0. -1.
       -3    1    3    3    0  502 -0.11465605701E+04  0.47520232018E+03 -0.21757758013E+04  0.25048789858E+04  0.10100000352E+00 0.  1.
</event>
<event>
 5   0  0.1823000E-07  0.3477351E+04  0.7818609E-02  0.8119179E-01
        3   -1    0    0  501    0  0.00000000000E+00  0.00000000000E+00  0.19174897527E+04  0.19174897553E+04  0.10100000352E+00 0. -1.
       -3   -1    0    0    0  501  0.00000000000E+00  0.00000000000E+00 -0.15765364242E+04  0.15765364275E+04  0.10100000352E+00 0.  1.
    10030    2    1    2    0    0  0.00000000000E+00  0.00000000000E+00  0.34095332843E+03  0.34940261828E+04  0.34773509736E+04 0.  0.
        4    1    3    3  502    0  0.15473911868E+04 -0.30088101080E+03 -0.56655425016E+03  0.16750922957E+04  0.12699999809E+01 0.  1.
       -4    1    3    3    0  502 -0.15473911868E+04  0.30088101080E+03  0.90750757860E+03  0.18189338871E+04  0.12699999809E+01 0. -1.
</event>
<event>
 5   0  0.5740827E-07  0.3461443E+04  0.7818609E-02  0.8122989E-01
       -2   -1    0    0    0  501  0.00000000000E+00  0.00000000000E+00  0.12578961498E+04  0.12578961498E+04  0.25500000920E-02 0. -1.
        2   -1    0    0  501    0  0.00000000000E+00  0.00000000000E+00 -0.23812753453E+04  0.23812753453E+04  0.25500000920E-02 0.  1.
    10030    2    1    2    0    0  0.00000000000E+00  0.00000000000E+00 -0.11233791955E+04  0.36391714951E+04  0.34614431028E+04 0.  0.
        2    1    3    3  502    0  0.13285267297E+04 -0.79074052775E+03  0.25616182963E+03  0.15671224383E+04  0.25500000920E-02 0.  1.
       -2    1    3    3    0  502 -0.13285267297E+04  0.79074052775E+03 -0.13795410251E+04  0.20720490568E+04  0.25500000920E-02 0. -1.
</event>
<event>
 5   0  0.1873457E-07  0.3517401E+04  0.7818609E-02  0.8109679E-01
        1   -1    0    0  501    0  0.00000000000E+00  0.00000000000E+00  0.21188538458E+04  0.21188538458E+04  0.50400001928E-02 0.  1.
       -1   -1    0    0    0  501  0.00000000000E+00  0.00000000000E+00 -0.14597642653E+04  0.14597642653E+04  0.50400001928E-02 0. -1.
    10030    2    1    2    0    0  0.00000000000E+00  0.00000000000E+00  0.65908958052E+03  0.35786181111E+04  0.35174008173E+04 0.  0.
        3    1    3    3  502    0 -0.10239301775E+04  0.79694769601E+03 -0.87832794779E+03  0.15668499075E+04  0.10100000352E+00 0. -1.
       -3    1    3    3    0  502  0.10239301775E+04 -0.79694769601E+03  0.15374175283E+04  0.20117682036E+04  0.10100000352E+00 0.  1.
</event>
<event>
 5   0  0.5707187E-07  0.3478517E+04  0.7818609E-02  0.8118900E-01
       -2   -1    0    0    0  501  0.00000000000E+00  0.00000000000E+00  0.14345153741E+04  0.14345153741E+04  0.25500000920E-02 0. -1.
        2   -1    0    0  501    0  0.00000000000E+00  0.00000000000E+00 -0.21087396471E+04  0.21087396471E+04  0.25500000920E-02 0.  1.
    10030    2    1    2    0    0  0.00000000000E+00  0.00000000000E+00 -0.67422427299E+03  0.35432550213E+04  0.34785166056E+04 0.  0.
        1    1    3    3  502    0  0.10351586657E+04 -0.16214249463E+03  0.10769516365E+04  0.15025539854E+04  0.50400001928E-02 0. -1.
       -1    1    3    3    0  502 -0.10351586657E+04  0.16214249463E+03 -0.17511759095E+04  0.20407010358E+04  0.50400001928E-02 0.  1.
</event>
<event>
 5   0  0.5573334E-07  0.3499852E+04  0.7818609E-02  0.8113825E-01
       -2   -1    0    0    0  501  0.00000000000E+00  0.00000000000E+00  0.10028556609E+04  0.10028556609E+04  0.25500000920E-02 0.  1.
        2   -1    0    0  501    0  0.00000000000E+00  0.00000000000E+00 -0.30535209987E+04  0.30535209987E+04  0.25500000920E-02 0. -1.
    10030    2    1    2    0    0  0.00000000000E+00  0.00000000000E+00 -0.20506653378E+04  0.40563766596E+04  0.34998518936E+04 0.  0.
        4    1    3    3  502    0  0.12092471602E+03 -0.53334897585E+03 -0.29519313352E+04  0.30021632430E+04  0.12699999809E+01 0. -1.
       -4    1    3    3    0  502 -0.12092471602E+03  0.53334897585E+03  0.90126599735E+03  0.10542134167E+04  0.12699999809E+01 0.  1.
</event>
<event>
 5   0  0.1908190E-07  0.3502453E+04  0.7818609E-02  0.8113209E-01
        1   -1    0    0  501    0  0.00000000000E+00  0.00000000000E+00  0.11372837977E+04  0.11372837977E+04  0.50400001928E-02 0.  1.
       -1   -1    0    0    0  501  0.00000000000E+00  0.00000000000E+00 -0.26965951768E+04  0.26965951768E+04  0.50400001928E-02 0. -1.
    10030    2    1    2    0    0  0.00000000000E+00  0.00000000000E+00 -0.15593113791E+04  0.38338789745E+04  0.35024528567E+04 0.  0.
        5    1    3    3  502    0  0.10696971866E+04  0.77718725576E+03  0.47725996980E+03  0.14057280214E+04  0.46999998093E+01 0. -1.
       -5    1    3    3    0  502 -0.10696971866E+04 -0.77718725576E+03 -0.20365713489E+04  0.24281509530E+04  0.46999998093E+01 0.  1.
</event>
<event>
 5   0  0.5677193E-07  0.3520167E+04  0.7818609E-02  0.8109027E-01
       -2   -1    0    0    0  501  0.00000000000E+00  0.00000000000E+00  0.12626303602E+04  0.12626303602E+04  0.25500000920E-02 0. -1.
        2   -1    0    0  501    0  0.00000000000E+00  0.00000000000E+00 -0.24535236490E+04  0.24535236490E+04  0.25500000920E-02 0.  1.
    10030    2    1    2    0    0  0.00000000000E+00  0.00000000000E+00 -0.11908932888E+04  0.37161540091E+04  0.35201667282E+04 0.  0.
        3    1    3    3  502    0 -0.10608848414E+04  0.10254272659E+04  0.41762558907E+03  0.15334239033E+04  0.10100000352E+00 0.  1.
       -3    1    3    3    0  502  0.10608848414E+04 -0.10254272659E+04 -0.16085188779E+04  0.21827301058E+04  0.10100000352E+00 0. -1.
</event>
<event>
 5   0  0.5677193E-07  0.3654780E+04  0.7818609E-02  0.8078058E-01
       -2   -1    0    0    0  501  0.00000000000E+00  0.00000000000E+00  0.14582442121E+04  0.14582442121E+04  0.25500000920E-02 0. -1.
        2   -1    0    0  501    0  0.00000000000E+00  0.00000000000E+00 -0.22899822805E+04  0.22899822805E+04  0.25500000920E-02 0.  1.
    10030    2    1    2    0    0  0.00000000000E+00  0.00000000000E+00 -0.83173806842E+03  0.37482264926E+04  0.36547795590E+04 0.  0.
        3    1    3    3  502    0 -0.88338736020E+03  0.47572445905E+03  0.11504887014E+04  0.15265357026E+04  0.10100000352E+00 0. -1.
       -3    1    3    3    0  502  0.88338736020E+03 -0.47572445905E+03 -0.19822267698E+04  0.22216907900E+04  0.10100000352E+00 0.  1.
</event>
<event>
 5   0  0.1897049E-07  0.3514357E+04  0.7818609E-02  0.8110396E-01
       -1   -1    0    0    0  501  0.00000000000E+00  0.00000000000E+00  0.28013551960E+04  0.28013551960E+04  0.50400001928E-02 0.  1.
        1   -1    0    0  501    0  0.00000000000E+00  0.00000000000E+00 -0.11022079104E+04  0.11022079104E+04  0.50400001928E-02 0. -1.
    10030    2    1    2    0    0  0.00000000000E+00  0.00000000000E+00  0.16991472856E+04  0.39035631064E+04  0.35143567587E+04 0.  0.
        2    1    3    3  502    0  0.48794563080E+03 -0.73174097592E+03  0.25392758778E+04  0.26872770192E+04  0.25500000920E-02 0.  1.
       -2    1    3    3    0  502 -0.48794563080E+03  0.73174097592E+03 -0.84012859220E+03  0.12162860872E+04  0.25500000920E-02 0. -1.
</event>
<event>
 5   0  0.1908190E-07  0.3522505E+04  0.7818609E-02  0.8108477E-01
       -1   -1    0    0    0  501  0.00000000000E+00  0.00000000000E+00  0.18255899118E+04  0.18255899118E+04  0.50400001928E-02 0.  1.
        1   -1    0    0  501    0  0.00000000000E+00  0.00000000000E+00 -0.16991821910E+04  0.16991821910E+04  0.50400001928E-02 0. -1.
    10030    2    1    2    0    0  0.00000000000E+00  0.00000000000E+00  0.12640772083E+03  0.35247721028E+04  0.35225047147E+04 0.  0.
        5    1    3    3  502    0  0.17268701143E+02  0.11002452827E+04 -0.13128721856E+04  0.17130362973E+04  0.46999998093E+01 0. -1.
       -5    1    3    3    0  502 -0.17268701143E+02 -0.11002452827E+04  0.14392799064E+04  0.18117358056E+04  0.46999998093E+01 0.  1.
</event>
<event>
 5   0  0.1866421E-07  0.3493388E+04  0.7818609E-02  0.8115359E-01
        1   -1    0    0  501    0  0.00000000000E+00  0.00000000000E+00  0.22787066531E+04  0.22787066531E+04  0.50400001928E-02 0.  1.
       -1   -1    0    0    0  501  0.00000000000E+00  0.00000000000E+00 -0.13388913347E+04  0.13388913347E+04  0.50400001928E-02 0. -1.
    10030    2    1    2    0    0  0.00000000000E+00  0.00000000000E+00  0.93981531840E+03  0.36175979879E+04  0.34933883794E+04 0.  0.
        1    1    3    3  502    0 -0.16866197548E+04 -0.15472698325E+03  0.27743650257E+02  0.16939292626E+04  0.50400001928E-02 0.  1.
       -1    1    3    3    0  502  0.16866197548E+04  0.15472698325E+03  0.91207166814E+03  0.19236687252E+04  0.50400001928E-02 0. -1.
</event>
<event>
 5   0  0.5554745E-07  0.3511638E+04  0.7818609E-02  0.8111037E-01
       -2   -1    0    0    0  501  0.00000000000E+00  0.00000000000E+00  0.10747614533E+04  0.10747614533E+04  0.25500000920E-02 0. -1.
        2   -1    0    0  501    0  0.00000000000E+00  0.00000000000E+00 -0.28684504523E+04  0.28684504523E+04  0.25500000920E-02 0.  1.
    10030    2    1    2    0    0  0.00000000000E+00  0.00000000000E+00 -0.17936889990E+04  0.39432119056E+04  0.35116377813E+04 0.  0.
        5    1    3    3  502    0 -0.26105557337E+03  0.21433421531E+03 -0.28316176371E+04  0.28516959342E+04  0.46999998093E+01 0.  1.
       -5    1    3    3    0  502  0.26105557337E+03 -0.21433421531E+03  0.10379286380E+04  0.10915159714E+04  0.46999998093E+01 0. -1.
</event>
<event>
 5   0  0.5677193E-07  0.3502065E+04  0.7818609E-02  0.8113301E-01
       -2   -1    0    0    0  501  0.00000000000E+00  0.00000000000E+00  0.15076255549E+04  0.15076255549E+04  0.25500000920E-02 0. -1.
        2   -1    0    0  501    0  0.00000000000E+00  0.00000000000E+00 -0.20337376619E+04  0.20337376619E+04  0.25500000920E-02 0.  1.
    10030    2    1    2    0    0  0.00000000000E+00  0.00000000000E+00 -0.52611210706E+03  0.35413632168E+04  0.35020650314E+04 0.  0.
        3    1    3    3  502    0 -0.17311406811E+04  0.25054736763E+03 -0.34453828996E+03  0.17827867748E+04  0.10100000352E+00 0. -1.
       -3    1    3    3    0  502  0.17311406811E+04 -0.25054736763E+03 -0.18157381710E+03  0.17585764420E+04  0.10100000352E+00 0.  1.
</event>
<event>
 5   0  0.5573334E-07  0.3518868E+04  0.7818609E-02  0.8109333E-01
       -2   -1    0    0    0  501  0.00000000000E+00  0.00000000000E+00  0.13338303588E+04  0.13338303588E+04  0.25500000920E-02 0.  1.
        2   -1    0    0  501    0  0.00000000000E+00  0.00000000000E+00 -0.23208405570E+04  0.23208405570E+04  0.25500000920E-02 0. -1.
    10030    2    1    2    0    0  0.00000000000E+00  0.00000000000E+00 -0.98701019822E+03  0.36546709159E+04  0.35188677685E+04 0.  0.
        4    1    3    3  502    0 -0.23018265247E+03 -0.12160907072E+04 -0.17922634142E+04  0.21780887081E+04  0.12699999809E+01 0. -1.
       -4    1    3    3    0  502  0.23018265247E+03  0.12160907072E+04  0.80525321599E+03  0.14765822078E+04  0.12699999809E+01 0.  1.
</event>
<event>
 5   0  0.5677193E-07  0.3502867E+04  0.7818609E-02  0.8113111E-01
       -2   -1    0    0    0  501  0.00000000000E+00  0.00000000000E+00  0.35199905771E+04  0.35199905771E+04  0.25500000920E-02 0.  1.
        2   -1    0    0  501    0  0.00000000000E+00  0.00000000000E+00 -0.87145685109E+03  0.87145685110E+03  0.25500000920E-02 0. -1.
    10030    2    1    2    0    0  0.00000000000E+00  0.00000000000E+00  0.26485337260E+04  0.43914474282E+04  0.35028673422E+04 0.  0.
        3    1    3    3  502    0  0.92528377855E+03  0.48591707926E+03 -0.43769100060E+03  0.11330661503E+04  0.10100000352E+00 0. -1.
       -3    1    3    3    0  502 -0.92528377855E+03 -0.48591707926E+03  0.30862247267E+04  0.32583812779E+04  0.10100000352E+00 0.  1.
</event>
<event>
 5   0  0.1908190E-07  0.3500301E+04  0.7818609E-02  0.8113719E-01
       -1   -1    0    0    0  501  0.00000000000E+00  0.00000000000E+00  0.12284015101E+04  0.12284015101E+04  0.50400001928E-02 0.  1.
        1   -1    0    0  501    0  0.00000000000E+00  0.00000000000E+00 -0.24935058641E+04  0.24935058641E+04  0.50400001928E-02 0. -1.
    10030    2    1    2    0    0  0.00000000000E+00  0.00000000000E+00 -0.12651043540E+04  0.37219073742E+04  0.35003007693E+04 0.  0.
        5    1    3    3  502    0 -0.17554163589E+03 -0.91116815248E+03  0.94529562216E+03  0.13246313341E+04  0.46999998093E+01 0.  1.
       -5    1    3    3    0  502  0.17554163589E+03  0.91116815248E+03 -0.22103999761E+04  0.23972760401E+04  0.46999998093E+01 0. -1.
</event>
<event>
 5   0  0.1933647E-07  0.3602254E+04  0.7818609E-02  0.8089976E-01
       -1   -1    0    0    0  501  0.00000000000E+00  0.00000000000E+00  0.13912197175E+04  0.13912197175E+04  0.50400001928E-02 0.  1.
        1   -1    0    0  501    0  0.00000000000E+00  0.00000000000E+00 -0.23318082826E+04  0.23318082827E+04  0.50400001928E-02 0. -1.
    10030    2    1    2    0    0  0.00000000000E+00  0.00000000000E+00 -0.94058856517E+03  0.37230280001E+04  0.36022535503E+04 0.  0.
        4    1    3    3  502    0 -0.64837651911E+03 -0.11797480089E+04  0.76642771697E+03  0.15490676336E+04  0.12699999809E+01 0.  1.
       -4    1    3    3    0  502  0.64837651911E+03  0.11797480089E+04 -0.17070162821E+04  0.21739603666E+04  0.12699999809E+01 0. -1.
</event>
<event>
 5   0  0.1908190E-07  0.3549608E+04  0.7818609E-02  0.8102133E-01
        1   -1    0    0  501    0  0.00000000000E+00  0.00000000000E+00  0.15884629828E+04  0.15884629829E+04  0.50400001928E-02 0. -1.
       -1   -1    0    0    0  501  0.00000000000E+00  0.00000000000E+00 -0.19830044918E+04  0.19830044918E+04  0.50400001928E-02 0.  1.
    10030    2    1    2    0    0  0.00000000000E+00  0.00000000000E+00 -0.39454150896E+03  0.35714674747E+04  0.35496079953E+04 0.  0.
        5    1    3    3  502    0 -0.23431359799E+03 -0.11257612419E+04 -0.15575081504E+04  0.19359997326E+04  0.46999998093E+01 0.  1.
       -5    1    3    3    0  502  0.23431359799E+03  0.11257612419E+04  0.11629666415E+04  0.16354677420E+04  0.46999998093E+01 0. -1.
</event>
<event>
 5   0  0.1933647E-07  0.3492816E+04  0.7818609E-02  0.8115495E-01
       -1   -1    0    0    0  501  0.00000000000E+00  0.00000000000E+00  0.22393969069E+04  0.22393969069E+04  0.50400001928E-02 0.  1.
        1   -1    0    0  501    0  0.00000000000E+00  0.00000000000E+00 -0.13619472092E+04  0.13619472092E+04  0.50400001928E-02 0. -1.
    10030    2    1    2    0    0  0.00000000000E+00  0.00000000000E+00  0.87744969772E+03  0.36013441162E+04  0.34928156938E+04 0.  0.
        4    1    3    3  502    0 -0.90766102671E+03  0.87659935506E+03 -0.80612689950E+03  0.14973700811E+04  0.12699999809E+01 0. -1.
       -4    1    3    3    0  502  0.90766102671E+03 -0.87659935506E+03  0.16835765972E+04  0.21039740351E+04  0.12699999809E+01 0.  1.
</event>
<event>
 5   0  0.5677193E-07  0.3489854E+04  0.7818609E-02  0.8116199E-01
       -2   -1    0    0    0  501  0.00000000000E+00  0.00000000000E+00  0.20685801363E+04  0.20685801363E+04  0.25500000920E-02 0.  1.
        2   -1    0    0  501    0  0.00000000000E+00  0.00000000000E+00 -0.14719127649E+04  0.14719127649E+04  0.25500000920E-02 0. -1.
    10030    2    1    2    0    0  0.00000000000E+00  0.00000000000E+00  0.59666737138E+03  0.35404929011E+04  0.34898535830E+04 0.  0.
        3    1    3    3  502    0 -0.69503965864E+03  0.22556072066E+03 -0.13092130062E+04  0.14993320085E+04  0.10100000352E+00 0. -1.
       -3    1    3    3    0  502  0.69503965864E+03 -0.22556072066E+03  0.19058803776E+04  0.20411608927E+04  0.10100000352E+00 0.  1.
</event>
<event>
 5   0  0.1873457E-07  0.3527337E+04  0.7818609E-02  0.8107342E-01
       -1   -1    0    0    0  501  0.00000000000E+00  0.00000000000E+00  0.15702494900E+04  0.15702494900E+04  0.50400001928E-02 0.  1.
        1   -1    0    0  501    0  0.00000000000E+00  0.00000000000E+00 -0.19809126273E+04  0.19809126274E+04  0.50400001928E-02 0. -1.
    10030    2    1    2    0    0  0.00000000000E+00  0.00000000000E+00 -0.41066313740E+03  0.35511621173E+04  0.35273372636E+04 0.  0.
        3    1    3    3  502    0  0.12895101542E+03 -0.70950985056E+03  0.14150408605E+04  0.15881981109E+04  0.10100000352E+00 0.  1.
       -3    1    3    3    0  502 -0.12895101542E+03  0.70950985056E+03 -0.18257039979E+04  0.19629640064E+04  0.10100000352E+00 0. -1.
</event>
<event>
 5   0  0.5554745E-07  0.3520614E+04  0.7818609E-02  0.8108922E-01
       -2   -1    0    0    0  501  0.00000000000E+00  0.00000000000E+00  0.12809183044E+04  0.12809183044E+04  0.25500000920E-02 0.  1.
        2   -1    0    0  501    0  0.00000000000E+00  0.00000000000E+00 -0.24191085636E+04  0.24191085636E+04  0.25500000920E-02 0. -1.
    10030    2    1    2    0    0  0.00000000000E+00  0.00000000000E+00 -0.11381902591E+04  0.37000268680E+04  0.35206138325E+04 0.  0.
        5    1    3    3  502    0 -0.70021901976E+03 -0.15766459052E+04 -0.93699047790E+03  0.19631842073E+04  0.46999998093E+01 0.  1.
       -5    1    3    3    0  502  0.70021901976E+03  0.15766459052E+04 -0.20119978123E+03  0.17368426607E+04  0.46999998093E+01 0. -1.
</event>
<event>
 5   0  0.5677193E-07  0.3518369E+04  0.7818609E-02  0.8109450E-01
       -2   -1    0    0    0  501  0.00000000000E+00  0.00000000000E+00  0.21394334549E+04  0.21394334549E+04  0.25500000920E-02 0.  1.
        2   -1    0    0  501    0  0.00000000000E+00  0.00000000000E+00 -0.14465186821E+04  0.14465186821E+04  0.25500000920E-02 0. -1.
    10030    2    1    2    0    0  0.00000000000E+00  0.00000000000E+00  0.69291477277E+03  0.35859521370E+04  0.35183692027E+04 0.  0.
        3    1    3    3  502    0 -0.48687750158E+03 -0.16533610930E+04  0.70547040764E+03  0.18623482789E+04  0.10100000352E+00 0.  1.
       -3    1    3    3    0  502  0.48687750158E+03  0.16533610930E+04 -0.12555634870E+02  0.17236038581E+04  0.10100000352E+00 0. -1.
</event>
<event>
 5   0  0.1873457E-07  0.3500954E+04  0.7818609E-02  0.8113564E-01
        1   -1    0    0  501    0  0.00000000000E+00  0.00000000000E+00  0.11697617888E+04  0.11697617888E+04  0.50400001928E-02 0.  1.
       -1   -1    0    0    0  501  0.00000000000E+00  0.00000000000E+00 -0.26194811783E+04  0.26194811783E+04  0.50400001928E-02 0. -1.
    10030    2    1    2    0    0  0.00000000000E+00  0.00000000000E+00 -0.14497193895E+04  0.37892429671E+04  0.35009535780E+04 0.  0.
        3    1    3    3  502    0 -0.12183336030E+04 -0.23254846274E+03  0.61206910107E+03  0.13831283926E+04  0.10100000352E+00 0.  1.
       -3    1    3    3    0  502  0.12183336030E+04  0.23254846274E+03 -0.20617884906E+04  0.24061145745E+04  0.10100000352E+00 0. -1.
</event>
<event>
 5   0  0.5573334E-07  0.3506928E+04  0.7818609E-02  0.8112150E-01
       -2   -1    0    0    0  501  0.00000000000E+00  0.00000000000E+00  0.16417350247E+04  0.16417350247E+04  0.25500000920E-02 0.  1.
        2   -1    0    0  501    0  0.00000000000E+00  0.00000000000E+00 -0.18727967272E+04  0.18727967272E+04  0.25500000920E-02 0. -1.
    10030    2    1    2    0    0  0.00000000000E+00  0.00000000000E+00 -0.23106170246E+03  0.35145317520E+04  0.35069279897E+04 0.  0.
        4    1    3    3  502    0 -0.66550145192E+03  0.59356359952E+03  0.13975189512E+04  0.16577909280E+04  0.12699999809E+01 0.  1.
       -4    1    3    3    0  502  0.66550145192E+03 -0.59356359952E+03 -0.16285806536E+04  0.18567408240E+04  0.12699999809E+01 0. -1.
</event>
<event>
 5   0  0.5554745E-07  0.3462454E+04  0.7818609E-02  0.8122746E-01
       -2   -1    0    0    0  501  0.00000000000E+00  0.00000000000E+00  0.18072136391E+04  0.18072136391E+04  0.25500000920E-02 0.  1.
        2   -1    0    0  501    0  0.00000000000E+00  0.00000000000E+00 -0.16584349400E+04  0.16584349400E+04  0.25500000920E-02 0. -1.
    10030    2    1    2    0    0  0.00000000000E+00  0.00000000000E+00  0.14877869909E+03  0.34656485791E+04  0.34624536058E+04 0.  0.
        5    1    3    3  502    0 -0.87684910178E+03  0.13312458097E+04 -0.60154438726E+03  0.17038067652E+04  0.46999998093E+01 0. -1.
       -5    1    3    3    0  502  0.87684910178E+03 -0.13312458097E+04  0.75032308635E+03  0.17618418139E+04  0.46999998093E+01 0.  1.
</event>
<event>
 5   0  0.1897049E-07  0.3516880E+04  0.7818609E-02  0.8109801E-01
       -1   -1    0    0    0  501  0.00000000000E+00  0.00000000000E+00  0.13577549648E+04  0.13577549648E+04  0.50400001928E-02 0.  1.
        1   -1    0    0  501    0  0.00000000000E+00  0.00000000000E+00 -0.22773700959E+04  0.22773700959E+04  0.50400001928E-02 0. -1.
    10030    2    1    2    0    0  0.00000000000E+00  0.00000000000E+00 -0.91961513116E+03  0.36351250607E+04  0.35168796138E+04 0.  0.
        2    1    3    3  502    0 -0.78782398774E+03  0.14187645779E+04  0.24012414965E+03  0.16404935753E+04  0.25500000920E-02 0.  1.
       -2    1    3    3    0  502  0.78782398774E+03 -0.14187645779E+04 -0.11597392808E+04  0.19946314855E+04  0.25500000920E-02 0. -1.
</event>
<event>
 5   0  0.1933647E-07  0.3478695E+04  0.7818609E-02  0.8118857E-01
       -1   -1    0    0    0  501  0.00000000000E+00  0.00000000000E+00  0.21328619973E+04  0.21328619973E+04  0.50400001928E-02 0. -1.
        1   -1    0    0  501    0  0.00000000000E+00  0.00000000000E+00 -0.14184370653E+04  0.14184370653E+04  0.50400001928E-02 0.  1.
    10030    2    1    2    0    0  0.00000000000E+00  0.00000000000E+00  0.71442493196E+03  0.35512990626E+04  0.34786954521E+04 0.  0.
        4    1    3    3  502    0 -0.13338021980E+04  0.21793814658E+03 -0.76053797356E+03  0.15507884966E+04  0.12699999809E+01 0.  1.
       -4    1    3    3    0  502  0.13338021980E+04 -0.21793814658E+03  0.14749629055E+04  0.20005105660E+04  0.12699999809E+01 0. -1.
</event>
<event>
 5   0  0.1873457E-07  0.3493916E+04  0.7818609E-02  0.8115233E-01
        1   -1    0    0  501    0  0.00000000000E+00  0.00000000000E+00  0.22247937128E+04  0.22247937128E+04  0.50400001928E-02 0.  1.
       -1   -1    0    0    0  501  0.00000000000E+00  0.00000000000E+00 -0.13717509817E+04  0.13717509818E+04  0.50400001928E-02 0. -1.
    10030    2    1    2    0    0  0.00000000000E+00  0.00000000000E+00  0.85304273106E+03  0.35965446946E+04  0.34939164041E+04 0.  0.
        3    1    3    3  502    0 -0.12528485259E+04 -0.35907841529E+02 -0.82616483068E+03  0.15011552683E+04  0.10100000352E+00 0. -1.
       -3    1    3    3    0  502  0.12528485259E+04  0.35907841529E+02  0.16792075617E+04  0.20953894262E+04  0.10100000352E+00 0.  1.
</event>
<event>
 5   0  0.1908190E-07  0.3507682E+04  0.7818609E-02  0.8111972E-01
       -1   -1    0    0    0  501  0.00000000000E+00  0.00000000000E+00  0.11767293467E+04  0.11767293467E+04  0.50400001928E-02 0.  1.
        1   -1    0    0  501    0  0.00000000000E+00  0.00000000000E+00 -0.26139891814E+04  0.26139891814E+04  0.50400001928E-02 0. -1.
    10030    2    1    2    0    0  0.00000000000E+00  0.00000000000E+00 -0.14372598347E+04  0.37907185281E+04  0.35076817311E+04 0.  0.
        5    1    3    3  502    0 -0.11732829093E+04 -0.10518310567E+03  0.68555246713E+03  0.13629602144E+04  0.46999998093E+01 0.  1.
       -5    1    3    3    0  502  0.11732829093E+04  0.10518310567E+03 -0.21228123018E+04  0.24277583137E+04  0.46999998093E+01 0. -1.
</event>
<event>
 5   0  0.5707187E-07  0.3489614E+04  0.7818609E-02  0.8116256E-01
       -2   -1    0    0    0  501  0.00000000000E+00  0.00000000000E+00  0.15067175928E+04  0.15067175928E+04  0.25500000920E-02 0.  1.
        2   -1    0    0  501    0  0.00000000000E+00  0.00000000000E+00 -0.20205190114E+04  0.20205190114E+04  0.25500000920E-02 0. -1.
    10030    2    1    2    0    0  0.00000000000E+00  0.00000000000E+00 -0.51380141863E+03  0.35272366042E+04  0.34896140423E+04 0.  0.
        1    1    3    3  502    0  0.67246872605E+03 -0.48403394036E+03  0.12951830162E+04  0.15375311666E+04  0.50400001928E-02 0.  1.
       -1    1    3    3    0  502 -0.67246872605E+03  0.48403394036E+03 -0.18089844348E+04  0.19897054376E+04  0.50400001928E-02 0. -1.
</event>
<event>
 5   0  0.1866421E-07  0.3352948E+04  0.7818609E-02  0.8149552E-01
        1   -1    0    0  501    0  0.00000000000E+00  0.00000000000E+00  0.24348456418E+04  0.24348456418E+04  0.50400001928E-02 0. -1.
       -1   -1    0    0    0  501  0.00000000000E+00  0.00000000000E+00 -0.11543096633E+04  0.11543096633E+04  0.50400001928E-02 0.  1.
    10030    2    1    2    0    0  0.00000000000E+00  0.00000000000E+00  0.12805359785E+04  0.35891553052E+04  0.33529484655E+04 0.  0.
        1    1    3    3  502    0 -0.19070651538E+02  0.98400068189E+03 -0.81252481646E+03  0.12762513895E+04  0.50400001928E-02 0.  1.
       -1    1    3    3    0  502  0.19070651538E+02 -0.98400068189E+03  0.20930607950E+04  0.23129039157E+04  0.50400001928E-02 0. -1.
</event>
<event>
 5   0  0.5707187E-07  0.3486656E+04  0.7818609E-02  0.8116960E-01
        2   -1    0    0  501    0  0.00000000000E+00  0.00000000000E+00  0.21084444503E+04  0.21084444503E+04  0.25500000920E-02 0. -1.
       -2   -1    0    0    0  501  0.00000000000E+00  0.00000000000E+00 -0.14414379355E+04  0.14414379355E+04  0.25500000920E-02 0.  1.
    10030    2    1    2    0    0  0.00000000000E+00  0.00000000000E+00  0.66700651480E+03  0.35498823859E+04  0.34866555985E+04 0.  0.
        1    1    3    3  502    0  0.15405770858E+04 -0.72652322304E+03 -0.44686652672E+02  0.17038810545E+04  0.50400001928E-02 0.  1.
       -1    1    3    3    0  502 -0.15405770858E+04  0.72652322304E+03  0.71169316747E+03  0.18460013314E+04  0.50400001928E-02 0. -1.
</event>
<event>
 5   0  0.1873457E-07  0.3456275E+04  0.7818609E-02  0.8124231E-01
       -1   -1    0    0    0  501  0.00000000000E+00  0.00000000000E+00  0.97787477650E+03  0.97787477651E+03  0.50400001928E-02 0. -1.
        1   -1    0    0  501    0  0.00000000000E+00  0.00000000000E+00 -0.30540298201E+04  0.30540298201E+04  0.50400001928E-02 0.  1.
    10030    2    1    2    0    0  0.00000000000E+00  0.00000000000E+00 -0.20761550436E+04  0.40319045966E+04  0.34562747158E+04 0.  0.
        3    1    3    3  502    0 -0.10422174565E+04  0.71583420668E+03  0.33618282175E+03  0.13083022349E+04  0.10100000352E+00 0. -1.
       -3    1    3    3    0  502  0.10422174565E+04 -0.71583420668E+03 -0.24123378653E+04  0.27236023617E+04  0.10100000352E+00 0.  1.
</event>
<event>
 5   0  0.1897049E-07  0.3481056E+04  0.7818609E-02  0.8118294E-01
        1   -1    0    0  501    0  0.00000000000E+00  0.00000000000E+00  0.16723682413E+04  0.16723682413E+04  0.50400001928E-02 0.  1.
       -1   -1    0    0    0  501  0.00000000000E+00  0.00000000000E+00 -0.18114661526E+04  0.18114661526E+04  0.50400001928E-02 0. -1.
    10030    2    1    2    0    0  0.00000000000E+00  0.00000000000E+00 -0.13909791128E+03  0.34838343939E+04  0.34810564281E+04 0.  0.
        2    1    3    3  502    0 -0.81220441394E+02 -0.35861023008E+03 -0.17721533123E+04  0.18098965217E+04  0.25500000920E-02 0. -1.
       -2    1    3    3    0  502  0.81220441394E+02  0.35861023008E+03  0.16330554010E+04  0.16739378722E+04  0.25500000920E-02 0.  1.
</event>
<event>
 5   0  0.1908190E-07  0.3501294E+04  0.7818609E-02  0.8113483E-01
       -1   -1    0    0    0  501  0.00000000000E+00  0.00000000000E+00  0.13455654443E+04  0.13455654443E+04  0.50400001928E-02 0. -1.
        1   -1    0    0  501    0  0.00000000000E+00  0.00000000000E+00 -0.22776781039E+04  0.22776781039E+04  0.50400001928E-02 0.  1.
    10030    2    1    2    0    0  0.00000000000E+00  0.00000000000E+00 -0.93211265962E+03  0.36232435482E+04  0.35012940178E+04 0.  0.
        5    1    3    3  502    0 -0.91419251588E+02 -0.12276679170E+04 -0.17540835880E+04  0.21429786087E+04  0.46999998093E+01 0.  1.
       -5    1    3    3    0  502  0.91419251588E+02  0.12276679170E+04  0.82197092835E+03  0.14802649394E+04  0.46999998093E+01 0. -1.
</event>
<event>
 5   0  0.5554745E-07  0.3502217E+04  0.7818609E-02  0.8113265E-01
        2   -1    0    0  501    0  0.00000000000E+00  0.00000000000E+00  0.25921073255E+04  0.25921073255E+04  0.25500000920E-02 0. -1.
       -2   -1    0    0    0  501  0.00000000000E+00  0.00000000000E+00 -0.11829685374E+04  0.11829685374E+04  0.25500000920E-02 0.  1.
    10030    2    1    2    0    0  0.00000000000E+00  0.00000000000E+00  0.14091387881E+04  0.37750758629E+04  0.35022172472E+04 0.  0.
        5    1    3    3  502    0 -0.20181744797E+03 -0.12655970148E+04  0.19908073302E+04  0.23676574926E+04  0.46999998093E+01 0. -1.
       -5    1    3    3    0  502  0.20181744797E+03  0.12655970148E+04 -0.58166854211E+03  0.14074183703E+04  0.46999998093E+01 0.  1.
</event>
<event>
 5   0  0.5554745E-07  0.3459046E+04  0.7818609E-02  0.8123565E-01
        2   -1    0    0  501    0  0.00000000000E+00  0.00000000000E+00  0.12826738379E+04  0.12826738379E+04  0.25500000920E-02 0.  1.
       -2   -1    0    0    0  501  0.00000000000E+00  0.00000000000E+00 -0.23320419309E+04  0.23320419309E+04  0.25500000920E-02 0. -1.
    10030    2    1    2    0    0  0.00000000000E+00  0.00000000000E+00 -0.10493680931E+04  0.36147157688E+04  0.34590456335E+04 0.  0.
        5    1    3    3  502    0 -0.58898355889E+03  0.86562783866E+03  0.91386297329E+03  0.13897412751E+04  0.46999998093E+01 0.  1.
       -5    1    3    3    0  502  0.58898355889E+03 -0.86562783866E+03 -0.19632310664E+04  0.22249744937E+04  0.46999998093E+01 0. -1.
</event>
<event>
 5   0  0.5554745E-07  0.3507379E+04  0.7818609E-02  0.8112044E-01
       -2   -1    0    0    0  501  0.00000000000E+00  0.00000000000E+00  0.12278781166E+04  0.12278781166E+04  0.25500000920E-02 0. -1.
        2   -1    0    0  501    0  0.00000000000E+00  0.00000000000E+00 -0.25046671970E+04  0.25046671970E+04  0.25500000920E-02 0.  1.
    10030    2    1    2    0    0  0.00000000000E+00  0.00000000000E+00 -0.12767890804E+04  0.37325453136E+04  0.35073785313E+04 0.  0.
        5    1    3    3  502    0  0.60831046339E+03 -0.36580829679E+03  0.10681579490E+04  0.12825134790E+04  0.46999998093E+01 0. -1.
       -5    1    3    3    0  502 -0.60831046339E+03  0.36580829679E+03 -0.23449470294E+04  0.24500318346E+04  0.46999998093E+01 0.  1.
</event>
<event>
 5   0  0.1933647E-07  0.3528446E+04  0.7818609E-02  0.8107081E-01
       -1   -1    0    0    0  501  0.00000000000E+00  0.00000000000E+00  0.18047696020E+04  0.18047696021E+04  0.50400001928E-02 0.  1.
        1   -1    0    0  501    0  0.00000000000E+00  0.00000000000E+00 -0.17245875967E+04  0.17245875967E+04  0.50400001928E-02 0. -1.
    10030    2    1    2    0    0  0.00000000000E+00  0.00000000000E+00  0.80182005381E+02  0.35293571987E+04  0.35284462703E+04 0.  0.
        4    1    3    3  502    0 -0.29625592981E+03  0.15750905608E+04  0.77771192679E+03  0.17814363038E+04  0.12699999809E+01 0.  1.
       -4    1    3    3    0  502  0.29625592981E+03 -0.15750905608E+04 -0.69752992141E+03  0.17479208949E+04  0.12699999809E+01 0. -1.
</event>
<event>
 5   0  0.5740827E-07  0.3488407E+04  0.7818609E-02  0.8116543E-01
        2   -1    0    0  501    0  0.00000000000E+00  0.00000000000E+00  0.20037350946E+04  0.20037350946E+04  0.25500000920E-02 0.  1.
       -2   -1    0    0    0  501  0.00000000000E+00  0.00000000000E+00 -0.15182877472E+04  0.15182877472E+04  0.25500000920E-02 0. -1.
    10030    2    1    2    0    0  0.00000000000E+00  0.00000000000E+00  0.48544734738E+03  0.35220228418E+04  0.34884073402E+04 0.  0.
        2    1    3    3  502    0 -0.16567962561E+04 -0.53699471599E+03  0.33802224030E+03  0.17741466101E+04  0.25500000920E-02 0.  1.
       -2    1    3    3    0  502  0.16567962561E+04  0.53699471599E+03  0.14742510707E+03  0.17478762317E+04  0.25500000920E-02 0. -1.
</event>
<event>
 5   0  0.5677193E-07  0.3485930E+04  0.7818609E-02  0.8117133E-01
        2   -1    0    0  501    0  0.00000000000E+00  0.00000000000E+00  0.24882134968E+04  0.24882134968E+04  0.25500000920E-02 0.  1.
       -2   -1    0    0    0  501  0.00000000000E+00  0.00000000000E+00 -0.12209267131E+04  0.12209267131E+04  0.25500000920E-02 0. -1.
    10030    2    1    2    0    0  0.00000000000E+00  0.00000000000E+00  0.12672867837E+04  0.37091402099E+04  0.34859296184E+04 0.  0.
        3    1    3    3  502    0  0.36255693919E+03  0.86564146110E+03  0.21964101648E+04  0.23885142444E+04  0.10100000352E+00 0.  1.
       -3    1    3    3    0  502 -0.36255693919E+03 -0.86564146110E+03 -0.92912338107E+03  0.13206259655E+04  0.10100000352E+00 0. -1.
</event>
<event>
 5   0  0.1873457E-07  0.3684405E+04  0.7818609E-02  0.8071427E-01
       -1   -1    0    0    0  501  0.00000000000E+00  0.00000000000E+00  0.13894852172E+04  0.13894852172E+04  0.50400001928E-02 0. -1.
        1   -1    0    0  501    0  0.00000000000E+00  0.00000000000E+00 -0.24424228337E+04  0.24424228337E+04  0.50400001928E-02 0.  1.
    10030    2    1    2    0    0  0.00000000000E+00  0.00000000000E+00 -0.10529376165E+04  0.38319080510E+04  0.36844052012E+04 0.  0.
        3    1    3    3  502    0 -0.12062568138E+04 -0.13445298507E+04 -0.90274627516E+03  0.20193481294E+04  0.10100000352E+00 0.  1.
       -3    1    3    3    0  502  0.12062568138E+04  0.13445298507E+04 -0.15019134134E+03  0.18125599216E+04  0.10100000352E+00 0. -1.
</event>
<event>
 5   0  0.5677193E-07  0.3645485E+04  0.7818609E-02  0.8080152E-01
        2   -1    0    0  501    0  0.00000000000E+00  0.00000000000E+00  0.22607456204E+04  0.22607456204E+04  0.25500000920E-02 0. -1.
       -2   -1    0    0    0  501  0.00000000000E+00  0.00000000000E+00 -0.14695991523E+04  0.14695991523E+04  0.25500000920E-02 0.  1.
    10030    2    1    2    0    0  0.00000000000E+00  0.00000000000E+00  0.79114646810E+03  0.37303447728E+04  0.36454847949E+04 0.  0.
        3    1    3    3  502    0 -0.12010810301E+04  0.31245336837E+03 -0.97048084150E+03  0.15754541638E+04  0.10100000352E+00 0.  1.
       -3    1    3    3    0  502  0.12010810301E+04 -0.31245336837E+03  0.17616273096E+04  0.21548906089E+04  0.10100000352E+00 0. -1.
</event>
<event>
 5   0  0.1933647E-07  0.3511866E+04  0.7818609E-02  0.8110983E-01
        1   -1    0    0  501    0  0.00000000000E+00  0.00000000000E+00  0.27244067582E+04  0.27244067582E+04  0.50400001928E-02 0. -1.
       -1   -1    0    0    0  501  0.00000000000E+00  0.00000000000E+00 -0.11317331991E+04  0.11317331991E+04  0.50400001928E-02 0.  1.
    10030    2    1    2    0    0  0.00000000000E+00  0.00000000000E+00  0.15926735592E+04  0.38561399573E+04  0.35118664986E+04 0.  0.
        4    1    3    3  502    0  0.74857717410E+03 -0.11765250658E+04  0.19680557055E+04  0.24120165607E+04  0.12699999809E+01 0. -1.
       -4    1    3    3    0  502 -0.74857717410E+03  0.11765250658E+04 -0.37538214632E+03  0.14441233966E+04  0.12699999809E+01 0.  1.
</event>
<event>
 5   0  0.5554745E-07  0.3407152E+04  0.7818609E-02  0.8136153E-01
       -2   -1    0    0    0  501  0.00000000000E+00  0.00000000000E+00  0.14423431025E+04  0.14423431025E+04  0.25500000920E-02 0. -1.
        2   -1    0    0  501    0  0.00000000000E+00  0.00000000000E+00 -0.20121223175E+04  0.20121223175E+04  0.25500000920E-02 0.  1.
    10030    2    1    2    0    0  0.00000000000E+00  0.00000000000E+00 -0.56977921499E+03  0.34544654200E+04  0.34071517407E+04 0.  0.
        5    1    3    3  502    0 -0.11964813951E+04 -0.76388376797E+03  0.67002929007E+03  0.15697284731E+04  0.46999998093E+01 0. -1.
       -5    1    3    3    0  502  0.11964813951E+04  0.76388376797E+03 -0.12398085051E+04  0.18847369469E+04  0.46999998093E+01 0.  1.
</event>
<event>
 5   0  0.1873457E-07  0.3553929E+04  0.7818609E-02  0.8101127E-01
        1   -1    0    0  501    0  0.00000000000E+00  0.00000000000E+00  0.23733765385E+04  0.23733765385E+04  0.50400001928E-02 0.  1.
       -1   -1    0    0    0  501  0.00000000000E+00  0.00000000000E+00 -0.13304261070E+04  0.13304261070E+04  0.50400001928E-02 0. -1.
    10030    2    1    2    0    0  0.00000000000E+00  0.00000000000E+00  0.10429504315E+04  0.37038026455E+04  0.35539285916E+04 0.  0.
        3    1    3    3  502    0 -0.75033326812E+03  0.46860836569E+03  0.21275719708E+04  0.23041606530E+04  0.10100000352E+00 0.  1.
       -3    1    3    3    0  502  0.75033326812E+03 -0.46860836569E+03 -0.10846215393E+04  0.13996419925E+04  0.10100000352E+00 0. -1.
</event>
<event>
 5   0  0.5740827E-07  0.3483297E+04  0.7818609E-02  0.8117760E-01
        2   -1    0    0  501    0  0.00000000000E+00  0.00000000000E+00  0.26628377385E+04  0.26628377385E+04  0.25500000920E-02 0.  1.
       -2   -1    0    0    0  501  0.00000000000E+00  0.00000000000E+00 -0.11391378846E+04  0.11391378846E+04  0.25500000920E-02 0. -1.
    10030    2    1    2    0    0  0.00000000000E+00  0.00000000000E+00  0.15236998539E+04  0.38019756232E+04  0.34832969145E+04 0.  0.
        2    1    3    3  502    0  0.20288051314E+03 -0.13949831005E+04 -0.35456696087E+03  0.14535666765E+04  0.25500000920E-02 0. -1.
       -2    1    3    3    0  502 -0.20288051314E+03  0.13949831005E+04  0.18782668148E+04  0.23484089467E+04  0.25500000920E-02 0.  1.
</event>
<event>
 5   0  0.1908190E-07  0.3488835E+04  0.7818609E-02  0.8116441E-01
        1   -1    0    0  501    0  0.00000000000E+00  0.00000000000E+00  0.11475372454E+04  0.11475372454E+04  0.50400001928E-02 0. -1.
       -1   -1    0    0    0  501  0.00000000000E+00  0.00000000000E+00 -0.26517586828E+04  0.26517586828E+04  0.50400001928E-02 0.  1.
    10030    2    1    2    0    0  0.00000000000E+00  0.00000000000E+00 -0.15042214374E+04  0.37992959282E+04  0.34888346790E+04 0.  0.
        5    1    3    3  502    0  0.81797402070E+03 -0.11362543130E+03  0.92116942816E+03  0.12371610415E+04  0.46999998093E+01 0. -1.
       -5    1    3    3    0  502 -0.81797402070E+03  0.11362543130E+03 -0.24253908655E+04  0.25621348867E+04  0.46999998093E+01 0.  1.
</event>
<event>
 5   0  0.1897049E-07  0.3493024E+04  0.7818609E-02  0.8115445E-01
        1   -1    0    0  501    0  0.00000000000E+00  0.00000000000E+00  0.22564010802E+04  0.22564010802E+04  0.50400001928E-02 0. -1.
       -1   -1    0    0    0  501  0.00000000000E+00  0.00000000000E+00 -0.13518447458E+04  0.13518447458E+04  0.50400001928E-02 0.  1.
    10030    2    1    2    0    0  0.00000000000E+00  0.00000000000E+00  0.90455633441E+03  0.36082458260E+04  0.34930238732E+04 0.  0.
        2    1    3    3  502    0  0.11336813644E+03 -0.87792373621E+03  0.20074978081E+04  0.21940031610E+04  0.25500000920E-02 0. -1.
       -2    1    3    3    0  502 -0.11336813644E+03  0.87792373621E+03 -0.11029414737E+04  0.14142426650E+04  0.25500000920E-02 0.  1.
</event>
<event>
 5   0  0.1908190E-07  0.3497965E+04  0.7818609E-02  0.8114272E-01
        1   -1    0    0  501    0  0.00000000000E+00  0.00000000000E+00  0.16045730632E+04  0.16045730633E+04  0.50400001928E-02 0.  1.
       -1   -1    0    0    0  501  0.00000000000E+00  0.00000000000E+00 -0.19063884631E+04  0.19063884631E+04  0.50400001928E-02 0. -1.
    10030    2    1    2    0    0  0.00000000000E+00  0.00000000000E+00 -0.30181539985E+03  0.35109615264E+04  0.34979648803E+04 0.  0.
        5    1    3    3  502    0  0.12415093473E+03 -0.75980712302E+03 -0.17271556068E+04  0.18909809356E+04  0.46999998093E+01 0. -1.
       -5    1    3    3    0  502 -0.12415093473E+03  0.75980712302E+03  0.14253402070E+04  0.16199805907E+04  0.46999998093E+01 0.  1.
</event>
<event>
 5   0  0.5554745E-07  0.3498923E+04  0.7818609E-02  0.8114045E-01
       -2   -1    0    0    0  501  0.00000000000E+00  0.00000000000E+00  0.15642878794E+04  0.15642878794E+04  0.25500000920E-02 0.  1.
        2   -1    0    0  501    0  0.00000000000E+00  0.00000000000E+00 -0.19565556893E+04  0.19565556893E+04  0.25500000920E-02 0. -1.
    10030    2    1    2    0    0  0.00000000000E+00  0.00000000000E+00 -0.39226780994E+03  0.35208435687E+04  0.34989234631E+04 0.  0.
        5    1    3    3  502    0 -0.35366132972E+03  0.47958711569E+02  0.15272595902E+04  0.15684133129E+04  0.46999998093E+01 0.  1.
       -5    1    3    3    0  502  0.35366132972E+03 -0.47958711569E+02 -0.19195274001E+04  0.19524302559E+04  0.46999998093E+01 0. -1.
</event>
<event>
 5   0  0.1908190E-07  0.3502817E+04  0.7818609E-02  0.8113123E-01
       -1   -1    0    0    0  501  0.00000000000E+00  0.00000000000E+00  0.27506667372E+04  0.27506667372E+04  0.50400001928E-02 0.  1.
        1   -1    0    0  501    0  0.00000000000E+00  0.00000000000E+00 -0.11151592916E+04  0.11151592916E+04  0.50400001928E-02 0. -1.
    10030    2    1    2    0    0  0.00000000000E+00  0.00000000000E+00  0.16355074456E+04  0.38658260289E+04  0.35028169066E+04 0.  0.
        5    1    3    3  502    0 -0.81798307608E+03  0.38491083744E+02  0.25263664222E+04  0.26557724423E+04  0.46999998093E+01 0.  1.
       -5    1    3    3    0  502  0.81798307608E+03 -0.38491083744E+02 -0.89085897655E+03  0.12100535866E+04  0.46999998093E+01 0. -1.
</event>
<event>
 5   0  0.5707187E-07  0.3499263E+04  0.7818609E-02  0.8113965E-01
        2   -1    0    0  501    0  0.00000000000E+00  0.00000000000E+00  0.15870758544E+04  0.15870758544E+04  0.25500000920E-02 0. -1.
       -2   -1    0    0    0  501  0.00000000000E+00  0.00000000000E+00 -0.19288373197E+04  0.19288373197E+04  0.25500000920E-02 0.  1.
    10030    2    1    2    0    0  0.00000000000E+00  0.00000000000E+00 -0.34176146532E+03  0.35159131742E+04  0.34992634295E+04 0.  0.
        1    1    3    3  502    0 -0.87221257630E+03  0.14132057901E+04 -0.72423317125E+03  0.18117447584E+04  0.50400001928E-02 0.  1.
       -1    1    3    3    0  502  0.87221257630E+03 -0.14132057901E+04  0.38247170594E+03  0.17041684157E+04  0.50400001928E-02 0. -1.
</event>
<event>
 5   0  0.5554745E-07  0.3519431E+04  0.7818609E-02  0.8109200E-01
        2   -1    0    0  501    0  0.00000000000E+00  0.00000000000E+00  0.18848378767E+04  0.18848378767E+04  0.25500000920E-02 0. -1.
       -2   -1    0    0    0  501  0.00000000000E+00  0.00000000000E+00 -0.16428990002E+04  0.16428990002E+04  0.25500000920E-02 0.  1.
    10030    2    1    2    0    0  0.00000000000E+00  0.00000000000E+00  0.24193887646E+03  0.35277368769E+04  0.35194307853E+04 0.  0.
        5    1    3    3  502    0 -0.35928236650E+03 -0.14532584232E+04  0.10481022775E+04  0.18274529645E+04  0.46999998093E+01 0. -1.
       -5    1    3    3    0  502  0.35928236650E+03  0.14532584232E+04 -0.80616340100E+03  0.17002839124E+04  0.46999998093E+01 0.  1.
</event>
<event>
 5   0  0.5554745E-07  0.3461804E+04  0.7818609E-02  0.8122902E-01
       -2   -1    0    0    0  501  0.00000000000E+00  0.00000000000E+00  0.17387795713E+04  0.17387795713E+04  0.25500000920E-02 0. -1.
        2   -1    0    0  501    0  0.00000000000E+00  0.00000000000E+00 -0.17230605411E+04  0.17230605411E+04  0.25500000920E-02 0.  1.
    10030    2    1    2    0    0  0.00000000000E+00  0.00000000000E+00  0.15719030266E+02  0.34618401124E+04  0.34618044248E+04 0.  0.
        5    1    3    3  502    0  0.14066680724E+04 -0.26155363684E+03 -0.96625268169E+03  0.17264969463E+04  0.46999998093E+01 0. -1.
       -5    1    3    3    0  502 -0.14066680724E+04  0.26155363684E+03  0.98197171196E+03  0.17353431660E+04  0.46999998093E+01 0.  1.
</event>
<event>
 5   0  0.1908190E-07  0.3505022E+04  0.7818609E-02  0.8112601E-01
       -1   -1    0    0    0  501  0.00000000000E+00  0.00000000000E+00  0.13324707536E+04  0.13324707536E+04  0.50400001928E-02 0. -1.
        1   -1    0    0  501    0  0.00000000000E+00  0.00000000000E+00 -0.23049628105E+04  0.23049628105E+04  0.50400001928E-02 0.  1.
    10030    2    1    2    0    0  0.00000000000E+00  0.00000000000E+00 -0.97249205684E+03  0.36374335641E+04  0.35050224154E+04 0.  0.
        5    1    3    3  502    0 -0.95373263359E+03 -0.12945308799E+04 -0.12096129409E+04  0.20121137374E+04  0.46999998093E+01 0.  1.
       -5    1    3    3    0  502  0.95373263359E+03  0.12945308799E+04  0.23712088406E+03  0.16253198267E+04  0.46999998093E+01 0. -1.
</event>
<event>
 5   0  0.1908190E-07  0.3547729E+04  0.7818609E-02  0.8102571E-01
       -1   -1    0    0    0  501  0.00000000000E+00  0.00000000000E+00  0.11459307326E+04  0.11459307326E+04  0.50400001928E-02 0.  1.
        1   -1    0    0  501    0  0.00000000000E+00  0.00000000000E+00 -0.27458863122E+04  0.27458863122E+04  0.50400001928E-02 0. -1.
    10030    2    1    2    0    0  0.00000000000E+00  0.00000000000E+00 -0.15999555796E+04  0.38918170448E+04  0.35477291404E+04 0.  0.
        5    1    3    3  502    0 -0.14065628803E+04 -0.69830148505E+03 -0.17049294522E+04  0.23179410319E+04  0.46999998093E+01 0.  1.
       -5    1    3    3    0  502  0.14065628803E+04  0.69830148505E+03  0.10497387267E+03  0.15738760129E+04  0.46999998093E+01 0. -1.
</event>
<event>
 5   0  0.5554745E-07  0.3479894E+04  0.7818609E-02  0.8118572E-01
        2   -1    0    0  501    0  0.00000000000E+00  0.00000000000E+00  0.14522238686E+04  0.14522238686E+04  0.25500000920E-02 0. -1.
       -2   -1    0    0    0  501  0.00000000000E+00  0.00000000000E+00 -0.20846749397E+04  0.20846749397E+04  0.25500000920E-02 0.  1.
    10030    2    1    2    0    0  0.00000000000E+00  0.00000000000E+00 -0.63245107112E+03  0.35368988084E+04  0.34798935075E+04 0.  0.
        5    1    3    3  502    0  0.13184125778E+04  0.84238873869E+03 -0.10899862412E+04  0.19068095365E+04  0.46999998093E+01 0.  1.
       -5    1    3    3    0  502 -0.13184125778E+04 -0.84238873869E+03  0.45753517006E+03  0.16300892719E+04  0.46999998093E+01 0. -1.
</event>
<event>
 5   0  0.1933647E-07  0.3529697E+04  0.7818609E-02  0.8106788E-01
       -1   -1    0    0    0  501  0.00000000000E+00  0.00000000000E+00  0.16241020739E+04  0.16241020739E+04  0.50400001928E-02 0.  1.
        1   -1    0    0  501    0  0.00000000000E+00  0.00000000000E+00 -0.19177922521E+04  0.19177922521E+04  0.50400001928E-02 0. -1.
    10030    2    1    2    0    0  0.00000000000E+00  0.00000000000E+00 -0.29369017819E+03  0.35418943261E+04  0.35296970828E+04 0.  0.
        4    1    3    3  502    0  0.41907274528E+03  0.12763841808E+04  0.10016229898E+04  0.16757173895E+04  0.12699999809E+01 0.  1.
       -4    1    3    3    0  502 -0.41907274528E+03 -0.12763841808E+04 -0.12953131679E+04  0.18661769366E+04  0.12699999809E+01 0. -1.
</event>
<event>
 5   0  0.5707187E-07  0.3503893E+04  0.7818609E-02  0.8112868E-01
        2   -1    0    0  501    0  0.00000000000E+00  0.00000000000E+00  0.21704407850E+04  0.21704407850E+04  0.25500000920E-02 0. -1.
       -2   -1    0    0    0  501  0.00000000000E+00  0.00000000000E+00 -0.14141442946E+04  0.14141442946E+04  0.25500000920E-02 0.  1.
    10030    2    1    2    0    0  0.00000000000E+00  0.00000000000E+00  0.75629649037E+03  0.35845850796E+04  0.35038929510E+04 0.  0.
        1    1    3    3  502    0  0.77115824773E+03 -0.15686895343E+04  0.25777566694E+03  0.17668956371E+04  0.50400001928E-02 0. -1.
       -1    1    3    3    0  502 -0.77115824773E+03  0.15686895343E+04  0.49852082343E+03  0.18176894425E+04  0.50400001928E-02 0.  1.
</event>
<event>
 5   0  0.1908190E-07  0.3504608E+04  0.7818609E-02  0.8112699E-01
       -1   -1    0    0    0  501  0.00000000000E+00  0.00000000000E+00  0.27559771509E+04  0.27559771509E+04  0.50400001928E-02 0.  1.
        1   -1    0    0  501    0  0.00000000000E+00  0.00000000000E+00 -0.11141492655E+04  0.11141492655E+04  0.50400001928E-02 0. -1.
    10030    2    1    2    0    0  0.00000000000E+00  0.00000000000E+00  0.16418278854E+04  0.38701264164E+04  0.35046083481E+04 0.  0.
        5    1    3    3  502    0  0.12697134609E+04 -0.10930657834E+04  0.25396473648E+03  0.16945457376E+04  0.46999998093E+01 0.  1.
       -5    1    3    3    0  502 -0.12697134609E+04  0.10930657834E+04  0.13878631490E+04  0.21755806788E+04  0.46999998093E+01 0. -1.
</event>
<event>
 5   0  0.1866421E-07  0.3535100E+04  0.7818609E-02  0.8105522E-01
        1   -1    0    0  501    0  0.00000000000E+00  0.00000000000E+00  0.18798614183E+04  0.18798614183E+04  0.50400001928E-02 0. -1.
       -1   -1    0    0    0  501  0.00000000000E+00  0.00000000000E+00 -0.16619486927E+04  0.16619486927E+04  0.50400001928E-02 0.  1.
    10030    2    1    2    0    0  0.00000000000E+00  0.00000000000E+00  0.21791272554E+03  0.35418101110E+04  0.35351001268E+04 0.  0.
        1    1    3    3  502    0  0.38017667448E+03  0.69920902376E+03  0.16901806508E+04  0.18681911560E+04  0.50400001928E-02 0. -1.
       -1    1    3    3    0  502 -0.38017667448E+03 -0.69920902376E+03 -0.14722679253E+04  0.16736189550E+04  0.50400001928E-02 0.  1.
</event>
<event>
 5   0  0.1866421E-07  0.3507354E+04  0.7818609E-02  0.8112049E-01
       -1   -1    0    0    0  501  0.00000000000E+00  0.00000000000E+00  0.10258875650E+04  0.10258875650E+04  0.50400001928E-02 0.  1.
        1   -1    0    0  501    0  0.00000000000E+00  0.00000000000E+00 -0.29977785847E+04  0.29977785847E+04  0.50400001928E-02 0. -1.
    10030    2    1    2    0    0  0.00000000000E+00  0.00000000000E+00 -0.19718910198E+04  0.40236661497E+04  0.35073544290E+04 0.  0.
        1    1    3    3  502    0  0.66811700897E+03 -0.55170160052E+03  0.76317241140E+03  0.11546372258E+04  0.50400001928E-02 0.  1.
       -1    1    3    3    0  502 -0.66811700897E+03  0.55170160052E+03 -0.27350634312E+04  0.28690289239E+04  0.50400001928E-02 0. -1.
</event>
<event>
 5   0  0.1933647E-07  0.3501494E+04  0.7818609E-02  0.8113436E-01
       -1   -1    0    0    0  501  0.00000000000E+00  0.00000000000E+00  0.22820845195E+04  0.22820845195E+04  0.50400001928E-02 0.  1.
        1   -1    0    0  501    0  0.00000000000E+00  0.00000000000E+00 -0.13431208615E+04  0.13431208615E+04  0.50400001928E-02 0. -1.
    10030    2    1    2    0    0  0.00000000000E+00  0.00000000000E+00  0.93896365806E+03  0.36252053810E+04  0.35014941530E+04 0.  0.
        4    1    3    3  502    0 -0.18193948625E+02  0.10492938121E+04 -0.98137309858E+03  0.14368170709E+04  0.12699999809E+01 0. -1.
       -4    1    3    3    0  502  0.18193948625E+02 -0.10492938121E+04  0.19203367566E+04  0.21883883101E+04  0.12699999809E+01 0.  1.
</event>
<event>
 5   0  0.5573334E-07  0.3352718E+04  0.7818609E-02  0.8149609E-01
        2   -1    0    0  501    0  0.00000000000E+00  0.00000000000E+00  0.18779849796E+04  0.18779849796E+04  0.25500000920E-02 0.  1.
       -2   -1    0    0    0  501  0.00000000000E+00  0.00000000000E+00 -0.14963799628E+04  0.14963799629E+04  0.25500000920E-02 0. -1.
    10030    2    1    2    0    0  0.00000000000E+00  0.00000000000E+00  0.38160501673E+03  0.33743649424E+04  0.33527177597E+04 0.  0.
        4    1    3    3  502    0  0.14519963305E+04 -0.94501860173E+02  0.10286155432E+04  0.17819302720E+04  0.12699999809E+01 0.  1.
       -4    1    3    3    0  502 -0.14519963305E+04  0.94501860173E+02 -0.64701052652E+03  0.15924346705E+04  0.12699999809E+01 0. -1.
</event>
<event>
 5   0  0.5707187E-07  0.3497501E+04  0.7818609E-02  0.8114382E-01
        2   -1    0    0  501    0  0.00000000000E+00  0.00000000000E+00  0.25260580890E+04  0.25260580890E+04  0.25500000920E-02 0. -1.
       -2   -1    0    0    0  501  0.00000000000E+00  0.00000000000E+00 -0.12106329330E+04  0.12106329330E+04  0.25500000920E-02 0.  1.
    10030    2    1    2    0    0  0.00000000000E+00  0.00000000000E+00  0.13154251560E+04  0.37366910220E+04  0.34975014586E+04 0.  0.
        1    1    3    3  502    0  0.45359237004E+03 -0.10336349530E+04  0.20847143131E+04  0.23706920976E+04  0.50400001928E-02 0. -1.
       -1    1    3    3    0  502 -0.45359237004E+03  0.10336349530E+04 -0.76928915703E+03  0.13659989244E+04  0.50400001928E-02 0.  1.
</event>
<event>
 5   0  0.1866421E-07  0.3528898E+04  0.7818609E-02  0.8106975E-01
        1   -1    0    0  501    0  0.00000000000E+00  0.00000000000E+00  0.10304870957E+04  0.10304870957E+04  0.50400001928E-02 0. -1.
       -1   -1    0    0    0  501  0.00000000000E+00  0.00000000000E+00 -0.30211732713E+04  0.30211732713E+04  0.50400001928E-02 0.  1.
    10030    2    1    2    0    0  0.00000000000E+00  0.00000000000E+00 -0.19906861756E+04  0.40516603670E+04  0.35288978846E+04 0.  0.
        1    1    3    3  502    0 -0.13966840060E+04 -0.83735300732E+02 -0.22295468265E+04  0.26322265983E+04  0.50400001928E-02 0.  1.
       -1    1    3    3    0  502  0.13966840060E+04  0.83735300732E+02  0.23886065090E+03  0.14194337687E+04  0.50400001928E-02 0. -1.
</event>
<event>
 5   0  0.5554745E-07  0.3494015E+04  0.7818609E-02  0.8115210E-01
       -2   -1    0    0    0  501  0.00000000000E+00  0.00000000000E+00  0.15214370353E+04  0.15214370353E+04  0.25500000920E-02 0.  1.
        2   -1    0    0  501    0  0.00000000000E+00  0.00000000000E+00 -0.20060217131E+04  0.20060217131E+04  0.25500000920E-02 0. -1.
    10030    2    1    2    0    0  0.00000000000E+00  0.00000000000E+00 -0.48458467785E+03  0.35274587484E+04  0.34940152993E+04 0.  0.
        5    1    3    3  502    0 -0.13897782347E+04 -0.87392381383E+03  0.36074168027E+03  0.16808875703E+04  0.46999998093E+01 0. -1.
       -5    1    3    3    0  502  0.13897782347E+04  0.87392381383E+03 -0.84532635812E+03  0.18465711781E+04  0.46999998093E+01 0.  1.
</event>
<event>
 5   0  0.5677193E-07  0.3542891E+04  0.7818609E-02  0.8103700E-01
        2   -1    0    0  501    0  0.00000000000E+00  0.00000000000E+00  0.23274859391E+04  0.23274859391E+04  0.25500000920E-02 0.  1.
       -2   -1    0    0    0  501  0.00000000000E+00  0.00000000000E+00 -0.13482444011E+04  0.13482444011E+04  0.25500000920E-02 0. -1.
    10030    2    1    2    0    0  0.00000000000E+00  0.00000000000E+00  0.97924153801E+03  0.36757303403E+04  0.35428914102E+04 0.  0.
        3    1    3    3  502    0  0.26843185225E+03  0.80020785088E+03  0.21054602808E+04  0.22683366744E+04  0.10100000352E+00 0.  1.
       -3    1    3    3    0  502 -0.26843185225E+03 -0.80020785088E+03 -0.11262187428E+04  0.14073936659E+04  0.10100000352E+00 0. -1.
</event>
<event>
 5   0  0.5573334E-07  0.3422175E+04  0.7818609E-02  0.8132485E-01
        2   -1    0    0  501    0  0.00000000000E+00  0.00000000000E+00  0.16162522862E+04  0.16162522862E+04  0.25500000920E-02 0. -1.
       -2   -1    0    0    0  501  0.00000000000E+00  0.00000000000E+00 -0.18114869496E+04  0.18114869496E+04  0.25500000920E-02 0.  1.
    10030    2    1    2    0    0  0.00000000000E+00  0.00000000000E+00 -0.19523466346E+03  0.34277392358E+04  0.34221747026E+04 0.  0.
        4    1    3    3  502    0  0.81694187836E+03  0.21415338116E+03  0.13929430730E+04  0.16289713690E+04  0.12699999809E+01 0. -1.
       -4    1    3    3    0  502 -0.81694187836E+03 -0.21415338116E+03 -0.15881777365E+04  0.17987678669E+04  0.12699999809E+01 0.  1.
</event>
<event>
 5   0  0.5740827E-07  0.3500714E+04  0.7818609E-02  0.8113621E-01
       -2   -1    0    0    0  501  0.00000000000E+00  0.00000000000E+00  0.18338188231E+04  0.18338188231E+04  0.25500000920E-02 0. -1.
        2   -1    0    0  501    0  0.00000000000E+00  0.00000000000E+00 -0.16706934917E+04  0.16706934917E+04  0.25500000920E-02 0.  1.
    10030    2    1    2    0    0  0.00000000000E+00  0.00000000000E+00  0.16312533131E+03  0.35045123148E+04  0.35007137402E+04 0.  0.
        2    1    3    3  502    0  0.63916400847E+03  0.88778356358E+03  0.14494489634E+04  0.18159274718E+04  0.25500000920E-02 0. -1.
       -2    1    3    3    0  502 -0.63916400847E+03 -0.88778356358E+03 -0.12863236321E+04  0.16885848430E+04  0.25500000920E-02 0.  1.
</event>
<event>
 5   0  0.5740827E-07  0.3504732E+04  0.7818609E-02  0.8112669E-01
       -2   -1    0    0    0  501  0.00000000000E+00  0.00000000000E+00  0.14401032543E+04  0.14401032543E+04  0.25500000920E-02 0.  1.
        2   -1    0    0  501    0  0.00000000000E+00  0.00000000000E+00 -0.21323381838E+04  0.21323381838E+04  0.25500000920E-02 0. -1.
    10030    2    1    2    0    0  0.00000000000E+00  0.00000000000E+00 -0.69223492945E+03  0.35724414381E+04  0.35047323194E+04 0.  0.
        2    1    3    3  502    0  0.16045364128E+03  0.35173623340E+03 -0.20883257877E+04  0.21238098654E+04  0.25500000920E-02 0. -1.
       -2    1    3    3    0  502 -0.16045364128E+03 -0.35173623340E+03  0.13960908582E+04  0.14486315727E+04  0.25500000920E-02 0.  1.
</event>
<event>
 5   0  0.5740827E-07  0.3125268E+04  0.7818609E-02  0.8208837E-01
        2   -1    0    0  501    0  0.00000000000E+00  0.00000000000E+00  0.12881480926E+04  0.12881480926E+04  0.25500000920E-02 0.  1.
       -2   -1    0    0    0  501  0.00000000000E+00  0.00000000000E+00 -0.18956084319E+04  0.18956084319E+04  0.25500000920E-02 0. -1.
    10030    2    1    2    0    0  0.00000000000E+00  0.00000000000E+00 -0.60746033933E+03  0.31837565244E+04  0.31252675954E+04 0.  0.
        2    1    3    3  502    0  0.78183194669E+02 -0.37717752804E+02  0.12856900013E+04  0.12886170961E+04  0.25500000920E-02 0.  1.
       -2    1    3    3    0  502 -0.78183194669E+02  0.37717752804E+02 -0.18931503406E+04  0.18951394284E+04  0.25500000920E-02 0. -1.
</event>
<event>
 5   0  0.5677193E-07  0.3474498E+04  0.7818609E-02  0.8119860E-01
        2   -1    0    0  501    0  0.00000000000E+00  0.00000000000E+00  0.16391442204E+04  0.16391442204E+04  0.25500000920E-02 0.  1.
       -2   -1    0    0    0  501  0.00000000000E+00  0.00000000000E+00 -0.18412252576E+04  0.18412252576E+04  0.25500000920E-02 0. -1.
    10030    2    1    2    0    0  0.00000000000E+00  0.00000000000E+00 -0.20208103723E+03  0.34803694780E+04  0.34744977993E+04 0.  0.
        3    1    3    3  502    0  0.11895696947E+04 -0.12654636297E+04 -0.14059741513E+03  0.17424815350E+04  0.10100000352E+00 0. -1.
       -3    1    3    3    0  502 -0.11895696947E+04  0.12654636297E+04 -0.61483622099E+02  0.17378879430E+04  0.10100000352E+00 0.  1.
</event>
<event>
 5   0  0.5573334E-07  0.3508168E+04  0.7818609E-02  0.8111857E-01
       -2   -1    0    0    0  501  0.00000000000E+00  0.00000000000E+00  0.19719023985E+04  0.19719023985E+04  0.25500000920E-02 0. -1.
        2   -1    0    0  501    0  0.00000000000E+00  0.00000000000E+00 -0.15603263559E+04  0.15603263559E+04  0.25500000920E-02 0.  1.
    10030    2    1    2    0    0  0.00000000000E+00  0.00000000000E+00  0.41157604254E+03  0.35322287544E+04  0.35081683447E+04 0.  0.
        4    1    3    3  502    0 -0.17361558645E+04  0.24452232138E+03  0.25888793559E+03  0.17723015905E+04  0.12699999809E+01 0.  1.
       -4    1    3    3    0  502  0.17361558645E+04 -0.24452232138E+03  0.15268810695E+03  0.17599271639E+04  0.12699999809E+01 0. -1.
</event>
<event>
 5   0  0.5707187E-07  0.3315476E+04  0.7818609E-02  0.8158969E-01
       -2   -1    0    0    0  501  0.00000000000E+00  0.00000000000E+00  0.12954301261E+04  0.12954301261E+04  0.25500000920E-02 0. -1.
        2   -1    0    0  501    0  0.00000000000E+00  0.00000000000E+00 -0.21213769365E+04  0.21213769365E+04  0.25500000920E-02 0.  1.
    10030    2    1    2    0    0  0.00000000000E+00  0.00000000000E+00 -0.82594681041E+03  0.34168070625E+04  0.33154761904E+04 0.  0.
        1    1    3    3  502    0  0.50492240321E+03  0.10167939871E+04  0.83195306472E+03  0.14074667127E+04  0.50400001928E-02 0. -1.
       -1    1    3    3    0  502 -0.50492240321E+03 -0.10167939871E+04 -0.16578998751E+04  0.20093403498E+04  0.50400001928E-02 0.  1.
</event>
<event>
 5   0  0.1866421E-07  0.3492120E+04  0.7818609E-02  0.8115660E-01
        1   -1    0    0  501    0  0.00000000000E+00  0.00000000000E+00  0.17570617416E+04  0.17570617417E+04  0.50400001928E-02 0.  1.
       -1   -1    0    0    0  501  0.00000000000E+00  0.00000000000E+00 -0.17351273247E+04  0.17351273247E+04  0.50400001928E-02 0. -1.
    10030    2    1    2    0    0  0.00000000000E+00  0.00000000000E+00  0.21934416991E+02  0.34921890663E+04  0.34921201807E+04 0.  0.
        1    1    3    3  502    0 -0.87302961965E+03  0.11166729107E+04 -0.10086541658E+04  0.17396902979E+04  0.50400001928E-02 0. -1.
       -1    1    3    3    0  502  0.87302961965E+03 -0.11166729107E+04  0.10305885828E+04  0.17524987684E+04  0.50400001928E-02 0.  1.
</event>
<event>
 5   0  0.1873457E-07  0.3498275E+04  0.7818609E-02  0.8114199E-01
       -1   -1    0    0    0  501  0.00000000000E+00  0.00000000000E+00  0.32002573366E+04  0.32002573366E+04  0.50400001928E-02 0.  1.
        1   -1    0    0  501    0  0.00000000000E+00  0.00000000000E+00 -0.95601105125E+03  0.95601105126E+03  0.50400001928E-02 0. -1.
    10030    2    1    2    0    0  0.00000000000E+00  0.00000000000E+00  0.22442462853E+04  0.41562683879E+04  0.34982746494E+04 0.  0.
        3    1    3    3  502    0 -0.80211998471E+03  0.14832842802E+04  0.57000890743E+03  0.17800109242E+04  0.10100000352E+00 0. -1.
       -3    1    3    3    0  502  0.80211998471E+03 -0.14832842802E+04  0.16742373779E+04  0.23762574636E+04  0.10100000352E+00 0.  1.
</event>
<event>
 5   0  0.1866421E-07  0.3473102E+04  0.7818609E-02  0.8120194E-01
        1   -1    0    0  501    0  0.00000000000E+00  0.00000000000E+00  0.20432630330E+04  0.20432630330E+04  0.50400001928E-02 0.  1.
       -1   -1    0    0    0  501  0.00000000000E+00  0.00000000000E+00 -0.14758788582E+04  0.14758788582E+04  0.50400001928E-02 0. -1.
    10030    2    1    2    0    0  0.00000000000E+00  0.00000000000E+00  0.56738417479E+03  0.35191418911E+04  0.34731016179E+04 0.  0.
        1    1    3    3  502    0  0.43524649879E+03  0.47421885335E+03  0.19179225902E+04  0.20230546453E+04  0.50400001928E-02 0.  1.
       -1    1    3    3    0  502 -0.43524649879E+03 -0.47421885335E+03 -0.13505384155E+04  0.14960872459E+04  0.50400001928E-02 0. -1.
</event>
<event>
 5   0  0.5573334E-07  0.3473654E+04  0.7818609E-02  0.8120062E-01
        2   -1    0    0  501    0  0.00000000000E+00  0.00000000000E+00  0.17261014151E+04  0.17261014151E+04  0.25500000920E-02 0.  1.
       -2   -1    0    0    0  501  0.00000000000E+00  0.00000000000E+00 -0.17476195513E+04  0.17476195513E+04  0.25500000920E-02 0. -1.
    10030    2    1    2    0    0  0.00000000000E+00  0.00000000000E+00 -0.21518136223E+02  0.34737209663E+04  0.34736543181E+04 0.  0.
        4    1    3    3  502    0 -0.11900943130E+04 -0.10041329625E+04  0.75864472910E+03  0.17320943733E+04  0.12699999809E+01 0.  1.
       -4    1    3    3    0  502  0.11900943130E+04  0.10041329625E+04 -0.78016286532E+03  0.17416265930E+04  0.12699999809E+01 0. -1.
</event>
<event>
 5   0  0.5740827E-07  0.3496936E+04  0.7818609E-02  0.8114517E-01
        2   -1    0    0  501    0  0.00000000000E+00  0.00000000000E+00  0.18750831145E+04  0.18750831145E+04  0.25500000920E-02 0. -1.
       -2   -1    0    0    0  501  0.00000000000E+00  0.00000000000E+00 -0.16304022513E+04  0.16304022513E+04  0.25500000920E-02 0.  1.
    10030    2    1    2    0    0  0.00000000000E+00  0.00000000000E+00  0.24468086318E+03  0.35054853658E+04  0.34969356478E+04 0.  0.
        2    1    3    3  502    0  0.90104696825E+03 -0.59676099937E+03  0.15001572659E+04  0.18489135058E+04  0.25500000920E-02 0. -1.
       -2    1    3    3    0  502 -0.90104696825E+03  0.59676099937E+03 -0.12554764027E+04  0.16565718600E+04  0.25500000920E-02 0.  1.
</event>
<event>
 5   0  0.5740827E-07  0.3520310E+04  0.7818609E-02  0.8108994E-01
        2   -1    0    0  501    0  0.00000000000E+00  0.00000000000E+00  0.28212103053E+04  0.28212103053E+04  0.25500000920E-02 0. -1.
       -2   -1    0    0    0  501  0.00000000000E+00  0.00000000000E+00 -0.10981618468E+04  0.10981618468E+04  0.25500000920E-02 0.  1.
    10030    2    1    2    0    0  0.00000000000E+00  0.00000000000E+00  0.17230484585E+04  0.39193721520E+04  0.35203099403E+04 0.  0.
        2    1    3    3  502    0 -0.60304174252E+03  0.92114639483E+03 -0.66746217384E+03  0.12875075834E+04  0.25500000920E-02 0.  1.
       -2    1    3    3    0  502  0.60304174252E+03 -0.92114639483E+03  0.23905106324E+04  0.26318645686E+04  0.25500000920E-02 0. -1.
</event>
<event>
 5   0  0.5707187E-07  0.3487275E+04  0.7818609E-02  0.8116812E-01
       -2   -1    0    0    0  501  0.00000000000E+00  0.00000000000E+00  0.14332560330E+04  0.14332560330E+04  0.25500000920E-02 0. -1.
        2   -1    0    0  501    0  0.00000000000E+00  0.00000000000E+00 -0.21212343828E+04  0.21212343828E+04  0.25500000920E-02 0.  1.
    10030    2    1    2    0    0  0.00000000000E+00  0.00000000000E+00 -0.68797834978E+03  0.35544904158E+04  0.34872751406E+04 0.  0.
        1    1    3    3  502    0 -0.27311571200E+03  0.36903098299E+02 -0.20988938270E+04  0.21169103259E+04  0.50400001928E-02 0.  1.
       -1    1    3    3    0  502  0.27311571200E+03 -0.36903098299E+02  0.14109154773E+04  0.14375800899E+04  0.50400001928E-02 0. -1.
</event>
<event>
 5   0  0.5554745E-07  0.3513315E+04  0.7818609E-02  0.8110642E-01
       -2   -1    0    0    0  501  0.00000000000E+00  0.00000000000E+00  0.16415472361E+04  0.16415472361E+04  0.25500000920E-02 0.  1.
        2   -1    0    0  501    0  0.00000000000E+00  0.00000000000E+00 -0.18798397724E+04  0.18798397724E+04  0.25500000920E-02 0. -1.
    10030    2    1    2    0    0  0.00000000000E+00  0.00000000000E+00 -0.23829253631E+03  0.35213870085E+04  0.35133151197E+04 0.  0.
        5    1    3    3  502    0  0.16270945687E+04  0.64333761733E+03 -0.27604238583E+03  0.17713106769E+04  0.46999998093E+01 0.  1.
       -5    1    3    3    0  502 -0.16270945687E+04 -0.64333761733E+03  0.37749849515E+02  0.17500763316E+04  0.46999998093E+01 0. -1.
</event>
<event>
 5   0  0.1897049E-07  0.3519462E+04  0.7818609E-02  0.8109193E-01
       -1   -1    0    0    0  501  0.00000000000E+00  0.00000000000E+00  0.14378288123E+04  0.14378288123E+04  0.50400001928E-02 0.  1.
        1   -1    0    0  501    0  0.00000000000E+00  0.00000000000E+00 -0.21537004705E+04  0.21537004705E+04  0.50400001928E-02 0. -1.
    10030    2    1    2    0    0  0.00000000000E+00  0.00000000000E+00 -0.71587165816E+03  0.35915292828E+04  0.35194616575E+04 0.  0.
        2    1    3    3  502    0 -0.15152736097E+04  0.65850210309E+03 -0.97612372930E+03  0.19189832378E+04  0.25500000920E-02 0. -1.
       -2    1    3    3    0  502  0.15152736097E+04 -0.65850210309E+03  0.26025207114E+03  0.16725460450E+04  0.25500000920E-02 0.  1.
</event>
<event>
 5   0  0.1873457E-07  0.3625698E+04  0.7818609E-02  0.8084631E-01
       -1   -1    0    0    0  501  0.00000000000E+00  0.00000000000E+00  0.18399761503E+04  0.18399761503E+04  0.50400001928E-02 0. -1.
        1   -1    0    0  501    0  0.00000000000E+00  0.00000000000E+00 -0.17861214608E+04  0.17861214608E+04  0.50400001928E-02 0.  1.
    10030    2    1    2    0    0  0.00000000000E+00  0.00000000000E+00  0.53854689472E+02  0.36260976111E+04  0.36256976649E+04 0.  0.
        3    1    3    3  502    0  0.56512451211E+03 -0.10912805379E+04 -0.13059469279E+04  0.17932529981E+04  0.10100000352E+00 0.  1.
       -3    1    3    3    0  502 -0.56512451211E+03  0.10912805379E+04  0.13598016173E+04  0.18328446130E+04  0.10100000352E+00 0. -1.
</event>
<event>
 5   0  0.1866421E-07  0.3502630E+04  0.7818609E-02  0.8113167E-01
       -1   -1    0    0    0  501  0.00000000000E+00  0.00000000000E+00  0.13094923323E+04  0.13094923323E+04  0.50400001928E-02 0. -1.
        1   -1    0    0  501    0  0.00000000000E+00  0.00000000000E+00 -0.23422082392E+04  0.23422082392E+04  0.50400001928E-02 0.  1.
    10030    2    1    2    0    0  0.00000000000E+00  0.00000000000E+00 -0.10327159069E+04  0.36517005715E+04  0.35026297149E+04 0.  0.
        1    1    3    3  502    0  0.13840286148E+04  0.78685274363E+03 -0.12770917559E+04  0.20409889269E+04  0.50400001928E-02 0. -1.
       -1    1    3    3    0  502 -0.13840286148E+04 -0.78685274363E+03  0.24437584903E+03  0.16107116447E+04  0.50400001928E-02 0.  1.
</event>
<event>
 5   0  0.1897049E-07  0.3504792E+04  0.7818609E-02  0.8112655E-01
        1   -1    0    0  501    0  0.00000000000E+00  0.00000000000E+00  0.19120471153E+04  0.19120471153E+04  0.50400001928E-02 0. -1.
       -1   -1    0    0    0  501  0.00000000000E+00  0.00000000000E+00 -0.16060750551E+04  0.16060750551E+04  0.50400001928E-02 0.  1.
    10030    2    1    2    0    0  0.00000000000E+00  0.00000000000E+00  0.30597206023E+03  0.35181221704E+04  0.35047916777E+04 0.  0.
        2    1    3    3  502    0  0.12762324913E+04  0.96874045017E+03 -0.55940600084E+03  0.16971041528E+04  0.25500000920E-02 0.  1.
       -2    1    3    3    0  502 -0.12762324913E+04 -0.96874045017E+03  0.86537806108E+03  0.18210180176E+04  0.25500000920E-02 0. -1.
</event>
<event>
 5   0  0.5677193E-07  0.3469290E+04  0.7818609E-02  0.8121107E-01
       -2   -1    0    0    0  501  0.00000000000E+00  0.00000000000E+00  0.18489033537E+04  0.18489033537E+04  0.25500000920E-02 0. -1.
        2   -1    0    0  501    0  0.00000000000E+00  0.00000000000E+00 -0.16274476483E+04  0.16274476483E+04  0.25500000920E-02 0.  1.
    10030    2    1    2    0    0  0.00000000000E+00  0.00000000000E+00  0.22145570549E+03  0.34763510020E+04  0.34692900801E+04 0.  0.
        3    1    3    3  502    0  0.16836413657E+04 -0.41320843956E+03  0.17088287466E+03  0.17420075861E+04  0.10100000352E+00 0.  1.
       -3    1    3    3    0  502 -0.16836413657E+04  0.41320843956E+03  0.50572830828E+02  0.17343434159E+04  0.10100000352E+00 0. -1.
</event>
<event>
 5   0  0.1897049E-07  0.3510044E+04  0.7818609E-02  0.8111414E-01
        1   -1    0    0  501    0  0.00000000000E+00  0.00000000000E+00  0.19313470480E+04  0.19313470480E+04  0.50400001928E-02 0.  1.
       -1   -1    0    0    0  501  0.00000000000E+00  0.00000000000E+00 -0.15947944464E+04  0.15947944464E+04  0.50400001928E-02 0. -1.
    10030    2    1    2    0    0  0.00000000000E+00  0.00000000000E+00  0.33655260164E+03  0.35261414944E+04  0.35100436158E+04 0.  0.
        2    1    3    3  502    0  0.13107286434E+03 -0.11306082219E+04 -0.11737570991E+04  0.16349803592E+04  0.25500000920E-02 0. -1.
       -2    1    3    3    0  502 -0.13107286434E+03  0.11306082219E+04  0.15103097007E+04  0.18911611352E+04  0.25500000920E-02 0.  1.
</event>
<event>
 5   0  0.5554745E-07  0.3479102E+04  0.7818609E-02  0.8118760E-01
       -2   -1    0    0    0  501  0.00000000000E+00  0.00000000000E+00  0.14262044015E+04  0.14262044015E+04  0.25500000920E-02 0.  1.
        2   -1    0    0  501    0  0.00000000000E+00  0.00000000000E+00 -0.21217422180E+04  0.21217422180E+04  0.25500000920E-02 0. -1.
    10030    2    1    2    0    0  0.00000000000E+00  0.00000000000E+00 -0.69553781649E+03  0.35479466195E+04  0.34791022348E+04 0.  0.
        5    1    3    3  502    0  0.56720240615E+03  0.10426296717E+04  0.94909542153E+03  0.15197366255E+04  0.46999998093E+01 0.  1.
       -5    1    3    3    0  502 -0.56720240615E+03 -0.10426296717E+04 -0.16446332380E+04  0.20282099939E+04  0.46999998093E+01 0. -1.
</event>
<event>
 5   0  0.5573334E-07  0.3490135E+04  0.7818609E-02  0.8116132E-01
       -2   -1    0    0    0  501  0.00000000000E+00  0.00000000000E+00  0.14268301104E+04  0.14268301104E+04  0.25500000920E-02 0. -1.
        2   -1    0    0  501    0  0.00000000000E+00  0.00000000000E+00 -0.21342843014E+04  0.21342843014E+04  0.25500000920E-02 0.  1.
    10030    2    1    2    0    0  0.00000000000E+00  0.00000000000E+00 -0.70745419095E+03  0.35611144118E+04  0.34901353014E+04 0.  0.
        4    1    3    3  502    0  0.99503156660E+03  0.18263153003E+03 -0.18045507513E+04  0.20687791379E+04  0.12699999809E+01 0.  1.
       -4    1    3    3    0  502 -0.99503156660E+03 -0.18263153003E+03  0.10970965604E+04  0.14923352740E+04  0.12699999809E+01 0. -1.
</event>
<event>
 5   0  0.1908190E-07  0.3507076E+04  0.7818609E-02  0.8112115E-01
        1   -1    0    0  501    0  0.00000000000E+00  0.00000000000E+00  0.25370192343E+04  0.25370192343E+04  0.50400001928E-02 0. -1.
       -1   -1    0    0    0  501  0.00000000000E+00  0.00000000000E+00 -0.12120109287E+04  0.12120109288E+04  0.50400001928E-02 0.  1.
    10030    2    1    2    0    0  0.00000000000E+00  0.00000000000E+00  0.13250083056E+04  0.37490301631E+04  0.35070757268E+04 0.  0.
        5    1    3    3  502    0  0.33143002292E+03 -0.39352349324E+03 -0.11295032751E+04  0.12411713573E+04  0.46999998093E+01 0.  1.
       -5    1    3    3    0  502 -0.33143002292E+03  0.39352349324E+03  0.24545115807E+04  0.25078588057E+04  0.46999998093E+01 0. -1.
</event>
<event>
 5   0  0.1873457E-07  0.3060316E+04  0.7818609E-02  0.8226714E-01
        1   -1    0    0  501    0  0.00000000000E+00  0.00000000000E+00  0.18511494084E+04  0.18511494084E+04  0.50400001928E-02 0. -1.
       -1   -1    0    0    0  501  0.00000000000E+00  0.00000000000E+00 -0.12648267425E+04  0.12648267425E+04  0.50400001928E-02 0.  1.
    10030    2    1    2    0    0  0.00000000000E+00  0.00000000000E+00  0.58632266589E+03  0.31159761509E+04  0.30603158504E+04 0.  0.
        3    1    3    3  502    0  0.48370461432E+03  0.13282892709E+04  0.88952801704E+03  0.16702043721E+04  0.10100000352E+00 0. -1.
       -3    1    3    3    0  502 -0.48370461432E+03 -0.13282892709E+04 -0.30320535114E+03  0.14457717788E+04  0.10100000352E+00 0.  1.
</event>
<event>
 5   0  0.1866421E-07  0.3442964E+04  0.7818609E-02  0.8127441E-01
       -1   -1    0    0    0  501  0.00000000000E+00  0.00000000000E+00  0.15303556037E+04  0.15303556037E+04  0.50400001928E-02 0. -1.
        1   -1    0    0  501    0  0.00000000000E+00  0.00000000000E+00 -0.19364787226E+04  0.19364787226E+04  0.50400001928E-02 0.  1.
    10030    2    1    2    0    0  0.00000000000E+00  0.00000000000E+00 -0.40612311895E+03  0.34668343263E+04  0.34429644579E+04 0.  0.
        1    1    3    3  502    0  0.15368104787E+04 -0.59031976739E+02  0.57575393927E+03  0.16421826392E+04  0.50400001928E-02 0. -1.
       -1    1    3    3    0  502 -0.15368104787E+04  0.59031976739E+02 -0.98187705822E+03  0.18246516871E+04  0.50400001928E-02 0.  1.
</event>
<event>
 5   0  0.1908190E-07  0.3479508E+04  0.7818609E-02  0.8118664E-01
        1   -1    0    0  501    0  0.00000000000E+00  0.00000000000E+00  0.25143626678E+04  0.25143626678E+04  0.50400001928E-02 0.  1.
       -1   -1    0    0    0  501  0.00000000000E+00  0.00000000000E+00 -0.12037815742E+04  0.12037815742E+04  0.50400001928E-02 0. -1.
    10030    2    1    2    0    0  0.00000000000E+00  0.00000000000E+00  0.13105810936E+04  0.37181442420E+04  0.34795076952E+04 0.  0.
        5    1    3    3  502    0 -0.15611733631E+04 -0.65801819827E+03  0.23259705848E+03  0.17100800276E+04  0.46999998093E+01 0. -1.
       -5    1    3    3    0  502  0.15611733631E+04  0.65801819827E+03  0.10779840352E+04  0.20080642144E+04  0.46999998093E+01 0.  1.
</event>
<event>
 5   0  0.5740827E-07  0.3462402E+04  0.7818609E-02  0.8122758E-01
        2   -1    0    0  501    0  0.00000000000E+00  0.00000000000E+00  0.15766308495E+04  0.15766308496E+04  0.25500000920E-02 0.  1.
       -2   -1    0    0    0  501  0.00000000000E+00  0.00000000000E+00 -0.19009253339E+04  0.19009253339E+04  0.25500000920E-02 0. -1.
    10030    2    1    2    0    0  0.00000000000E+00  0.00000000000E+00 -0.32429448431E+03  0.34775561834E+04  0.34624023591E+04 0.  0.
        2    1    3    3  502    0  0.90060195582E+03 -0.14673697061E+04 -0.34404700432E+03  0.17557408916E+04  0.25500000920E-02 0.  1.
       -2    1    3    3    0  502 -0.90060195582E+03  0.14673697061E+04  0.19752520013E+02  0.17218152918E+04  0.25500000920E-02 0. -1.
</event>
<event>
 5   0  0.1897049E-07  0.3398775E+04  0.7818609E-02  0.8138207E-01
       -1   -1    0    0    0  501  0.00000000000E+00  0.00000000000E+00  0.14278264671E+04  0.14278264671E+04  0.50400001928E-02 0. -1.
        1   -1    0    0  501    0  0.00000000000E+00  0.00000000000E+00 -0.20225971516E+04  0.20225971516E+04  0.50400001928E-02 0.  1.
    10030    2    1    2    0    0  0.00000000000E+00  0.00000000000E+00 -0.59477068446E+03  0.34504236187E+04  0.33987749236E+04 0.  0.
        2    1    3    3  502    0  0.49302314541E+03  0.31364498894E+03  0.13226314965E+04  0.14459595695E+04  0.25500000920E-02 0. -1.
       -2    1    3    3    0  502 -0.49302314541E+03 -0.31364498894E+03 -0.19174021810E+04  0.20044640492E+04  0.25500000920E-02 0.  1.
</event>
<event>
 5   0  0.5554745E-07  0.3493650E+04  0.7818609E-02  0.8115296E-01
        2   -1    0    0  501    0  0.00000000000E+00  0.00000000000E+00  0.23974899483E+04  0.23974899483E+04  0.25500000920E-02 0. -1.
       -2   -1    0    0    0  501  0.00000000000E+00  0.00000000000E+00 -0.12727466477E+04  0.12727466477E+04  0.25500000920E-02 0.  1.
    10030    2    1    2    0    0  0.00000000000E+00  0.00000000000E+00  0.11247433006E+04  0.36702365961E+04  0.34936498363E+04 0.  0.
        5    1    3    3  502    0 -0.77174666718E+03  0.24225605924E+03  0.21888835528E+04  0.23335625584E+04  0.46999998093E+01 0. -1.
       -5    1    3    3    0  502  0.77174666718E+03 -0.24225605924E+03 -0.10641402522E+04  0.13366740376E+04  0.46999998093E+01 0.  1.
</event>
<event>
 5   0  0.1866421E-07  0.3495769E+04  0.7818609E-02  0.8114793E-01
       -1   -1    0    0    0  501  0.00000000000E+00  0.00000000000E+00  0.20147686652E+04  0.20147686652E+04  0.50400001928E-02 0. -1.
        1   -1    0    0  501    0  0.00000000000E+00  0.00000000000E+00 -0.15163526948E+04  0.15163526948E+04  0.50400001928E-02 0.  1.
    10030    2    1    2    0    0  0.00000000000E+00  0.00000000000E+00  0.49841597040E+03  0.35311213600E+04  0.34957688110E+04 0.  0.
        1    1    3    3  502    0 -0.14981524026E+04  0.87932691453E+03  0.53800202534E+02  0.17379789716E+04  0.50400001928E-02 0. -1.
       -1    1    3    3    0  502  0.14981524026E+04 -0.87932691453E+03  0.44461576786E+03  0.17931423884E+04  0.50400001928E-02 0.  1.
</event>
<event>
 5   0  0.5677193E-07  0.3502340E+04  0.7818609E-02  0.8113236E-01
       -2   -1    0    0    0  501  0.00000000000E+00  0.00000000000E+00  0.18237016825E+04  0.18237016825E+04  0.25500000920E-02 0.  1.
        2   -1    0    0  501    0  0.00000000000E+00  0.00000000000E+00 -0.16815227870E+04  0.16815227870E+04  0.25500000920E-02 0. -1.
    10030    2    1    2    0    0  0.00000000000E+00  0.00000000000E+00  0.14217889549E+03  0.35052244695E+04  0.35023397527E+04 0.  0.
        3    1    3    3  502    0 -0.13986665652E+03 -0.81756180193E+03 -0.14724603209E+04  0.16900027776E+04  0.10100000352E+00 0. -1.
       -3    1    3    3    0  502  0.13986665652E+03  0.81756180193E+03  0.16146392163E+04  0.18152216919E+04  0.10100000352E+00 0.  1.
</event>
<event>
 5   0  0.5554745E-07  0.3511746E+04  0.7818609E-02  0.8111012E-01
       -2   -1    0    0    0  501  0.00000000000E+00  0.00000000000E+00  0.14443715401E+04  0.14443715401E+04  0.25500000920E-02 0. -1.
        2   -1    0    0  501    0  0.00000000000E+00  0.00000000000E+00 -0.21345546113E+04  0.21345546113E+04  0.25500000920E-02 0.  1.
    10030    2    1    2    0    0  0.00000000000E+00  0.00000000000E+00 -0.69018307125E+03  0.35789261514E+04  0.35117459654E+04 0.  0.
        5    1    3    3  502    0  0.92192123522E+03  0.11997144703E+04  0.56291525219E+03  0.16143572236E+04  0.46999998093E+01 0. -1.
       -5    1    3    3    0  502 -0.92192123522E+03 -0.11997144703E+04 -0.12530983234E+04  0.19645689279E+04  0.46999998093E+01 0.  1.
</event>
<event>
 5   0  0.5554745E-07  0.3500000E+04  0.7818609E-02  0.8113790E-01
        2   -1    0    0  501    0  0.00000000000E+00  0.00000000000E+00  0.23062633865E+04  0.23062633865E+04  0.25500000920E-02 0. -1.
       -2   -1    0    0    0  501  0.00000000000E+00  0.00000000000E+00 -0.13279057621E+04  0.13279057621E+04  0.25500000920E-02 0.  1.
    10030    2    1    2    0    0  0.00000000000E+00  0.00000000000E+00  0.97835762439E+03  0.36341691486E+04  0.35000002513E+04 0.  0.
        5    1    3    3  502    0  0.11483748964E+04 -0.55099909791E+03  0.17352286518E+04  0.21525346624E+04  0.46999998093E+01 0. -1.
       -5    1    3    3    0  502 -0.11483748964E+04  0.55099909791E+03 -0.75687102744E+03  0.14816344862E+04  0.46999998093E+01 0.  1.
</event>
<event>
 5   0  0.5677193E-07  0.3497576E+04  0.7818609E-02  0.8114365E-01
       -2   -1    0    0    0  501  0.00000000000E+00  0.00000000000E+00  0.18545585474E+04  0.18545585474E+04  0.25500000920E-02 0.  1.
        2   -1    0    0  501    0  0.00000000000E+00  0.00000000000E+00 -0.16490498730E+04  0.16490498730E+04  0.25500000920E-02 0. -1.
    10030    2    1    2    0    0  0.00000000000E+00  0.00000000000E+00  0.20550867447E+03  0.35036084204E+04  0.34975760390E+04 0.  0.
        3    1    3    3  502    0  0.67125426558E+03  0.58218619524E+03 -0.14060760527E+04  0.16633018160E+04  0.10100000352E+00 0. -1.
       -3    1    3    3    0  502 -0.67125426558E+03 -0.58218619524E+03  0.16115847272E+04  0.18403066044E+04  0.10100000352E+00 0.  1.
</event>
<event>
 5   0  0.1866421E-07  0.3547171E+04  0.7818609E-02  0.8102701E-01
       -1   -1    0    0    0  501  0.00000000000E+00  0.00000000000E+00  0.28490905025E+04  0.28490905025E+04  0.50400001928E-02 0. -1.
        1   -1    0    0  501    0  0.00000000000E+00  0.00000000000E+00 -0.11040733458E+04  0.11040733458E+04  0.50400001928E-02 0.  1.
    10030    2    1    2    0    0  0.00000000000E+00  0.00000000000E+00  0.17450171567E+04  0.39531638483E+04  0.35471706379E+04 0.  0.
        1    1    3    3  502    0  0.49088364417E+03 -0.15026083991E+04 -0.23783995152E+02  0.15809378330E+04  0.50400001928E-02 0.  1.
       -1    1    3    3    0  502 -0.49088364417E+03  0.15026083991E+04  0.17688011518E+04  0.23722260154E+04  0.50400001928E-02 0. -1.
</event>
<event>
 5   0  0.1933647E-07  0.3516914E+04  0.7818609E-02  0.8109793E-01
        1   -1    0    0  501    0  0.00000000000E+00  0.00000000000E+00  0.18380405000E+04  0.18380405001E+04  0.50400001928E-02 0. -1.
       -1   -1    0    0    0  501  0.00000000000E+00  0.00000000000E+00 -0.16823195782E+04  0.16823195782E+04  0.50400001928E-02 0.  1.
    10030    2    1    2    0    0  0.00000000000E+00  0.00000000000E+00  0.15572092184E+03  0.35203600783E+04  0.35169142832E+04 0.  0.
        4    1    3    3  502    0  0.84306549323E+03 -0.78459464918E+03 -0.12522837561E+04  0.17013419433E+04  0.12699999809E+01 0.  1.
       -4    1    3    3    0  502 -0.84306549323E+03  0.78459464918E+03  0.14080046779E+04  0.18190181350E+04  0.12699999809E+01 0. -1.
</event>
<event>
 5   0  0.1908190E-07  0.3505259E+04  0.7818609E-02  0.8112545E-01
       -1   -1    0    0    0  501  0.00000000000E+00  0.00000000000E+00  0.12264434756E+04  0.12264434756E+04  0.50400001928E-02 0.  1.
        1   -1    0    0  501    0  0.00000000000E+00  0.00000000000E+00 -0.25045671539E+04  0.25045671539E+04  0.50400001928E-02 0. -1.
    10030    2    1    2    0    0  0.00000000000E+00  0.00000000000E+00 -0.12781236783E+04  0.37310106295E+04  0.35052589320E+04 0.  0.
        5    1    3    3  502    0 -0.20039537438E+03  0.13834563336E+04  0.48617863948E+03  0.14800342876E+04  0.46999998093E+01 0.  1.
       -5    1    3    3    0  502  0.20039537438E+03 -0.13834563336E+04 -0.17643023178E+04  0.22509763419E+04  0.46999998093E+01 0. -1.
</event>
<event>
 5   0  0.5740827E-07  0.3511741E+04  0.7818609E-02  0.8111013E-01
        2   -1    0    0  501    0  0.00000000000E+00  0.00000000000E+00  0.24191512980E+04  0.24191512980E+04  0.25500000920E-02 0.  1.
       -2   -1    0    0    0  501  0.00000000000E+00  0.00000000000E+00 -0.12744471096E+04  0.12744471096E+04  0.25500000920E-02 0. -1.
    10030    2    1    2    0    0  0.00000000000E+00  0.00000000000E+00  0.11447041884E+04  0.36935984075E+04  0.35117405253E+04 0.  0.
        2    1    3    3  502    0  0.99608195737E+03 -0.14405939241E+04  0.70367906440E+03  0.18874994955E+04  0.25500000920E-02 0. -1.
       -2    1    3    3    0  502 -0.99608195737E+03  0.14405939241E+04  0.44102512400E+03  0.18060989120E+04  0.25500000920E-02 0.  1.
</event>
<event>
 5   0  0.1873457E-07  0.3527683E+04  0.7818609E-02  0.8107260E-01
       -1   -1    0    0    0  501  0.00000000000E+00  0.00000000000E+00  0.15676418138E+04  0.15676418138E+04  0.50400001928E-02 0.  1.
        1   -1    0    0  501    0  0.00000000000E+00  0.00000000000E+00 -0.19845972930E+04  0.19845972930E+04  0.50400001928E-02 0. -1.
    10030    2    1    2    0    0  0.00000000000E+00  0.00000000000E+00 -0.41695547927E+03  0.35522391068E+04  0.35276834892E+04 0.  0.
        3    1    3    3  502    0 -0.78776287662E+03  0.22585273427E+03  0.13643028552E+04  0.15915093774E+04  0.10100000352E+00 0.  1.
       -3    1    3    3    0  502  0.78776287662E+03 -0.22585273427E+03 -0.17812583345E+04  0.19607297294E+04  0.10100000352E+00 0. -1.
</event>
<event>
 5   0  0.1933647E-07  0.3502740E+04  0.7818609E-02  0.8113141E-01
       -1   -1    0    0    0  501  0.00000000000E+00  0.00000000000E+00  0.32854609192E+04  0.32854609192E+04  0.50400001928E-02 0. -1.
        1   -1    0    0  501    0  0.00000000000E+00  0.00000000000E+00 -0.93359718887E+03  0.93359718888E+03  0.50400001928E-02 0.  1.
    10030    2    1    2    0    0  0.00000000000E+00  0.00000000000E+00  0.23518637304E+04  0.42190581081E+04  0.35027401150E+04 0.  0.
        4    1    3    3  502    0  0.70800341810E+03  0.11546515418E+04  0.25133125247E+04  0.28550359862E+04  0.12699999809E+01 0. -1.
       -4    1    3    3    0  502 -0.70800341810E+03 -0.11546515418E+04 -0.16144879434E+03  0.13640221219E+04  0.12699999809E+01 0.  1.
</event>
<event>
 5   0  0.5573334E-07  0.3507615E+04  0.7818609E-02  0.8111988E-01
       -2   -1    0    0    0  501  0.00000000000E+00  0.00000000000E+00  0.19563264552E+04  0.19563264552E+04  0.25500000920E-02 0. -1.
        2   -1    0    0  501    0  0.00000000000E+00  0.00000000000E+00 -0.15722531245E+04  0.15722531245E+04  0.25500000920E-02 0.  1.
    10030    2    1    2    0    0  0.00000000000E+00  0.00000000000E+00  0.38407333075E+03  0.35285795797E+04  0.35076147917E+04 0.  0.
        4    1    3    3  502    0  0.16859183626E+04 -0.45809695939E+03  0.37282164141E+02  0.17474453131E+04  0.12699999809E+01 0.  1.
       -4    1    3    3    0  502 -0.16859183626E+04  0.45809695939E+03  0.34679116661E+03  0.17811342666E+04  0.12699999809E+01 0. -1.
</event>
<event>
 5   0  0.1933647E-07  0.3499864E+04  0.7818609E-02  0.8113822E-01
        1   -1    0    0  501    0  0.00000000000E+00  0.00000000000E+00  0.18183707658E+04  0.18183707659E+04  0.50400001928E-02 0. -1.
       -1   -1    0    0    0  501  0.00000000000E+00  0.00000000000E+00 -0.16840692605E+04  0.16840692605E+04  0.50400001928E-02 0.  1.
    10030    2    1    2    0    0  0.00000000000E+00  0.00000000000E+00  0.13430150531E+03  0.35024400264E+04  0.34998641751E+04 0.  0.
        4    1    3    3  502    0  0.48067323652E+03  0.14880637170E+04 -0.71884458882E+03  0.17210809225E+04  0.12699999809E+01 0.  1.
       -4    1    3    3    0  502 -0.48067323652E+03 -0.14880637170E+04  0.85314609412E+03  0.17813591039E+04  0.12699999809E+01 0. -1.
</event>
<event>
 5   0  0.1933647E-07  0.3514247E+04  0.7818609E-02  0.8110422E-01
        1   -1    0    0  501    0  0.00000000000E+00  0.00000000000E+00  0.17260088845E+04  0.17260088845E+04  0.50400001928E-02 0. -1.
       -1   -1    0    0    0  501  0.00000000000E+00  0.00000000000E+00 -0.17887992756E+04  0.17887992756E+04  0.50400001928E-02 0.  1.
    10030    2    1    2    0    0  0.00000000000E+00  0.00000000000E+00 -0.62790391145E+02  0.35148081601E+04  0.35142472550E+04 0.  0.
        4    1    3    3  502    0  0.15423243919E+04 -0.58033609304E+02  0.80858967207E+03  0.17423981463E+04  0.12699999809E+01 0. -1.
       -4    1    3    3    0  502 -0.15423243919E+04  0.58033609304E+02 -0.87138006322E+03  0.17724100138E+04  0.12699999809E+01 0.  1.
</event>
<event>
 5   0  0.1866421E-07  0.3487021E+04  0.7818609E-02  0.8116873E-01
       -1   -1    0    0    0  501  0.00000000000E+00  0.00000000000E+00  0.14466667585E+04  0.14466667585E+04  0.50400001928E-02 0. -1.
        1   -1    0    0  501    0  0.00000000000E+00  0.00000000000E+00 -0.21012637884E+04  0.21012637884E+04  0.50400001928E-02 0.  1.
    10030    2    1    2    0    0  0.00000000000E+00  0.00000000000E+00 -0.65459702989E+03  0.35479305469E+04  0.34870207763E+04 0.  0.
        1    1    3    3  502    0  0.83385630874E+02  0.17289709543E+04 -0.11500408566E+03  0.17347967212E+04  0.50400001928E-02 0. -1.
       -1    1    3    3    0  502 -0.83385630874E+02 -0.17289709543E+04 -0.53959294423E+03  0.18131338257E+04  0.50400001928E-02 0.  1.
</event>
<event>
 5   0  0.5707187E-07  0.3526837E+04  0.7818609E-02  0.8107459E-01
        2   -1    0    0  501    0  0.00000000000E+00  0.00000000000E+00  0.19640504342E+04  0.19640504342E+04  0.25500000920E-02 0. -1.
       -2   -1    0    0    0  501  0.00000000000E+00  0.00000000000E+00 -0.15832815271E+04  0.15832815271E+04  0.25500000920E-02 0.  1.
    10030    2    1    2    0    0  0.00000000000E+00  0.00000000000E+00  0.38076890711E+03  0.35473319613E+04  0.35268369800E+04 0.  0.
        1    1    3    3  502    0 -0.39477542844E+03 -0.50830761556E+03  0.18416986310E+04  0.19509172505E+04  0.50400001928E-02 0. -1.
       -1    1    3    3    0  502  0.39477542844E+03  0.50830761556E+03 -0.14609297238E+04  0.15964147108E+04  0.50400001928E-02 0.  1.
</event>
<event>
 5   0  0.1873457E-07  0.3479985E+04  0.7818609E-02  0.8118550E-01
       -1   -1    0    0    0  501  0.00000000000E+00  0.00000000000E+00  0.10434444921E+04  0.10434444921E+04  0.50400001928E-02 0.  1.
        1   -1    0    0  501    0  0.00000000000E+00  0.00000000000E+00 -0.29015191259E+04  0.29015191259E+04  0.50400001928E-02 0. -1.
    10030    2    1    2    0    0  0.00000000000E+00  0.00000000000E+00 -0.18580746338E+04  0.39449636181E+04  0.34799851441E+04 0.  0.
        3    1    3    3  502    0  0.10558872367E+04 -0.13589420819E+04 -0.12201639304E+04  0.21096022056E+04  0.10100000352E+00 0. -1.
       -3    1    3    3    0  502 -0.10558872367E+04  0.13589420819E+04 -0.63791070342E+03  0.18353614125E+04  0.10100000352E+00 0.  1.
</event>
<event>
 5   0  0.5740827E-07  0.3477278E+04  0.7818609E-02  0.8119196E-01
        2   -1    0    0  501    0  0.00000000000E+00  0.00000000000E+00  0.12645569430E+04  0.12645569430E+04  0.25500000920E-02 0. -1.
       -2   -1    0    0    0  501  0.00000000000E+00  0.00000000000E+00 -0.23904544425E+04  0.23904544425E+04  0.25500000920E-02 0.  1.
    10030    2    1    2    0    0  0.00000000000E+00  0.00000000000E+00 -0.11258974995E+04  0.36550113855E+04  0.34772781092E+04 0.  0.
        2    1    3    3  502    0 -0.60187539709E+02  0.69587168617E+03  0.11106016192E+04  0.13119816692E+04  0.25500000920E-02 0. -1.
       -2    1    3    3    0  502  0.60187539709E+02 -0.69587168617E+03 -0.22364991187E+04  0.23430297163E+04  0.25500000920E-02 0.  1.
</event>
<event>
 5   0  0.5677193E-07  0.3302913E+04  0.7818609E-02  0.8162154E-01
       -2   -1    0    0    0  501  0.00000000000E+00  0.00000000000E+00  0.16693512419E+04  0.16693512419E+04  0.25500000920E-02 0. -1.
        2   -1    0    0  501    0  0.00000000000E+00  0.00000000000E+00 -0.16337540689E+04  0.16337540689E+04  0.25500000920E-02 0.  1.
    10030    2    1    2    0    0  0.00000000000E+00  0.00000000000E+00  0.35597173079E+02  0.33031053108E+04  0.33029134920E+04 0.  0.
        3    1    3    3  502    0  0.43850299603E+03  0.22500892206E+03  0.15940866488E+04  0.16685401244E+04  0.10100000352E+00 0. -1.
       -3    1    3    3    0  502 -0.43850299603E+03 -0.22500892206E+03 -0.15584894757E+04  0.16345651864E+04  0.10100000352E+00 0.  1.
</event>
<event>
 5   0  0.1908190E-07  0.3620707E+04  0.7818609E-02  0.8085765E-01
        1   -1    0    0  501    0  0.00000000000E+00  0.00000000000E+00  0.26504938142E+04  0.26504938142E+04  0.50400001928E-02 0. -1.
       -1   -1    0    0    0  501  0.00000000000E+00  0.00000000000E+00 -0.12365168584E+04  0.12365168584E+04  0.50400001928E-02 0.  1.
    10030    2    1    2    0    0  0.00000000000E+00  0.00000000000E+00  0.14139769558E+04  0.38870106727E+04  0.36207072704E+04 0.  0.
        5    1    3    3  502    0  0.90925919737E+03 -0.10741409704E+04 -0.51555230225E+03  0.14987819650E+04  0.46999998093E+01 0.  1.
       -5    1    3    3    0  502 -0.90925919737E+03  0.10741409704E+04  0.19295292581E+04  0.23882287077E+04  0.46999998093E+01 0. -1.
</event>
<event>
 5   0  0.5573334E-07  0.3227418E+04  0.7818609E-02  0.8181613E-01
       -2   -1    0    0    0  501  0.00000000000E+00  0.00000000000E+00  0.13230189761E+04  0.13230189761E+04  0.25500000920E-02 0.  1.
        2   -1    0    0  501    0  0.00000000000E+00  0.00000000000E+00 -0.19682685549E+04  0.19682685549E+04  0.25500000920E-02 0. -1.
    10030    2    1    2    0    0  0.00000000000E+00  0.00000000000E+00 -0.64524957878E+03  0.32912875310E+04  0.32274179452E+04 0.  0.
        4    1    3    3  502    0  0.10482365611E+03 -0.15645954149E+04 -0.71109402288E+03  0.17218022922E+04  0.12699999809E+01 0.  1.
       -4    1    3    3    0  502 -0.10482365611E+03  0.15645954149E+04  0.65844444098E+02  0.15694852388E+04  0.12699999809E+01 0. -1.
</event>
<event>
 5   0  0.5573334E-07  0.3492900E+04  0.7818609E-02  0.8115475E-01
        2   -1    0    0  501    0  0.00000000000E+00  0.00000000000E+00  0.19212127734E+04  0.19212127734E+04  0.25500000920E-02 0.  1.
       -2   -1    0    0    0  501  0.00000000000E+00  0.00000000000E+00 -0.15875848008E+04  0.15875848008E+04  0.25500000920E-02 0. -1.
    10030    2    1    2    0    0  0.00000000000E+00  0.00000000000E+00  0.33362797255E+03  0.35087975742E+04  0.34929003411E+04 0.  0.
        4    1    3    3  502    0 -0.15026801094E+04 -0.32708705762E+03 -0.66463239464E+03  0.16753421404E+04  0.12699999809E+01 0. -1.
       -4    1    3    3    0  502  0.15026801094E+04  0.32708705762E+03  0.99826036719E+03  0.18334554339E+04  0.12699999809E+01 0.  1.
</event>
<event>
 5   0  0.5740827E-07  0.3294495E+04  0.7818609E-02  0.8164297E-01
        2   -1    0    0  501    0  0.00000000000E+00  0.00000000000E+00  0.23710858384E+04  0.23710858384E+04  0.25500000920E-02 0. -1.
       -2   -1    0    0    0  501  0.00000000000E+00  0.00000000000E+00 -0.11443806192E+04  0.11443806192E+04  0.25500000920E-02 0.  1.
    10030    2    1    2    0    0  0.00000000000E+00  0.00000000000E+00  0.12267052192E+04  0.35154664576E+04  0.32944952146E+04 0.  0.
        2    1    3    3  502    0  0.18412864993E+03  0.79736734915E+03  0.21388289612E+04  0.22900409111E+04  0.25500000920E-02 0. -1.
       -2    1    3    3    0  502 -0.18412864993E+03 -0.79736734915E+03 -0.91212374198E+03  0.12254255465E+04  0.25500000920E-02 0.  1.
</event>
<event>
 5   0  0.1908190E-07  0.3580874E+04  0.7818609E-02  0.8094887E-01
       -1   -1    0    0    0  501  0.00000000000E+00  0.00000000000E+00  0.18633361672E+04  0.18633361672E+04  0.50400001928E-02 0.  1.
        1   -1    0    0  501    0  0.00000000000E+00  0.00000000000E+00 -0.17203896113E+04  0.17203896113E+04  0.50400001928E-02 0. -1.
    10030    2    1    2    0    0  0.00000000000E+00  0.00000000000E+00  0.14294655589E+03  0.35837257785E+04  0.35808737395E+04 0.  0.
        5    1    3    3  502    0 -0.36408297548E+03  0.69026944036E+03 -0.15412113317E+04  0.17275366196E+04  0.46999998093E+01 0. -1.
       -5    1    3    3    0  502  0.36408297548E+03 -0.69026944036E+03  0.16841578876E+04  0.18561891589E+04  0.46999998093E+01 0.  1.
</event>
<event>
 5   0  0.5677193E-07  0.3480807E+04  0.7818609E-02  0.8118353E-01
        2   -1    0    0  501    0  0.00000000000E+00  0.00000000000E+00  0.14310308451E+04  0.14310308451E+04  0.25500000920E-02 0. -1.
       -2   -1    0    0    0  501  0.00000000000E+00  0.00000000000E+00 -0.21166593495E+04  0.21166593495E+04  0.25500000920E-02 0.  1.
    10030    2    1    2    0    0  0.00000000000E+00  0.00000000000E+00 -0.68562850440E+03  0.35476901945E+04  0.34808072728E+04 0.  0.
        3    1    3    3  502    0  0.46895713456E+03 -0.10681678115E+04  0.97355264207E+03  0.15194433272E+04  0.10100000352E+00 0. -1.
       -3    1    3    3    0  502 -0.46895713456E+03  0.10681678115E+04 -0.16591811465E+04  0.20282468673E+04  0.10100000352E+00 0.  1.
</event>
<event>
 5   0  0.1873457E-07  0.3511894E+04  0.7818609E-02  0.8110977E-01
        1   -1    0    0  501    0  0.00000000000E+00  0.00000000000E+00  0.13447319028E+04  0.13447319028E+04  0.50400001928E-02 0.  1.
       -1   -1    0    0    0  501  0.00000000000E+00  0.00000000000E+00 -0.22929105065E+04  0.22929105065E+04  0.50400001928E-02 0. -1.
    10030    2    1    2    0    0  0.00000000000E+00  0.00000000000E+00 -0.94817860373E+03  0.36376424093E+04  0.35118940236E+04 0.  0.
        3    1    3    3  502    0 -0.30019539623E+03 -0.98144535786E+03  0.10017068312E+04  0.14341439441E+04  0.10100000352E+00 0.  1.
       -3    1    3    3    0  502  0.30019539623E+03  0.98144535786E+03 -0.19498854350E+04  0.22034984652E+04  0.10100000352E+00 0. -1.
</event>
<event>
 5   0  0.5573334E-07  0.3489570E+04  0.7818609E-02  0.8116266E-01
        2   -1    0    0  501    0  0.00000000000E+00  0.00000000000E+00  0.29967432482E+04  0.29967432482E+04  0.25500000920E-02 0. -1.
       -2   -1    0    0    0  501  0.00000000000E+00  0.00000000000E+00 -0.10158612718E+04  0.10158612718E+04  0.25500000920E-02 0.  1.
    10030    2    1    2    0    0  0.00000000000E+00  0.00000000000E+00  0.19808819764E+04  0.40126045200E+04  0.34895704075E+04 0.  0.
        4    1    3    3  502    0  0.56071913709E+03  0.14053846938E+04 -0.85448265472E+01  0.15131380358E+04  0.12699999809E+01 0. -1.
       -4    1    3    3    0  502 -0.56071913709E+03 -0.14053846938E+04  0.19894268030E+04  0.24994664842E+04  0.12699999809E+01 0.  1.
</event>
<event>
 5   0  0.1933647E-07  0.3420224E+04  0.7818609E-02  0.8132960E-01
       -1   -1    0    0    0  501  0.00000000000E+00  0.00000000000E+00  0.13944922153E+04  0.13944922153E+04  0.50400001928E-02 0.  1.
        1   -1    0    0  501    0  0.00000000000E+00  0.00000000000E+00 -0.20971673447E+04  0.20971673447E+04  0.50400001928E-02 0. -1.
    10030    2    1    2    0    0  0.00000000000E+00  0.00000000000E+00 -0.70267512944E+03  0.34916595600E+04  0.34202242829E+04 0.  0.
        4    1    3    3  502    0  0.46769406693E+03 -0.12961498044E+04 -0.13852789635E+04  0.19539041623E+04  0.12699999809E+01 0. -1.
       -4    1    3    3    0  502 -0.46769406693E+03  0.12961498044E+04  0.68260383410E+03  0.15377553976E+04  0.12699999809E+01 0.  1.
</event>
<event>
 5   0  0.1873457E-07  0.3502500E+04  0.7818609E-02  0.8113198E-01
        1   -1    0    0  501    0  0.00000000000E+00  0.00000000000E+00  0.19169807857E+04  0.19169807858E+04  0.50400001928E-02 0.  1.
       -1   -1    0    0    0  501  0.00000000000E+00  0.00000000000E+00 -0.15998474343E+04  0.15998474343E+04  0.50400001928E-02 0. -1.
    10030    2    1    2    0    0  0.00000000000E+00  0.00000000000E+00  0.31713335148E+03  0.35168282200E+04  0.35025001308E+04 0.  0.
        3    1    3    3  502    0 -0.73012949849E+03  0.64576478474E+03 -0.13022993854E+04  0.16266791144E+04  0.10100000352E+00 0. -1.
       -3    1    3    3    0  502  0.73012949849E+03 -0.64576478474E+03  0.16194327369E+04  0.18901491056E+04  0.10100000352E+00 0.  1.
</event>
<event>
 5   0  0.5740827E-07  0.3455034E+04  0.7818609E-02  0.8124530E-01
        2   -1    0    0  501    0  0.00000000000E+00  0.00000000000E+00  0.29975835852E+04  0.29975835852E+04  0.25500000920E-02 0. -1.
       -2   -1    0    0    0  501  0.00000000000E+00  0.00000000000E+00 -0.99557355559E+03  0.99557355559E+03  0.25500000920E-02 0.  1.
    10030    2    1    2    0    0  0.00000000000E+00  0.00000000000E+00  0.20020100296E+04  0.39931571408E+04  0.34550339785E+04 0.  0.
        2    1    3    3  502    0 -0.68779829065E+02  0.14718396867E+04  0.20432793578E+04  0.25191334348E+04  0.25500000920E-02 0.  1.
       -2    1    3    3    0  502  0.68779829065E+02 -0.14718396867E+04 -0.41269328215E+02  0.14740237060E+04  0.25500000920E-02 0. -1.
</event>
<event>
 5   0  0.1873457E-07  0.3495588E+04  0.7818609E-02  0.8114836E-01
       -1   -1    0    0    0  501  0.00000000000E+00  0.00000000000E+00  0.14351858155E+04  0.14351858155E+04  0.50400001928E-02 0. -1.
        1   -1    0    0  501    0  0.00000000000E+00  0.00000000000E+00 -0.21284932900E+04  0.21284932900E+04  0.50400001928E-02 0.  1.
    10030    2    1    2    0    0  0.00000000000E+00  0.00000000000E+00 -0.69330747456E+03  0.35636791055E+04  0.34955877206E+04 0.  0.
        3    1    3    3  502    0 -0.90730369019E+02 -0.17307738001E+04 -0.11648291138E+03  0.17370602252E+04  0.10100000352E+00 0. -1.
       -3    1    3    3    0  502  0.90730369019E+02  0.17307738001E+04 -0.57682456318E+03  0.18266188803E+04  0.10100000352E+00 0.  1.
</event>
<event>
 5   0  0.5573334E-07  0.3481780E+04  0.7818609E-02  0.8118121E-01
        2   -1    0    0  501    0  0.00000000000E+00  0.00000000000E+00  0.22104491398E+04  0.22104491398E+04  0.25500000920E-02 0. -1.
       -2   -1    0    0    0  501  0.00000000000E+00  0.00000000000E+00 -0.13710778820E+04  0.13710778820E+04  0.25500000920E-02 0.  1.
    10030    2    1    2    0    0  0.00000000000E+00  0.00000000000E+00  0.83937125782E+03  0.35815270217E+04  0.34817799613E+04 0.  0.
        4    1    3    3  502    0  0.21065260553E+03  0.10011586571E+04 -0.10292132878E+04  0.14511977059E+04  0.12699999809E+01 0.  1.
       -4    1    3    3    0  502 -0.21065260553E+03 -0.10011586571E+04  0.18685845456E+04  0.21303293158E+04  0.12699999809E+01 0. -1.
</event>
<event>
 5   0  0.5707187E-07  0.3482500E+04  0.7818609E-02  0.8117950E-01
       -2   -1    0    0    0  501  0.00000000000E+00  0.00000000000E+00  0.12785716281E+04  0.12785716281E+04  0.25500000920E-02 0.  1.
        2   -1    0    0  501    0  0.00000000000E+00  0.00000000000E+00 -0.23713577837E+04  0.23713577837E+04  0.25500000920E-02 0. -1.
    10030    2    1    2    0    0  0.00000000000E+00  0.00000000000E+00 -0.10927861556E+04  0.36499294119E+04  0.34824995520E+04 0.  0.
        1    1    3    3  502    0  0.16991069098E+04 -0.61255101099E+02 -0.94027268262E+03  0.19428919671E+04  0.50400001928E-02 0. -1.
       -1    1    3    3    0  502 -0.16991069098E+04  0.61255101099E+02 -0.15251347300E+03  0.17070374447E+04  0.50400001928E-02 0.  1.
</event>
<event>
 5   0  0.5707187E-07  0.3489586E+04  0.7818609E-02  0.8116262E-01
        2   -1    0    0  501    0  0.00000000000E+00  0.00000000000E+00  0.26911535009E+04  0.26911535009E+04  0.25500000920E-02 0.  1.
       -2   -1    0    0    0  501  0.00000000000E+00  0.00000000000E+00 -0.11312258448E+04  0.11312258448E+04  0.25500000920E-02 0. -1.
    10030    2    1    2    0    0  0.00000000000E+00  0.00000000000E+00  0.15599276561E+04  0.38223793457E+04  0.34895858737E+04 0.  0.
        1    1    3    3  502    0  0.12530518950E+04 -0.12003271969E+04  0.98008350766E+03  0.19928592808E+04  0.50400001928E-02 0.  1.
       -1    1    3    3    0  502 -0.12530518950E+04  0.12003271969E+04  0.57984414844E+03  0.18295200648E+04  0.50400001928E-02 0. -1.
</event>
<event>
 5   0  0.5677193E-07  0.3463965E+04  0.7818609E-02  0.8122383E-01
        2   -1    0    0  501    0  0.00000000000E+00  0.00000000000E+00  0.19286134951E+04  0.19286134951E+04  0.25500000920E-02 0. -1.
       -2   -1    0    0    0  501  0.00000000000E+00  0.00000000000E+00 -0.15553989410E+04  0.15553989410E+04  0.25500000920E-02 0.  1.
    10030    2    1    2    0    0  0.00000000000E+00  0.00000000000E+00  0.37321455412E+03  0.34840124361E+04  0.34639650044E+04 0.  0.
        3    1    3    3  502    0  0.14399087611E+04  0.24849898099E+03  0.11218675771E+04  0.18421932186E+04  0.10100000352E+00 0. -1.
       -3    1    3    3    0  502 -0.14399087611E+04 -0.24849898099E+03 -0.74865302298E+03  0.16418192175E+04  0.10100000352E+00 0.  1.
</event>
<event>
 5   0  0.5554745E-07  0.3502487E+04  0.7818609E-02  0.8113201E-01
        2   -1    0    0  501    0  0.00000000000E+00  0.00000000000E+00  0.17473069416E+04  0.17473069416E+04  0.25500000920E-02 0. -1.
       -2   -1    0    0    0  501  0.00000000000E+00  0.00000000000E+00 -0.17551884951E+04  0.17551884951E+04  0.25500000920E-02 0.  1.
    10030    2    1    2    0    0  0.00000000000E+00  0.00000000000E+00 -0.78815534288E+01  0.35024954367E+04  0.35024865689E+04 0.  0.
        5    1    3    3  502    0  0.76520538491E+03 -0.10559967527E+04  0.11648917375E+04  0.17486175319E+04  0.46999998093E+01 0. -1.
       -5    1    3    3    0  502 -0.76520538491E+03  0.10559967527E+04 -0.11727732909E+04  0.17538779048E+04  0.46999998093E+01 0.  1.
</event>
<event>
 5   0  0.1873457E-07  0.3503059E+04  0.7818609E-02  0.8113065E-01
        1   -1    0    0  501    0  0.00000000000E+00  0.00000000000E+00  0.22764284853E+04  0.22764284853E+04  0.50400001928E-02 0. -1.
       -1   -1    0    0    0  501  0.00000000000E+00  0.00000000000E+00 -0.13476615714E+04  0.13476615714E+04  0.50400001928E-02 0.  1.
    10030    2    1    2    0    0  0.00000000000E+00  0.00000000000E+00  0.92876691394E+03  0.36240900567E+04  0.35030587718E+04 0.  0.
        3    1    3    3  502    0 -0.13648341651E+04 -0.28248728439E+03  0.15618280264E+04  0.20932936149E+04  0.10100000352E+00 0. -1.
       -3    1    3    3    0  502  0.13648341651E+04  0.28248728439E+03 -0.63306111241E+03  0.15307964418E+04  0.10100000352E+00 0.  1.
</event>
<event>
 5   0  0.1933647E-07  0.3538017E+04  0.7818609E-02  0.8104839E-01
       -1   -1    0    0    0  501  0.00000000000E+00  0.00000000000E+00  0.19944268329E+04  0.19944268329E+04  0.50400001928E-02 0. -1.
        1   -1    0    0  501    0  0.00000000000E+00  0.00000000000E+00 -0.15690675314E+04  0.15690675314E+04  0.50400001928E-02 0.  1.
    10030    2    1    2    0    0  0.00000000000E+00  0.00000000000E+00  0.42535930148E+03  0.35634943643E+04  0.35380166123E+04 0.  0.
        4    1    3    3  502    0  0.11725359280E+04  0.18639961747E+03 -0.11081767863E+04  0.16240821169E+04  0.12699999809E+01 0.  1.
       -4    1    3    3    0  502 -0.11725359280E+04 -0.18639961747E+03  0.15335360878E+04  0.19394122474E+04  0.12699999809E+01 0. -1.
</event>
<event>
 5   0  0.5573334E-07  0.3518879E+04  0.7818609E-02  0.8109330E-01
       -2   -1    0    0    0  501  0.00000000000E+00  0.00000000000E+00  0.12284771041E+04  0.12284771041E+04  0.25500000920E-02 0.  1.
        2   -1    0    0  501    0  0.00000000000E+00  0.00000000000E+00 -0.25198895928E+04  0.25198895928E+04  0.25500000920E-02 0. -1.
    10030    2    1    2    0    0  0.00000000000E+00  0.00000000000E+00 -0.12914124888E+04  0.37483666969E+04  0.35188786109E+04 0.  0.
        4    1    3    3  502    0  0.16522200723E+03  0.94139708478E+03  0.92782343222E+03  0.13320603279E+04  0.12699999809E+01 0.  1.
       -4    1    3    3    0  502 -0.16522200723E+03 -0.94139708478E+03 -0.22192359210E+04  0.24163063690E+04  0.12699999809E+01 0. -1.
</event>
<event>
 5   0  0.1873457E-07  0.3490526E+04  0.7818609E-02  0.8116039E-01
        1   -1    0    0  501    0  0.00000000000E+00  0.00000000000E+00  0.11123769575E+04  0.11123769575E+04  0.50400001928E-02 0.  1.
       -1   -1    0    0    0  501  0.00000000000E+00  0.00000000000E+00 -0.27382283400E+04  0.27382283400E+04  0.50400001928E-02 0. -1.
    10030    2    1    2    0    0  0.00000000000E+00  0.00000000000E+00 -0.16258513824E+04  0.38506052975E+04  0.34905255248E+04 0.  0.
        3    1    3    3  502    0  0.14614803442E+04  0.81220582491E+03 -0.13648791299E+04  0.21583554267E+04  0.10100000352E+00 0.  1.
       -3    1    3    3    0  502 -0.14614803442E+04 -0.81220582491E+03 -0.26097225250E+03  0.16922498708E+04  0.10100000352E+00 0. -1.
</event>
<event>
 5   0  0.1897049E-07  0.3512995E+04  0.7818609E-02  0.8110717E-01
       -1   -1    0    0    0  501  0.00000000000E+00  0.00000000000E+00  0.10909367922E+04  0.10909367922E+04  0.50400001928E-02 0. -1.
        1   -1    0    0  501    0  0.00000000000E+00  0.00000000000E+00 -0.28281051870E+04  0.28281051870E+04  0.50400001928E-02 0.  1.
    10030    2    1    2    0    0  0.00000000000E+00  0.00000000000E+00 -0.17371683948E+04  0.39190419793E+04  0.35129953036E+04 0.  0.
        2    1    3    3  502    0 -0.14476641667E+03  0.14392018856E+04 -0.19802707541E+04  0.24522911006E+04  0.25500000920E-02 0.  1.
       -2    1    3    3    0  502  0.14476641667E+03 -0.14392018856E+04  0.24310235923E+03  0.14667508786E+04  0.25500000920E-02 0. -1.
</event>
<event>
 5   0  0.1908190E-07  0.3418805E+04  0.7818609E-02  0.8133306E-01
        1   -1    0    0  501    0  0.00000000000E+00  0.00000000000E+00  0.16081262772E+04  0.16081262772E+04  0.50400001928E-02 0. -1.
       -1   -1    0    0    0  501  0.00000000000E+00  0.00000000000E+00 -0.18170573744E+04  0.18170573744E+04  0.50400001928E-02 0.  1.
    10030    2    1    2    0    0  0.00000000000E+00  0.00000000000E+00 -0.20893109716E+03  0.34251836516E+04  0.34188054704E+04 0.  0.
        5    1    3    3  502    0  0.97983570582E+03  0.13974890979E+04 -0.95162127275E+01  0.17068000579E+04  0.46999998093E+01 0. -1.
       -5    1    3    3    0  502 -0.97983570582E+03 -0.13974890979E+04 -0.19941488443E+03  0.17183835938E+04  0.46999998093E+01 0.  1.
</event>
<event>
 5   0  0.1873457E-07  0.3505830E+04  0.7818609E-02  0.8112410E-01
       -1   -1    0    0    0  501  0.00000000000E+00  0.00000000000E+00  0.21187495211E+04  0.21187495211E+04  0.50400001928E-02 0.  1.
        1   -1    0    0  501    0  0.00000000000E+00  0.00000000000E+00 -0.14502471529E+04  0.14502471530E+04  0.50400001928E-02 0. -1.
    10030    2    1    2    0    0  0.00000000000E+00  0.00000000000E+00  0.66850236812E+03  0.35689966740E+04  0.35058296940E+04 0.  0.
        3    1    3    3  502    0  0.48240999295E+03 -0.40204342870E+03  0.20003055358E+04  0.20965639905E+04  0.10100000352E+00 0.  1.
       -3    1    3    3    0  502 -0.48240999295E+03  0.40204342870E+03 -0.13318031676E+04  0.14724326835E+04  0.10100000352E+00 0. -1.
</event>
<event>
 5   0  0.1908190E-07  0.3400838E+04  0.7818609E-02  0.8137701E-01
        1   -1    0    0  501    0  0.00000000000E+00  0.00000000000E+00  0.16646572492E+04  0.16646572492E+04  0.50400001928E-02 0. -1.
       -1   -1    0    0    0  501  0.00000000000E+00  0.00000000000E+00 -0.17369485591E+04  0.17369485591E+04  0.50400001928E-02 0.  1.
    10030    2    1    2    0    0  0.00000000000E+00  0.00000000000E+00 -0.72291309818E+02  0.34016058083E+04  0.34008375500E+04 0.  0.
        5    1    3    3  502    0  0.88499470924E+03 -0.93316655281E+03 -0.11487756881E+04  0.17244486430E+04  0.46999998093E+01 0.  1.
       -5    1    3    3    0  502 -0.88499470924E+03  0.93316655281E+03  0.10764843783E+04  0.16771571654E+04  0.46999998093E+01 0. -1.
</event>
<event>
 5   0  0.1897049E-07  0.3409925E+04  0.7818609E-02  0.8135475E-01
       -1   -1    0    0    0  501  0.00000000000E+00  0.00000000000E+00  0.10585328835E+04  0.10585328835E+04  0.50400001928E-02 0. -1.
        1   -1    0    0  501    0  0.00000000000E+00  0.00000000000E+00 -0.27461568043E+04  0.27461568043E+04  0.50400001928E-02 0.  1.
    10030    2    1    2    0    0  0.00000000000E+00  0.00000000000E+00 -0.16876239208E+04  0.38046896878E+04  0.34099250904E+04 0.  0.
        2    1    3    3  502    0  0.16710561847E+04  0.17129538650E+03 -0.11693535903E+04  0.20467434380E+04  0.25500000920E-02 0.  1.
       -2    1    3    3    0  502 -0.16710561847E+04 -0.17129538650E+03 -0.51827033054E+03  0.17579462498E+04  0.25500000920E-02 0. -1.
</event>
<event>
 5   0  0.1897049E-07  0.3517647E+04  0.7818609E-02  0.8109621E-01
       -1   -1    0    0    0  501  0.00000000000E+00  0.00000000000E+00  0.18338267082E+04  0.18338267082E+04  0.50400001928E-02 0. -1.
        1   -1    0    0  501    0  0.00000000000E+00  0.00000000000E+00 -0.16868874583E+04  0.16868874583E+04  0.50400001928E-02 0.  1.
    10030    2    1    2    0    0  0.00000000000E+00  0.00000000000E+00  0.14693924988E+03  0.35207141665E+04  0.35176465285E+04 0.  0.
        2    1    3    3  502    0  0.31273369436E+03  0.13463429797E+04  0.11620842229E+04  0.18057911074E+04  0.25500000920E-02 0. -1.
       -2    1    3    3    0  502 -0.31273369436E+03 -0.13463429797E+04 -0.10151449730E+04  0.17149230591E+04  0.25500000920E-02 0.  1.
</event>
<event>
 5   0  0.5554745E-07  0.3505206E+04  0.7818609E-02  0.8112557E-01
       -2   -1    0    0    0  501  0.00000000000E+00  0.00000000000E+00  0.18776211130E+04  0.18776211130E+04  0.25500000920E-02 0.  1.
        2   -1    0    0  501    0  0.00000000000E+00  0.00000000000E+00 -0.16359086879E+04  0.16359086879E+04  0.25500000920E-02 0. -1.
    10030    2    1    2    0    0  0.00000000000E+00  0.00000000000E+00  0.24171242516E+03  0.35135298009E+04  0.35052056666E+04 0.  0.
        5    1    3    3  502    0  0.61034186847E+03 -0.50283112627E+02  0.17668731344E+04  0.18700022329E+04  0.46999998093E+01 0.  1.
       -5    1    3    3    0  502 -0.61034186847E+03  0.50283112627E+02 -0.15251607093E+04  0.16435275680E+04  0.46999998093E+01 0. -1.
</event>
<event>
 5   0  0.1873457E-07  0.3493343E+04  0.7818609E-02  0.8115369E-01
       -1   -1    0    0    0  501  0.00000000000E+00  0.00000000000E+00  0.30347217914E+04  0.30347217914E+04  0.50400001928E-02 0. -1.
        1   -1    0    0  501    0  0.00000000000E+00  0.00000000000E+00 -0.10053183946E+04  0.10053183947E+04  0.50400001928E-02 0.  1.
    10030    2    1    2    0    0  0.00000000000E+00  0.00000000000E+00  0.20294033967E+04  0.40400401860E+04  0.34933431778E+04 0.  0.
        3    1    3    3  502    0  0.80549053112E+03  0.12300440640E+04 -0.75745529117E+02  0.14722638318E+04  0.10100000352E+00 0.  1.
       -3    1    3    3    0  502 -0.80549053112E+03 -0.12300440640E+04  0.21051489258E+04  0.25677763542E+04  0.10100000352E+00 0. -1.
</event>
<event>
 5   0  0.5554745E-07  0.3482437E+04  0.7818609E-02  0.8117965E-01
       -2   -1    0    0    0  501  0.00000000000E+00  0.00000000000E+00  0.19922912812E+04  0.19922912812E+04  0.25500000920E-02 0.  1.
        2   -1    0    0  501    0  0.00000000000E+00  0.00000000000E+00 -0.15217860720E+04  0.15217860720E+04  0.25500000920E-02 0. -1.
    10030    2    1    2    0    0  0.00000000000E+00  0.00000000000E+00  0.47050520919E+03  0.35140773532E+04  0.34824365741E+04 0.  0.
        5    1    3    3  502    0  0.12801051968E+04  0.99197645698E+03 -0.41019360225E+03  0.16706188935E+04  0.46999998093E+01 0. -1.
       -5    1    3    3    0  502 -0.12801051968E+04 -0.99197645698E+03  0.88069881144E+03  0.18434584597E+04  0.46999998093E+01 0.  1.
</event>
<event>
 5   0  0.1873457E-07  0.3526843E+04  0.7818609E-02  0.8107458E-01
       -1   -1    0    0    0  501  0.00000000000E+00  0.00000000000E+00  0.12302457030E+04  0.12302457030E+04  0.50400001928E-02 0.  1.
        1   -1    0    0  501    0  0.00000000000E+00  0.00000000000E+00 -0.25276700093E+04  0.25276700093E+04  0.50400001928E-02 0. -1.
    10030    2    1    2    0    0  0.00000000000E+00  0.00000000000E+00 -0.12974243062E+04  0.37579157123E+04  0.35268428758E+04 0.  0.
        3    1    3    3  502    0 -0.16924541333E+04  0.38329570199E+03 -0.98284784212E+03  0.19943185501E+04  0.10100000352E+00 0. -1.
       -3    1    3    3    0  502  0.16924541333E+04 -0.38329570199E+03 -0.31457646410E+03  0.17635971622E+04  0.10100000352E+00 0.  1.
</event>
<event>
 5   0  0.5573334E-07  0.3506016E+04  0.7818609E-02  0.8112366E-01
       -2   -1    0    0    0  501  0.00000000000E+00  0.00000000000E+00  0.21462589404E+04  0.21462589404E+04  0.25500000920E-02 0. -1.
        2   -1    0    0  501    0  0.00000000000E+00  0.00000000000E+00 -0.14318107660E+04  0.14318107660E+04  0.25500000920E-02 0.  1.
    10030    2    1    2    0    0  0.00000000000E+00  0.00000000000E+00  0.71444817442E+03  0.35780697064E+04  0.35060157772E+04 0.  0.
        4    1    3    3  502    0 -0.14510080819E+03 -0.54197334851E+03 -0.13377045013E+04  0.14506013583E+04  0.12699999809E+01 0.  1.
       -4    1    3    3    0  502  0.14510080819E+03  0.54197334851E+03  0.20521526757E+04  0.21274683481E+04  0.12699999809E+01 0. -1.
</event>
<event>
 5   0  0.1933647E-07  0.3498198E+04  0.7818609E-02  0.8114217E-01
       -1   -1    0    0    0  501  0.00000000000E+00  0.00000000000E+00  0.15433130276E+04  0.15433130276E+04  0.50400001928E-02 0.  1.
        1   -1    0    0  501    0  0.00000000000E+00  0.00000000000E+00 -0.19823249945E+04  0.19823249945E+04  0.50400001928E-02 0. -1.
    10030    2    1    2    0    0  0.00000000000E+00  0.00000000000E+00 -0.43901196693E+03  0.35256380222E+04  0.34981983872E+04 0.  0.
        4    1    3    3  502    0 -0.10497580433E+04 -0.12548620026E+04  0.40395427413E+03  0.16851858246E+04  0.12699999809E+01 0. -1.
       -4    1    3    3    0  502  0.10497580433E+04  0.12548620026E+04 -0.84296624106E+03  0.18404521975E+04  0.12699999809E+01 0.  1.
</event>
<event>
 5   0  0.5573334E-07  0.3505733E+04  0.7818609E-02  0.8112433E-01
        2   -1    0    0  501    0  0.00000000000E+00  0.00000000000E+00  0.29670617109E+04  0.29670617109E+04  0.25500000920E-02 0. -1.
       -2   -1    0    0    0  501  0.00000000000E+00  0.00000000000E+00 -0.10355498404E+04  0.10355498404E+04  0.25500000920E-02 0.  1.
    10030    2    1    2    0    0  0.00000000000E+00  0.00000000000E+00  0.19315118704E+04  0.40026115513E+04  0.35057326089E+04 0.  0.
        4    1    3    3  502    0 -0.10271682196E+04 -0.14185838600E+04  0.10471635941E+04  0.20405900923E+04  0.12699999809E+01 0.  1.
       -4    1    3    3    0  502  0.10271682196E+04  0.14185838600E+04  0.88434827631E+03  0.19620214590E+04  0.12699999809E+01 0. -1.
</event>
<event>
 5   0  0.5740827E-07  0.3552391E+04  0.7818609E-02  0.8101485E-01
        2   -1    0    0  501    0  0.00000000000E+00  0.00000000000E+00  0.17662326831E+04  0.17662326831E+04  0.25500000920E-02 0. -1.
       -2   -1    0    0    0  501  0.00000000000E+00  0.00000000000E+00 -0.17862145600E+04  0.17862145600E+04  0.25500000920E-02 0.  1.
    10030    2    1    2    0    0  0.00000000000E+00  0.00000000000E+00 -0.19981876911E+02  0.35524472430E+04  0.35523910453E+04 0.  0.
        2    1    3    3  502    0 -0.68524340435E+02  0.28086206645E+03 -0.17625287051E+04  0.17860813313E+04  0.25500000920E-02 0.  1.
       -2    1    3    3    0  502  0.68524340435E+02 -0.28086206645E+03  0.17425468282E+04  0.17663659117E+04  0.25500000920E-02 0. -1.
</event>
<event>
 5   0  0.1866421E-07  0.3527539E+04  0.7818609E-02  0.8107294E-01
        1   -1    0    0  501    0  0.00000000000E+00  0.00000000000E+00  0.11396764008E+04  0.11396764008E+04  0.50400001928E-02 0.  1.
       -1   -1    0    0    0  501  0.00000000000E+00  0.00000000000E+00 -0.27296188036E+04  0.27296188036E+04  0.50400001928E-02 0. -1.
    10030    2    1    2    0    0  0.00000000000E+00  0.00000000000E+00 -0.15899424028E+04  0.38692952044E+04  0.35275385943E+04 0.  0.
        1    1    3    3  502    0  0.95086107250E+03 -0.59695600453E+03  0.69710703712E+03  0.13215337573E+04  0.50400001928E-02 0.  1.
       -1    1    3    3    0  502 -0.95086107250E+03  0.59695600453E+03 -0.22870494399E+04  0.25477614471E+04  0.50400001928E-02 0. -1.
</event>
<event>
 5   0  0.1866421E-07  0.3404800E+04  0.7818609E-02  0.8136729E-01
        1   -1    0    0  501    0  0.00000000000E+00  0.00000000000E+00  0.24305999772E+04  0.24305999772E+04  0.50400001928E-02 0.  1.
       -1   -1    0    0    0  501  0.00000000000E+00  0.00000000000E+00 -0.11923660742E+04  0.11923660742E+04  0.50400001928E-02 0. -1.
    10030    2    1    2    0    0  0.00000000000E+00  0.00000000000E+00  0.12382339030E+04  0.36229660514E+04  0.34047995259E+04 0.  0.
        1    1    3    3  502    0 -0.16183507081E+04 -0.51381172338E+03  0.74988776295E+03  0.18561770278E+04  0.50400001928E-02 0.  1.
       -1    1    3    3    0  502  0.16183507081E+04  0.51381172338E+03  0.48834614003E+03  0.17667890236E+04  0.50400001928E-02 0. -1.
</event>
<event>
 5   0  0.5554745E-07  0.3535657E+04  0.7818609E-02  0.8105391E-01
       -2   -1    0    0    0  501  0.00000000000E+00  0.00000000000E+00  0.19969857229E+04  0.19969857229E+04  0.25500000920E-02 0. -1.
        2   -1    0    0  501    0  0.00000000000E+00  0.00000000000E+00 -0.15649674726E+04  0.15649674726E+04  0.25500000920E-02 0.  1.
    10030    2    1    2    0    0  0.00000000000E+00  0.00000000000E+00  0.43201825031E+03  0.35619531955E+04  0.35356570533E+04 0.  0.
        5    1    3    3  502    0  0.11469345715E+04 -0.10534658138E+04 -0.62684126337E+03  0.16787498895E+04  0.46999998093E+01 0.  1.
       -5    1    3    3    0  502 -0.11469345715E+04  0.10534658138E+04  0.10588595137E+04  0.18832033060E+04  0.46999998093E+01 0. -1.
</event>
<event>
 5   0  0.5677193E-07  0.3473573E+04  0.7818609E-02  0.8120081E-01
       -2   -1    0    0    0  501  0.00000000000E+00  0.00000000000E+00  0.17854934548E+04  0.17854934548E+04  0.25500000920E-02 0. -1.
        2   -1    0    0  501    0  0.00000000000E+00  0.00000000000E+00 -0.16894082472E+04  0.16894082472E+04  0.25500000920E-02 0.  1.
    10030    2    1    2    0    0  0.00000000000E+00  0.00000000000E+00  0.96085207536E+02  0.34749017020E+04  0.34735730122E+04 0.  0.
        3    1    3    3  502    0 -0.14969135041E+04  0.72702167686E+03 -0.44925598620E+03  0.17236999474E+04  0.10100000352E+00 0.  1.
       -3    1    3    3    0  502  0.14969135041E+04 -0.72702167686E+03  0.54534119373E+03  0.17512017546E+04  0.10100000352E+00 0. -1.
</event>
<event>
 5   0  0.5677193E-07  0.3500270E+04  0.7818609E-02  0.8113726E-01
       -2   -1    0    0    0  501  0.00000000000E+00  0.00000000000E+00  0.12883440613E+04  0.12883440613E+04  0.25500000920E-02 0. -1.
        2   -1    0    0  501    0  0.00000000000E+00  0.00000000000E+00 -0.23774485255E+04  0.23774485255E+04  0.25500000920E-02 0.  1.
    10030    2    1    2    0    0  0.00000000000E+00  0.00000000000E+00 -0.10891044641E+04  0.36657925868E+04  0.35002695261E+04 0.  0.
        3    1    3    3  502    0 -0.99594722071E+03  0.99152891026E+03 -0.16369155904E+04  0.21574366982E+04  0.10100000352E+00 0.  1.
       -3    1    3    3    0  502  0.99594722071E+03 -0.99152891026E+03  0.54781112631E+03  0.15083558886E+04  0.10100000352E+00 0. -1.
</event>
<event>
 5   0  0.1897049E-07  0.3502080E+04  0.7818609E-02  0.8113297E-01
       -1   -1    0    0    0  501  0.00000000000E+00  0.00000000000E+00  0.12336735786E+04  0.12336735786E+04  0.50400001928E-02 0.  1.
        1   -1    0    0  501    0  0.00000000000E+00  0.00000000000E+00 -0.24853742381E+04  0.24853742381E+04  0.50400001928E-02 0. -1.
    10030    2    1    2    0    0  0.00000000000E+00  0.00000000000E+00 -0.12517006595E+04  0.37190478166E+04  0.35020796852E+04 0.  0.
        2    1    3    3  502    0  0.24174615306E+03  0.55201911351E+03  0.11200791211E+04  0.12719054767E+04  0.25500000920E-02 0.  1.
       -2    1    3    3    0  502 -0.24174615306E+03 -0.55201911351E+03 -0.23717797806E+04  0.24471423399E+04  0.25500000920E-02 0. -1.
</event>
<event>
 5   0  0.5573334E-07  0.3477187E+04  0.7818609E-02  0.8119218E-01
       -2   -1    0    0    0  501  0.00000000000E+00  0.00000000000E+00  0.14493991540E+04  0.14493991540E+04  0.25500000920E-02 0. -1.
        2   -1    0    0  501    0  0.00000000000E+00  0.00000000000E+00 -0.20854893614E+04  0.20854893614E+04  0.25500000920E-02 0.  1.
    10030    2    1    2    0    0  0.00000000000E+00  0.00000000000E+00 -0.63609020743E+03  0.35348885154E+04  0.34771865156E+04 0.  0.
        4    1    3    3  502    0 -0.45672154010E+03 -0.11186567742E+04 -0.15888765505E+04  0.19961257098E+04  0.12699999809E+01 0.  1.
       -4    1    3    3    0  502  0.45672154010E+03  0.11186567742E+04  0.95278634303E+03  0.15387628056E+04  0.12699999809E+01 0. -1.
</event>
<event>
 5   0  0.1873457E-07  0.3504761E+04  0.7818609E-02  0.8112663E-01
       -1   -1    0    0    0  501  0.00000000000E+00  0.00000000000E+00  0.11600702659E+04  0.11600702659E+04  0.50400001928E-02 0.  1.
        1   -1    0    0  501    0  0.00000000000E+00  0.00000000000E+00 -0.26471135194E+04  0.26471135194E+04  0.50400001928E-02 0. -1.
    10030    2    1    2    0    0  0.00000000000E+00  0.00000000000E+00 -0.14870432535E+04  0.38071837854E+04  0.35047611528E+04 0.  0.
        3    1    3    3  502    0  0.90128376176E+03  0.14517180595E+04 -0.11656954532E+04  0.20684882507E+04  0.10100000352E+00 0.  1.
       -3    1    3    3    0  502 -0.90128376176E+03 -0.14517180595E+04 -0.32134780030E+03  0.17386955347E+04  0.10100000352E+00 0. -1.
</event>
<event>
 5   0  0.5677193E-07  0.3508340E+04  0.7818609E-02  0.8111816E-01
        2   -1    0    0  501    0  0.00000000000E+00  0.00000000000E+00  0.16045167499E+04  0.16045167499E+04  0.25500000920E-02 0.  1.
       -2   -1    0    0    0  501  0.00000000000E+00  0.00000000000E+00 -0.19177818538E+04  0.19177818538E+04  0.25500000920E-02 0. -1.
    10030    2    1    2    0    0  0.00000000000E+00  0.00000000000E+00 -0.31326510387E+03  0.35222986037E+04  0.35083404094E+04 0.  0.
        3    1    3    3  502    0  0.59710588127E+03 -0.29750262366E+03  0.14721876617E+04  0.16162857934E+04  0.10100000352E+00 0.  1.
       -3    1    3    3    0  502 -0.59710588127E+03  0.29750262366E+03 -0.17854527656E+04  0.19060128103E+04  0.10100000352E+00 0. -1.
</event>
<event>
 5   0  0.1866421E-07  0.3494920E+04  0.7818609E-02  0.8114995E-01
        1   -1    0    0  501    0  0.00000000000E+00  0.00000000000E+00  0.15186089794E+04  0.15186089794E+04  0.50400001928E-02 0. -1.
       -1   -1    0    0    0  501  0.00000000000E+00  0.00000000000E+00 -0.20107989385E+04  0.20107989385E+04  0.50400001928E-02 0.  1.
    10030    2    1    2    0    0  0.00000000000E+00  0.00000000000E+00 -0.49218995910E+03  0.35294079180E+04  0.34949204992E+04 0.  0.
        1    1    3    3  502    0  0.13617442957E+04 -0.94547177790E+03 -0.80413531252E+03  0.18425249009E+04  0.50400001928E-02 0.  1.
       -1    1    3    3    0  502 -0.13617442957E+04  0.94547177790E+03  0.31194535342E+03  0.16868830171E+04  0.50400001928E-02 0. -1.
</event>
<event>
 5   0  0.5554745E-07  0.3505985E+04  0.7818609E-02  0.8112373E-01
       -2   -1    0    0    0  501  0.00000000000E+00  0.00000000000E+00  0.15336551217E+04  0.15336551217E+04  0.25500000920E-02 0.  1.
        2   -1    0    0  501    0  0.00000000000E+00  0.00000000000E+00 -0.20036988816E+04  0.20036988816E+04  0.25500000920E-02 0. -1.
    10030    2    1    2    0    0  0.00000000000E+00  0.00000000000E+00 -0.47004375987E+03  0.35373540033E+04  0.35059851980E+04 0.  0.
        5    1    3    3  502    0  0.56378477453E+03 -0.18946985736E+03 -0.18987782440E+04  0.19897570225E+04  0.46999998093E+01 0. -1.
       -5    1    3    3    0  502 -0.56378477453E+03  0.18946985736E+03  0.14287344841E+04  0.15475969808E+04  0.46999998093E+01 0.  1.
</event>
<event>
 5   0  0.1933647E-07  0.3512084E+04  0.7818609E-02  0.8110932E-01
       -1   -1    0    0    0  501  0.00000000000E+00  0.00000000000E+00  0.14317670481E+04  0.14317670481E+04  0.50400001928E-02 0.  1.
        1   -1    0    0  501    0  0.00000000000E+00  0.00000000000E+00 -0.21537609145E+04  0.21537609145E+04  0.50400001928E-02 0. -1.
    10030    2    1    2    0    0  0.00000000000E+00  0.00000000000E+00 -0.72199386633E+03  0.35855279626E+04  0.35120842284E+04 0.  0.
        4    1    3    3  502    0 -0.13303839009E+04  0.39024238065E+03  0.73925600276E+03  0.15712133814E+04  0.12699999809E+01 0.  1.
       -4    1    3    3    0  502  0.13303839009E+04 -0.39024238065E+03 -0.14612498691E+04  0.20143145812E+04  0.12699999809E+01 0. -1.
</event>
<event>
 5   0  0.5740827E-07  0.3498742E+04  0.7818609E-02  0.8114088E-01
        2   -1    0    0  501    0  0.00000000000E+00  0.00000000000E+00  0.20469411427E+04  0.20469411427E+04  0.25500000920E-02 0. -1.
       -2   -1    0    0    0  501  0.00000000000E+00  0.00000000000E+00 -0.14950594523E+04  0.14950594523E+04  0.25500000920E-02 0.  1.
    10030    2    1    2    0    0  0.00000000000E+00  0.00000000000E+00  0.55188169043E+03  0.35420005950E+04  0.34987418903E+04 0.  0.
        2    1    3    3  502    0  0.14075575670E+04 -0.46642837594E+03 -0.66371898065E+03  0.16245912162E+04  0.25500000920E-02 0.  1.
       -2    1    3    3    0  502 -0.14075575670E+04  0.46642837594E+03  0.12156006711E+04  0.19174093788E+04  0.25500000920E-02 0. -1.
</event>
<event>
 5   0  0.5677193E-07  0.3506545E+04  0.7818609E-02  0.8112241E-01
        2   -1    0    0  501    0  0.00000000000E+00  0.00000000000E+00  0.16718903059E+04  0.16718903059E+04  0.25500000920E-02 0. -1.
       -2   -1    0    0    0  501  0.00000000000E+00  0.00000000000E+00 -0.18386156335E+04  0.18386156335E+04  0.25500000920E-02 0.  1.
    10030    2    1    2    0    0  0.00000000000E+00  0.00000000000E+00 -0.16672532765E+03  0.35105059394E+04  0.35065445406E+04 0.  0.
        3    1    3    3  502    0 -0.30683786792E+03 -0.27148982446E+03 -0.17900194253E+04  0.18363076418E+04  0.10100000352E+00 0.  1.
       -3    1    3    3    0  502  0.30683786792E+03  0.27148982446E+03  0.16232940977E+04  0.16741982976E+04  0.10100000352E+00 0. -1.
</event>
<event>
 5   0  0.1908190E-07  0.3513284E+04  0.7818609E-02  0.8110649E-01
        1   -1    0    0  501    0  0.00000000000E+00  0.00000000000E+00  0.16862619514E+04  0.16862619515E+04  0.50400001928E-02 0. -1.
       -1   -1    0    0    0  501  0.00000000000E+00  0.00000000000E+00 -0.18299593971E+04  0.18299593971E+04  0.50400001928E-02 0.  1.
    10030    2    1    2    0    0  0.00000000000E+00  0.00000000000E+00 -0.14369744567E+03  0.35162213486E+04  0.35132838793E+04 0.  0.
        5    1    3    3  502    0 -0.16118639021E+04 -0.27599074723E+03  0.57016457243E+03  0.17318735119E+04  0.46999998093E+01 0. -1.
       -5    1    3    3    0  502  0.16118639021E+04  0.27599074723E+03 -0.71386201810E+03  0.17843478367E+04  0.46999998093E+01 0.  1.
</event>
<event>
 5   0  0.5554745E-07  0.3480484E+04  0.7818609E-02  0.8118431E-01
       -2   -1    0    0    0  501  0.00000000000E+00  0.00000000000E+00  0.12478515316E+04  0.12478515316E+04  0.25500000920E-02 0. -1.
        2   -1    0    0  501    0  0.00000000000E+00  0.00000000000E+00 -0.24269252090E+04  0.24269252090E+04  0.25500000920E-02 0.  1.
    10030    2    1    2    0    0  0.00000000000E+00  0.00000000000E+00 -0.11790736774E+04  0.36747767406E+04  0.34804840693E+04 0.  0.
        5    1    3    3  502    0  0.14142889966E+04  0.28212572080E+03 -0.16178741811E+04  0.21673364400E+04  0.46999998093E+01 0.  1.
       -5    1    3    3    0  502 -0.14142889966E+04 -0.28212572080E+03  0.43880050365E+03  0.15074403007E+04  0.46999998093E+01 0. -1.
</event>
<event>
 5   0  0.5573334E-07  0.3498887E+04  0.7818609E-02  0.8114054E-01
       -2   -1    0    0    0  501  0.00000000000E+00  0.00000000000E+00  0.17736859350E+04  0.17736859350E+04  0.25500000920E-02 0.  1.
        2   -1    0    0  501    0  0.00000000000E+00  0.00000000000E+00 -0.17255323727E+04  0.17255323727E+04  0.25500000920E-02 0. -1.
    10030    2    1    2    0    0  0.00000000000E+00  0.00000000000E+00  0.48153562311E+02  0.34992183077E+04  0.34988869658E+04 0.  0.
        4    1    3    3  502    0  0.10794781298E+04 -0.87515050188E+03  0.10869047861E+04  0.17642349788E+04  0.12699999809E+01 0.  1.
       -4    1    3    3    0  502 -0.10794781298E+04  0.87515050188E+03 -0.10387512238E+04  0.17349833289E+04  0.12699999809E+01 0. -1.
</event>
<event>
 5   0  0.5740827E-07  0.3494607E+04  0.7818609E-02  0.8115069E-01
       -2   -1    0    0    0  501  0.00000000000E+00  0.00000000000E+00  0.17725914471E+04  0.17725914471E+04  0.25500000920E-02 0. -1.
        2   -1    0    0  501    0  0.00000000000E+00  0.00000000000E+00 -0.17223762711E+04  0.17223762711E+04  0.25500000920E-02 0.  1.
    10030    2    1    2    0    0  0.00000000000E+00  0.00000000000E+00  0.50215176030E+02  0.34949677183E+04  0.34946069576E+04 0.  0.
        2    1    3    3  502    0  0.87318216620E+03  0.30050462786E+03 -0.14583928795E+04  0.17261691452E+04  0.25500000920E-02 0.  1.
       -2    1    3    3    0  502 -0.87318216620E+03 -0.30050462786E+03  0.15086080556E+04  0.17687985731E+04  0.25500000920E-02 0. -1.
</event>
<event>
 5   0  0.1897049E-07  0.3490600E+04  0.7818609E-02  0.8116021E-01
       -1   -1    0    0    0  501  0.00000000000E+00  0.00000000000E+00  0.25008434483E+04  0.25008434483E+04  0.50400001928E-02 0.  1.
        1   -1    0    0  501    0  0.00000000000E+00  0.00000000000E+00 -0.12180179878E+04  0.12180179879E+04  0.50400001928E-02 0. -1.
    10030    2    1    2    0    0  0.00000000000E+00  0.00000000000E+00  0.12828254605E+04  0.37188614362E+04  0.34906001231E+04 0.  0.
        2    1    3    3  502    0  0.39151863836E+03 -0.11918722913E+04  0.19341108718E+04  0.23053484048E+04  0.25500000920E-02 0.  1.
       -2    1    3    3    0  502 -0.39151863836E+03  0.11918722913E+04 -0.65128541136E+03  0.14135130314E+04  0.25500000920E-02 0. -1.
</event>
<event>
 5   0  0.5740827E-07  0.3415556E+04  0.7818609E-02  0.8134099E-01
       -2   -1    0    0    0  501  0.00000000000E+00  0.00000000000E+00  0.20813622136E+04  0.20813622136E+04  0.25500000920E-02 0.  1.
        2   -1    0    0  501    0  0.00000000000E+00  0.00000000000E+00 -0.14012482417E+04  0.14012482417E+04  0.25500000920E-02 0. -1.
    10030    2    1    2    0    0  0.00000000000E+00  0.00000000000E+00  0.68011397194E+03  0.34826104553E+04  0.34155556750E+04 0.  0.
        2    1    3    3  502    0 -0.92702558223E+03  0.55201274051E+02 -0.11212867069E+04  0.14559215260E+04  0.25500000920E-02 0. -1.
       -2    1    3    3    0  502  0.92702558223E+03 -0.55201274051E+02  0.18014006788E+04  0.20266889294E+04  0.25500000920E-02 0.  1.
</event>
<event>
 5   0  0.5554745E-07  0.3503386E+04  0.7818609E-02  0.8112988E-01
       -2   -1    0    0    0  501  0.00000000000E+00  0.00000000000E+00  0.12512387905E+04  0.12512387905E+04  0.25500000920E-02 0. -1.
        2   -1    0    0  501    0  0.00000000000E+00  0.00000000000E+00 -0.24523122965E+04  0.24523122965E+04  0.25500000920E-02 0.  1.
    10030    2    1    2    0    0  0.00000000000E+00  0.00000000000E+00 -0.12010735060E+04  0.37035510870E+04  0.35033859461E+04 0.  0.
        5    1    3    3  502    0 -0.85859582379E+03 -0.82106450296E+03  0.76028457722E+03  0.14104568178E+04  0.46999998093E+01 0. -1.
       -5    1    3    3    0  502  0.85859582379E+03  0.82106450296E+03 -0.19613580832E+04  0.22930942691E+04  0.46999998093E+01 0.  1.
</event>
<event>
 5   0  0.5573334E-07  0.3504615E+04  0.7818609E-02  0.8112697E-01
       -2   -1    0    0    0  501  0.00000000000E+00  0.00000000000E+00  0.13850488512E+04  0.13850488512E+04  0.25500000920E-02 0.  1.
        2   -1    0    0  501    0  0.00000000000E+00  0.00000000000E+00 -0.22169475915E+04  0.22169475915E+04  0.25500000920E-02 0. -1.
    10030    2    1    2    0    0  0.00000000000E+00  0.00000000000E+00 -0.83189874033E+03  0.36019964427E+04  0.35046145094E+04 0.  0.
        4    1    3    3  502    0  0.13398298596E+04 -0.71645718923E+03  0.48130562620E+03  0.15937727804E+04  0.12699999809E+01 0.  1.
       -4    1    3    3    0  502 -0.13398298596E+04  0.71645718923E+03 -0.13132043665E+04  0.20082236623E+04  0.12699999809E+01 0. -1.
</event>
<event>
 5   0  0.5740827E-07  0.3432289E+04  0.7818609E-02  0.8130027E-01
        2   -1    0    0  501    0  0.00000000000E+00  0.00000000000E+00  0.20613586624E+04  0.20613586624E+04  0.25500000920E-02 0.  1.
       -2   -1    0    0    0  501  0.00000000000E+00  0.00000000000E+00 -0.14287431658E+04  0.14287431658E+04  0.25500000920E-02 0. -1.
    10030    2    1    2    0    0  0.00000000000E+00  0.00000000000E+00  0.63261549660E+03  0.34901018282E+04  0.34322890911E+04 0.  0.
        2    1    3    3  502    0 -0.10174544690E+04 -0.29305260631E+03 -0.10570182457E+04  0.14961219864E+04  0.25500000920E-02 0. -1.
       -2    1    3    3    0  502  0.10174544690E+04  0.29305260631E+03  0.16896337423E+04  0.19939798418E+04  0.25500000920E-02 0.  1.
</event>
<event>
 5   0  0.5554745E-07  0.3428872E+04  0.7818609E-02  0.8130856E-01
       -2   -1    0    0    0  501  0.00000000000E+00  0.00000000000E+00  0.19423024439E+04  0.19423024439E+04  0.25500000920E-02 0. -1.
        2   -1    0    0  501    0  0.00000000000E+00  0.00000000000E+00 -0.15133021279E+04  0.15133021279E+04  0.25500000920E-02 0.  1.
    10030    2    1    2    0    0  0.00000000000E+00  0.00000000000E+00  0.42900031605E+03  0.34556045718E+04  0.34288717802E+04 0.  0.
        5    1    3    3  502    0 -0.56879736553E+03 -0.16552512011E+03 -0.14068745709E+04  0.15265147089E+04  0.46999998093E+01 0.  1.
       -5    1    3    3    0  502  0.56879736553E+03  0.16552512011E+03  0.18358748869E+04  0.19290898628E+04  0.46999998093E+01 0. -1.
</event>
<event>
 5   0  0.1866421E-07  0.3478535E+04  0.7818609E-02  0.8118896E-01
        1   -1    0    0  501    0  0.00000000000E+00  0.00000000000E+00  0.24340106324E+04  0.24340106324E+04  0.50400001928E-02 0.  1.
       -1   -1    0    0    0  501  0.00000000000E+00  0.00000000000E+00 -0.12428256662E+04  0.12428256662E+04  0.50400001928E-02 0. -1.
    10030    2    1    2    0    0  0.00000000000E+00  0.00000000000E+00  0.11911849662E+04  0.36768362986E+04  0.34785346833E+04 0.  0.
        1    1    3    3  502    0  0.42242020901E+03 -0.16530095953E+04  0.23843768587E+03  0.17227106795E+04  0.50400001928E-02 0. -1.
       -1    1    3    3    0  502 -0.42242020901E+03  0.16530095953E+04  0.95274728036E+03  0.19541256191E+04  0.50400001928E-02 0.  1.
</event>
<event>
 5   0  0.5677193E-07  0.3492378E+04  0.7818609E-02  0.8115599E-01
        2   -1    0    0  501    0  0.00000000000E+00  0.00000000000E+00  0.19068509243E+04  0.19068509243E+04  0.25500000920E-02 0.  1.
       -2   -1    0    0    0  501  0.00000000000E+00  0.00000000000E+00 -0.15990637251E+04  0.15990637251E+04  0.25500000920E-02 0. -1.
    10030    2    1    2    0    0  0.00000000000E+00  0.00000000000E+00  0.30778719920E+03  0.35059146494E+04  0.34923780678E+04 0.  0.
        3    1    3    3  502    0  0.74729326373E+03  0.94043540152E+03 -0.11184218207E+04  0.16412596826E+04  0.10100000352E+00 0. -1.
       -3    1    3    3    0  502 -0.74729326373E+03 -0.94043540152E+03  0.14262090199E+04  0.18646549668E+04  0.10100000352E+00 0.  1.
</event>
<event>
 5   0  0.1866421E-07  0.3511482E+04  0.7818609E-02  0.8111074E-01
       -1   -1    0    0    0  501  0.00000000000E+00  0.00000000000E+00  0.25660257120E+04  0.25660257120E+04  0.50400001928E-02 0. -1.
        1   -1    0    0  501    0  0.00000000000E+00  0.00000000000E+00 -0.12013234106E+04  0.12013234106E+04  0.50400001928E-02 0.  1.
    10030    2    1    2    0    0  0.00000000000E+00  0.00000000000E+00  0.13647023014E+04  0.37673491226E+04  0.35114821713E+04 0.  0.
        1    1    3    3  502    0  0.21762513707E+03 -0.16205622882E+04 -0.38167168835E+01  0.16351138791E+04  0.50400001928E-02 0.  1.
       -1    1    3    3    0  502 -0.21762513707E+03  0.16205622882E+04  0.13685190183E+04  0.21322352435E+04  0.50400001928E-02 0. -1.
</event>
<event>
 5   0  0.5740827E-07  0.3540376E+04  0.7818609E-02  0.8104288E-01
        2   -1    0    0  501    0  0.00000000000E+00  0.00000000000E+00  0.18231459832E+04  0.18231459832E+04  0.25500000920E-02 0.  1.
       -2   -1    0    0    0  501  0.00000000000E+00  0.00000000000E+00 -0.17187678981E+04  0.17187678981E+04  0.25500000920E-02 0. -1.
    10030    2    1    2    0    0  0.00000000000E+00  0.00000000000E+00  0.10437808513E+03  0.35419138813E+04  0.35403755673E+04 0.  0.
        2    1    3    3  502    0  0.13278282386E+04 -0.10668201664E+04 -0.43002837054E+03  0.17567462817E+04  0.25500000920E-02 0. -1.
       -2    1    3    3    0  502 -0.13278282386E+04  0.10668201664E+04  0.53440645568E+03  0.17851675996E+04  0.25500000920E-02 0.  1.
</event>
<event>
 5   0  0.5554745E-07  0.3521702E+04  0.7818609E-02  0.8108666E-01
       -2   -1    0    0    0  501  0.00000000000E+00  0.00000000000E+00  0.12908581238E+04  0.12908581238E+04  0.25500000920E-02 0.  1.
        2   -1    0    0  501    0  0.00000000000E+00  0.00000000000E+00 -0.24019656576E+04  0.24019656576E+04  0.25500000920E-02 0. -1.
    10030    2    1    2    0    0  0.00000000000E+00  0.00000000000E+00 -0.11111075338E+04  0.36928237814E+04  0.35217023623E+04 0.  0.
        5    1    3    3  502    0 -0.69884684638E+03  0.14276800128E+04  0.23883067344E+03  0.16073951954E+04  0.46999998093E+01 0.  1.
       -5    1    3    3    0  502  0.69884684638E+03 -0.14276800128E+04 -0.13499382073E+04  0.20854285860E+04  0.46999998093E+01 0. -1.
</event>
<event>
 5   0  0.1873457E-07  0.3506891E+04  0.7818609E-02  0.8112159E-01
       -1   -1    0    0    0  501  0.00000000000E+00  0.00000000000E+00  0.18328603247E+04  0.18328603247E+04  0.50400001928E-02 0. -1.
        1   -1    0    0  501    0  0.00000000000E+00  0.00000000000E+00 -0.16774715163E+04  0.16774715163E+04  0.50400001928E-02 0.  1.
    10030    2    1    2    0    0  0.00000000000E+00  0.00000000000E+00  0.15538880832E+03  0.35103318410E+04  0.35068909239E+04 0.  0.
        3    1    3    3  502    0 -0.12353349431E+04 -0.86718876221E+03 -0.81565099908E+03  0.17156209761E+04  0.10100000352E+00 0.  1.
       -3    1    3    3    0  502  0.12353349431E+04  0.86718876221E+03  0.97103980741E+03  0.17947108650E+04  0.10100000352E+00 0. -1.
</event>
<event>
 5   0  0.1866421E-07  0.3502999E+04  0.7818609E-02  0.8113080E-01
        1   -1    0    0  501    0  0.00000000000E+00  0.00000000000E+00  0.21884757573E+04  0.21884757573E+04  0.50400001928E-02 0. -1.
       -1   -1    0    0    0  501  0.00000000000E+00  0.00000000000E+00 -0.14017751235E+04  0.14017751235E+04  0.50400001928E-02 0.  1.
    10030    2    1    2    0    0  0.00000000000E+00  0.00000000000E+00  0.78670063375E+03  0.35902508808E+04  0.35029992149E+04 0.  0.
        1    1    3    3  502    0 -0.13543782399E+04  0.45172536881E+03  0.14331921199E+04  0.20229769841E+04  0.50400001928E-02 0. -1.
       -1    1    3    3    0  502  0.13543782399E+04 -0.45172536881E+03 -0.64649148611E+03  0.15672738967E+04  0.50400001928E-02 0.  1.
</event>
<event>
 5   0  0.1908190E-07  0.3499920E+04  0.7818609E-02  0.8113809E-01
       -1   -1    0    0    0  501  0.00000000000E+00  0.00000000000E+00  0.19051735176E+04  0.19051735176E+04  0.50400001928E-02 0.  1.
        1   -1    0    0  501    0  0.00000000000E+00  0.00000000000E+00 -0.16073920923E+04  0.16073920923E+04  0.50400001928E-02 0. -1.
    10030    2    1    2    0    0  0.00000000000E+00  0.00000000000E+00  0.29778142533E+03  0.35125656098E+04  0.34999204828E+04 0.  0.
        5    1    3    3  502    0 -0.90338820579E+03 -0.12961063257E+04 -0.60638183019E+03  0.16922537847E+04  0.46999998093E+01 0. -1.
       -5    1    3    3    0  502  0.90338820579E+03  0.12961063257E+04  0.90416325551E+03  0.18203118251E+04  0.46999998093E+01 0.  1.
</event>
<event>
 5   0  0.1873457E-07  0.3483558E+04  0.7818609E-02  0.8117698E-01
        1   -1    0    0  501    0  0.00000000000E+00  0.00000000000E+00  0.15277855031E+04  0.15277855031E+04  0.50400001928E-02 0. -1.
       -1   -1    0    0    0  501  0.00000000000E+00  0.00000000000E+00 -0.19857463891E+04  0.19857463891E+04  0.50400001928E-02 0.  1.
    10030    2    1    2    0    0  0.00000000000E+00  0.00000000000E+00 -0.45796088605E+03  0.35135318922E+04  0.34835582649E+04 0.  0.
        3    1    3    3  502    0  0.10635256269E+04 -0.22286894730E+03 -0.16019562707E+04  0.19357224053E+04  0.10100000352E+00 0.  1.
       -3    1    3    3    0  502 -0.10635256269E+04  0.22286894730E+03  0.11439953847E+04  0.15778094870E+04  0.10100000352E+00 0. -1.
</event>
<event>
 5   0  0.5554745E-07  0.3481551E+04  0.7818609E-02  0.8118176E-01
       -2   -1    0    0    0  501  0.00000000000E+00  0.00000000000E+00  0.16941239062E+04  0.16941239062E+04  0.25500000920E-02 0.  1.
        2   -1    0    0  501    0  0.00000000000E+00  0.00000000000E+00 -0.17887115583E+04  0.17887115583E+04  0.25500000920E-02 0. -1.
    10030    2    1    2    0    0  0.00000000000E+00  0.00000000000E+00 -0.94587652028E+02  0.34828354645E+04  0.34815508109E+04 0.  0.
        5    1    3    3  502    0  0.27853086129E+03  0.17005384097E+04 -0.29409642955E+03  0.17481204545E+04  0.46999998093E+01 0. -1.
       -5    1    3    3    0  502 -0.27853086129E+03 -0.17005384097E+04  0.19950877752E+03  0.17347150100E+04  0.46999998093E+01 0.  1.
</event>
<event>
 5   0  0.5554745E-07  0.3528356E+04  0.7818609E-02  0.8107103E-01
       -2   -1    0    0    0  501  0.00000000000E+00  0.00000000000E+00  0.11303347070E+04  0.11303347070E+04  0.25500000920E-02 0.  1.
        2   -1    0    0  501    0  0.00000000000E+00  0.00000000000E+00 -0.27534530547E+04  0.27534530547E+04  0.25500000920E-02 0. -1.
    10030    2    1    2    0    0  0.00000000000E+00  0.00000000000E+00 -0.16231183477E+04  0.38837877617E+04  0.35283557370E+04 0.  0.
        5    1    3    3  502    0  0.38876619681E+03  0.43923674156E+03  0.10198461615E+04  0.11765102440E+04  0.46999998093E+01 0.  1.
       -5    1    3    3    0  502 -0.38876619681E+03 -0.43923674156E+03 -0.26429645092E+04  0.27072775177E+04  0.46999998093E+01 0. -1.
</event>
<event>
 5   0  0.1866421E-07  0.3506830E+04  0.7818609E-02  0.8112173E-01
        1   -1    0    0  501    0  0.00000000000E+00  0.00000000000E+00  0.20192259422E+04  0.20192259422E+04  0.50400001928E-02 0. -1.
       -1   -1    0    0    0  501  0.00000000000E+00  0.00000000000E+00 -0.15225951133E+04  0.15225951133E+04  0.50400001928E-02 0.  1.
    10030    2    1    2    0    0  0.00000000000E+00  0.00000000000E+00  0.49663082887E+03  0.35418210555E+04  0.35068296521E+04 0.  0.
        1    1    3    3  502    0  0.15164117487E+04 -0.37466876764E+03  0.10528707403E+04  0.18837245215E+04  0.50400001928E-02 0. -1.
       -1    1    3    3    0  502 -0.15164117487E+04  0.37466876764E+03 -0.55623991143E+03  0.16580965340E+04  0.50400001928E-02 0.  1.
</event>
<event>
 5   0  0.1908190E-07  0.3631771E+04  0.7818609E-02  0.8083253E-01
       -1   -1    0    0    0  501  0.00000000000E+00  0.00000000000E+00  0.12135852464E+04  0.12135852464E+04  0.50400001928E-02 0. -1.
        1   -1    0    0  501    0  0.00000000000E+00  0.00000000000E+00 -0.27171063578E+04  0.27171063578E+04  0.50400001928E-02 0.  1.
    10030    2    1    2    0    0  0.00000000000E+00  0.00000000000E+00 -0.15035211114E+04  0.39306916043E+04  0.36317710219E+04 0.  0.
        5    1    3    3  502    0  0.36055608673E+03 -0.17137773524E+04 -0.23227051179E+03  0.17666366876E+04  0.46999998093E+01 0. -1.
       -5    1    3    3    0  502 -0.36055608673E+03  0.17137773524E+04 -0.12712505996E+04  0.21640549167E+04  0.46999998093E+01 0.  1.
</event>
<event>
 5   0  0.5677193E-07  0.3504467E+04  0.7818609E-02  0.8112732E-01
       -2   -1    0    0    0  501  0.00000000000E+00  0.00000000000E+00  0.10286575536E+04  0.10286575536E+04  0.25500000920E-02 0. -1.
        2   -1    0    0  501    0  0.00000000000E+00  0.00000000000E+00 -0.29847861124E+04  0.29847861124E+04  0.25500000920E-02 0.  1.
    10030    2    1    2    0    0  0.00000000000E+00  0.00000000000E+00 -0.19561285588E+04  0.40134436660E+04  0.35044673092E+04 0.  0.
        3    1    3    3  502    0 -0.15766012428E+04  0.53567711230E+03 -0.35320022781E+03  0.17021668128E+04  0.10100000352E+00 0. -1.
       -3    1    3    3    0  502  0.15766012428E+04 -0.53567711230E+03 -0.16029283309E+04  0.23112768531E+04  0.10100000352E+00 0.  1.
</event>
<event>
 5   0  0.5554745E-07  0.3508696E+04  0.7818609E-02  0.8111732E-01
       -2   -1    0    0    0  501  0.00000000000E+00  0.00000000000E+00  0.27083462485E+04  0.27083462485E+04  0.25500000920E-02 0.  1.
        2   -1    0    0  501    0  0.00000000000E+00  0.00000000000E+00 -0.11363899641E+04  0.11363899641E+04  0.25500000920E-02 0. -1.
    10030    2    1    2    0    0  0.00000000000E+00  0.00000000000E+00  0.15719562844E+04  0.38447362125E+04  0.35086963368E+04 0.  0.
        5    1    3    3  502    0 -0.60345892447E+03  0.58210407559E+03  0.24745744440E+04  0.26127664644E+04  0.46999998093E+01 0.  1.
       -5    1    3    3    0  502  0.60345892447E+03 -0.58210407559E+03 -0.90261815960E+03  0.12319697482E+04  0.46999998093E+01 0. -1.
</event>
<event>
 5   0  0.5573334E-07  0.3469893E+04  0.7818609E-02  0.8120962E-01
       -2   -1    0    0    0  501  0.00000000000E+00  0.00000000000E+00  0.10708921100E+04  0.10708921100E+04  0.25500000920E-02 0. -1.
        2   -1    0    0  501    0  0.00000000000E+00  0.00000000000E+00 -0.28107773627E+04  0.28107773627E+04  0.25500000920E-02 0.  1.
    10030    2    1    2    0    0  0.00000000000E+00  0.00000000000E+00 -0.17398852527E+04  0.38816694727E+04  0.34698929670E+04 0.  0.
        4    1    3    3  502    0  0.12699781440E+04  0.97259870168E+03 -0.16214074552E+04  0.22776646965E+04  0.12699999809E+01 0.  1.
       -4    1    3    3    0  502 -0.12699781440E+04 -0.97259870168E+03 -0.11847779744E+03  0.16040047762E+04  0.12699999809E+01 0. -1.
</event>
<event>
 5   0  0.1873457E-07  0.3416925E+04  0.7818609E-02  0.8133765E-01
       -1   -1    0    0    0  501  0.00000000000E+00  0.00000000000E+00  0.17710787076E+04  0.17710787076E+04  0.50400001928E-02 0.  1.
        1   -1    0    0  501    0  0.00000000000E+00  0.00000000000E+00 -0.16480599243E+04  0.16480599243E+04  0.50400001928E-02 0. -1.
    10030    2    1    2    0    0  0.00000000000E+00  0.00000000000E+00  0.12301878338E+03  0.34191386319E+04  0.34169248401E+04 0.  0.
        3    1    3    3  502    0  0.17032465859E+04 -0.76438984031E+02 -0.47886550501E+02  0.17056333083E+04  0.10100000352E+00 0.  1.
       -3    1    3    3    0  502 -0.17032465859E+04  0.76438984031E+02  0.17090533388E+03  0.17135053236E+04  0.10100000352E+00 0. -1.
</event>
<event>
 5   0  0.1933647E-07  0.3414103E+04  0.7818609E-02  0.8134454E-01
       -1   -1    0    0    0  501  0.00000000000E+00  0.00000000000E+00  0.11594439483E+04  0.11594439483E+04  0.50400001928E-02 0. -1.
        1   -1    0    0  501    0  0.00000000000E+00  0.00000000000E+00 -0.25132948934E+04  0.25132948934E+04  0.50400001928E-02 0.  1.
    10030    2    1    2    0    0  0.00000000000E+00  0.00000000000E+00 -0.13538509452E+04  0.36727388417E+04  0.34141028423E+04 0.  0.
        4    1    3    3  502    0 -0.10597865912E+04 -0.11258204336E+04  0.10134729104E+03  0.15494812532E+04  0.12699999809E+01 0. -1.
       -4    1    3    3    0  502  0.10597865912E+04  0.11258204336E+04 -0.14551982362E+04  0.21232575885E+04  0.12699999809E+01 0.  1.
</event>
<event>
 5   0  0.1933647E-07  0.3522071E+04  0.7818609E-02  0.8108579E-01
        1   -1    0    0  501    0  0.00000000000E+00  0.00000000000E+00  0.19453781812E+04  0.19453781812E+04  0.50400001928E-02 0. -1.
       -1   -1    0    0    0  501  0.00000000000E+00  0.00000000000E+00 -0.15941608855E+04  0.15941608856E+04  0.50400001928E-02 0.  1.
    10030    2    1    2    0    0  0.00000000000E+00  0.00000000000E+00  0.35121729562E+03  0.35395390667E+04  0.35220708704E+04 0.  0.
        4    1    3    3  502    0  0.12410523540E+04 -0.11929284372E+04  0.54887369659E+03  0.18068074466E+04  0.12699999809E+01 0. -1.
       -4    1    3    3    0  502 -0.12410523540E+04  0.11929284372E+04 -0.19765640096E+03  0.17327316201E+04  0.12699999809E+01 0.  1.
</event>
<event>
 5   0  0.1933647E-07  0.3507278E+04  0.7818609E-02  0.8112067E-01
       -1   -1    0    0    0  501  0.00000000000E+00  0.00000000000E+00  0.16891601212E+04  0.16891601212E+04  0.50400001928E-02 0. -1.
        1   -1    0    0  501    0  0.00000000000E+00  0.00000000000E+00 -0.18205788601E+04  0.18205788601E+04  0.50400001928E-02 0.  1.
    10030    2    1    2    0    0  0.00000000000E+00  0.00000000000E+00 -0.13141873886E+03  0.35097389813E+04  0.35072776953E+04 0.  0.
        4    1    3    3  502    0 -0.54754174773E+03 -0.10082196840E+04  0.12614712095E+04  0.17051745136E+04  0.12699999809E+01 0. -1.
       -4    1    3    3    0  502  0.54754174773E+03  0.10082196840E+04 -0.13928899484E+04  0.18045644676E+04  0.12699999809E+01 0.  1.
</event>
<event>
 5   0  0.1866421E-07  0.3512109E+04  0.7818609E-02  0.8110926E-01
       -1   -1    0    0    0  501  0.00000000000E+00  0.00000000000E+00  0.13215109409E+04  0.13215109409E+04  0.50400001928E-02 0.  1.
        1   -1    0    0  501    0  0.00000000000E+00  0.00000000000E+00 -0.23334860112E+04  0.23334860112E+04  0.50400001928E-02 0. -1.
    10030    2    1    2    0    0  0.00000000000E+00  0.00000000000E+00 -0.10119750703E+04  0.36549969521E+04  0.35121089358E+04 0.  0.
        1    1    3    3  502    0 -0.13272409530E+04  0.10398934611E+04 -0.10166448408E+04  0.19688864087E+04  0.50400001928E-02 0. -1.
       -1    1    3    3    0  502  0.13272409530E+04 -0.10398934611E+04  0.46697705373E+01  0.16861105434E+04  0.50400001928E-02 0.  1.
</event>
<event>
 5   0  0.1908190E-07  0.3496408E+04  0.7818609E-02  0.8114642E-01
        1   -1    0    0  501    0  0.00000000000E+00  0.00000000000E+00  0.17290796838E+04  0.17290796838E+04  0.50400001928E-02 0.  1.
       -1   -1    0    0    0  501  0.00000000000E+00  0.00000000000E+00 -0.17675396839E+04  0.17675396839E+04  0.50400001928E-02 0. -1.
    10030    2    1    2    0    0  0.00000000000E+00  0.00000000000E+00 -0.38460000139E+02  0.34966193677E+04  0.34964078467E+04 0.  0.
        5    1    3    3  502    0  0.16931312915E+04  0.41020028514E+03  0.12650809816E+03  0.17467066820E+04  0.46999998093E+01 0. -1.
       -5    1    3    3    0  502 -0.16931312915E+04 -0.41020028514E+03 -0.16496809830E+03  0.17499126857E+04  0.46999998093E+01 0.  1.
</event>
<event>
 5   0  0.5573334E-07  0.3488813E+04  0.7818609E-02  0.8116446E-01
        2   -1    0    0  501    0  0.00000000000E+00  0.00000000000E+00  0.21240920491E+04  0.21240920491E+04  0.25500000920E-02 0. -1.
       -2   -1    0    0    0  501  0.00000000000E+00  0.00000000000E+00 -0.14325902339E+04  0.14325902339E+04  0.25500000920E-02 0.  1.
    10030    2    1    2    0    0  0.00000000000E+00  0.00000000000E+00  0.69150181518E+03  0.35566822829E+04  0.34888127065E+04 0.  0.
        4    1    3    3  502    0  0.16472690695E+04 -0.46465831630E+03  0.68927674444E+03  0.18451305595E+04  0.12699999809E+01 0. -1.
       -4    1    3    3    0  502 -0.16472690695E+04  0.46465831630E+03  0.22250707416E+01  0.17115517235E+04  0.12699999809E+01 0.  1.
</event>
<event>
 5   0  0.1908190E-07  0.3541663E+04  0.7818609E-02  0.8103987E-01
        1   -1    0    0  501    0  0.00000000000E+00  0.00000000000E+00  0.22128891773E+04  0.22128891773E+04  0.50400001928E-02 0. -1.
       -1   -1    0    0    0  501  0.00000000000E+00  0.00000000000E+00 -0.14170812744E+04  0.14170812745E+04  0.50400001928E-02 0.  1.
    10030    2    1    2    0    0  0.00000000000E+00  0.00000000000E+00  0.79580790282E+03  0.36299704517E+04  0.35416627821E+04 0.  0.
        5    1    3    3  502    0 -0.16832458935E+04  0.50802449564E+03  0.61391008859E+03  0.18623408155E+04  0.46999998093E+01 0. -1.
       -5    1    3    3    0  502  0.16832458935E+04 -0.50802449564E+03  0.18189781423E+03  0.17676296362E+04  0.46999998093E+01 0.  1.
</event>
<event>
 5   0  0.5573334E-07  0.3653900E+04  0.7818609E-02  0.8078256E-01
       -2   -1    0    0    0  501  0.00000000000E+00  0.00000000000E+00  0.16080293118E+04  0.16080293118E+04  0.25500000920E-02 0. -1.
        2   -1    0    0  501    0  0.00000000000E+00  0.00000000000E+00 -0.20756746412E+04  0.20756746412E+04  0.25500000920E-02 0.  1.
    10030    2    1    2    0    0  0.00000000000E+00  0.00000000000E+00 -0.46764532945E+03  0.36837039530E+04  0.36538996510E+04 0.  0.
        4    1    3    3  502    0 -0.43890394963E+03 -0.70340154545E+03 -0.18750864195E+04  0.20502100148E+04  0.12699999809E+01 0.  1.
       -4    1    3    3    0  502  0.43890394963E+03  0.70340154545E+03  0.14074410901E+04  0.16334939382E+04  0.12699999809E+01 0. -1.
</event>
<event>
 5   0  0.1866421E-07  0.3475942E+04  0.7818609E-02  0.8119515E-01
        1   -1    0    0  501    0  0.00000000000E+00  0.00000000000E+00  0.15769920137E+04  0.15769920137E+04  0.50400001928E-02 0.  1.
       -1   -1    0    0    0  501  0.00000000000E+00  0.00000000000E+00 -0.19153826687E+04  0.19153826687E+04  0.50400001928E-02 0. -1.
    10030    2    1    2    0    0  0.00000000000E+00  0.00000000000E+00 -0.33839065499E+03  0.34923746824E+04  0.34759419856E+04 0.  0.
        1    1    3    3  502    0  0.16154803524E+04  0.63617058528E+03 -0.91023977828E+02  0.17386129952E+04  0.50400001928E-02 0. -1.
       -1    1    3    3    0  502 -0.16154803524E+04 -0.63617058528E+03 -0.24736667716E+03  0.17537616872E+04  0.50400001928E-02 0.  1.
</event>
<event>
 5   0  0.5707187E-07  0.3497293E+04  0.7818609E-02  0.8114432E-01
        2   -1    0    0  501    0  0.00000000000E+00  0.00000000000E+00  0.19015582021E+04  0.19015582021E+04  0.25500000920E-02 0.  1.
       -2   -1    0    0    0  501  0.00000000000E+00  0.00000000000E+00 -0.16080313498E+04  0.16080313498E+04  0.25500000920E-02 0. -1.
    10030    2    1    2    0    0  0.00000000000E+00  0.00000000000E+00  0.29352685236E+03  0.35095895519E+04  0.34972933548E+04 0.  0.
        1    1    3    3  502    0  0.13427238219E+04  0.97101394498E+03  0.70728780329E+03  0.18016746044E+04  0.50400001928E-02 0.  1.
       -1    1    3    3    0  502 -0.13427238219E+04 -0.97101394498E+03 -0.41376095093E+03  0.17079149475E+04  0.50400001928E-02 0. -1.
</event>
<event>
 5   0  0.1873457E-07  0.3512241E+04  0.7818609E-02  0.8110895E-01
        1   -1    0    0  501    0  0.00000000000E+00  0.00000000000E+00  0.17980474502E+04  0.17980474502E+04  0.50400001928E-02 0.  1.
       -1   -1    0    0    0  501  0.00000000000E+00  0.00000000000E+00 -0.17151714453E+04  0.17151714453E+04  0.50400001928E-02 0. -1.
    10030    2    1    2    0    0  0.00000000000E+00  0.00000000000E+00  0.82876004871E+02  0.35132188955E+04  0.35122412468E+04 0.  0.
        3    1    3    3  502    0 -0.15344507935E+03 -0.44455397850E+03 -0.16510099179E+04  0.17166850006E+04  0.10100000352E+00 0. -1.
       -3    1    3    3    0  502  0.15344507935E+03  0.44455397850E+03  0.17338859227E+04  0.17965338949E+04  0.10100000352E+00 0.  1.
</event>
<event>
 5   0  0.5740827E-07  0.3495226E+04  0.7818609E-02  0.8114922E-01
       -2   -1    0    0    0  501  0.00000000000E+00  0.00000000000E+00  0.13402724706E+04  0.13402724706E+04  0.25500000920E-02 0. -1.
        2   -1    0    0  501    0  0.00000000000E+00  0.00000000000E+00 -0.22787544566E+04  0.22787544566E+04  0.25500000920E-02 0.  1.
    10030    2    1    2    0    0  0.00000000000E+00  0.00000000000E+00 -0.93848198605E+03  0.36190269272E+04  0.34952263821E+04 0.  0.
        2    1    3    3  502    0  0.19111312148E+02  0.57190219745E+03  0.12405236760E+04  0.13661392156E+04  0.25500000920E-02 0. -1.
       -2    1    3    3    0  502 -0.19111312148E+02 -0.57190219745E+03 -0.21790056621E+04  0.22528877116E+04  0.25500000920E-02 0.  1.
</event>
<event>
 5   0  0.1866421E-07  0.3514710E+04  0.7818609E-02  0.8110313E-01
       -1   -1    0    0    0  501  0.00000000000E+00  0.00000000000E+00  0.21707278935E+04  0.21707278935E+04  0.50400001928E-02 0.  1.
        1   -1    0    0  501    0  0.00000000000E+00  0.00000000000E+00 -0.14227011119E+04  0.14227011119E+04  0.50400001928E-02 0. -1.
    10030    2    1    2    0    0  0.00000000000E+00  0.00000000000E+00  0.74802678162E+03  0.35934290055E+04  0.35147102230E+04 0.  0.
        1    1    3    3  502    0  0.12842513524E+04 -0.93466113845E+03 -0.39476113799E+03  0.16366824176E+04  0.50400001928E-02 0. -1.
       -1    1    3    3    0  502 -0.12842513524E+04  0.93466113845E+03  0.11427879196E+04  0.19567465879E+04  0.50400001928E-02 0.  1.
</event>
<event>
 5   0  0.1873457E-07  0.3247654E+04  0.7818609E-02  0.8176344E-01
        1   -1    0    0  501    0  0.00000000000E+00  0.00000000000E+00  0.25862136053E+04  0.25862136054E+04  0.50400001928E-02 0.  1.
       -1   -1    0    0    0  501  0.00000000000E+00  0.00000000000E+00 -0.10195653886E+04  0.10195653887E+04  0.50400001928E-02 0. -1.
    10030    2    1    2    0    0  0.00000000000E+00  0.00000000000E+00  0.15666482167E+04  0.36057789940E+04  0.32476538484E+04 0.  0.
        3    1    3    3  502    0 -0.68563733157E+03  0.89699381742E+02 -0.84793305668E+03  0.10941366498E+04  0.10100000352E+00 0. -1.
       -3    1    3    3    0  502  0.68563733157E+03 -0.89699381742E+02  0.24145812734E+04  0.25116423443E+04  0.10100000352E+00 0.  1.
</event>
<event>
 5   0  0.1866421E-07  0.3491466E+04  0.7818609E-02  0.8115815E-01
       -1   -1    0    0    0  501  0.00000000000E+00  0.00000000000E+00  0.14037613177E+04  0.14037613177E+04  0.50400001928E-02 0. -1.
        1   -1    0    0  501    0  0.00000000000E+00  0.00000000000E+00 -0.21710130943E+04  0.21710130943E+04  0.50400001928E-02 0.  1.
    10030    2    1    2    0    0  0.00000000000E+00  0.00000000000E+00 -0.76725177654E+03  0.35747744120E+04  0.34914662834E+04 0.  0.
        1    1    3    3  502    0  0.11725770262E+04  0.21021623373E+03 -0.16901843987E+04  0.20678131078E+04  0.50400001928E-02 0.  1.
       -1    1    3    3    0  502 -0.11725770262E+04 -0.21021623373E+03  0.92293262212E+03  0.15069613042E+04  0.50400001928E-02 0. -1.
</event>
<event>
 5   0  0.5554745E-07  0.3532666E+04  0.7818609E-02  0.8106092E-01
       -2   -1    0    0    0  501  0.00000000000E+00  0.00000000000E+00  0.29858759163E+04  0.29858759163E+04  0.25500000920E-02 0.  1.
        2   -1    0    0  501    0  0.00000000000E+00  0.00000000000E+00 -0.10448970937E+04  0.10448970937E+04  0.25500000920E-02 0. -1.
    10030    2    1    2    0    0  0.00000000000E+00  0.00000000000E+00  0.19409788226E+04  0.40307730100E+04  0.35326664531E+04 0.  0.
        5    1    3    3  502    0  0.15035955351E+03 -0.13209567881E+04  0.22973779982E+04  0.26543365627E+04  0.46999998093E+01 0.  1.
       -5    1    3    3    0  502 -0.15035955351E+03  0.13209567881E+04 -0.35639917556E+03  0.13764364474E+04  0.46999998093E+01 0. -1.
</event>
<event>
 5   0  0.5677193E-07  0.3512476E+04  0.7818609E-02  0.8110840E-01
        2   -1    0    0  501    0  0.00000000000E+00  0.00000000000E+00  0.26756438532E+04  0.26756438532E+04  0.25500000920E-02 0.  1.
       -2   -1    0    0    0  501  0.00000000000E+00  0.00000000000E+00 -0.11527590819E+04  0.11527590819E+04  0.25500000920E-02 0. -1.
    10030    2    1    2    0    0  0.00000000000E+00  0.00000000000E+00  0.15228847713E+04  0.38284029351E+04  0.35124764777E+04 0.  0.
        3    1    3    3  502    0 -0.17125001708E+04 -0.37508096800E+03  0.87591336465E+03  0.19597364109E+04  0.10100000352E+00 0.  1.
       -3    1    3    3    0  502  0.17125001708E+04  0.37508096800E+03  0.64697140663E+03  0.18686665242E+04  0.10100000352E+00 0. -1.
</event>
<event>
 5   0  0.5707187E-07  0.3487178E+04  0.7818609E-02  0.8116835E-01
        2   -1    0    0  501    0  0.00000000000E+00  0.00000000000E+00  0.29633984872E+04  0.29633984872E+04  0.25500000920E-02 0. -1.
       -2   -1    0    0    0  501  0.00000000000E+00  0.00000000000E+00 -0.10258836959E+04  0.10258836959E+04  0.25500000920E-02 0.  1.
    10030    2    1    2    0    0  0.00000000000E+00  0.00000000000E+00  0.19375147914E+04  0.39892821831E+04  0.34871777657E+04 0.  0.
        1    1    3    3  502    0  0.16112527983E+04  0.79036312056E+02  0.17256230589E+04  0.23622356487E+04  0.50400001928E-02 0. -1.
       -1    1    3    3    0  502 -0.16112527983E+04 -0.79036312056E+02  0.21189173245E+03  0.16270465344E+04  0.50400001928E-02 0.  1.
</event>
<event>
 5   0  0.1897049E-07  0.3521028E+04  0.7818609E-02  0.8108825E-01
       -1   -1    0    0    0  501  0.00000000000E+00  0.00000000000E+00  0.11634391322E+04  0.11634391322E+04  0.50400001928E-02 0.  1.
        1   -1    0    0  501    0  0.00000000000E+00  0.00000000000E+00 -0.26640069836E+04  0.26640069836E+04  0.50400001928E-02 0. -1.
    10030    2    1    2    0    0  0.00000000000E+00  0.00000000000E+00 -0.15005678514E+04  0.38274461158E+04  0.35210282437E+04 0.  0.
        2    1    3    3  502    0  0.85557154638E+03  0.57621695534E+03 -0.23011077672E+04  0.25217306769E+04  0.25500000920E-02 0. -1.
       -2    1    3    3    0  502 -0.85557154638E+03 -0.57621695534E+03  0.80053991583E+03  0.13057154389E+04  0.25500000920E-02 0.  1.
</event>
<event>
 5   0  0.1866421E-07  0.3493381E+04  0.7818609E-02  0.8115360E-01
        1   -1    0    0  501    0  0.00000000000E+00  0.00000000000E+00  0.96440122120E+03  0.96440122121E+03  0.50400001928E-02 0.  1.
       -1   -1    0    0    0  501  0.00000000000E+00  0.00000000000E+00 -0.31635452908E+04  0.31635452908E+04  0.50400001928E-02 0. -1.
    10030    2    1    2    0    0  0.00000000000E+00  0.00000000000E+00 -0.21991440696E+04  0.41279465120E+04  0.34933805643E+04 0.  0.
        1    1    3    3  502    0 -0.13171774744E+04  0.52896939864E+03 -0.23023956718E+04  0.27047718857E+04  0.50400001928E-02 0. -1.
       -1    1    3    3    0  502  0.13171774744E+04 -0.52896939864E+03  0.10325160222E+03  0.14231746264E+04  0.50400001928E-02 0.  1.
</event>
<event>
 5   0  0.5554745E-07  0.3464328E+04  0.7818609E-02  0.8122296E-01
        2   -1    0    0  501    0  0.00000000000E+00  0.00000000000E+00  0.25526765958E+04  0.25526765958E+04  0.25500000920E-02 0.  1.
       -2   -1    0    0    0  501  0.00000000000E+00  0.00000000000E+00 -0.11753903266E+04  0.11753903266E+04  0.25500000920E-02 0. -1.
    10030    2    1    2    0    0  0.00000000000E+00  0.00000000000E+00  0.13772862692E+04  0.37280669223E+04  0.34643275697E+04 0.  0.
        5    1    3    3  502    0 -0.45265684200E+03 -0.11757704703E+04 -0.59056493282E+03  0.13914465298E+04  0.46999998093E+01 0. -1.
       -5    1    3    3    0  502  0.45265684200E+03  0.11757704703E+04  0.19678512020E+04  0.23366203925E+04  0.46999998093E+01 0.  1.
</event>
<event>
 5   0  0.1908190E-07  0.3457439E+04  0.7818609E-02  0.8123951E-01
        1   -1    0    0  501    0  0.00000000000E+00  0.00000000000E+00  0.16020471725E+04  0.16020471726E+04  0.50400001928E-02 0.  1.
       -1   -1    0    0    0  501  0.00000000000E+00  0.00000000000E+00 -0.18654072432E+04  0.18654072432E+04  0.50400001928E-02 0. -1.
    10030    2    1    2    0    0  0.00000000000E+00  0.00000000000E+00 -0.26336007061E+03  0.34674544157E+04  0.34574385892E+04 0.  0.
        5    1    3    3  502    0  0.55555264548E+00  0.83799687399E+03  0.13847217020E+04  0.16185534750E+04  0.46999998093E+01 0.  1.
       -5    1    3    3    0  502 -0.55555264548E+00 -0.83799687399E+03 -0.16480817726E+04  0.18489009407E+04  0.46999998093E+01 0. -1.
</event>
<event>
 5   0  0.1933647E-07  0.3398531E+04  0.7818609E-02  0.8138267E-01
        1   -1    0    0  501    0  0.00000000000E+00  0.00000000000E+00  0.16741824869E+04  0.16741824869E+04  0.50400001928E-02 0. -1.
       -1   -1    0    0    0  501  0.00000000000E+00  0.00000000000E+00 -0.17247240210E+04  0.17247240210E+04  0.50400001928E-02 0.  1.
    10030    2    1    2    0    0  0.00000000000E+00  0.00000000000E+00 -0.50541534043E+02  0.33989065079E+04  0.33985307124E+04 0.  0.
        4    1    3    3  502    0  0.12694953115E+04 -0.96805180750E+03 -0.60736475529E+03  0.17081089563E+04  0.12699999809E+01 0.  1.
       -4    1    3    3    0  502 -0.12694953115E+04  0.96805180750E+03  0.55682322125E+03  0.16907975516E+04  0.12699999809E+01 0. -1.
</event>
<event>
 5   0  0.5677193E-07  0.3499129E+04  0.7818609E-02  0.8113996E-01
        2   -1    0    0  501    0  0.00000000000E+00  0.00000000000E+00  0.92172389301E+03  0.92172389301E+03  0.25500000920E-02 0.  1.
       -2   -1    0    0    0  501  0.00000000000E+00  0.00000000000E+00 -0.33209249170E+04  0.33209249170E+04  0.25500000920E-02 0. -1.
    10030    2    1    2    0    0  0.00000000000E+00  0.00000000000E+00 -0.23992010240E+04  0.42426488100E+04  0.34991289447E+04 0.  0.
        3    1    3    3  502    0  0.76109963304E+03  0.15014893269E+04 -0.17775805266E+04  0.24481698039E+04  0.10100000352E+00 0. -1.
       -3    1    3    3    0  502 -0.76109963304E+03 -0.15014893269E+04 -0.62162049742E+03  0.17944790061E+04  0.10100000352E+00 0.  1.
</event>
<event>
 5   0  0.1823000E-07  0.3505117E+04  0.7818609E-02  0.8112578E-01
        3   -1    0    0  501    0  0.00000000000E+00  0.00000000000E+00  0.19570535407E+04  0.19570535433E+04  0.10100000352E+00 0. -1.
       -3   -1    0    0    0  501  0.00000000000E+00  0.00000000000E+00 -0.15694317385E+04  0.15694317417E+04  0.10100000352E+00 0.  1.
    10030    2    1    2    0    0  0.00000000000E+00  0.00000000000E+00  0.38762180225E+03  0.35264852851E+04  0.35051173738E+04 0.  0.
        3    1    3    3  502    0 -0.96508573681E+03 -0.46401153538E+03 -0.12020056362E+04  0.16098182332E+04  0.10100000352E+00 0.  1.
       -3    1    3    3    0  502  0.96508573681E+03  0.46401153538E+03  0.15896274385E+04  0.19166670519E+04  0.10100000352E+00 0. -1.
</event>
<event>
 5   0  0.5554745E-07  0.3500044E+04  0.7818609E-02  0.8113779E-01
        2   -1    0    0  501    0  0.00000000000E+00  0.00000000000E+00  0.19172955076E+04  0.19172955076E+04  0.25500000920E-02 0.  1.
       -2   -1    0    0    0  501  0.00000000000E+00  0.00000000000E+00 -0.15973424146E+04  0.15973424146E+04  0.25500000920E-02 0. -1.
    10030    2    1    2    0    0  0.00000000000E+00  0.00000000000E+00  0.31995309306E+03  0.35146379222E+04  0.35000442486E+04 0.  0.
        5    1    3    3  502    0  0.36354809985E+03 -0.10993505015E+04 -0.11576747722E+04  0.16373673119E+04  0.46999998093E+01 0. -1.
       -5    1    3    3    0  502 -0.36354809985E+03  0.10993505015E+04  0.14776278652E+04  0.18772706103E+04  0.46999998093E+01 0.  1.
</event>
<event>
 5   0  0.5573334E-07  0.3494302E+04  0.7818609E-02  0.8115142E-01
       -2   -1    0    0    0  501  0.00000000000E+00  0.00000000000E+00  0.14179848657E+04  0.14179848657E+04  0.25500000920E-02 0. -1.
        2   -1    0    0  501    0  0.00000000000E+00  0.00000000000E+00 -0.21527289609E+04  0.21527289609E+04  0.25500000920E-02 0.  1.
    10030    2    1    2    0    0  0.00000000000E+00  0.00000000000E+00 -0.73474409519E+03  0.35707138265E+04  0.34943022688E+04 0.  0.
        4    1    3    3  502    0 -0.13077778683E+04  0.69152618653E+03 -0.13172384313E+04  0.19808104698E+04  0.12699999809E+01 0. -1.
       -4    1    3    3    0  502  0.13077778683E+04 -0.69152618653E+03  0.58249433608E+03  0.15899033568E+04  0.12699999809E+01 0.  1.
</event>
<event>
 5   0  0.5707187E-07  0.3498382E+04  0.7818609E-02  0.8114174E-01
       -2   -1    0    0    0  501  0.00000000000E+00  0.00000000000E+00  0.12909701455E+04  0.12909701455E+04  0.25500000920E-02 0.  1.
        2   -1    0    0  501    0  0.00000000000E+00  0.00000000000E+00 -0.23700537180E+04  0.23700537180E+04  0.25500000920E-02 0. -1.
    10030    2    1    2    0    0  0.00000000000E+00  0.00000000000E+00 -0.10790835725E+04  0.36610238634E+04  0.34983816790E+04 0.  0.
        1    1    3    3  502    0 -0.62626581843E+03 -0.12240691437E+04  0.59198251046E+03  0.14969961378E+04  0.50400001928E-02 0.  1.
       -1    1    3    3    0  502  0.62626581843E+03  0.12240691437E+04 -0.16710660830E+04  0.21640277257E+04  0.50400001928E-02 0. -1.
</event>
<event>
 5   0  0.5707187E-07  0.3442627E+04  0.7818609E-02  0.8127523E-01
        2   -1    0    0  501    0  0.00000000000E+00  0.00000000000E+00  0.19991296572E+04  0.19991296572E+04  0.25500000920E-02 0.  1.
       -2   -1    0    0    0  501  0.00000000000E+00  0.00000000000E+00 -0.14821050887E+04  0.14821050887E+04  0.25500000920E-02 0. -1.
    10030    2    1    2    0    0  0.00000000000E+00  0.00000000000E+00  0.51702456848E+03  0.34812347459E+04  0.34426270422E+04 0.  0.
        1    1    3    3  502    0 -0.13071231968E+04  0.59739934841E+03 -0.69945716617E+03  0.15983420661E+04  0.50400001928E-02 0. -1.
       -1    1    3    3    0  502  0.13071231968E+04 -0.59739934841E+03  0.12164817346E+04  0.18828926798E+04  0.50400001928E-02 0.  1.
</event>
<event>
 5   0  0.1897049E-07  0.3498024E+04  0.7818609E-02  0.8114258E-01
       -1   -1    0    0    0  501  0.00000000000E+00  0.00000000000E+00  0.24565433168E+04  0.24565433168E+04  0.50400001928E-02 0. -1.
        1   -1    0    0  501    0  0.00000000000E+00  0.00000000000E+00 -0.12452632575E+04  0.12452632575E+04  0.50400001928E-02 0.  1.
    10030    2    1    2    0    0  0.00000000000E+00  0.00000000000E+00  0.12112800594E+04  0.37018065743E+04  0.34980240896E+04 0.  0.
        2    1    3    3  502    0  0.22341431591E+03 -0.28861517614E+03 -0.12045138881E+04  0.12585969899E+04  0.25500000920E-02 0.  1.
       -2    1    3    3    0  502 -0.22341431591E+03  0.28861517614E+03  0.24157939475E+04  0.24432095844E+04  0.25500000920E-02 0. -1.
</event>
<event>
 5   0  0.5707187E-07  0.3505150E+04  0.7818609E-02  0.8112571E-01
        2   -1    0    0  501    0  0.00000000000E+00  0.00000000000E+00  0.31132093246E+04  0.31132093246E+04  0.25500000920E-02 0.  1.
       -2   -1    0    0    0  501  0.00000000000E+00  0.00000000000E+00 -0.98660841091E+03  0.98660841092E+03  0.25500000920E-02 0. -1.
    10030    2    1    2    0    0  0.00000000000E+00  0.00000000000E+00  0.21266009137E+04  0.40998177356E+04  0.35051496428E+04 0.  0.
        1    1    3    3  502    0 -0.15999142890E+04  0.62158487432E+03  0.14775385841E+04  0.22647767563E+04  0.50400001928E-02 0. -1.
       -1    1    3    3    0  502  0.15999142890E+04 -0.62158487432E+03  0.64906232959E+03  0.18350409793E+04  0.50400001928E-02 0.  1.
</event>
<event>
 5   0  0.1908190E-07  0.3503217E+04  0.7818609E-02  0.8113028E-01
       -1   -1    0    0    0  501  0.00000000000E+00  0.00000000000E+00  0.97820307454E+03  0.97820307455E+03  0.50400001928E-02 0.  1.
        1   -1    0    0  501    0  0.00000000000E+00  0.00000000000E+00 -0.31364981961E+04  0.31364981961E+04  0.50400001928E-02 0. -1.
    10030    2    1    2    0    0  0.00000000000E+00  0.00000000000E+00 -0.21582951215E+04  0.41147012706E+04  0.35032169095E+04 0.  0.
        5    1    3    3  502    0  0.63353263770E+03  0.13252296301E+04  0.41616863574E+02  0.14694731127E+04  0.46999998093E+01 0.  1.
       -5    1    3    3    0  502 -0.63353263770E+03 -0.13252296301E+04 -0.21999119851E+04  0.26452281580E+04  0.46999998093E+01 0. -1.
</event>
<event>
 5   0  0.1873457E-07  0.3275413E+04  0.7818609E-02  0.8169180E-01
        1   -1    0    0  501    0  0.00000000000E+00  0.00000000000E+00  0.19433740523E+04  0.19433740523E+04  0.50400001928E-02 0. -1.
       -1   -1    0    0    0  501  0.00000000000E+00  0.00000000000E+00 -0.13801165747E+04  0.13801165747E+04  0.50400001928E-02 0.  1.
    10030    2    1    2    0    0  0.00000000000E+00  0.00000000000E+00  0.56325747752E+03  0.33234906270E+04  0.32754130979E+04 0.  0.
        3    1    3    3  502    0  0.13003072403E+03 -0.98439859524E+03 -0.10398448136E+04  0.14377850430E+04  0.10100000352E+00 0.  1.
       -3    1    3    3    0  502 -0.13003072403E+03  0.98439859524E+03  0.16031022911E+04  0.18857055840E+04  0.10100000352E+00 0. -1.
</event>
<event>
 5   0  0.5573334E-07  0.3227854E+04  0.7818609E-02  0.8181499E-01
        2   -1    0    0  501    0  0.00000000000E+00  0.00000000000E+00  0.21481608070E+04  0.21481608070E+04  0.25500000920E-02 0. -1.
       -2   -1    0    0    0  501  0.00000000000E+00  0.00000000000E+00 -0.12125540458E+04  0.12125540458E+04  0.25500000920E-02 0.  1.
    10030    2    1    2    0    0  0.00000000000E+00  0.00000000000E+00  0.93560676120E+03  0.33607148528E+04  0.32278544438E+04 0.  0.
        4    1    3    3  502    0  0.13883921831E+04 -0.60487932724E+02 -0.38662594849E+03  0.14424884336E+04  0.12699999809E+01 0.  1.
       -4    1    3    3    0  502 -0.13883921831E+04  0.60487932724E+02  0.13222327097E+04  0.19182264192E+04  0.12699999809E+01 0. -1.
</event>
<event>
 5   0  0.1866421E-07  0.3494428E+04  0.7818609E-02  0.8115112E-01
       -1   -1    0    0    0  501  0.00000000000E+00  0.00000000000E+00  0.18198671681E+04  0.18198671682E+04  0.50400001928E-02 0.  1.
        1   -1    0    0  501    0  0.00000000000E+00  0.00000000000E+00 -0.16774609451E+04  0.16774609451E+04  0.50400001928E-02 0. -1.
    10030    2    1    2    0    0  0.00000000000E+00  0.00000000000E+00  0.14240622310E+03  0.34973281132E+04  0.34944276211E+04 0.  0.
        1    1    3    3  502    0  0.49005309294E+02 -0.79692158888E+03  0.16266071541E+04  0.18119978954E+04  0.50400001928E-02 0.  1.
       -1    1    3    3    0  502 -0.49005309294E+02  0.79692158888E+03 -0.14842009311E+04  0.16853302178E+04  0.50400001928E-02 0. -1.
</event>
<event>
 5   0  0.5677193E-07  0.3519348E+04  0.7818609E-02  0.8109220E-01
        2   -1    0    0  501    0  0.00000000000E+00  0.00000000000E+00  0.22844604663E+04  0.22844604663E+04  0.25500000920E-02 0. -1.
       -2   -1    0    0    0  501  0.00000000000E+00  0.00000000000E+00 -0.13554416077E+04  0.13554416077E+04  0.25500000920E-02 0.  1.
    10030    2    1    2    0    0  0.00000000000E+00  0.00000000000E+00  0.92901885856E+03  0.36399020740E+04  0.35193481028E+04 0.  0.
        3    1    3    3  502    0  0.38383382951E+03  0.49328047835E+03 -0.12367683028E+04  0.13857308122E+04  0.10100000352E+00 0.  1.
       -3    1    3    3    0  502 -0.38383382951E+03 -0.49328047835E+03  0.21657871613E+04  0.22541712618E+04  0.10100000352E+00 0. -1.
</event>
<event>
 5   0  0.5677193E-07  0.3501286E+04  0.7818609E-02  0.8113485E-01
       -2   -1    0    0    0  501  0.00000000000E+00  0.00000000000E+00  0.11471024704E+04  0.11471024704E+04  0.25500000920E-02 0.  1.
        2   -1    0    0  501    0  0.00000000000E+00  0.00000000000E+00 -0.26717323205E+04  0.26717323205E+04  0.25500000920E-02 0. -1.
    10030    2    1    2    0    0  0.00000000000E+00  0.00000000000E+00 -0.15246298501E+04  0.38188347910E+04  0.35012859039E+04 0.  0.
        3    1    3    3  502    0 -0.50383117952E+03  0.10524445463E+04  0.66114239964E+03  0.13411169462E+04  0.10100000352E+00 0.  1.
       -3    1    3    3    0  502  0.50383117952E+03 -0.10524445463E+04 -0.21857722497E+04  0.24777178448E+04  0.10100000352E+00 0. -1.
</event>
<event>
 5   0  0.5677193E-07  0.3506165E+04  0.7818609E-02  0.8112330E-01
        2   -1    0    0  501    0  0.00000000000E+00  0.00000000000E+00  0.23174415324E+04  0.23174415324E+04  0.25500000920E-02 0.  1.
       -2   -1    0    0    0  501  0.00000000000E+00  0.00000000000E+00 -0.13261600435E+04  0.13261600435E+04  0.25500000920E-02 0. -1.
    10030    2    1    2    0    0  0.00000000000E+00  0.00000000000E+00  0.99128148893E+03  0.36436015759E+04  0.35061650637E+04 0.  0.
        3    1    3    3  502    0  0.52578067837E+03  0.46198080690E+03 -0.11746674072E+04  0.13673752650E+04  0.10100000352E+00 0. -1.
       -3    1    3    3    0  502 -0.52578067837E+03 -0.46198080690E+03  0.21659488961E+04  0.22762263109E+04  0.10100000352E+00 0.  1.
</event>
<event>
 5   0  0.1897049E-07  0.3505607E+04  0.7818609E-02  0.8112462E-01
        1   -1    0    0  501    0  0.00000000000E+00  0.00000000000E+00  0.18494060291E+04  0.18494060291E+04  0.50400001928E-02 0.  1.
       -1   -1    0    0    0  501  0.00000000000E+00  0.00000000000E+00 -0.16612471856E+04  0.16612471856E+04  0.50400001928E-02 0. -1.
    10030    2    1    2    0    0  0.00000000000E+00  0.00000000000E+00  0.18815884358E+03  0.35106532147E+04  0.35056072574E+04 0.  0.
        2    1    3    3  502    0 -0.60491958941E+03  0.15576650137E+04 -0.43590115062E+03  0.17269214857E+04  0.25500000920E-02 0. -1.
       -2    1    3    3    0  502  0.60491958941E+03 -0.15576650137E+04  0.62405999420E+03  0.17837317290E+04  0.25500000920E-02 0.  1.
</event>
<event>
 5   0  0.5554745E-07  0.3423052E+04  0.7818609E-02  0.8132272E-01
       -2   -1    0    0    0  501  0.00000000000E+00  0.00000000000E+00  0.15074980305E+04  0.15074980305E+04  0.25500000920E-02 0. -1.
        2   -1    0    0  501    0  0.00000000000E+00  0.00000000000E+00 -0.19431678763E+04  0.19431678763E+04  0.25500000920E-02 0.  1.
    10030    2    1    2    0    0  0.00000000000E+00  0.00000000000E+00 -0.43566984575E+03  0.34506659068E+04  0.34230522909E+04 0.  0.
        5    1    3    3  502    0  0.99282856262E+03  0.10381012774E+04  0.72022911639E+03  0.16068960411E+04  0.46999998093E+01 0. -1.
       -5    1    3    3    0  502 -0.99282856262E+03 -0.10381012774E+04 -0.11558989621E+04  0.18437698657E+04  0.46999998093E+01 0.  1.
</event>
<event>
 5   0  0.5554745E-07  0.3487989E+04  0.7818609E-02  0.8116642E-01
        2   -1    0    0  501    0  0.00000000000E+00  0.00000000000E+00  0.27807147375E+04  0.27807147375E+04  0.25500000920E-02 0. -1.
       -2   -1    0    0    0  501  0.00000000000E+00  0.00000000000E+00 -0.10937892980E+04  0.10937892980E+04  0.25500000920E-02 0.  1.
    10030    2    1    2    0    0  0.00000000000E+00  0.00000000000E+00  0.16869254394E+04  0.38745040355E+04  0.34879885440E+04 0.  0.
        5    1    3    3  502    0 -0.28008390678E+02 -0.16185747178E+04  0.12278083556E+03  0.16234733785E+04  0.46999998093E+01 0.  1.
       -5    1    3    3    0  502  0.28008390678E+02  0.16185747178E+04  0.15641446039E+04  0.22510306570E+04  0.46999998093E+01 0. -1.
</event>
<event>
 5   0  0.5573334E-07  0.3506702E+04  0.7818609E-02  0.8112203E-01
       -2   -1    0    0    0  501  0.00000000000E+00  0.00000000000E+00  0.11540722431E+04  0.11540722431E+04  0.25500000920E-02 0.  1.
        2   -1    0    0  501    0  0.00000000000E+00  0.00000000000E+00 -0.26638196024E+04  0.26638196024E+04  0.25500000920E-02 0. -1.
    10030    2    1    2    0    0  0.00000000000E+00  0.00000000000E+00 -0.15097473593E+04  0.38178918455E+04  0.35067023049E+04 0.  0.
        4    1    3    3  502    0  0.88050313351E+03  0.43101328748E+03  0.82780594938E+03  0.12830910041E+04  0.12699999809E+01 0.  1.
       -4    1    3    3    0  502 -0.88050313351E+03 -0.43101328748E+03 -0.23375533086E+04  0.25348008414E+04  0.12699999809E+01 0. -1.
</event>
<event>
 5   0  0.5573334E-07  0.3498470E+04  0.7818609E-02  0.8114153E-01
       -2   -1    0    0    0  501  0.00000000000E+00  0.00000000000E+00  0.20090360546E+04  0.20090360546E+04  0.25500000920E-02 0. -1.
        2   -1    0    0  501    0  0.00000000000E+00  0.00000000000E+00 -0.15230307413E+04  0.15230307413E+04  0.25500000920E-02 0.  1.
    10030    2    1    2    0    0  0.00000000000E+00  0.00000000000E+00  0.48600531335E+03  0.35320667959E+04  0.34984703351E+04 0.  0.
        4    1    3    3  502    0 -0.12087804640E+04 -0.24846524313E+03 -0.10086353063E+04  0.15938105223E+04  0.12699999809E+01 0.  1.
       -4    1    3    3    0  502  0.12087804640E+04  0.24846524313E+03  0.14946406196E+04  0.19382562735E+04  0.12699999809E+01 0. -1.
</event>
<event>
 5   0  0.1897049E-07  0.3498401E+04  0.7818609E-02  0.8114169E-01
        1   -1    0    0  501    0  0.00000000000E+00  0.00000000000E+00  0.18480746879E+04  0.18480746879E+04  0.50400001928E-02 0. -1.
       -1   -1    0    0    0  501  0.00000000000E+00  0.00000000000E+00 -0.16556162300E+04  0.16556162301E+04  0.50400001928E-02 0.  1.
    10030    2    1    2    0    0  0.00000000000E+00  0.00000000000E+00  0.19245845781E+03  0.35036909179E+04  0.34984010334E+04 0.  0.
        2    1    3    3  502    0  0.92850314111E+03 -0.67749408790E+03  0.14167775564E+04  0.18243834483E+04  0.25500000920E-02 0. -1.
       -2    1    3    3    0  502 -0.92850314111E+03  0.67749408790E+03 -0.12243190986E+04  0.16793074696E+04  0.25500000920E-02 0.  1.
</event>
<event>
 5   0  0.5677193E-07  0.3488285E+04  0.7818609E-02  0.8116572E-01
       -2   -1    0    0    0  501  0.00000000000E+00  0.00000000000E+00  0.13990195894E+04  0.13990195894E+04  0.25500000920E-02 0.  1.
        2   -1    0    0  501    0  0.00000000000E+00  0.00000000000E+00 -0.21744034627E+04  0.21744034627E+04  0.25500000920E-02 0. -1.
    10030    2    1    2    0    0  0.00000000000E+00  0.00000000000E+00 -0.77538387329E+03  0.35734230521E+04  0.34882849882E+04 0.  0.
        3    1    3    3  502    0  0.14870514226E+03  0.16527237838E+04  0.16246691099E+03  0.16673345892E+04  0.10100000352E+00 0. -1.
       -3    1    3    3    0  502 -0.14870514226E+03 -0.16527237838E+04 -0.93785078429E+03  0.19060884630E+04  0.10100000352E+00 0.  1.
</event>
<event>
 5   0  0.1933647E-07  0.3484291E+04  0.7818609E-02  0.8117523E-01
       -1   -1    0    0    0  501  0.00000000000E+00  0.00000000000E+00  0.19212919357E+04  0.19212919357E+04  0.50400001928E-02 0.  1.
        1   -1    0    0  501    0  0.00000000000E+00  0.00000000000E+00 -0.15797036113E+04  0.15797036114E+04  0.50400001928E-02 0. -1.
    10030    2    1    2    0    0  0.00000000000E+00  0.00000000000E+00  0.34158832438E+03  0.35009955471E+04  0.34842914972E+04 0.  0.
        4    1    3    3  502    0 -0.80162687408E+03  0.15163882684E+04 -0.13567820293E+03  0.17205955985E+04  0.12699999809E+01 0. -1.
       -4    1    3    3    0  502  0.80162687408E+03 -0.15163882684E+04  0.47726652731E+03  0.17803999486E+04  0.12699999809E+01 0.  1.
</event>
<event>
 5   0  0.5707187E-07  0.3493686E+04  0.7818609E-02  0.8115288E-01
        2   -1    0    0  501    0  0.00000000000E+00  0.00000000000E+00  0.27967194963E+04  0.27967194963E+04  0.25500000920E-02 0.  1.
       -2   -1    0    0    0  501  0.00000000000E+00  0.00000000000E+00 -0.10910853702E+04  0.10910853702E+04  0.25500000920E-02 0. -1.
    10030    2    1    2    0    0  0.00000000000E+00  0.00000000000E+00  0.17056341261E+04  0.38878048665E+04  0.34936855765E+04 0.  0.
        1    1    3    3  502    0 -0.14110688339E+03 -0.15372007905E+04 -0.57078579085E+02  0.15447185462E+04  0.50400001928E-02 0. -1.
       -1    1    3    3    0  502  0.14110688339E+03  0.15372007905E+04  0.17627127052E+04  0.23430863202E+04  0.50400001928E-02 0.  1.
</event>
<event>
 5   0  0.5740827E-07  0.3561467E+04  0.7818609E-02  0.8099376E-01
       -2   -1    0    0    0  501  0.00000000000E+00  0.00000000000E+00  0.23625855973E+04  0.23625855973E+04  0.25500000920E-02 0. -1.
        2   -1    0    0  501    0  0.00000000000E+00  0.00000000000E+00 -0.13421784998E+04  0.13421784998E+04  0.25500000920E-02 0.  1.
    10030    2    1    2    0    0  0.00000000000E+00  0.00000000000E+00  0.10204070976E+04  0.37047640971E+04  0.35614668846E+04 0.  0.
        2    1    3    3  502    0  0.78245329983E+03 -0.14712796607E+04 -0.14284114186E+03  0.16725132580E+04  0.25500000920E-02 0.  1.
       -2    1    3    3    0  502 -0.78245329983E+03  0.14712796607E+04  0.11632482394E+04  0.20322508391E+04  0.25500000920E-02 0. -1.
</event>
<event>
 5   0  0.1866421E-07  0.3506534E+04  0.7818609E-02  0.8112243E-01
        1   -1    0    0  501    0  0.00000000000E+00  0.00000000000E+00  0.24546133170E+04  0.24546133171E+04  0.50400001928E-02 0. -1.
       -1   -1    0    0    0  501  0.00000000000E+00  0.00000000000E+00 -0.12523137401E+04  0.12523137401E+04  0.50400001928E-02 0.  1.
    10030    2    1    2    0    0  0.00000000000E+00  0.00000000000E+00  0.12022995769E+04  0.37069270572E+04  0.35065344622E+04 0.  0.
        1    1    3    3  502    0  0.62316005674E+03 -0.42668236063E+03  0.22738376450E+04  0.23959807865E+04  0.50400001928E-02 0. -1.
       -1    1    3    3    0  502 -0.62316005674E+03  0.42668236063E+03 -0.10715380681E+04  0.13109462707E+04  0.50400001928E-02 0.  1.
</event>
<event>
 5   0  0.1897049E-07  0.3372432E+04  0.7818609E-02  0.8144706E-01
        1   -1    0    0  501    0  0.00000000000E+00  0.00000000000E+00  0.20025626767E+04  0.20025626768E+04  0.50400001928E-02 0.  1.
       -1   -1    0    0    0  501  0.00000000000E+00  0.00000000000E+00 -0.14198425315E+04  0.14198425315E+04  0.50400001928E-02 0. -1.
    10030    2    1    2    0    0  0.00000000000E+00  0.00000000000E+00  0.58272014526E+03  0.34224052082E+04  0.33724315622E+04 0.  0.
        2    1    3    3  502    0  0.33535933474E+03 -0.97291025560E+03  0.16469322169E+04  0.19420108073E+04  0.25500000920E-02 0.  1.
       -2    1    3    3    0  502 -0.33535933474E+03  0.97291025560E+03 -0.10642120716E+04  0.14803944009E+04  0.25500000920E-02 0. -1.
</event>
<event>
 5   0  0.5573334E-07  0.3476613E+04  0.7818609E-02  0.8119355E-01
       -2   -1    0    0    0  501  0.00000000000E+00  0.00000000000E+00  0.10004683715E+04  0.10004683715E+04  0.25500000920E-02 0.  1.
        2   -1    0    0  501    0  0.00000000000E+00  0.00000000000E+00 -0.30202942482E+04  0.30202942482E+04  0.25500000920E-02 0. -1.
    10030    2    1    2    0    0  0.00000000000E+00  0.00000000000E+00 -0.20198258768E+04  0.40207626197E+04  0.34766126433E+04 0.  0.
        4    1    3    3  502    0  0.17283433481E+04 -0.62205591768E+01 -0.79510613992E+03  0.19024733404E+04  0.12699999809E+01 0. -1.
       -4    1    3    3    0  502 -0.17283433481E+04  0.62205591768E+01 -0.12247197368E+04  0.21182892793E+04  0.12699999809E+01 0.  1.
</event>
<event>
 5   0  0.5573334E-07  0.3543157E+04  0.7818609E-02  0.8103638E-01
       -2   -1    0    0    0  501  0.00000000000E+00  0.00000000000E+00  0.15884311928E+04  0.15884311928E+04  0.25500000920E-02 0. -1.
        2   -1    0    0  501    0  0.00000000000E+00  0.00000000000E+00 -0.19758429236E+04  0.19758429236E+04  0.25500000920E-02 0.  1.
    10030    2    1    2    0    0  0.00000000000E+00  0.00000000000E+00 -0.38741173085E+03  0.35642741164E+04  0.35431570848E+04 0.  0.
        4    1    3    3  502    0  0.15552282845E+04  0.84807336822E+03 -0.21676549221E+03  0.17846434787E+04  0.12699999809E+01 0.  1.
       -4    1    3    3    0  502 -0.15552282845E+04 -0.84807336822E+03 -0.17064623864E+03  0.17796306376E+04  0.12699999809E+01 0. -1.
</event>
<event>
 5   0  0.1933647E-07  0.3525844E+04  0.7818609E-02  0.8107693E-01
        1   -1    0    0  501    0  0.00000000000E+00  0.00000000000E+00  0.13453911177E+04  0.13453911177E+04  0.50400001928E-02 0. -1.
       -1   -1    0    0    0  501  0.00000000000E+00  0.00000000000E+00 -0.23100296604E+04  0.23100296604E+04  0.50400001928E-02 0.  1.
    10030    2    1    2    0    0  0.00000000000E+00  0.00000000000E+00 -0.96463854273E+03  0.36554207781E+04  0.35258436646E+04 0.  0.
        4    1    3    3  502    0 -0.13764198542E+04 -0.55895172328E+03  0.50173851712E+03  0.15680248074E+04  0.12699999809E+01 0. -1.
       -4    1    3    3    0  502  0.13764198542E+04  0.55895172328E+03 -0.14663770599E+04  0.20873959707E+04  0.12699999809E+01 0.  1.
</event>
<event>
 5   0  0.1897049E-07  0.3454315E+04  0.7818609E-02  0.8124703E-01
       -1   -1    0    0    0  501  0.00000000000E+00  0.00000000000E+00  0.19280605071E+04  0.19280605071E+04  0.50400001928E-02 0.  1.
        1   -1    0    0  501    0  0.00000000000E+00  0.00000000000E+00 -0.15471880528E+04  0.15471880528E+04  0.50400001928E-02 0. -1.
    10030    2    1    2    0    0  0.00000000000E+00  0.00000000000E+00  0.38087245434E+03  0.34752485599E+04  0.34543145090E+04 0.  0.
        2    1    3    3  502    0 -0.70134720540E+03  0.26117326159E+03 -0.13755872384E+04  0.15659947719E+04  0.25500000920E-02 0. -1.
       -2    1    3    3    0  502  0.70134720540E+03 -0.26117326159E+03  0.17564596927E+04  0.19092537881E+04  0.25500000920E-02 0.  1.
</event>
<event>
 5   0  0.5554745E-07  0.3604901E+04  0.7818609E-02  0.8089370E-01
        2   -1    0    0  501    0  0.00000000000E+00  0.00000000000E+00  0.16491072801E+04  0.16491072801E+04  0.25500000920E-02 0. -1.
       -2   -1    0    0    0  501  0.00000000000E+00  0.00000000000E+00 -0.19700529329E+04  0.19700529329E+04  0.25500000920E-02 0.  1.
    10030    2    1    2    0    0  0.00000000000E+00  0.00000000000E+00 -0.32094565281E+03  0.36191602131E+04  0.36049014599E+04 0.  0.
        5    1    3    3  502    0  0.74474968308E+03  0.11222199749E+04 -0.13630323475E+04  0.19162225948E+04  0.46999998093E+01 0.  1.
       -5    1    3    3    0  502 -0.74474968308E+03 -0.11222199749E+04  0.10420866947E+04  0.17029376183E+04  0.46999998093E+01 0. -1.
</event>
<event>
 5   0  0.5554745E-07  0.3288676E+04  0.7818609E-02  0.8165783E-01
        2   -1    0    0  501    0  0.00000000000E+00  0.00000000000E+00  0.11538448164E+04  0.11538448164E+04  0.25500000920E-02 0.  1.
       -2   -1    0    0    0  501  0.00000000000E+00  0.00000000000E+00 -0.23433368172E+04  0.23433368172E+04  0.25500000920E-02 0. -1.
    10030    2    1    2    0    0  0.00000000000E+00  0.00000000000E+00 -0.11894920008E+04  0.34971816337E+04  0.32886757455E+04 0.  0.
        5    1    3    3  502    0 -0.72231154262E+03  0.75499716460E+03 -0.19449180632E+04  0.22078231464E+04  0.46999998093E+01 0. -1.
       -5    1    3    3    0  502  0.72231154262E+03 -0.75499716460E+03  0.75542606235E+03  0.12893584873E+04  0.46999998093E+01 0.  1.
</event>
<event>
 5   0  0.1908190E-07  0.3483897E+04  0.7818609E-02  0.8117617E-01
       -1   -1    0    0    0  501  0.00000000000E+00  0.00000000000E+00  0.12610403826E+04  0.12610403826E+04  0.50400001928E-02 0.  1.
        1   -1    0    0  501    0  0.00000000000E+00  0.00000000000E+00 -0.24062545995E+04  0.24062545995E+04  0.50400001928E-02 0. -1.
    10030    2    1    2    0    0  0.00000000000E+00  0.00000000000E+00 -0.11452142169E+04  0.36672949821E+04  0.34838967956E+04 0.  0.
        5    1    3    3  502    0 -0.23611175290E+03  0.17234092864E+04 -0.66950620518E+03  0.18639069121E+04  0.46999998093E+01 0. -1.
       -5    1    3    3    0  502  0.23611175290E+03 -0.17234092864E+04 -0.47570801176E+03  0.18033880699E+04  0.46999998093E+01 0.  1.
</event>
<event>
 5   0  0.5740827E-07  0.3488652E+04  0.7818609E-02  0.8116485E-01
        2   -1    0    0  501    0  0.00000000000E+00  0.00000000000E+00  0.94572217069E+03  0.94572217070E+03  0.25500000920E-02 0. -1.
       -2   -1    0    0    0  501  0.00000000000E+00  0.00000000000E+00 -0.32173011719E+04  0.32173011719E+04  0.25500000920E-02 0.  1.
    10030    2    1    2    0    0  0.00000000000E+00  0.00000000000E+00 -0.22715790012E+04  0.41630233426E+04  0.34886519162E+04 0.  0.
        2    1    3    3  502    0  0.87696802426E+03 -0.14995210076E+04 -0.13246065967E+04  0.21845408679E+04  0.25500000920E-02 0. -1.
       -2    1    3    3    0  502 -0.87696802426E+03  0.14995210076E+04 -0.94697240458E+03  0.19784824747E+04  0.25500000920E-02 0.  1.
</event>
<event>
 5   0  0.1933647E-07  0.3114318E+04  0.7818609E-02  0.8211820E-01
       -1   -1    0    0    0  501  0.00000000000E+00  0.00000000000E+00  0.14818708678E+04  0.14818708678E+04  0.50400001928E-02 0. -1.
        1   -1    0    0  501    0  0.00000000000E+00  0.00000000000E+00 -0.16362718736E+04  0.16362718736E+04  0.50400001928E-02 0.  1.
    10030    2    1    2    0    0  0.00000000000E+00  0.00000000000E+00 -0.15440100573E+03  0.31181427414E+04  0.31143176597E+04 0.  0.
        4    1    3    3  502    0 -0.28065212392E+03  0.15118784964E+04  0.16845733719E+03  0.15469071368E+04  0.12699999809E+01 0. -1.
       -4    1    3    3    0  502  0.28065212392E+03 -0.15118784964E+04 -0.32285834292E+03  0.15712356046E+04  0.12699999809E+01 0.  1.
</event>
<event>
 5   0  0.5677193E-07  0.3560898E+04  0.7818609E-02  0.8099508E-01
       -2   -1    0    0    0  501  0.00000000000E+00  0.00000000000E+00  0.12164972303E+04  0.12164972303E+04  0.25500000920E-02 0. -1.
        2   -1    0    0  501    0  0.00000000000E+00  0.00000000000E+00 -0.26058411282E+04  0.26058411282E+04  0.25500000920E-02 0.  1.
    10030    2    1    2    0    0  0.00000000000E+00  0.00000000000E+00 -0.13893438979E+04  0.38223383585E+04  0.35608979289E+04 0.  0.
        3    1    3    3  502    0  0.40327981579E+02 -0.17384533822E+04 -0.28430537353E+03  0.17620090987E+04  0.10100000352E+00 0. -1.
       -3    1    3    3    0  502 -0.40327981579E+02  0.17384533822E+04 -0.11050385244E+04  0.20603292598E+04  0.10100000352E+00 0.  1.
</event>
<event>
 5   0  0.5554745E-07  0.3468428E+04  0.7818609E-02  0.8121313E-01
        2   -1    0    0  501    0  0.00000000000E+00  0.00000000000E+00  0.25559214420E+04  0.25559214420E+04  0.25500000920E-02 0.  1.
       -2   -1    0    0    0  501  0.00000000000E+00  0.00000000000E+00 -0.11766786193E+04  0.11766786193E+04  0.25500000920E-02 0. -1.
    10030    2    1    2    0    0  0.00000000000E+00  0.00000000000E+00  0.13792428227E+04  0.37326000613E+04  0.34684279514E+04 0.  0.
        5    1    3    3  502    0 -0.13526739861E+04  0.73574854375E+03 -0.16890128294E+03  0.15490650618E+04  0.46999998093E+01 0.  1.
       -5    1    3    3    0  502  0.13526739861E+04 -0.73574854375E+03  0.15481441056E+04  0.21835349995E+04  0.46999998093E+01 0. -1.
</event>
<event>
 5   0  0.5740827E-07  0.3515780E+04  0.7818609E-02  0.8110060E-01
       -2   -1    0    0    0  501  0.00000000000E+00  0.00000000000E+00  0.15127996407E+04  0.15127996407E+04  0.25500000920E-02 0. -1.
        2   -1    0    0  501    0  0.00000000000E+00  0.00000000000E+00 -0.20426879029E+04  0.20426879029E+04  0.25500000920E-02 0.  1.
    10030    2    1    2    0    0  0.00000000000E+00  0.00000000000E+00 -0.52988826215E+03  0.35554875436E+04  0.35157801556E+04 0.  0.
        2    1    3    3  502    0 -0.14566244800E+04 -0.46689049159E+03 -0.11410049501E+04  0.19083065538E+04  0.25500000920E-02 0.  1.
       -2    1    3    3    0  502  0.14566244800E+04  0.46689049159E+03  0.61111668798E+03  0.16471809898E+04  0.25500000920E-02 0. -1.
</event>
<event>
 5   0  0.1873457E-07  0.3502995E+04  0.7818609E-02  0.8113080E-01
        1   -1    0    0  501    0  0.00000000000E+00  0.00000000000E+00  0.19195265822E+04  0.19195265822E+04  0.50400001928E-02 0. -1.
       -1   -1    0    0    0  501  0.00000000000E+00  0.00000000000E+00 -0.15981773163E+04  0.15981773163E+04  0.50400001928E-02 0.  1.
    10030    2    1    2    0    0  0.00000000000E+00  0.00000000000E+00  0.32134926589E+03  0.35177038985E+04  0.35029951993E+04 0.  0.
        3    1    3    3  502    0  0.11539595581E+04  0.13141095774E+04  0.64160783856E+02  0.17500352167E+04  0.10100000352E+00 0.  1.
       -3    1    3    3    0  502 -0.11539595581E+04 -0.13141095774E+04  0.25718848203E+03  0.17676686818E+04  0.10100000352E+00 0. -1.
</event>
<event>
 5   0  0.5740827E-07  0.3511563E+04  0.7818609E-02  0.8111055E-01
       -2   -1    0    0    0  501  0.00000000000E+00  0.00000000000E+00  0.32510041300E+04  0.32510041300E+04  0.25500000920E-02 0. -1.
        2   -1    0    0  501    0  0.00000000000E+00  0.00000000000E+00 -0.94825139043E+03  0.94825139043E+03  0.25500000920E-02 0.  1.
    10030    2    1    2    0    0  0.00000000000E+00  0.00000000000E+00  0.23027527396E+04  0.41992555205E+04  0.35115632910E+04 0.  0.
        2    1    3    3  502    0 -0.55876718586E+03 -0.78899056451E+03  0.29040183783E+04  0.30607269758E+04  0.25500000920E-02 0. -1.
       -2    1    3    3    0  502  0.55876718586E+03  0.78899056451E+03 -0.60126563865E+03  0.11385285447E+04  0.25500000920E-02 0.  1.
</event>
<event>
 5   0  0.1908190E-07  0.3488901E+04  0.7818609E-02  0.8116425E-01
       -1   -1    0    0    0  501  0.00000000000E+00  0.00000000000E+00  0.21268216786E+04  0.21268216786E+04  0.50400001928E-02 0. -1.
        1   -1    0    0  501    0  0.00000000000E+00  0.00000000000E+00 -0.14308244255E+04  0.14308244255E+04  0.50400001928E-02 0.  1.
    10030    2    1    2    0    0  0.00000000000E+00  0.00000000000E+00  0.69599725308E+03  0.35576461042E+04  0.34889014928E+04 0.  0.
        5    1    3    3  502    0 -0.45471935054E+03  0.59898178309E+03  0.19530323107E+04  0.20928225345E+04  0.46999998093E+01 0. -1.
       -5    1    3    3    0  502  0.45471935054E+03 -0.59898178309E+03 -0.12570350576E+04  0.14648235697E+04  0.46999998093E+01 0.  1.
</event>
<event>
 5   0  0.1933647E-07  0.3609051E+04  0.7818609E-02  0.8088422E-01
       -1   -1    0    0    0  501  0.00000000000E+00  0.00000000000E+00  0.28550047881E+04  0.28550047881E+04  0.50400001928E-02 0.  1.
        1   -1    0    0  501    0  0.00000000000E+00  0.00000000000E+00 -0.11405625084E+04  0.11405625084E+04  0.50400001928E-02 0. -1.
    10030    2    1    2    0    0  0.00000000000E+00  0.00000000000E+00  0.17144422797E+04  0.39955672965E+04  0.36090505248E+04 0.  0.
        4    1    3    3  502    0  0.13961189054E+04 -0.72183594796E+03 -0.12436505076E+03  0.15765986847E+04  0.12699999809E+01 0. -1.
       -4    1    3    3    0  502 -0.13961189054E+04  0.72183594796E+03  0.18388073304E+04  0.24189686118E+04  0.12699999809E+01 0.  1.
</event>
<event>
 5   0  0.5677193E-07  0.3467555E+04  0.7818609E-02  0.8121522E-01
       -2   -1    0    0    0  501  0.00000000000E+00  0.00000000000E+00  0.15916817981E+04  0.15916817981E+04  0.25500000920E-02 0. -1.
        2   -1    0    0  501    0  0.00000000000E+00  0.00000000000E+00 -0.18885589063E+04  0.18885589063E+04  0.25500000920E-02 0.  1.
    10030    2    1    2    0    0  0.00000000000E+00  0.00000000000E+00 -0.29687710814E+03  0.34802407044E+04  0.34675552401E+04 0.  0.
        3    1    3    3  502    0  0.59860442780E+03 -0.12732042638E+04 -0.11653621271E+04  0.18268676077E+04  0.10100000352E+00 0.  1.
       -3    1    3    3    0  502 -0.59860442780E+03  0.12732042638E+04  0.86848501900E+03  0.16533730967E+04  0.10100000352E+00 0. -1.
</event>
<event>
 5   0  0.1873457E-07  0.3497636E+04  0.7818609E-02  0.8114351E-01
       -1   -1    0    0    0  501  0.00000000000E+00  0.00000000000E+00  0.16810678151E+04  0.16810678151E+04  0.50400001928E-02 0.  1.
        1   -1    0    0  501    0  0.00000000000E+00  0.00000000000E+00 -0.18192981687E+04  0.18192981688E+04  0.50400001928E-02 0. -1.
    10030    2    1    2    0    0  0.00000000000E+00  0.00000000000E+00 -0.13823035364E+03  0.35003659839E+04  0.34976355428E+04 0.  0.
        3    1    3    3  502    0 -0.16425644830E+04 -0.49379411815E+03 -0.41072146893E+03  0.17636731123E+04  0.10100000352E+00 0.  1.
       -3    1    3    3    0  502  0.16425644830E+04  0.49379411815E+03  0.27249111529E+03  0.17366928715E+04  0.10100000352E+00 0. -1.
</event>
<event>
 5   0  0.1897049E-07  0.3493875E+04  0.7818609E-02  0.8115243E-01
       -1   -1    0    0    0  501  0.00000000000E+00  0.00000000000E+00  0.25018530824E+04  0.25018530824E+04  0.50400001928E-02 0.  1.
        1   -1    0    0  501    0  0.00000000000E+00  0.00000000000E+00 -0.12198119091E+04  0.12198119091E+04  0.50400001928E-02 0. -1.
    10030    2    1    2    0    0  0.00000000000E+00  0.00000000000E+00  0.12820411733E+04  0.37216649915E+04  0.34938747457E+04 0.  0.
        2    1    3    3  502    0 -0.14338586636E+04 -0.85628428188E+03  0.95148165215E+02  0.16727900681E+04  0.25500000920E-02 0.  1.
       -2    1    3    3    0  502  0.14338586636E+04  0.85628428188E+03  0.11868930081E+04  0.20488749233E+04  0.25500000920E-02 0. -1.
</event>
<event>
 5   0  0.1897049E-07  0.3497734E+04  0.7818609E-02  0.8114327E-01
        1   -1    0    0  501    0  0.00000000000E+00  0.00000000000E+00  0.21886938207E+04  0.21886938207E+04  0.50400001928E-02 0. -1.
       -1   -1    0    0    0  501  0.00000000000E+00  0.00000000000E+00 -0.13974255089E+04  0.13974255089E+04  0.50400001928E-02 0.  1.
    10030    2    1    2    0    0  0.00000000000E+00  0.00000000000E+00  0.79126831180E+03  0.35861193297E+04  0.34977344532E+04 0.  0.
        2    1    3    3  502    0  0.30540153105E+03  0.86543537998E+03  0.19219731787E+04  0.21298425744E+04  0.25500000920E-02 0. -1.
       -2    1    3    3    0  502 -0.30540153105E+03 -0.86543537998E+03 -0.11307048669E+04  0.14562767553E+04  0.25500000920E-02 0.  1.
</event>
<event>
 5   0  0.5573334E-07  0.3464447E+04  0.7818609E-02  0.8122268E-01
       -2   -1    0    0    0  501  0.00000000000E+00  0.00000000000E+00  0.20320373899E+04  0.20320373899E+04  0.25500000920E-02 0. -1.
        2   -1    0    0  501    0  0.00000000000E+00  0.00000000000E+00 -0.14766453994E+04  0.14766453995E+04  0.25500000920E-02 0.  1.
    10030    2    1    2    0    0  0.00000000000E+00  0.00000000000E+00  0.55539199042E+03  0.35086827893E+04  0.34644472363E+04 0.  0.
        4    1    3    3  502    0  0.13773164953E+04 -0.10473506306E+04  0.19508873489E+03  0.17412654304E+04  0.12699999809E+01 0.  1.
       -4    1    3    3    0  502 -0.13773164953E+04  0.10473506306E+04  0.36030325552E+03  0.17674173589E+04  0.12699999809E+01 0. -1.
</event>
<event>
 5   0  0.1866421E-07  0.3486386E+04  0.7818609E-02  0.8117024E-01
       -1   -1    0    0    0  501  0.00000000000E+00  0.00000000000E+00  0.12039579411E+04  0.12039579411E+04  0.50400001928E-02 0. -1.
        1   -1    0    0  501    0  0.00000000000E+00  0.00000000000E+00 -0.25239429345E+04  0.25239429345E+04  0.50400001928E-02 0.  1.
    10030    2    1    2    0    0  0.00000000000E+00  0.00000000000E+00 -0.13199849934E+04  0.37279008757E+04  0.34863856006E+04 0.  0.
        1    1    3    3  502    0 -0.16604787423E+04 -0.49407239252E+03 -0.45313856209E+03  0.17907070500E+04  0.50400001928E-02 0.  1.
       -1    1    3    3    0  502  0.16604787423E+04  0.49407239252E+03 -0.86684643129E+03  0.19371938256E+04  0.50400001928E-02 0. -1.
</event>
<event>
 5   0  0.1866421E-07  0.3467854E+04  0.7818609E-02  0.8121451E-01
        1   -1    0    0  501    0  0.00000000000E+00  0.00000000000E+00  0.13650799050E+04  0.13650799050E+04  0.50400001928E-02 0.  1.
       -1   -1    0    0    0  501  0.00000000000E+00  0.00000000000E+00 -0.22024375945E+04  0.22024375945E+04  0.50400001928E-02 0. -1.
    10030    2    1    2    0    0  0.00000000000E+00  0.00000000000E+00 -0.83735768957E+03  0.35675174995E+04  0.34678542658E+04 0.  0.
        1    1    3    3  502    0  0.11128094052E+04  0.35634075216E+03 -0.17365815671E+04  0.20930931760E+04  0.50400001928E-02 0. -1.
       -1    1    3    3    0  502 -0.11128094052E+04 -0.35634075216E+03  0.89922387756E+03  0.14744243236E+04  0.50400001928E-02 0.  1.
</event>
<event>
 5   0  0.5554745E-07  0.3479782E+04  0.7818609E-02  0.8118598E-01
       -2   -1    0    0    0  501  0.00000000000E+00  0.00000000000E+00  0.12645466639E+04  0.12645466639E+04  0.25500000920E-02 0. -1.
        2   -1    0    0  501    0  0.00000000000E+00  0.00000000000E+00 -0.23939181799E+04  0.23939181799E+04  0.25500000920E-02 0.  1.
    10030    2    1    2    0    0  0.00000000000E+00  0.00000000000E+00 -0.11293715160E+04  0.36584648438E+04  0.34797823196E+04 0.  0.
        5    1    3    3  502    0  0.30916324529E+03  0.15646286091E+04 -0.12957735821E+04  0.20549199163E+04  0.46999998093E+01 0.  1.
       -5    1    3    3    0  502 -0.30916324529E+03 -0.15646286091E+04  0.16640206601E+03  0.16035449274E+04  0.46999998093E+01 0. -1.
</event>
<event>
 5   0  0.5707187E-07  0.3514198E+04  0.7818609E-02  0.8110433E-01
       -2   -1    0    0    0  501  0.00000000000E+00  0.00000000000E+00  0.31120036399E+04  0.31120036399E+04  0.25500000920E-02 0. -1.
        2   -1    0    0  501    0  0.00000000000E+00  0.00000000000E+00 -0.99209302366E+03  0.99209302367E+03  0.25500000920E-02 0.  1.
    10030    2    1    2    0    0  0.00000000000E+00  0.00000000000E+00  0.21199106162E+04  0.41040966635E+04  0.35141981166E+04 0.  0.
        1    1    3    3  502    0  0.14281647235E+04  0.83781220232E+03  0.37318389582E+03  0.16973066853E+04  0.50400001928E-02 0.  1.
       -1    1    3    3    0  502 -0.14281647235E+04 -0.83781220232E+03  0.17467267204E+04  0.24067899783E+04  0.50400001928E-02 0. -1.
</event>
<event>
 5   0  0.5707187E-07  0.3534781E+04  0.7818609E-02  0.8105597E-01
       -2   -1    0    0    0  501  0.00000000000E+00  0.00000000000E+00  0.15125132886E+04  0.15125132886E+04  0.25500000920E-02 0. -1.
        2   -1    0    0  501    0  0.00000000000E+00  0.00000000000E+00 -0.20652171804E+04  0.20652171804E+04  0.25500000920E-02 0.  1.
    10030    2    1    2    0    0  0.00000000000E+00  0.00000000000E+00 -0.55270389179E+03  0.35777304690E+04  0.35347805755E+04 0.  0.
        1    1    3    3  502    0  0.11337029808E+04  0.36316035434E+03  0.10458517735E+04  0.15846052580E+04  0.50400001928E-02 0. -1.
       -1    1    3    3    0  502 -0.11337029808E+04 -0.36316035434E+03 -0.15985556653E+04  0.19931252110E+04  0.50400001928E-02 0.  1.
</event>
<event>
 5   0  0.1873457E-07  0.3466512E+04  0.7818609E-02  0.8121772E-01
       -1   -1    0    0    0  501  0.00000000000E+00  0.00000000000E+00  0.20784284000E+04  0.20784284000E+04  0.50400001928E-02 0.  1.
        1   -1    0    0  501    0  0.00000000000E+00  0.00000000000E+00 -0.14454077090E+04  0.14454077091E+04  0.50400001928E-02 0. -1.
    10030    2    1    2    0    0  0.00000000000E+00  0.00000000000E+00  0.63302069097E+03  0.35238361091E+04  0.34665120407E+04 0.  0.
        3    1    3    3  502    0  0.94151465801E+03 -0.11164498690E+04 -0.63234156581E+03  0.15914666278E+04  0.10100000352E+00 0. -1.
       -3    1    3    3    0  502 -0.94151465801E+03  0.11164498690E+04  0.12653622568E+04  0.19323694813E+04  0.10100000352E+00 0.  1.
</event>
<event>
 5   0  0.5554745E-07  0.3506583E+04  0.7818609E-02  0.8112232E-01
        2   -1    0    0  501    0  0.00000000000E+00  0.00000000000E+00  0.20077894655E+04  0.20077894655E+04  0.25500000920E-02 0.  1.
       -2   -1    0    0    0  501  0.00000000000E+00  0.00000000000E+00 -0.15310526662E+04  0.15310526662E+04  0.25500000920E-02 0. -1.
    10030    2    1    2    0    0  0.00000000000E+00  0.00000000000E+00  0.47673679926E+03  0.35388421317E+04  0.35065831884E+04 0.  0.
        5    1    3    3  502    0  0.35834149874E+03  0.11726424768E+03  0.19663849624E+04  0.20022116382E+04  0.46999998093E+01 0.  1.
       -5    1    3    3    0  502 -0.35834149874E+03 -0.11726424768E+03 -0.14896481632E+04  0.15366304935E+04  0.46999998093E+01 0. -1.
</event>
<event>
 5   0  0.5740827E-07  0.3484774E+04  0.7818609E-02  0.8117408E-01
       -2   -1    0    0    0  501  0.00000000000E+00  0.00000000000E+00  0.12428690116E+04  0.12428690116E+04  0.25500000920E-02 0. -1.
        2   -1    0    0  501    0  0.00000000000E+00  0.00000000000E+00 -0.24426648662E+04  0.24426648662E+04  0.25500000920E-02 0.  1.
    10030    2    1    2    0    0  0.00000000000E+00  0.00000000000E+00 -0.11997958545E+04  0.36855338778E+04  0.34847740059E+04 0.  0.
        2    1    3    3  502    0  0.94000355606E+02  0.16406134792E+04 -0.12124579196E+04  0.20421809082E+04  0.25500000920E-02 0.  1.
       -2    1    3    3    0  502 -0.94000355606E+02 -0.16406134792E+04  0.12662065046E+02  0.16433529696E+04  0.25500000920E-02 0. -1.
</event>
<event>
 5   0  0.1908190E-07  0.3517406E+04  0.7818609E-02  0.8109677E-01
        1   -1    0    0  501    0  0.00000000000E+00  0.00000000000E+00  0.16496641878E+04  0.16496641878E+04  0.50400001928E-02 0. -1.
       -1   -1    0    0    0  501  0.00000000000E+00  0.00000000000E+00 -0.18749491039E+04  0.18749491039E+04  0.50400001928E-02 0.  1.
    10030    2    1    2    0    0  0.00000000000E+00  0.00000000000E+00 -0.22528491609E+03  0.35246132918E+04  0.35174060845E+04 0.  0.
        5    1    3    3  502    0 -0.52056107728E+03  0.15190342832E+04  0.60615944329E+03  0.17163625344E+04  0.46999998093E+01 0.  1.
       -5    1    3    3    0  502  0.52056107728E+03 -0.15190342832E+04 -0.83144435938E+03  0.18082507574E+04  0.46999998093E+01 0. -1.
</event>
<event>
 5   0  0.5707187E-07  0.3506974E+04  0.7818609E-02  0.8112139E-01
        2   -1    0    0  501    0  0.00000000000E+00  0.00000000000E+00  0.23616047970E+04  0.23616047970E+04  0.25500000920E-02 0.  1.
       -2   -1    0    0    0  501  0.00000000000E+00  0.00000000000E+00 -0.13019607481E+04  0.13019607481E+04  0.25500000920E-02 0. -1.
    10030    2    1    2    0    0  0.00000000000E+00  0.00000000000E+00  0.10596440488E+04  0.36635655451E+04  0.35069740508E+04 0.  0.
        1    1    3    3  502    0  0.17044805932E+04  0.12907001484E+03  0.93817731627E+03  0.19498948275E+04  0.50400001928E-02 0.  1.
       -1    1    3    3    0  502 -0.17044805932E+04 -0.12907001484E+03  0.12146673254E+03  0.17136707176E+04  0.50400001928E-02 0. -1.
</event>
<event>
 5   0  0.5573334E-07  0.3486842E+04  0.7818609E-02  0.8116915E-01
        2   -1    0    0  501    0  0.00000000000E+00  0.00000000000E+00  0.21266926178E+04  0.21266926178E+04  0.25500000920E-02 0.  1.
       -2   -1    0    0    0  501  0.00000000000E+00  0.00000000000E+00 -0.14292225317E+04  0.14292225317E+04  0.25500000920E-02 0. -1.
    10030    2    1    2    0    0  0.00000000000E+00  0.00000000000E+00  0.69747008611E+03  0.35559151494E+04  0.34868421285E+04 0.  0.
        4    1    3    3  502    0  0.91920969852E+03 -0.90683761473E+03 -0.84588583728E+03  0.15436403052E+04  0.12699999809E+01 0. -1.
       -4    1    3    3    0  502 -0.91920969852E+03  0.90683761473E+03  0.15433559234E+04  0.20122748442E+04  0.12699999809E+01 0.  1.
</event>
<event>
 5   0  0.5707187E-07  0.3514176E+04  0.7818609E-02  0.8110439E-01
        2   -1    0    0  501    0  0.00000000000E+00  0.00000000000E+00  0.16276693235E+04  0.16276693235E+04  0.25500000920E-02 0.  1.
       -2   -1    0    0    0  501  0.00000000000E+00  0.00000000000E+00 -0.18967973949E+04  0.18967973949E+04  0.25500000920E-02 0. -1.
    10030    2    1    2    0    0  0.00000000000E+00  0.00000000000E+00 -0.26912807138E+03  0.35244667184E+04  0.35141763943E+04 0.  0.
        1    1    3    3  502    0  0.67795727936E+03 -0.16060817976E+04 -0.35482981636E+03  0.17790528412E+04  0.50400001928E-02 0. -1.
       -1    1    3    3    0  502 -0.67795727936E+03  0.16060817976E+04  0.85701744978E+02  0.17454138771E+04  0.50400001928E-02 0.  1.
</event>
<event>
 5   0  0.5740827E-07  0.3507312E+04  0.7818609E-02  0.8112059E-01
       -2   -1    0    0    0  501  0.00000000000E+00  0.00000000000E+00  0.24563316775E+04  0.24563316775E+04  0.25500000920E-02 0.  1.
        2   -1    0    0  501    0  0.00000000000E+00  0.00000000000E+00 -0.12519926862E+04  0.12519926862E+04  0.25500000920E-02 0. -1.
    10030    2    1    2    0    0  0.00000000000E+00  0.00000000000E+00  0.12043389914E+04  0.37083243637E+04  0.35073119594E+04 0.  0.
        2    1    3    3  502    0 -0.73260094730E+03 -0.70819493626E+02  0.22851204697E+04  0.24007280374E+04  0.25500000920E-02 0.  1.
       -2    1    3    3    0  502  0.73260094730E+03  0.70819493626E+02 -0.10807814783E+04  0.13075963263E+04  0.25500000920E-02 0. -1.
</event>
<event>
 5   0  0.1897049E-07  0.3509711E+04  0.7818609E-02  0.8111493E-01
        1   -1    0    0  501    0  0.00000000000E+00  0.00000000000E+00  0.22849090689E+04  0.22849090689E+04  0.50400001928E-02 0.  1.
       -1   -1    0    0    0  501  0.00000000000E+00  0.00000000000E+00 -0.13477635077E+04  0.13477635077E+04  0.50400001928E-02 0. -1.
    10030    2    1    2    0    0  0.00000000000E+00  0.00000000000E+00  0.93714556117E+03  0.36326725766E+04  0.35097105644E+04 0.  0.
        2    1    3    3  502    0  0.23338497279E+03  0.16284339421E+04  0.11009201005E+04  0.19794672811E+04  0.25500000920E-02 0.  1.
       -2    1    3    3    0  502 -0.23338497279E+03 -0.16284339421E+04 -0.16377453932E+03  0.16532052955E+04  0.25500000920E-02 0. -1.
</event>
<event>
 5   0  0.1897049E-07  0.3487382E+04  0.7818609E-02  0.8116787E-01
        1   -1    0    0  501    0  0.00000000000E+00  0.00000000000E+00  0.31615247238E+04  0.31615247238E+04  0.50400001928E-02 0.  1.
       -1   -1    0    0    0  501  0.00000000000E+00  0.00000000000E+00 -0.96170627949E+03  0.96170627950E+03  0.50400001928E-02 0. -1.
    10030    2    1    2    0    0  0.00000000000E+00  0.00000000000E+00  0.21998184444E+04  0.41232310034E+04  0.34873819290E+04 0.  0.
        2    1    3    3  502    0  0.56496509173E+03  0.46303653885E+03  0.29719014540E+04  0.30603572738E+04  0.25500000920E-02 0.  1.
       -2    1    3    3    0  502 -0.56496509173E+03 -0.46303653885E+03 -0.77208300963E+03  0.10628737295E+04  0.25500000920E-02 0. -1.
</event>
<event>
 5   0  0.5707187E-07  0.3502262E+04  0.7818609E-02  0.8113254E-01
        2   -1    0    0  501    0  0.00000000000E+00  0.00000000000E+00  0.24399224455E+04  0.24399224455E+04  0.25500000920E-02 0.  1.
       -2   -1    0    0    0  501  0.00000000000E+00  0.00000000000E+00 -0.12567860590E+04  0.12567860590E+04  0.25500000920E-02 0. -1.
    10030    2    1    2    0    0  0.00000000000E+00  0.00000000000E+00  0.11831363865E+04  0.36967085045E+04  0.35022624200E+04 0.  0.
        1    1    3    3  502    0 -0.12315691273E+04 -0.39114874328E+03 -0.65586757246E+03  0.14491108057E+04  0.50400001928E-02 0. -1.
       -1    1    3    3    0  502  0.12315691273E+04  0.39114874328E+03  0.18390039590E+04  0.22475976988E+04  0.50400001928E-02 0.  1.
</event>
<event>
 5   0  0.1866421E-07  0.3505784E+04  0.7818609E-02  0.8112421E-01
        1   -1    0    0  501    0  0.00000000000E+00  0.00000000000E+00  0.25216538466E+04  0.25216538466E+04  0.50400001928E-02 0. -1.
       -1   -1    0    0    0  501  0.00000000000E+00  0.00000000000E+00 -0.12184977449E+04  0.12184977449E+04  0.50400001928E-02 0.  1.
    10030    2    1    2    0    0  0.00000000000E+00  0.00000000000E+00  0.13031561016E+04  0.37401515915E+04  0.35057835219E+04 0.  0.
        1    1    3    3  502    0  0.33045516856E+03 -0.17149626402E+04  0.49214865390E+03  0.18145268731E+04  0.50400001928E-02 0.  1.
       -1    1    3    3    0  502 -0.33045516856E+03  0.17149626402E+04  0.81100744773E+03  0.19256247184E+04  0.50400001928E-02 0. -1.
</event>
<event>
 5   0  0.1908190E-07  0.3497936E+04  0.7818609E-02  0.8114279E-01
        1   -1    0    0  501    0  0.00000000000E+00  0.00000000000E+00  0.10590353716E+04  0.10590353716E+04  0.50400001928E-02 0.  1.
       -1   -1    0    0    0  501  0.00000000000E+00  0.00000000000E+00 -0.28883729508E+04  0.28883729508E+04  0.50400001928E-02 0. -1.
    10030    2    1    2    0    0  0.00000000000E+00  0.00000000000E+00 -0.18293375792E+04  0.39474083224E+04  0.34979360322E+04 0.  0.
        5    1    3    3  502    0  0.15578853854E+03 -0.13266351240E+04  0.35940128545E+03  0.13832650487E+04  0.46999998093E+01 0.  1.
       -5    1    3    3    0  502 -0.15578853854E+03  0.13266351240E+04 -0.21887388646E+04  0.25641432738E+04  0.46999998093E+01 0. -1.
</event>
<event>
 5   0  0.5707187E-07  0.3492456E+04  0.7818609E-02  0.8115580E-01
        2   -1    0    0  501    0  0.00000000000E+00  0.00000000000E+00  0.15203911562E+04  0.15203911562E+04  0.25500000920E-02 0.  1.
       -2   -1    0    0    0  501  0.00000000000E+00  0.00000000000E+00 -0.20056105757E+04  0.20056105757E+04  0.25500000920E-02 0. -1.
    10030    2    1    2    0    0  0.00000000000E+00  0.00000000000E+00 -0.48521941953E+03  0.35260017319E+04  0.34924562028E+04 0.  0.
        1    1    3    3  502    0 -0.16074583086E+04  0.68106688825E+03 -0.20301230841E+03  0.17575517966E+04  0.50400001928E-02 0. -1.
       -1    1    3    3    0  502  0.16074583086E+04 -0.68106688825E+03 -0.28220711112E+03  0.17684499353E+04  0.50400001928E-02 0.  1.
</event>
<event>
 5   0  0.1933647E-07  0.3506431E+04  0.7818609E-02  0.8112268E-01
       -1   -1    0    0    0  501  0.00000000000E+00  0.00000000000E+00  0.18291130788E+04  0.18291130788E+04  0.50400001928E-02 0. -1.
        1   -1    0    0  501    0  0.00000000000E+00  0.00000000000E+00 -0.16804674136E+04  0.16804674136E+04  0.50400001928E-02 0.  1.
    10030    2    1    2    0    0  0.00000000000E+00  0.00000000000E+00  0.14864566519E+03  0.35095804924E+04  0.35064311913E+04 0.  0.
        4    1    3    3  502    0 -0.37148301036E+02  0.15580498885E+04  0.87807823679E+03  0.17888327071E+04  0.12699999809E+01 0. -1.
       -4    1    3    3    0  502  0.37148301036E+02 -0.15580498885E+04 -0.72943257160E+03  0.17207477853E+04  0.12699999809E+01 0.  1.
</event>
<event>
 5   0  0.5740827E-07  0.3497666E+04  0.7818609E-02  0.8114343E-01
       -2   -1    0    0    0  501  0.00000000000E+00  0.00000000000E+00  0.15260200534E+04  0.15260200534E+04  0.25500000920E-02 0. -1.
        2   -1    0    0  501    0  0.00000000000E+00  0.00000000000E+00 -0.20041790749E+04  0.20041790749E+04  0.25500000920E-02 0.  1.
    10030    2    1    2    0    0  0.00000000000E+00  0.00000000000E+00 -0.47815902150E+03  0.35301991284E+04  0.34976663414E+04 0.  0.
        2    1    3    3  502    0  0.52434049414E+03 -0.27560381848E+03  0.14216818307E+04  0.15401524750E+04  0.25500000920E-02 0. -1.
       -2    1    3    3    0  502 -0.52434049414E+03  0.27560381848E+03 -0.18998408522E+04  0.19900466533E+04  0.25500000920E-02 0.  1.
</event>
<event>
 5   0  0.1866421E-07  0.3383621E+04  0.7818609E-02  0.8141938E-01
        1   -1    0    0  501    0  0.00000000000E+00  0.00000000000E+00  0.19033729285E+04  0.19033729285E+04  0.50400001928E-02 0. -1.
       -1   -1    0    0    0  501  0.00000000000E+00  0.00000000000E+00 -0.15037638481E+04  0.15037638481E+04  0.50400001928E-02 0.  1.
    10030    2    1    2    0    0  0.00000000000E+00  0.00000000000E+00  0.39960908035E+03  0.34071367766E+04  0.33836213732E+04 0.  0.
        1    1    3    3  502    0 -0.36204328697E+02 -0.15763129462E+04  0.81737771493E+03  0.17760010098E+04  0.50400001928E-02 0. -1.
       -1    1    3    3    0  502  0.36204328697E+02  0.15763129462E+04 -0.41776863458E+03  0.16311357668E+04  0.50400001928E-02 0.  1.
</event>
<event>
 5   0  0.1866421E-07  0.3498321E+04  0.7818609E-02  0.8114188E-01
        1   -1    0    0  501    0  0.00000000000E+00  0.00000000000E+00  0.15515778014E+04  0.15515778014E+04  0.50400001928E-02 0. -1.
       -1   -1    0    0    0  501  0.00000000000E+00  0.00000000000E+00 -0.19719040404E+04  0.19719040404E+04  0.50400001928E-02 0.  1.
    10030    2    1    2    0    0  0.00000000000E+00  0.00000000000E+00 -0.42032623897E+03  0.35234818418E+04  0.34983210462E+04 0.  0.
        1    1    3    3  502    0 -0.11444489752E+04  0.51425917970E+03 -0.14376724798E+04  0.19081740277E+04  0.50400001928E-02 0.  1.
       -1    1    3    3    0  502  0.11444489752E+04 -0.51425917970E+03  0.10173462408E+04  0.16153078141E+04  0.50400001928E-02 0. -1.
</event>
<event>
 5   0  0.5554745E-07  0.3487835E+04  0.7818609E-02  0.8116679E-01
       -2   -1    0    0    0  501  0.00000000000E+00  0.00000000000E+00  0.12601713798E+04  0.12601713798E+04  0.25500000920E-02 0. -1.
        2   -1    0    0  501    0  0.00000000000E+00  0.00000000000E+00 -0.24133604950E+04  0.24133604950E+04  0.25500000920E-02 0.  1.
    10030    2    1    2    0    0  0.00000000000E+00  0.00000000000E+00 -0.11531891152E+04  0.36735318748E+04  0.34878347581E+04 0.  0.
        5    1    3    3  502    0 -0.27108997095E+03  0.34599173416E+03  0.12008655476E+04  0.12787885696E+04  0.46999998093E+01 0. -1.
       -5    1    3    3    0  502  0.27108997095E+03 -0.34599173416E+03 -0.23540546627E+04  0.23947433052E+04  0.46999998093E+01 0.  1.
</event>
<event>
 5   0  0.1873457E-07  0.3501727E+04  0.7818609E-02  0.8113381E-01
        1   -1    0    0  501    0  0.00000000000E+00  0.00000000000E+00  0.21858324825E+04  0.21858324825E+04  0.50400001928E-02 0. -1.
       -1   -1    0    0    0  501  0.00000000000E+00  0.00000000000E+00 -0.14024509527E+04  0.14024509527E+04  0.50400001928E-02 0.  1.
    10030    2    1    2    0    0  0.00000000000E+00  0.00000000000E+00  0.78338152982E+03  0.35882834352E+04  0.35017269154E+04 0.  0.
        3    1    3    3  502    0 -0.77219096448E+03  0.46617095337E+03  0.19294267362E+04  0.21298548739E+04  0.10100000352E+00 0. -1.
       -3    1    3    3    0  502  0.77219096448E+03 -0.46617095337E+03 -0.11460452063E+04  0.14584285613E+04  0.10100000352E+00 0.  1.
</event>
<event>
 5   0  0.1908190E-07  0.3500915E+04  0.7818609E-02  0.8113573E-01
       -1   -1    0    0    0  501  0.00000000000E+00  0.00000000000E+00  0.16252239009E+04  0.16252239009E+04  0.50400001928E-02 0.  1.
        1   -1    0    0  501    0  0.00000000000E+00  0.00000000000E+00 -0.18853414992E+04  0.18853414993E+04  0.50400001928E-02 0. -1.
    10030    2    1    2    0    0  0.00000000000E+00  0.00000000000E+00 -0.26011759840E+03  0.35105654001E+04  0.35009153465E+04 0.  0.
        5    1    3    3  502    0  0.17746416880E+03 -0.15396052245E+04  0.68594234451E+03  0.16948205711E+04  0.46999998093E+01 0.  1.
       -5    1    3    3    0  502 -0.17746416880E+03  0.15396052245E+04 -0.94605994290E+03  0.18157448290E+04  0.46999998093E+01 0. -1.
</event>
<event>
 5   0  0.5740827E-07  0.3479043E+04  0.7818609E-02  0.8118775E-01
       -2   -1    0    0    0  501  0.00000000000E+00  0.00000000000E+00  0.15829545986E+04  0.15829545986E+04  0.25500000920E-02 0. -1.
        2   -1    0    0  501    0  0.00000000000E+00  0.00000000000E+00 -0.19115737509E+04  0.19115737509E+04  0.25500000920E-02 0.  1.
    10030    2    1    2    0    0  0.00000000000E+00  0.00000000000E+00 -0.32861915226E+03  0.34945283495E+04  0.34790426611E+04 0.  0.
        2    1    3    3  502    0  0.11170443708E+04 -0.13071322485E+04  0.10059071363E+03  0.17223534286E+04  0.25500000920E-02 0.  1.
       -2    1    3    3    0  502 -0.11170443708E+04  0.13071322485E+04 -0.42920986589E+03  0.17721749209E+04  0.25500000920E-02 0. -1.
</event>
<event>
 5   0  0.5573334E-07  0.3480185E+04  0.7818609E-02  0.8118502E-01
       -2   -1    0    0    0  501  0.00000000000E+00  0.00000000000E+00  0.11314288919E+04  0.11314288919E+04  0.25500000920E-02 0.  1.
        2   -1    0    0  501    0  0.00000000000E+00  0.00000000000E+00 -0.26761922279E+04  0.26761922279E+04  0.25500000920E-02 0. -1.
    10030    2    1    2    0    0  0.00000000000E+00  0.00000000000E+00 -0.15447633360E+04  0.38076211199E+04  0.34801845968E+04 0.  0.
        4    1    3    3  502    0 -0.89913657727E+03  0.40849434194E+02  0.85696336266E+03  0.12427803823E+04  0.12699999809E+01 0.  1.
       -4    1    3    3    0  502  0.89913657727E+03 -0.40849434194E+02 -0.24017266987E+04  0.25648407375E+04  0.12699999809E+01 0. -1.
</event>
<event>
 5   0  0.1873457E-07  0.3423847E+04  0.7818609E-02  0.8132078E-01
        1   -1    0    0  501    0  0.00000000000E+00  0.00000000000E+00  0.15808145424E+04  0.15808145424E+04  0.50400001928E-02 0.  1.
       -1   -1    0    0    0  501  0.00000000000E+00  0.00000000000E+00 -0.18539057876E+04  0.18539057876E+04  0.50400001928E-02 0. -1.
    10030    2    1    2    0    0  0.00000000000E+00  0.00000000000E+00 -0.27309124517E+03  0.34347203300E+04  0.34238465090E+04 0.  0.
        3    1    3    3  502    0 -0.10941045667E+04 -0.13166353009E+04 -0.14595092287E+03  0.17181079712E+04  0.10100000352E+00 0.  1.
       -3    1    3    3    0  502  0.10941045667E+04  0.13166353009E+04 -0.12714032230E+03  0.17166123588E+04  0.10100000352E+00 0. -1.
</event>
<event>
 5   0  0.5740827E-07  0.3403435E+04  0.7818609E-02  0.8137064E-01
       -2   -1    0    0    0  501  0.00000000000E+00  0.00000000000E+00  0.13337016479E+04  0.13337016479E+04  0.25500000920E-02 0.  1.
        2   -1    0    0  501    0  0.00000000000E+00  0.00000000000E+00 -0.21712823447E+04  0.21712823447E+04  0.25500000920E-02 0. -1.
    10030    2    1    2    0    0  0.00000000000E+00  0.00000000000E+00 -0.83758069682E+03  0.35049839925E+04  0.34034352299E+04 0.  0.
        2    1    3    3  502    0  0.16241008520E+04 -0.47038341158E+03 -0.61655852373E+03  0.17997523565E+04  0.25500000920E-02 0. -1.
       -2    1    3    3    0  502 -0.16241008520E+04  0.47038341158E+03 -0.22102217309E+03  0.17052316360E+04  0.25500000920E-02 0.  1.
</event>
<event>
 5   0  0.5573334E-07  0.3495838E+04  0.7818609E-02  0.8114777E-01
        2   -1    0    0  501    0  0.00000000000E+00  0.00000000000E+00  0.17801312143E+04  0.17801312143E+04  0.25500000920E-02 0. -1.
       -2   -1    0    0    0  501  0.00000000000E+00  0.00000000000E+00 -0.17162892796E+04  0.17162892796E+04  0.25500000920E-02 0.  1.
    10030    2    1    2    0    0  0.00000000000E+00  0.00000000000E+00  0.63841934731E+02  0.34964204939E+04  0.34958375932E+04 0.  0.
        4    1    3    3  502    0  0.64421082886E+03 -0.79056886989E+02 -0.15912978647E+04  0.17185715262E+04  0.12699999809E+01 0.  1.
       -4    1    3    3    0  502 -0.64421082886E+03  0.79056886989E+02  0.16551397995E+04  0.17778489677E+04  0.12699999809E+01 0. -1.
</event>
<event>
 5   0  0.5677193E-07  0.3484035E+04  0.7818609E-02  0.8117584E-01
        2   -1    0    0  501    0  0.00000000000E+00  0.00000000000E+00  0.18526527485E+04  0.18526527485E+04  0.25500000920E-02 0. -1.
       -2   -1    0    0    0  501  0.00000000000E+00  0.00000000000E+00 -0.16379888166E+04  0.16379888166E+04  0.25500000920E-02 0.  1.
    10030    2    1    2    0    0  0.00000000000E+00  0.00000000000E+00  0.21466393188E+03  0.34906415651E+04  0.34840347203E+04 0.  0.
        3    1    3    3  502    0  0.71707324290E+02  0.17313495724E+04 -0.71643823419E+02  0.17343143111E+04  0.10100000352E+00 0.  1.
       -3    1    3    3    0  502 -0.71707324290E+02 -0.17313495724E+04  0.28630775530E+03  0.17563272540E+04  0.10100000352E+00 0. -1.
</event>
<event>
 5   0  0.1908190E-07  0.3434845E+04  0.7818609E-02  0.8129407E-01
       -1   -1    0    0    0  501  0.00000000000E+00  0.00000000000E+00  0.15680346343E+04  0.15680346343E+04  0.50400001928E-02 0.  1.
        1   -1    0    0  501    0  0.00000000000E+00  0.00000000000E+00 -0.18810426558E+04  0.18810426558E+04  0.50400001928E-02 0. -1.
    10030    2    1    2    0    0  0.00000000000E+00  0.00000000000E+00 -0.31300802153E+03  0.34490772902E+04  0.34348449939E+04 0.  0.
        5    1    3    3  502    0  0.20604725352E+03 -0.10851047511E+04  0.11640917419E+04  0.16046929504E+04  0.46999998093E+01 0.  1.
       -5    1    3    3    0  502 -0.20604725352E+03  0.10851047511E+04 -0.14770997635E+04  0.18443843397E+04  0.46999998093E+01 0. -1.
</event>
<event>
 5   0  0.5740827E-07  0.3484405E+04  0.7818609E-02  0.8117496E-01
       -2   -1    0    0    0  501  0.00000000000E+00  0.00000000000E+00  0.11394328171E+04  0.11394328171E+04  0.25500000920E-02 0. -1.
        2   -1    0    0  501    0  0.00000000000E+00  0.00000000000E+00 -0.26638426701E+04  0.26638426701E+04  0.25500000920E-02 0.  1.
    10030    2    1    2    0    0  0.00000000000E+00  0.00000000000E+00 -0.15244098529E+04  0.38032754872E+04  0.34844051187E+04 0.  0.
        2    1    3    3  502    0  0.74468520126E+03  0.11843462753E+04 -0.18955080803E+04  0.23558826438E+04  0.25500000920E-02 0.  1.
       -2    1    3    3    0  502 -0.74468520126E+03 -0.11843462753E+04  0.37109822737E+03  0.14473928434E+04  0.25500000920E-02 0. -1.
</event>
<event>
 5   0  0.1823000E-07  0.3491489E+04  0.7818609E-02  0.8115810E-01
        3   -1    0    0  501    0  0.00000000000E+00  0.00000000000E+00  0.13692469922E+04  0.13692469959E+04  0.10100000352E+00 0.  1.
       -3   -1    0    0    0  501  0.00000000000E+00  0.00000000000E+00 -0.22257665054E+04  0.22257665077E+04  0.10100000352E+00 0. -1.
    10030    2    1    2    0    0  0.00000000000E+00  0.00000000000E+00 -0.85651951317E+03  0.35950135036E+04  0.34914891400E+04 0.  0.
        5    1    3    3  502    0 -0.12918307594E+04  0.50108758278E+03 -0.15216722410E+04  0.20580145713E+04  0.46999998093E+01 0. -1.
       -5    1    3    3    0  502  0.12918307594E+04 -0.50108758278E+03  0.66515272785E+03  0.15369989323E+04  0.46999998093E+01 0.  1.
</event>
<event>
 5   0  0.1933647E-07  0.3503564E+04  0.7818609E-02  0.8112946E-01
        1   -1    0    0  501    0  0.00000000000E+00  0.00000000000E+00  0.18259252845E+04  0.18259252845E+04  0.50400001928E-02 0.  1.
       -1   -1    0    0    0  501  0.00000000000E+00  0.00000000000E+00 -0.16806491892E+04  0.16806491893E+04  0.50400001928E-02 0. -1.
    10030    2    1    2    0    0  0.00000000000E+00  0.00000000000E+00  0.14527609522E+03  0.35065744737E+04  0.35035638136E+04 0.  0.
        4    1    3    3  502    0 -0.22155391754E+02 -0.32240620203E+03  0.17958322717E+04  0.18246785420E+04  0.12699999809E+01 0.  1.
       -4    1    3    3    0  502  0.22155391754E+02  0.32240620203E+03 -0.16505561765E+04  0.16818959317E+04  0.12699999809E+01 0. -1.
</event>
<event>
 5   0  0.5740827E-07  0.3469305E+04  0.7818609E-02  0.8121103E-01
       -2   -1    0    0    0  501  0.00000000000E+00  0.00000000000E+00  0.15153687797E+04  0.15153687797E+04  0.25500000920E-02 0.  1.
        2   -1    0    0  501    0  0.00000000000E+00  0.00000000000E+00 -0.19856679391E+04  0.19856679391E+04  0.25500000920E-02 0. -1.
    10030    2    1    2    0    0  0.00000000000E+00  0.00000000000E+00 -0.47029915940E+03  0.35010367187E+04  0.34693049457E+04 0.  0.
        2    1    3    3  502    0 -0.98150348133E+03  0.11405303472E+04 -0.11060965340E+04  0.18675138819E+04  0.25500000920E-02 0. -1.
       -2    1    3    3    0  502  0.98150348133E+03 -0.11405303472E+04  0.63579737464E+03  0.16335228368E+04  0.25500000920E-02 0.  1.
</event>
<event>
 5   0  0.1908190E-07  0.3616168E+04  0.7818609E-02  0.8086798E-01
        1   -1    0    0  501    0  0.00000000000E+00  0.00000000000E+00  0.25901970897E+04  0.25901970897E+04  0.50400001928E-02 0. -1.
       -1   -1    0    0    0  501  0.00000000000E+00  0.00000000000E+00 -0.12621308758E+04  0.12621308758E+04  0.50400001928E-02 0.  1.
    10030    2    1    2    0    0  0.00000000000E+00  0.00000000000E+00  0.13280662139E+04  0.38523279655E+04  0.36161679836E+04 0.  0.
        5    1    3    3  502    0 -0.10599883111E+04  0.31583645429E+03 -0.85969727593E+03  0.14008673677E+04  0.46999998093E+01 0.  1.
       -5    1    3    3    0  502  0.10599883111E+04 -0.31583645429E+03  0.21877634898E+04  0.24514605978E+04  0.46999998093E+01 0. -1.
</event>
<event>
 5   0  0.1908190E-07  0.3497548E+04  0.7818609E-02  0.8114371E-01
       -1   -1    0    0    0  501  0.00000000000E+00  0.00000000000E+00  0.14762928455E+04  0.14762928455E+04  0.50400001928E-02 0. -1.
        1   -1    0    0  501    0  0.00000000000E+00  0.00000000000E+00 -0.20715475201E+04  0.20715475201E+04  0.50400001928E-02 0.  1.
    10030    2    1    2    0    0  0.00000000000E+00  0.00000000000E+00 -0.59525467468E+03  0.35478403656E+04  0.34975481601E+04 0.  0.
        5    1    3    3  502    0  0.49965649278E+02 -0.72094702439E+03  0.13177306566E+04  0.15028963209E+04  0.46999998093E+01 0. -1.
       -5    1    3    3    0  502 -0.49965649278E+02  0.72094702439E+03 -0.19129853313E+04  0.20449440447E+04  0.46999998093E+01 0.  1.
</event>
<event>
 5   0  0.1873457E-07  0.3484824E+04  0.7818609E-02  0.8117396E-01
        1   -1    0    0  501    0  0.00000000000E+00  0.00000000000E+00  0.18450920785E+04  0.18450920785E+04  0.50400001928E-02 0.  1.
       -1   -1    0    0    0  501  0.00000000000E+00  0.00000000000E+00 -0.16454464999E+04  0.16454464999E+04  0.50400001928E-02 0. -1.
    10030    2    1    2    0    0  0.00000000000E+00  0.00000000000E+00  0.19964557851E+03  0.34905385784E+04  0.34848244160E+04 0.  0.
        3    1    3    3  502    0  0.17132229199E+04  0.28968863480E+03 -0.30575216199E+02  0.17378110175E+04  0.10100000352E+00 0. -1.
       -3    1    3    3    0  502 -0.17132229199E+04 -0.28968863480E+03  0.23022079471E+03  0.17527275609E+04  0.10100000352E+00 0.  1.
</event>
<event>
 5   0  0.1897049E-07  0.3531369E+04  0.7818609E-02  0.8106396E-01
       -1   -1    0    0    0  501  0.00000000000E+00  0.00000000000E+00  0.14225326482E+04  0.14225326482E+04  0.50400001928E-02 0.  1.
        1   -1    0    0  501    0  0.00000000000E+00  0.00000000000E+00 -0.21916130369E+04  0.21916130369E+04  0.50400001928E-02 0. -1.
    10030    2    1    2    0    0  0.00000000000E+00  0.00000000000E+00 -0.76908038868E+03  0.36141456851E+04  0.35313686282E+04 0.  0.
        2    1    3    3  502    0  0.16456119861E+03  0.84138609026E+03 -0.19642994823E+04  0.21432413297E+04  0.25500000920E-02 0. -1.
       -2    1    3    3    0  502 -0.16456119861E+03 -0.84138609026E+03  0.11952190936E+04  0.14709043554E+04  0.25500000920E-02 0.  1.
</event>
<event>
 5   0  0.5554745E-07  0.3499117E+04  0.7818609E-02  0.8113999E-01
        2   -1    0    0  501    0  0.00000000000E+00  0.00000000000E+00  0.18883474155E+04  0.18883474155E+04  0.25500000920E-02 0.  1.
       -2   -1    0    0    0  501  0.00000000000E+00  0.00000000000E+00 -0.16209700466E+04  0.16209700466E+04  0.25500000920E-02 0. -1.
    10030    2    1    2    0    0  0.00000000000E+00  0.00000000000E+00  0.26737736889E+03  0.35093174621E+04  0.34991168018E+04 0.  0.
        5    1    3    3  502    0  0.54904037244E+03  0.11492016391E+04 -0.10693175246E+04  0.16630008408E+04  0.46999998093E+01 0. -1.
       -5    1    3    3    0  502 -0.54904037244E+03 -0.11492016391E+04  0.13366948935E+04  0.18463166213E+04  0.46999998093E+01 0.  1.
</event>
<event>
 5   0  0.1933647E-07  0.3495138E+04  0.7818609E-02  0.8114943E-01
        1   -1    0    0  501    0  0.00000000000E+00  0.00000000000E+00  0.21631925357E+04  0.21631925357E+04  0.50400001928E-02 0. -1.
       -1   -1    0    0    0  501  0.00000000000E+00  0.00000000000E+00 -0.14118013818E+04  0.14118013818E+04  0.50400001928E-02 0.  1.
    10030    2    1    2    0    0  0.00000000000E+00  0.00000000000E+00  0.75139115386E+03  0.35749939175E+04  0.34951384585E+04 0.  0.
        4    1    3    3  502    0  0.54892360176E+03 -0.11267822953E+04  0.16213211654E+04  0.20493021729E+04  0.12699999809E+01 0. -1.
       -4    1    3    3    0  502 -0.54892360176E+03  0.11267822953E+04 -0.86993001150E+03  0.15256917446E+04  0.12699999809E+01 0.  1.
</event>
<event>
 5   0  0.1908190E-07  0.3500234E+04  0.7818609E-02  0.8113735E-01
       -1   -1    0    0    0  501  0.00000000000E+00  0.00000000000E+00  0.14550072041E+04  0.14550072041E+04  0.50400001928E-02 0.  1.
        1   -1    0    0  501    0  0.00000000000E+00  0.00000000000E+00 -0.21050815042E+04  0.21050815042E+04  0.50400001928E-02 0. -1.
    10030    2    1    2    0    0  0.00000000000E+00  0.00000000000E+00 -0.65007430009E+03  0.35600887083E+04  0.35002335658E+04 0.  0.
        5    1    3    3  502    0 -0.48536076845E+03 -0.16595196898E+04 -0.60041786208E+03  0.18303290348E+04  0.46999998093E+01 0. -1.
       -5    1    3    3    0  502  0.48536076845E+03  0.16595196898E+04 -0.49656438014E+02  0.17297596735E+04  0.46999998093E+01 0.  1.
</event>
<event>
 5   0  0.5740827E-07  0.3503692E+04  0.7818609E-02  0.8112916E-01
       -2   -1    0    0    0  501  0.00000000000E+00  0.00000000000E+00  0.12146141250E+04  0.12146141250E+04  0.25500000920E-02 0.  1.
        2   -1    0    0  501    0  0.00000000000E+00  0.00000000000E+00 -0.25266990096E+04  0.25266990096E+04  0.25500000920E-02 0. -1.
    10030    2    1    2    0    0  0.00000000000E+00  0.00000000000E+00 -0.13120848846E+04  0.37413131346E+04  0.35036919424E+04 0.  0.
        2    1    3    3  502    0  0.12522238816E+03 -0.94041664325E+03  0.91655631582E+03  0.13191435060E+04  0.25500000920E-02 0.  1.
       -2    1    3    3    0  502 -0.12522238816E+03  0.94041664325E+03 -0.22286412005E+04  0.24221696286E+04  0.25500000920E-02 0. -1.
</event>
<event>
 5   0  0.1897049E-07  0.3499346E+04  0.7818609E-02  0.8113945E-01
       -1   -1    0    0    0  501  0.00000000000E+00  0.00000000000E+00  0.17230277184E+04  0.17230277184E+04  0.50400001928E-02 0.  1.
        1   -1    0    0  501    0  0.00000000000E+00  0.00000000000E+00 -0.17767307039E+04  0.17767307039E+04  0.50400001928E-02 0. -1.
    10030    2    1    2    0    0  0.00000000000E+00  0.00000000000E+00 -0.53702985534E+02  0.34997584223E+04  0.34993463680E+04 0.  0.
        2    1    3    3  502    0 -0.13698013571E+04 -0.83765200218E+03  0.66845667709E+03  0.17392098677E+04  0.25500000920E-02 0.  1.
       -2    1    3    3    0  502  0.13698013571E+04  0.83765200218E+03 -0.72215966262E+03  0.17605485546E+04  0.25500000920E-02 0. -1.
</event>
<event>
 5   0  0.5554745E-07  0.3495250E+04  0.7818609E-02  0.8114917E-01
        2   -1    0    0  501    0  0.00000000000E+00  0.00000000000E+00  0.29984875275E+04  0.29984875275E+04  0.25500000920E-02 0. -1.
       -2   -1    0    0    0  501  0.00000000000E+00  0.00000000000E+00 -0.10185776378E+04  0.10185776378E+04  0.25500000920E-02 0.  1.
    10030    2    1    2    0    0  0.00000000000E+00  0.00000000000E+00  0.19799098897E+04  0.40170651653E+04  0.34952495435E+04 0.  0.
        5    1    3    3  502    0 -0.13328804350E+04  0.51309189980E+03 -0.16754707910E+03  0.14380290906E+04  0.46999998093E+01 0.  1.
       -5    1    3    3    0  502  0.13328804350E+04 -0.51309189980E+03  0.21474569688E+04  0.25790360747E+04  0.46999998093E+01 0. -1.
</event>
<event>
 5   0  0.1866421E-07  0.3611553E+04  0.7818609E-02  0.8087850E-01
       -1   -1    0    0    0  501  0.00000000000E+00  0.00000000000E+00  0.17861825900E+04  0.17861825900E+04  0.50400001928E-02 0. -1.
        1   -1    0    0  501    0  0.00000000000E+00  0.00000000000E+00 -0.18255855541E+04  0.18255855541E+04  0.50400001928E-02 0.  1.
    10030    2    1    2    0    0  0.00000000000E+00  0.00000000000E+00 -0.39402964079E+02  0.36117681440E+04  0.36115532023E+04 0.  0.
        1    1    3    3  502    0 -0.64253502514E+03  0.96207388111E+03 -0.14062874156E+04  0.18210111770E+04  0.50400001928E-02 0.  1.
       -1    1    3    3    0  502  0.64253502514E+03 -0.96207388111E+03  0.13668844515E+04  0.17907569671E+04  0.50400001928E-02 0. -1.
</event>
<event>
 5   0  0.5677193E-07  0.3492274E+04  0.7818609E-02  0.8115623E-01
        2   -1    0    0  501    0  0.00000000000E+00  0.00000000000E+00  0.19312712684E+04  0.19312712684E+04  0.25500000920E-02 0.  1.
       -2   -1    0    0    0  501  0.00000000000E+00  0.00000000000E+00 -0.15787498079E+04  0.15787498079E+04  0.25500000920E-02 0. -1.
    10030    2    1    2    0    0  0.00000000000E+00  0.00000000000E+00  0.35252146051E+03  0.35100210763E+04  0.34922738404E+04 0.  0.
        3    1    3    3  502    0 -0.24694879544E+03  0.89778212972E+03  0.16609260880E+04  0.19041197284E+04  0.10100000352E+00 0.  1.
       -3    1    3    3    0  502  0.24694879544E+03 -0.89778212972E+03 -0.13084046275E+04  0.16059013480E+04  0.10100000352E+00 0. -1.
</event>
<event>
 5   0  0.5554745E-07  0.3490202E+04  0.7818609E-02  0.8116116E-01
        2   -1    0    0  501    0  0.00000000000E+00  0.00000000000E+00  0.20817887314E+04  0.20817887314E+04  0.25500000920E-02 0.  1.
       -2   -1    0    0    0  501  0.00000000000E+00  0.00000000000E+00 -0.14628657996E+04  0.14628657996E+04  0.25500000920E-02 0. -1.
    10030    2    1    2    0    0  0.00000000000E+00  0.00000000000E+00  0.61892293184E+03  0.35446545310E+04  0.34902020211E+04 0.  0.
        5    1    3    3  502    0  0.15066566066E+04  0.58259125136E+03  0.98001137070E+03  0.18894102448E+04  0.46999998093E+01 0.  1.
       -5    1    3    3    0  502 -0.15066566066E+04 -0.58259125136E+03 -0.36108843886E+03  0.16552442862E+04  0.46999998093E+01 0. -1.
</event>
<event>
 5   0  0.1866421E-07  0.3498081E+04  0.7818609E-02  0.8114245E-01
       -1   -1    0    0    0  501  0.00000000000E+00  0.00000000000E+00  0.11296121115E+04  0.11296121115E+04  0.50400001928E-02 0. -1.
        1   -1    0    0  501    0  0.00000000000E+00  0.00000000000E+00 -0.27081355077E+04  0.27081355077E+04  0.50400001928E-02 0.  1.
    10030    2    1    2    0    0  0.00000000000E+00  0.00000000000E+00 -0.15785233962E+04  0.38377476192E+04  0.34980809991E+04 0.  0.
        1    1    3    3  502    0 -0.15632195766E+04  0.36450541561E+03 -0.27093947331E+02  0.16053827347E+04  0.50400001928E-02 0. -1.
       -1    1    3    3    0  502  0.15632195766E+04 -0.36450541561E+03 -0.15514294489E+04  0.22323648845E+04  0.50400001928E-02 0.  1.
</event>
<event>
 5   0  0.5740827E-07  0.3583829E+04  0.7818609E-02  0.8094206E-01
       -2   -1    0    0    0  501  0.00000000000E+00  0.00000000000E+00  0.20340401924E+04  0.20340401924E+04  0.25500000920E-02 0.  1.
        2   -1    0    0  501    0  0.00000000000E+00  0.00000000000E+00 -0.15786104935E+04  0.15786104935E+04  0.25500000920E-02 0. -1.
    10030    2    1    2    0    0  0.00000000000E+00  0.00000000000E+00  0.45542969889E+03  0.36126506859E+04  0.35838287861E+04 0.  0.
        2    1    3    3  502    0 -0.13498987763E+03  0.19646142691E+03 -0.15625572818E+04  0.15806342456E+04  0.25500000920E-02 0. -1.
       -2    1    3    3    0  502  0.13498987763E+03 -0.19646142691E+03  0.20179869807E+04  0.20320164403E+04  0.25500000920E-02 0.  1.
</event>
<event>
 5   0  0.5554745E-07  0.3507601E+04  0.7818609E-02  0.8111991E-01
       -2   -1    0    0    0  501  0.00000000000E+00  0.00000000000E+00  0.17600690296E+04  0.17600690296E+04  0.25500000920E-02 0.  1.
        2   -1    0    0  501    0  0.00000000000E+00  0.00000000000E+00 -0.17475546336E+04  0.17475546336E+04  0.25500000920E-02 0. -1.
    10030    2    1    2    0    0  0.00000000000E+00  0.00000000000E+00  0.12514395980E+02  0.35076236632E+04  0.35076013389E+04 0.  0.
        5    1    3    3  502    0  0.44483653291E+03 -0.54117232717E+03  0.16140757745E+04  0.17595481592E+04  0.46999998093E+01 0.  1.
       -5    1    3    3    0  502 -0.44483653291E+03  0.54117232717E+03 -0.16015613785E+04  0.17480755040E+04  0.46999998093E+01 0. -1.
</event>
<event>
 5   0  0.1897049E-07  0.3531029E+04  0.7818609E-02  0.8106476E-01
       -1   -1    0    0    0  501  0.00000000000E+00  0.00000000000E+00  0.16570495114E+04  0.16570495114E+04  0.50400001928E-02 0. -1.
        1   -1    0    0  501    0  0.00000000000E+00  0.00000000000E+00 -0.18810791236E+04  0.18810791236E+04  0.50400001928E-02 0.  1.
    10030    2    1    2    0    0  0.00000000000E+00  0.00000000000E+00 -0.22402961215E+03  0.35381286350E+04  0.35310288827E+04 0.  0.
        2    1    3    3  502    0  0.66158040971E+03 -0.11308061859E+04  0.10738469314E+04  0.16939771252E+04  0.25500000920E-02 0. -1.
       -2    1    3    3    0  502 -0.66158040971E+03  0.11308061859E+04 -0.12978765435E+04  0.18441515098E+04  0.25500000920E-02 0.  1.
</event>
<event>
 5   0  0.5554745E-07  0.3492612E+04  0.7818609E-02  0.8115543E-01
       -2   -1    0    0    0  501  0.00000000000E+00  0.00000000000E+00  0.20234371930E+04  0.20234371930E+04  0.25500000920E-02 0. -1.
        2   -1    0    0  501    0  0.00000000000E+00  0.00000000000E+00 -0.15071306325E+04  0.15071306325E+04  0.25500000920E-02 0.  1.
    10030    2    1    2    0    0  0.00000000000E+00  0.00000000000E+00  0.51630656057E+03  0.35305678255E+04  0.34926117314E+04 0.  0.
        5    1    3    3  502    0  0.10957078922E+04  0.98397079727E+03 -0.69054887875E+03  0.16265466974E+04  0.46999998093E+01 0.  1.
       -5    1    3    3    0  502 -0.10957078922E+04 -0.98397079727E+03  0.12068554393E+04  0.19040211281E+04  0.46999998093E+01 0. -1.
</event>
<event>
 5   0  0.1933647E-07  0.3576650E+04  0.7818609E-02  0.8095861E-01
       -1   -1    0    0    0  501  0.00000000000E+00  0.00000000000E+00  0.12081885605E+04  0.12081885605E+04  0.50400001928E-02 0. -1.
        1   -1    0    0  501    0  0.00000000000E+00  0.00000000000E+00 -0.26470263985E+04  0.26470263985E+04  0.50400001928E-02 0.  1.
    10030    2    1    2    0    0  0.00000000000E+00  0.00000000000E+00 -0.14388378380E+04  0.38552149590E+04  0.35766503961E+04 0.  0.
        4    1    3    3  502    0  0.72128255430E+03  0.43628215341E+03  0.98060464077E+03  0.12931271070E+04  0.12699999809E+01 0. -1.
       -4    1    3    3    0  502 -0.72128255430E+03 -0.43628215341E+03 -0.24194424787E+04  0.25620878520E+04  0.12699999809E+01 0.  1.
</event>
<event>
 5   0  0.1908190E-07  0.3461470E+04  0.7818609E-02  0.8122982E-01
        1   -1    0    0  501    0  0.00000000000E+00  0.00000000000E+00  0.15974438926E+04  0.15974438926E+04  0.50400001928E-02 0.  1.
       -1   -1    0    0    0  501  0.00000000000E+00  0.00000000000E+00 -0.18751474882E+04  0.18751474882E+04  0.50400001928E-02 0. -1.
    10030    2    1    2    0    0  0.00000000000E+00  0.00000000000E+00 -0.27770359563E+03  0.34725913807E+04  0.34614695738E+04 0.  0.
        5    1    3    3  502    0 -0.16819747817E+04 -0.21089179961E+03 -0.48912445018E+03  0.17643070411E+04  0.46999998093E+01 0. -1.
       -5    1    3    3    0  502  0.16819747817E+04  0.21089179961E+03  0.21142085455E+03  0.17082843397E+04  0.46999998093E+01 0.  1.
</event>
<event>
 5   0  0.1908190E-07  0.3412293E+04  0.7818609E-02  0.8134896E-01
        1   -1    0    0  501    0  0.00000000000E+00  0.00000000000E+00  0.15006062145E+04  0.15006062145E+04  0.50400001928E-02 0. -1.
       -1   -1    0    0    0  501  0.00000000000E+00  0.00000000000E+00 -0.19398402835E+04  0.19398402835E+04  0.50400001928E-02 0.  1.
    10030    2    1    2    0    0  0.00000000000E+00  0.00000000000E+00 -0.43923406908E+03  0.34404464980E+04  0.34122932960E+04 0.  0.
        5    1    3    3  502    0  0.16450743472E+03 -0.16932579543E+03  0.14840520024E+04  0.15027196535E+04  0.46999998093E+01 0. -1.
       -5    1    3    3    0  502 -0.16450743472E+03  0.16932579543E+03 -0.19232860715E+04  0.19377268445E+04  0.46999998093E+01 0.  1.
</event>
<event>
 5   0  0.5677193E-07  0.3468457E+04  0.7818609E-02  0.8121306E-01
       -2   -1    0    0    0  501  0.00000000000E+00  0.00000000000E+00  0.23307749882E+04  0.23307749882E+04  0.25500000920E-02 0.  1.
        2   -1    0    0  501    0  0.00000000000E+00  0.00000000000E+00 -0.12903640456E+04  0.12903640456E+04  0.25500000920E-02 0. -1.
    10030    2    1    2    0    0  0.00000000000E+00  0.00000000000E+00  0.10404109426E+04  0.36211390338E+04  0.34684568575E+04 0.  0.
        3    1    3    3  502    0 -0.11415911136E+03 -0.50784171973E+03  0.22472978729E+04  0.23067906829E+04  0.10100000352E+00 0.  1.
       -3    1    3    3    0  502  0.11415911136E+03  0.50784171973E+03 -0.12068869302E+04  0.13143483509E+04  0.10100000352E+00 0. -1.
</event>
<event>
 5   0  0.1908190E-07  0.3489772E+04  0.7818609E-02  0.8116218E-01
        1   -1    0    0  501    0  0.00000000000E+00  0.00000000000E+00  0.25831678435E+04  0.25831678435E+04  0.50400001928E-02 0.  1.
       -1   -1    0    0    0  501  0.00000000000E+00  0.00000000000E+00 -0.11786409222E+04  0.11786409222E+04  0.50400001928E-02 0. -1.
    10030    2    1    2    0    0  0.00000000000E+00  0.00000000000E+00  0.14045269213E+04  0.37618087658E+04  0.34897721011E+04 0.  0.
        5    1    3    3  502    0 -0.31801560441E+03  0.28564847208E+03  0.25258445260E+04  0.25617653354E+04  0.46999998093E+01 0.  1.
       -5    1    3    3    0  502  0.31801560441E+03 -0.28564847208E+03 -0.11213176047E+04  0.12000434304E+04  0.46999998093E+01 0. -1.
</event>
<event>
 5   0  0.1908190E-07  0.3488530E+04  0.7818609E-02  0.8116514E-01
       -1   -1    0    0    0  501  0.00000000000E+00  0.00000000000E+00  0.29794988615E+04  0.29794988615E+04  0.50400001928E-02 0. -1.
        1   -1    0    0  501    0  0.00000000000E+00  0.00000000000E+00 -0.10211313909E+04  0.10211313909E+04  0.50400001928E-02 0.  1.
    10030    2    1    2    0    0  0.00000000000E+00  0.00000000000E+00  0.19583674706E+04  0.40006302524E+04  0.34885296711E+04 0.  0.
        5    1    3    3  502    0  0.28048891309E+02 -0.11730474904E+04  0.24592212643E+04  0.27248153097E+04  0.46999998093E+01 0. -1.
       -5    1    3    3    0  502 -0.28048891309E+02  0.11730474904E+04 -0.50085379375E+03  0.12758149426E+04  0.46999998093E+01 0.  1.
</event>
<event>
 5   0  0.5677193E-07  0.3465507E+04  0.7818609E-02  0.8122013E-01
        2   -1    0    0  501    0  0.00000000000E+00  0.00000000000E+00  0.17067011041E+04  0.17067011041E+04  0.25500000920E-02 0. -1.
       -2   -1    0    0    0  501  0.00000000000E+00  0.00000000000E+00 -0.17592037846E+04  0.17592037846E+04  0.25500000920E-02 0.  1.
    10030    2    1    2    0    0  0.00000000000E+00  0.00000000000E+00 -0.52502680550E+02  0.34659048887E+04  0.34655072019E+04 0.  0.
        3    1    3    3  502    0  0.18671945512E+03 -0.55703986352E+02 -0.17482119556E+04  0.17590372767E+04  0.10100000352E+00 0.  1.
       -3    1    3    3    0  502 -0.18671945512E+03  0.55703986352E+02  0.16957092751E+04  0.17068676120E+04  0.10100000352E+00 0. -1.
</event>
<event>
 5   0  0.5707187E-07  0.3489977E+04  0.7818609E-02  0.8116169E-01
       -2   -1    0    0    0  501  0.00000000000E+00  0.00000000000E+00  0.22975666355E+04  0.22975666355E+04  0.25500000920E-02 0.  1.
        2   -1    0    0  501    0  0.00000000000E+00  0.00000000000E+00 -0.13253084900E+04  0.13253084900E+04  0.25500000920E-02 0. -1.
    10030    2    1    2    0    0  0.00000000000E+00  0.00000000000E+00  0.97225814555E+03  0.36228751255E+04  0.34899768299E+04 0.  0.
        1    1    3    3  502    0 -0.37596669146E+03  0.10813576387E+04 -0.88094750372E+03  0.14445600715E+04  0.50400001928E-02 0. -1.
       -1    1    3    3    0  502  0.37596669146E+03 -0.10813576387E+04  0.18532056493E+04  0.21783150540E+04  0.50400001928E-02 0.  1.
</event>
<event>
 5   0  0.5573334E-07  0.3494430E+04  0.7818609E-02  0.8115111E-01
       -2   -1    0    0    0  501  0.00000000000E+00  0.00000000000E+00  0.26643593001E+04  0.26643593001E+04  0.25500000920E-02 0.  1.
        2   -1    0    0  501    0  0.00000000000E+00  0.00000000000E+00 -0.11457767460E+04  0.11457767460E+04  0.25500000920E-02 0. -1.
    10030    2    1    2    0    0  0.00000000000E+00  0.00000000000E+00  0.15185825540E+04  0.38101360461E+04  0.34944303851E+04 0.  0.
        4    1    3    3  502    0  0.19921861840E+03 -0.14920668596E+04  0.17264514474E+04  0.22905431200E+04  0.12699999809E+01 0.  1.
       -4    1    3    3    0  502 -0.19921861840E+03  0.14920668596E+04 -0.20786889334E+03  0.15195929261E+04  0.12699999809E+01 0. -1.
</event>
<event>
 5   0  0.1897049E-07  0.3456188E+04  0.7818609E-02  0.8124252E-01
        1   -1    0    0  501    0  0.00000000000E+00  0.00000000000E+00  0.97600977730E+03  0.97600977732E+03  0.50400001928E-02 0.  1.
       -1   -1    0    0    0  501  0.00000000000E+00  0.00000000000E+00 -0.30597125338E+04  0.30597125338E+04  0.50400001928E-02 0. -1.
    10030    2    1    2    0    0  0.00000000000E+00  0.00000000000E+00 -0.20837027565E+04  0.40357223111E+04  0.34561882754E+04 0.  0.
        2    1    3    3  502    0  0.68306400654E+02  0.10057045793E+04  0.59714973349E+03  0.11716207874E+04  0.25500000920E-02 0.  1.
       -2    1    3    3    0  502 -0.68306400654E+02 -0.10057045793E+04 -0.26808524899E+04  0.28641015237E+04  0.25500000920E-02 0. -1.
</event>
<event>
 5   0  0.5554745E-07  0.3493635E+04  0.7818609E-02  0.8115300E-01
        2   -1    0    0  501    0  0.00000000000E+00  0.00000000000E+00  0.13858801015E+04  0.13858801015E+04  0.25500000920E-02 0.  1.
       -2   -1    0    0    0  501  0.00000000000E+00  0.00000000000E+00 -0.22017572456E+04  0.22017572456E+04  0.25500000920E-02 0. -1.
    10030    2    1    2    0    0  0.00000000000E+00  0.00000000000E+00 -0.81587714408E+03  0.35876373471E+04  0.34936351011E+04 0.  0.
        5    1    3    3  502    0  0.17645773313E+03  0.15579993582E+04  0.38274634603E+03  0.16140062537E+04  0.46999998093E+01 0.  1.
       -5    1    3    3    0  502 -0.17645773313E+03 -0.15579993582E+04 -0.11986234901E+04  0.19736310934E+04  0.46999998093E+01 0. -1.
</event>
<event>
 5   0  0.1933647E-07  0.3504698E+04  0.7818609E-02  0.8112678E-01
        1   -1    0    0  501    0  0.00000000000E+00  0.00000000000E+00  0.17899507468E+04  0.17899507469E+04  0.50400001928E-02 0. -1.
       -1   -1    0    0    0  501  0.00000000000E+00  0.00000000000E+00 -0.17155368663E+04  0.17155368663E+04  0.50400001928E-02 0.  1.
    10030    2    1    2    0    0  0.00000000000E+00  0.00000000000E+00  0.74413880519E+02  0.35054876132E+04  0.35046977017E+04 0.  0.
        4    1    3    3  502    0  0.12600620425E+04 -0.10169941844E+04 -0.63278831412E+03  0.17385212640E+04  0.12699999809E+01 0.  1.
       -4    1    3    3    0  502 -0.12600620425E+04  0.10169941844E+04  0.70720219464E+03  0.17669663492E+04  0.12699999809E+01 0. -1.
</event>
<event>
 5   0  0.5707187E-07  0.3555705E+04  0.7818609E-02  0.8100714E-01
       -2   -1    0    0    0  501  0.00000000000E+00  0.00000000000E+00  0.21161995383E+04  0.21161995383E+04  0.25500000920E-02 0. -1.
        2   -1    0    0  501    0  0.00000000000E+00  0.00000000000E+00 -0.14936022353E+04  0.14936022353E+04  0.25500000920E-02 0.  1.
    10030    2    1    2    0    0  0.00000000000E+00  0.00000000000E+00  0.62259730296E+03  0.36098017736E+04  0.35557054775E+04 0.  0.
        1    1    3    3  502    0  0.12584552560E+04 -0.11496499057E+04 -0.20171681281E+03  0.17164190076E+04  0.50400001928E-02 0.  1.
       -1    1    3    3    0  502 -0.12584552560E+04  0.11496499057E+04  0.82431411577E+03  0.18933827660E+04  0.50400001928E-02 0. -1.
</event>
<event>
 5   0  0.5554745E-07  0.3465522E+04  0.7818609E-02  0.8122010E-01
       -2   -1    0    0    0  501  0.00000000000E+00  0.00000000000E+00  0.14400410909E+04  0.14400410909E+04  0.25500000920E-02 0. -1.
        2   -1    0    0  501    0  0.00000000000E+00  0.00000000000E+00 -0.20849827414E+04  0.20849827414E+04  0.25500000920E-02 0.  1.
    10030    2    1    2    0    0  0.00000000000E+00  0.00000000000E+00 -0.64494165053E+03  0.35250238323E+04  0.34655220798E+04 0.  0.
        5    1    3    3  502    0 -0.58908602395E+03 -0.91560469494E+03 -0.16936081111E+04  0.20133764738E+04  0.46999998093E+01 0.  1.
       -5    1    3    3    0  502  0.58908602395E+03  0.91560469494E+03  0.10486664606E+04  0.15116473585E+04  0.46999998093E+01 0. -1.
</event>
<event>
 5   0  0.5740827E-07  0.3402676E+04  0.7818609E-02  0.8137250E-01
        2   -1    0    0  501    0  0.00000000000E+00  0.00000000000E+00  0.23004833088E+04  0.23004833088E+04  0.25500000920E-02 0.  1.
       -2   -1    0    0    0  501  0.00000000000E+00  0.00000000000E+00 -0.12582363299E+04  0.12582363299E+04  0.25500000920E-02 0. -1.
    10030    2    1    2    0    0  0.00000000000E+00  0.00000000000E+00  0.10422469789E+04  0.35587196387E+04  0.34026764027E+04 0.  0.
        2    1    3    3  502    0  0.16995347648E+04 -0.46226488387E+02  0.58723940029E+03  0.17987232745E+04  0.25500000920E-02 0.  1.
       -2    1    3    3    0  502 -0.16995347648E+04  0.46226488387E+02  0.45500757862E+03  0.17599963641E+04  0.25500000920E-02 0. -1.
</event>
<event>
 5   0  0.1866421E-07  0.3521308E+04  0.7818609E-02  0.8108759E-01
        1   -1    0    0  501    0  0.00000000000E+00  0.00000000000E+00  0.18947452162E+04  0.18947452162E+04  0.50400001928E-02 0. -1.
       -1   -1    0    0    0  501  0.00000000000E+00  0.00000000000E+00 -0.16360526015E+04  0.16360526016E+04  0.50400001928E-02 0.  1.
    10030    2    1    2    0    0  0.00000000000E+00  0.00000000000E+00  0.25869261463E+03  0.35307978177E+04  0.35213081888E+04 0.  0.
        1    1    3    3  502    0 -0.17784447959E+03  0.16716095365E+04  0.65420297303E+03  0.18038538276E+04  0.50400001928E-02 0. -1.
       -1    1    3    3    0  502  0.17784447959E+03 -0.16716095365E+04 -0.39551035840E+03  0.17269439901E+04  0.50400001928E-02 0.  1.
</event>
<event>
 5   0  0.1933647E-07  0.3537107E+04  0.7818609E-02  0.8105052E-01
        1   -1    0    0  501    0  0.00000000000E+00  0.00000000000E+00  0.23791263144E+04  0.23791263144E+04  0.50400001928E-02 0.  1.
       -1   -1    0    0    0  501  0.00000000000E+00  0.00000000000E+00 -0.13146767151E+04  0.13146767151E+04  0.50400001928E-02 0. -1.
    10030    2    1    2    0    0  0.00000000000E+00  0.00000000000E+00  0.10644495993E+04  0.36938030295E+04  0.35371072745E+04 0.  0.
        4    1    3    3  502    0 -0.43588946215E+03  0.17123803710E+04  0.45453700528E+03  0.18245140888E+04  0.12699999809E+01 0. -1.
       -4    1    3    3    0  502  0.43588946215E+03 -0.17123803710E+04  0.60991259403E+03  0.18692889406E+04  0.12699999809E+01 0.  1.
</event>
<event>
 5   0  0.5740827E-07  0.3500815E+04  0.7818609E-02  0.8113597E-01
        2   -1    0    0  501    0  0.00000000000E+00  0.00000000000E+00  0.28863360514E+04  0.28863360514E+04  0.25500000920E-02 0. -1.
       -2   -1    0    0    0  501  0.00000000000E+00  0.00000000000E+00 -0.10615281134E+04  0.10615281134E+04  0.25500000920E-02 0.  1.
    10030    2    1    2    0    0  0.00000000000E+00  0.00000000000E+00  0.18248079380E+04  0.39478641648E+04  0.35008152555E+04 0.  0.
        2    1    3    3  502    0 -0.97333702532E+03 -0.26409052027E+02  0.25527477556E+04  0.27321426585E+04  0.25500000920E-02 0. -1.
       -2    1    3    3    0  502  0.97333702532E+03  0.26409052027E+02 -0.72793981758E+03  0.12157215063E+04  0.25500000920E-02 0.  1.
</event>
<event>
 5   0  0.5554745E-07  0.3446493E+04  0.7818609E-02  0.8126589E-01
       -2   -1    0    0    0  501  0.00000000000E+00  0.00000000000E+00  0.13760404353E+04  0.13760404353E+04  0.25500000920E-02 0. -1.
        2   -1    0    0  501    0  0.00000000000E+00  0.00000000000E+00 -0.21580609267E+04  0.21580609267E+04  0.25500000920E-02 0.  1.
    10030    2    1    2    0    0  0.00000000000E+00  0.00000000000E+00 -0.78202049139E+03  0.35341013621E+04  0.34464933466E+04 0.  0.
        5    1    3    3  502    0  0.14017359664E+04  0.56441050070E+03 -0.12403981081E+04  0.19550019154E+04  0.46999998093E+01 0.  1.
       -5    1    3    3    0  502 -0.14017359664E+04 -0.56441050070E+03  0.45837761668E+03  0.15790994466E+04  0.46999998093E+01 0. -1.
</event>
<event>
 5   0  0.1866421E-07  0.3552487E+04  0.7818609E-02  0.8101463E-01
        1   -1    0    0  501    0  0.00000000000E+00  0.00000000000E+00  0.18570687038E+04  0.18570687038E+04  0.50400001928E-02 0.  1.
       -1   -1    0    0    0  501  0.00000000000E+00  0.00000000000E+00 -0.16989363534E+04  0.16989363534E+04  0.50400001928E-02 0. -1.
    10030    2    1    2    0    0  0.00000000000E+00  0.00000000000E+00  0.15813235041E+03  0.35560050573E+04  0.35524873156E+04 0.  0.
        1    1    3    3  502    0 -0.17624212877E+04 -0.20669893351E+03  0.32261161714E+00  0.17745008731E+04  0.50400001928E-02 0.  1.
       -1    1    3    3    0  502  0.17624212877E+04  0.20669893351E+03  0.15780973880E+03  0.17815041842E+04  0.50400001928E-02 0. -1.
</event>
<event>
 5   0  0.1897049E-07  0.3495606E+04  0.7818609E-02  0.8114832E-01
        1   -1    0    0  501    0  0.00000000000E+00  0.00000000000E+00  0.23576830166E+04  0.23576830166E+04  0.50400001928E-02 0.  1.
       -1   -1    0    0    0  501  0.00000000000E+00  0.00000000000E+00 -0.12956850498E+04  0.12956850498E+04  0.50400001928E-02 0. -1.
    10030    2    1    2    0    0  0.00000000000E+00  0.00000000000E+00  0.10619979668E+04  0.36533680664E+04  0.34956056052E+04 0.  0.
        2    1    3    3  502    0 -0.13545735535E+04 -0.10191673335E+04  0.97593924688E+03  0.19560237676E+04  0.25500000920E-02 0.  1.
       -2    1    3    3    0  502  0.13545735535E+04  0.10191673335E+04  0.86058719956E+02  0.16973442989E+04  0.25500000920E-02 0. -1.
</event>
<event>
 5   0  0.5573334E-07  0.3503696E+04  0.7818609E-02  0.8112915E-01
        2   -1    0    0  501    0  0.00000000000E+00  0.00000000000E+00  0.22589124738E+04  0.22589124738E+04  0.25500000920E-02 0.  1.
       -2   -1    0    0    0  501  0.00000000000E+00  0.00000000000E+00 -0.13586059372E+04  0.13586059372E+04  0.25500000920E-02 0. -1.
    10030    2    1    2    0    0  0.00000000000E+00  0.00000000000E+00  0.90030653658E+03  0.36175184109E+04  0.35036962759E+04 0.  0.
        4    1    3    3  502    0  0.29627693999E+03 -0.12447729177E+03 -0.13279115533E+04  0.13662449735E+04  0.12699999809E+01 0. -1.
       -4    1    3    3    0  502 -0.29627693999E+03  0.12447729177E+03  0.22282180899E+04  0.22512734375E+04  0.12699999809E+01 0.  1.
</event>
<event>
 5   0  0.1823000E-07  0.3378093E+04  0.7818609E-02  0.8143304E-01
       -3   -1    0    0    0  501  0.00000000000E+00  0.00000000000E+00  0.11529772458E+04  0.11529772502E+04  0.10100000352E+00 0.  1.
        3   -1    0    0  501    0  0.00000000000E+00  0.00000000000E+00 -0.24743572780E+04  0.24743572801E+04  0.10100000352E+00 0. -1.
    10030    2    1    2    0    0  0.00000000000E+00  0.00000000000E+00 -0.13213800323E+04  0.36273345303E+04  0.33780927466E+04 0.  0.
        1    1    3    3  502    0  0.82718207075E+00 -0.47615054671E+02 -0.24736362561E+04  0.24740946233E+04  0.50400001928E-02 0. -1.
       -1    1    3    3    0  502 -0.82718207075E+00  0.47615054671E+02  0.11522562238E+04  0.11532399070E+04  0.50400001928E-02 0.  1.
</event>
<event>
 5   0  0.5573334E-07  0.3504238E+04  0.7818609E-02  0.8112786E-01
        2   -1    0    0  501    0  0.00000000000E+00  0.00000000000E+00  0.25757109253E+04  0.25757109253E+04  0.25500000920E-02 0.  1.
       -2   -1    0    0    0  501  0.00000000000E+00  0.00000000000E+00 -0.11918730314E+04  0.11918730314E+04  0.25500000920E-02 0. -1.
    10030    2    1    2    0    0  0.00000000000E+00  0.00000000000E+00  0.13838378939E+04  0.37675839567E+04  0.35042376567E+04 0.  0.
        4    1    3    3  502    0  0.31340566914E+03 -0.14675822955E+04  0.16642606770E+04  0.22409342073E+04  0.12699999809E+01 0.  1.
       -4    1    3    3    0  502 -0.31340566914E+03  0.14675822955E+04 -0.28042278312E+03  0.15266497495E+04  0.12699999809E+01 0. -1.
</event>
<event>
 5   0  0.5573334E-07  0.3431562E+04  0.7818609E-02  0.8130203E-01
       -2   -1    0    0    0  501  0.00000000000E+00  0.00000000000E+00  0.15458838964E+04  0.15458838964E+04  0.25500000920E-02 0.  1.
        2   -1    0    0  501    0  0.00000000000E+00  0.00000000000E+00 -0.19043498306E+04  0.19043498306E+04  0.25500000920E-02 0. -1.
    10030    2    1    2    0    0  0.00000000000E+00  0.00000000000E+00 -0.35846593413E+03  0.34502337270E+04  0.34315615899E+04 0.  0.
        4    1    3    3  502    0  0.64565963785E+03  0.15792325149E+04  0.35539909866E+01  0.17061260058E+04  0.12699999809E+01 0. -1.
       -4    1    3    3    0  502 -0.64565963785E+03 -0.15792325149E+04 -0.36201992512E+03  0.17441077212E+04  0.12699999809E+01 0.  1.
</event>
<event>
 5   0  0.5677193E-07  0.3508184E+04  0.7818609E-02  0.8111853E-01
        2   -1    0    0  501    0  0.00000000000E+00  0.00000000000E+00  0.19430141498E+04  0.19430141498E+04  0.25500000920E-02 0. -1.
       -2   -1    0    0    0  501  0.00000000000E+00  0.00000000000E+00 -0.15835390380E+04  0.15835390380E+04  0.25500000920E-02 0.  1.
    10030    2    1    2    0    0  0.00000000000E+00  0.00000000000E+00  0.35947511175E+03  0.35265531878E+04  0.35081840075E+04 0.  0.
        3    1    3    3  502    0 -0.14960654289E+03 -0.30034017627E+03  0.19104529817E+04  0.19396950649E+04  0.10100000352E+00 0. -1.
       -3    1    3    3    0  502  0.14960654289E+03  0.30034017627E+03 -0.15509778699E+04  0.15868581230E+04  0.10100000352E+00 0.  1.
</event>
<event>
 5   0  0.1897049E-07  0.3520710E+04  0.7818609E-02  0.8108899E-01
        1   -1    0    0  501    0  0.00000000000E+00  0.00000000000E+00  0.23393187087E+04  0.23393187087E+04  0.50400001928E-02 0. -1.
       -1   -1    0    0    0  501  0.00000000000E+00  0.00000000000E+00 -0.13246802381E+04  0.13246802381E+04  0.50400001928E-02 0.  1.
    10030    2    1    2    0    0  0.00000000000E+00  0.00000000000E+00  0.10146384706E+04  0.36639989469E+04  0.35207097376E+04 0.  0.
        2    1    3    3  502    0  0.13875086777E+04  0.67545757231E+02 -0.61793888861E+03  0.15203918015E+04  0.25500000920E-02 0.  1.
       -2    1    3    3    0  502 -0.13875086777E+04 -0.67545757231E+02  0.16325773592E+04  0.21436071454E+04  0.25500000920E-02 0. -1.
</event>
<event>
 5   0  0.1866421E-07  0.3490242E+04  0.7818609E-02  0.8116106E-01
       -1   -1    0    0    0  501  0.00000000000E+00  0.00000000000E+00  0.17351807634E+04  0.17351807634E+04  0.50400001928E-02 0. -1.
        1   -1    0    0  501    0  0.00000000000E+00  0.00000000000E+00 -0.17551186237E+04  0.17551186237E+04  0.50400001928E-02 0.  1.
    10030    2    1    2    0    0  0.00000000000E+00  0.00000000000E+00 -0.19937860296E+02  0.34902993871E+04  0.34902424405E+04 0.  0.
        1    1    3    3  502    0 -0.76244365563E+03 -0.64451119001E+03  0.14213940308E+04  0.17369732274E+04  0.50400001928E-02 0. -1.
       -1    1    3    3    0  502  0.76244365563E+03  0.64451119001E+03 -0.14413318911E+04  0.17533261597E+04  0.50400001928E-02 0.  1.
</event>
<event>
 5   0  0.1823000E-07  0.3487688E+04  0.7818609E-02  0.8116714E-01
        3   -1    0    0  501    0  0.00000000000E+00  0.00000000000E+00  0.16393818679E+04  0.16393818710E+04  0.10100000352E+00 0. -1.
       -3   -1    0    0    0  501  0.00000000000E+00  0.00000000000E+00 -0.18549628976E+04  0.18549629004E+04  0.10100000352E+00 0.  1.
    10030    2    1    2    0    0  0.00000000000E+00  0.00000000000E+00 -0.21558102976E+03  0.34943447714E+04  0.34876883749E+04 0.  0.
        2    1    3    3  502    0 -0.10782268857E+04 -0.42075095047E+03 -0.14146525985E+04  0.18277982804E+04  0.25500000920E-02 0.  1.
       -2    1    3    3    0  502  0.10782268857E+04  0.42075095047E+03  0.11990715688E+04  0.16665464909E+04  0.25500000920E-02 0. -1.
</event>
<event>
 5   0  0.5707187E-07  0.3395601E+04  0.7818609E-02  0.8138987E-01
        2   -1    0    0  501    0  0.00000000000E+00  0.00000000000E+00  0.18644298446E+04  0.18644298446E+04  0.25500000920E-02 0.  1.
       -2   -1    0    0    0  501  0.00000000000E+00  0.00000000000E+00 -0.15460634512E+04  0.15460634512E+04  0.25500000920E-02 0. -1.
    10030    2    1    2    0    0  0.00000000000E+00  0.00000000000E+00  0.31836639346E+03  0.34104932958E+04  0.33956011780E+04 0.  0.
        1    1    3    3  502    0 -0.96289344161E+03 -0.58957228929E+03 -0.11143555349E+04  0.15863629857E+04  0.50400001928E-02 0. -1.
       -1    1    3    3    0  502  0.96289344161E+03  0.58957228929E+03  0.14327219284E+04  0.18241303101E+04  0.50400001928E-02 0.  1.
</event>
<event>
 5   0  0.5554745E-07  0.3483711E+04  0.7818609E-02  0.8117661E-01
       -2   -1    0    0    0  501  0.00000000000E+00  0.00000000000E+00  0.21905037218E+04  0.21905037218E+04  0.25500000920E-02 0. -1.
        2   -1    0    0  501    0  0.00000000000E+00  0.00000000000E+00 -0.13850975960E+04  0.13850975960E+04  0.25500000920E-02 0.  1.
    10030    2    1    2    0    0  0.00000000000E+00  0.00000000000E+00  0.80540612580E+03  0.35756013177E+04  0.34837114915E+04 0.  0.
        5    1    3    3  502    0  0.50222491975E+03  0.53692071849E+02 -0.13082789685E+04  0.14024010332E+04  0.46999998093E+01 0.  1.
       -5    1    3    3    0  502 -0.50222491975E+03 -0.53692071849E+02  0.21136850943E+04  0.21732002845E+04  0.46999998093E+01 0. -1.
</event>
<event>
 5   0  0.5573334E-07  0.3504536E+04  0.7818609E-02  0.8112716E-01
       -2   -1    0    0    0  501  0.00000000000E+00  0.00000000000E+00  0.16943240003E+04  0.16943240003E+04  0.25500000920E-02 0. -1.
        2   -1    0    0  501    0  0.00000000000E+00  0.00000000000E+00 -0.18121936697E+04  0.18121936697E+04  0.25500000920E-02 0.  1.
    10030    2    1    2    0    0  0.00000000000E+00  0.00000000000E+00 -0.11786966937E+03  0.35065176699E+04  0.35045360478E+04 0.  0.
        4    1    3    3  502    0 -0.14938551171E+04  0.59085768503E+03 -0.75913457929E+03  0.17767956656E+04  0.12699999809E+01 0.  1.
       -4    1    3    3    0  502  0.14938551171E+04 -0.59085768503E+03  0.64126490992E+03  0.17297220044E+04  0.12699999809E+01 0. -1.
</event>
<event>
 5   0  0.1908190E-07  0.3498835E+04  0.7818609E-02  0.8114066E-01
        1   -1    0    0  501    0  0.00000000000E+00  0.00000000000E+00  0.28292616930E+04  0.28292616930E+04  0.50400001928E-02 0. -1.
       -1   -1    0    0    0  501  0.00000000000E+00  0.00000000000E+00 -0.10817173632E+04  0.10817173632E+04  0.50400001928E-02 0.  1.
    10030    2    1    2    0    0  0.00000000000E+00  0.00000000000E+00  0.17475443298E+04  0.39109790563E+04  0.34988349481E+04 0.  0.
        5    1    3    3  502    0  0.16518348435E+04 -0.22390683171E+02  0.23030706771E+03  0.16679697624E+04  0.46999998093E+01 0.  1.
       -5    1    3    3    0  502 -0.16518348435E+04  0.22390683171E+02  0.15172372621E+04  0.22430092939E+04  0.46999998093E+01 0. -1.
</event>
<event>
 5   0  0.1873457E-07  0.3493694E+04  0.7818609E-02  0.8115286E-01
       -1   -1    0    0    0  501  0.00000000000E+00  0.00000000000E+00  0.15637346718E+04  0.15637346718E+04  0.50400001928E-02 0. -1.
        1   -1    0    0  501    0  0.00000000000E+00  0.00000000000E+00 -0.19514014864E+04  0.19514014864E+04  0.50400001928E-02 0.  1.
    10030    2    1    2    0    0  0.00000000000E+00  0.00000000000E+00 -0.38766681458E+03  0.35151361582E+04  0.34936938405E+04 0.  0.
        3    1    3    3  502    0 -0.44336569307E+03  0.13540153148E+04  0.82308415833E+03  0.16454173186E+04  0.10100000352E+00 0. -1.
       -3    1    3    3    0  502  0.44336569307E+03 -0.13540153148E+04 -0.12107509729E+04  0.18697188396E+04  0.10100000352E+00 0.  1.
</event>
<event>
 5   0  0.1897049E-07  0.3551770E+04  0.7818609E-02  0.8101630E-01
        1   -1    0    0  501    0  0.00000000000E+00  0.00000000000E+00  0.25251848810E+04  0.25251848810E+04  0.50400001928E-02 0. -1.
       -1   -1    0    0    0  501  0.00000000000E+00  0.00000000000E+00 -0.12489251971E+04  0.12489251971E+04  0.50400001928E-02 0.  1.
    10030    2    1    2    0    0  0.00000000000E+00  0.00000000000E+00  0.12762596838E+04  0.37741100781E+04  0.35517697140E+04 0.  0.
        2    1    3    3  502    0  0.12062670457E+04 -0.98082967290E+03 -0.27388793875E+03  0.15786455067E+04  0.25500000920E-02 0.  1.
       -2    1    3    3    0  502 -0.12062670457E+04  0.98082967290E+03  0.15501476226E+04  0.21954645715E+04  0.25500000920E-02 0. -1.
</event>
<event>
 5   0  0.1897049E-07  0.3493018E+04  0.7818609E-02  0.8115447E-01
       -1   -1    0    0    0  501  0.00000000000E+00  0.00000000000E+00  0.24094710320E+04  0.24094710320E+04  0.50400001928E-02 0. -1.
        1   -1    0    0  501    0  0.00000000000E+00  0.00000000000E+00 -0.12659598342E+04  0.12659598342E+04  0.50400001928E-02 0.  1.
    10030    2    1    2    0    0  0.00000000000E+00  0.00000000000E+00  0.11435111978E+04  0.36754308662E+04  0.34930179205E+04 0.  0.
        2    1    3    3  502    0  0.18999813840E+03 -0.91615622210E+03 -0.97999635839E+03  0.13549296581E+04  0.25500000920E-02 0.  1.
       -2    1    3    3    0  502 -0.18999813840E+03  0.91615622210E+03  0.21235075562E+04  0.23205012082E+04  0.25500000920E-02 0. -1.
</event>
<event>
 5   0  0.1908190E-07  0.3492902E+04  0.7818609E-02  0.8115474E-01
        1   -1    0    0  501    0  0.00000000000E+00  0.00000000000E+00  0.29451392150E+04  0.29451392150E+04  0.50400001928E-02 0.  1.
       -1   -1    0    0    0  501  0.00000000000E+00  0.00000000000E+00 -0.10356358274E+04  0.10356358274E+04  0.50400001928E-02 0. -1.
    10030    2    1    2    0    0  0.00000000000E+00  0.00000000000E+00  0.19095033876E+04  0.39807750424E+04  0.34929023392E+04 0.  0.
        5    1    3    3  502    0 -0.53946967073E+03  0.96098559561E+03  0.24988116332E+04  0.27310442158E+04  0.46999998093E+01 0.  1.
       -5    1    3    3    0  502  0.53946967073E+03 -0.96098559561E+03 -0.58930824559E+03  0.12497308266E+04  0.46999998093E+01 0. -1.
</event>
<event>
 5   0  0.5707187E-07  0.3346783E+04  0.7818609E-02  0.8151092E-01
       -2   -1    0    0    0  501  0.00000000000E+00  0.00000000000E+00  0.13915364255E+04  0.13915364255E+04  0.25500000920E-02 0. -1.
        2   -1    0    0  501    0  0.00000000000E+00  0.00000000000E+00 -0.20123367894E+04  0.20123367894E+04  0.25500000920E-02 0.  1.
    10030    2    1    2    0    0  0.00000000000E+00  0.00000000000E+00 -0.62080036384E+03  0.34038732149E+04  0.33467834963E+04 0.  0.
        1    1    3    3  502    0  0.36084583922E+03 -0.15524190425E+04 -0.82902535499E+03  0.17965237662E+04  0.50400001928E-02 0.  1.
       -1    1    3    3    0  502 -0.36084583922E+03  0.15524190425E+04  0.20822499115E+03  0.16073494487E+04  0.50400001928E-02 0. -1.
</event>
<event>
 5   0  0.1933647E-07  0.3524477E+04  0.7818609E-02  0.8108014E-01
        1   -1    0    0  501    0  0.00000000000E+00  0.00000000000E+00  0.21159043203E+04  0.21159043203E+04  0.50400001928E-02 0.  1.
       -1   -1    0    0    0  501  0.00000000000E+00  0.00000000000E+00 -0.14676869043E+04  0.14676869043E+04  0.50400001928E-02 0. -1.
    10030    2    1    2    0    0  0.00000000000E+00  0.00000000000E+00  0.64821741603E+03  0.35835912246E+04  0.35244773012E+04 0.  0.
        4    1    3    3  502    0  0.16477133107E+04  0.31969501706E+03 -0.22185109975E+03  0.16930397460E+04  0.12699999809E+01 0. -1.
       -4    1    3    3    0  502 -0.16477133107E+04 -0.31969501706E+03  0.87006851578E+03  0.18905514786E+04  0.12699999809E+01 0.  1.
</event>
<event>
 5   0  0.1866421E-07  0.3361549E+04  0.7818609E-02  0.8147408E-01
        1   -1    0    0  501    0  0.00000000000E+00  0.00000000000E+00  0.79273965284E+03  0.79273965286E+03  0.50400001928E-02 0. -1.
       -1   -1    0    0    0  501  0.00000000000E+00  0.00000000000E+00 -0.35635957953E+04  0.35635957953E+04  0.50400001928E-02 0.  1.
    10030    2    1    2    0    0  0.00000000000E+00  0.00000000000E+00 -0.27708561425E+04  0.43563354482E+04  0.33615494604E+04 0.  0.
        1    1    3    3  502    0 -0.15501561301E+04 -0.10077127325E+03 -0.22171136202E+04  0.27071630321E+04  0.50400001928E-02 0.  1.
       -1    1    3    3    0  502  0.15501561301E+04  0.10077127325E+03 -0.55374252227E+03  0.16491724161E+04  0.50400001928E-02 0. -1.
</event>
<event>
 5   0  0.5573334E-07  0.3510016E+04  0.7818609E-02  0.8111420E-01
        2   -1    0    0  501    0  0.00000000000E+00  0.00000000000E+00  0.19937322369E+04  0.19937322369E+04  0.25500000920E-02 0.  1.
       -2   -1    0    0    0  501  0.00000000000E+00  0.00000000000E+00 -0.15448678104E+04  0.15448678104E+04  0.25500000920E-02 0. -1.
    10030    2    1    2    0    0  0.00000000000E+00  0.00000000000E+00  0.44886442649E+03  0.35386000473E+04  0.35100158150E+04 0.  0.
        4    1    3    3  502    0 -0.87027782890E+03  0.14591887717E+04  0.66782722294E+03  0.18255438048E+04  0.12699999809E+01 0.  1.
       -4    1    3    3    0  502  0.87027782890E+03 -0.14591887717E+04 -0.21896279645E+03  0.17130562425E+04  0.12699999809E+01 0. -1.
</event>
<event>
 5   0  0.1908190E-07  0.3466779E+04  0.7818609E-02  0.8121708E-01
        1   -1    0    0  501    0  0.00000000000E+00  0.00000000000E+00  0.18876540434E+04  0.18876540434E+04  0.50400001928E-02 0. -1.
       -1   -1    0    0    0  501  0.00000000000E+00  0.00000000000E+00 -0.15917320764E+04  0.15917320764E+04  0.50400001928E-02 0.  1.
    10030    2    1    2    0    0  0.00000000000E+00  0.00000000000E+00  0.29592196701E+03  0.34793861197E+04  0.34667791911E+04 0.  0.
        5    1    3    3  502    0  0.40817443653E+03 -0.88146835953E+03  0.15888085226E+04  0.18622372166E+04  0.46999998093E+01 0. -1.
       -5    1    3    3    0  502 -0.40817443653E+03  0.88146835953E+03 -0.12928865555E+04  0.16171489032E+04  0.46999998093E+01 0.  1.
</event>
<event>
 5   0  0.1823000E-07  0.3081903E+04  0.7818609E-02  0.8220722E-01
       -3   -1    0    0    0  501  0.00000000000E+00  0.00000000000E+00  0.88936942606E+03  0.88936943180E+03  0.10100000352E+00 0.  1.
        3   -1    0    0  501    0  0.00000000000E+00  0.00000000000E+00 -0.26699053580E+04  0.26699053600E+04  0.10100000352E+00 0. -1.
    10030    2    1    2    0    0  0.00000000000E+00  0.00000000000E+00 -0.17805359320E+04  0.35592747918E+04  0.30819034440E+04 0.  0.
        2    1    3    3  502    0 -0.93442604527E+03 -0.94486941850E+03 -0.17912355443E+04  0.22303486336E+04  0.25500000920E-02 0. -1.
       -2    1    3    3    0  502  0.93442604527E+03  0.94486941850E+03  0.10699612356E+02  0.13289261582E+04  0.25500000920E-02 0.  1.
</event>
<event>
 5   0  0.1897049E-07  0.3486318E+04  0.7818609E-02  0.8117040E-01
        1   -1    0    0  501    0  0.00000000000E+00  0.00000000000E+00  0.16281496051E+04  0.16281496052E+04  0.50400001928E-02 0. -1.
       -1   -1    0    0    0  501  0.00000000000E+00  0.00000000000E+00 -0.18662921991E+04  0.18662921991E+04  0.50400001928E-02 0.  1.
    10030    2    1    2    0    0  0.00000000000E+00  0.00000000000E+00 -0.23814259392E+03  0.34944418042E+04  0.34863177750E+04 0.  0.
        2    1    3    3  502    0  0.11668234842E+04 -0.98167619627E+03  0.72754938258E+03  0.16895245786E+04  0.25500000920E-02 0. -1.
       -2    1    3    3    0  502 -0.11668234842E+04  0.98167619627E+03 -0.96569197650E+03  0.18049172256E+04  0.25500000920E-02 0.  1.
</event>
<event>
 5   0  0.5707187E-07  0.3610458E+04  0.7818609E-02  0.8088100E-01
        2   -1    0    0  501    0  0.00000000000E+00  0.00000000000E+00  0.21966848525E+04  0.21966848525E+04  0.25500000920E-02 0. -1.
       -2   -1    0    0    0  501  0.00000000000E+00  0.00000000000E+00 -0.14835320014E+04  0.14835320014E+04  0.25500000920E-02 0.  1.
    10030    2    1    2    0    0  0.00000000000E+00  0.00000000000E+00  0.71315285112E+03  0.36802168540E+04  0.36104582954E+04 0.  0.
        1    1    3    3  502    0  0.33658844770E+03  0.17332182506E+04  0.74002956422E+03  0.19144140209E+04  0.50400001928E-02 0. -1.
       -1    1    3    3    0  502 -0.33658844770E+03 -0.17332182506E+04 -0.26876713091E+02  0.17658028331E+04  0.50400001928E-02 0.  1.
</event>
<event>
 5   0  0.1933647E-07  0.3456782E+04  0.7818609E-02  0.8124109E-01
       -1   -1    0    0    0  501  0.00000000000E+00  0.00000000000E+00  0.10471319030E+04  0.10471319030E+04  0.50400001928E-02 0.  1.
        1   -1    0    0  501    0  0.00000000000E+00  0.00000000000E+00 -0.28528743487E+04  0.28528743488E+04  0.50400001928E-02 0. -1.
    10030    2    1    2    0    0  0.00000000000E+00  0.00000000000E+00 -0.18057424458E+04  0.39000062518E+04  0.34567821718E+04 0.  0.
        4    1    3    3  502    0 -0.95337429924E+02 -0.14336719647E+04 -0.19866834570E+04  0.24518191815E+04  0.12699999809E+01 0. -1.
       -4    1    3    3    0  502  0.95337429924E+02  0.14336719647E+04  0.18094101121E+03  0.14481870702E+04  0.12699999809E+01 0.  1.
</event>
<event>
 5   0  0.5707187E-07  0.3513207E+04  0.7818609E-02  0.8110667E-01
        2   -1    0    0  501    0  0.00000000000E+00  0.00000000000E+00  0.25634253320E+04  0.25634253320E+04  0.25500000920E-02 0.  1.
       -2   -1    0    0    0  501  0.00000000000E+00  0.00000000000E+00 -0.12037237087E+04  0.12037237087E+04  0.25500000920E-02 0. -1.
    10030    2    1    2    0    0  0.00000000000E+00  0.00000000000E+00  0.13597016232E+04  0.37671490407E+04  0.35132069951E+04 0.  0.
        1    1    3    3  502    0  0.64748186036E+03 -0.10503036250E+04  0.20205402789E+04  0.23674782962E+04  0.50400001928E-02 0.  1.
       -1    1    3    3    0  502 -0.64748186036E+03  0.10503036250E+04 -0.66083865567E+03  0.13996707445E+04  0.50400001928E-02 0. -1.
</event>
<event>
 5   0  0.5677193E-07  0.3514597E+04  0.7818609E-02  0.8110339E-01
        2   -1    0    0  501    0  0.00000000000E+00  0.00000000000E+00  0.26820277683E+04  0.26820277683E+04  0.25500000920E-02 0. -1.
       -2   -1    0    0    0  501  0.00000000000E+00  0.00000000000E+00 -0.11514042839E+04  0.11514042839E+04  0.25500000920E-02 0.  1.
    10030    2    1    2    0    0  0.00000000000E+00  0.00000000000E+00  0.15306234844E+04  0.38334320522E+04  0.35145971388E+04 0.  0.
        3    1    3    3  502    0  0.71713107201E+03 -0.97663537168E+03 -0.62294677387E+03  0.13624082784E+04  0.10100000352E+00 0.  1.
       -3    1    3    3    0  502 -0.71713107201E+03  0.97663537168E+03  0.21535702582E+04  0.24710237739E+04  0.10100000352E+00 0. -1.
</event>
<event>
 5   0  0.5677193E-07  0.3474828E+04  0.7818609E-02  0.8119781E-01
       -2   -1    0    0    0  501  0.00000000000E+00  0.00000000000E+00  0.17678578904E+04  0.17678578904E+04  0.25500000920E-02 0.  1.
        2   -1    0    0  501    0  0.00000000000E+00  0.00000000000E+00 -0.17074941804E+04  0.17074941804E+04  0.25500000920E-02 0. -1.
    10030    2    1    2    0    0  0.00000000000E+00  0.00000000000E+00  0.60363709975E+02  0.34753520707E+04  0.34748277998E+04 0.  0.
        3    1    3    3  502    0 -0.96670745005E+02  0.16761016884E+04  0.47740135935E+03  0.17454438321E+04  0.10100000352E+00 0.  1.
       -3    1    3    3    0  502  0.96670745005E+02 -0.16761016884E+04 -0.41703764938E+03  0.17299082386E+04  0.10100000352E+00 0. -1.
</event>
<event>
 5   0  0.1866421E-07  0.3485729E+04  0.7818609E-02  0.8117180E-01
        1   -1    0    0  501    0  0.00000000000E+00  0.00000000000E+00  0.24398006665E+04  0.24398006665E+04  0.50400001928E-02 0. -1.
       -1   -1    0    0    0  501  0.00000000000E+00  0.00000000000E+00 -0.12450098951E+04  0.12450098951E+04  0.50400001928E-02 0.  1.
    10030    2    1    2    0    0  0.00000000000E+00  0.00000000000E+00  0.11947907714E+04  0.36848105616E+04  0.34857286021E+04 0.  0.
        1    1    3    3  502    0 -0.29689954229E+03 -0.43906796561E+02 -0.12174867084E+04  0.12539342208E+04  0.50400001928E-02 0.  1.
       -1    1    3    3    0  502  0.29689954229E+03  0.43906796561E+02  0.24122774797E+04  0.24308763408E+04  0.50400001928E-02 0. -1.
</event>
<event>
 5   0  0.1908190E-07  0.3473201E+04  0.7818609E-02  0.8120170E-01
       -1   -1    0    0    0  501  0.00000000000E+00  0.00000000000E+00  0.11666368690E+04  0.11666368690E+04  0.50400001928E-02 0. -1.
        1   -1    0    0  501    0  0.00000000000E+00  0.00000000000E+00 -0.25850214206E+04  0.25850214206E+04  0.50400001928E-02 0.  1.
    10030    2    1    2    0    0  0.00000000000E+00  0.00000000000E+00 -0.14183845515E+04  0.37516582896E+04  0.34732009999E+04 0.  0.
        5    1    3    3  502    0  0.46876749291E+02  0.41367069090E+03 -0.25303136156E+04  0.25643381122E+04  0.46999998093E+01 0.  1.
       -5    1    3    3    0  502 -0.46876749291E+02 -0.41367069090E+03  0.11119290641E+04  0.11873201774E+04  0.46999998093E+01 0. -1.
</event>
<event>
 5   0  0.5677193E-07  0.3463956E+04  0.7818609E-02  0.8122386E-01
        2   -1    0    0  501    0  0.00000000000E+00  0.00000000000E+00  0.23889225531E+04  0.23889225531E+04  0.25500000920E-02 0.  1.
       -2   -1    0    0    0  501  0.00000000000E+00  0.00000000000E+00 -0.12556903922E+04  0.12556903922E+04  0.25500000920E-02 0. -1.
    10030    2    1    2    0    0  0.00000000000E+00  0.00000000000E+00  0.11332321609E+04  0.36446129453E+04  0.34639555988E+04 0.  0.
        3    1    3    3  502    0  0.12071723528E+04 -0.12128433852E+03  0.18671101775E+04  0.22266736189E+04  0.10100000352E+00 0.  1.
       -3    1    3    3    0  502 -0.12071723528E+04  0.12128433852E+03 -0.73387801657E+03  0.14179393264E+04  0.10100000352E+00 0. -1.
</event>
<event>
 5   0  0.1908190E-07  0.3502280E+04  0.7818609E-02  0.8113250E-01
        1   -1    0    0  501    0  0.00000000000E+00  0.00000000000E+00  0.18176873297E+04  0.18176873297E+04  0.50400001928E-02 0.  1.
       -1   -1    0    0    0  501  0.00000000000E+00  0.00000000000E+00 -0.16870287373E+04  0.16870287373E+04  0.50400001928E-02 0. -1.
    10030    2    1    2    0    0  0.00000000000E+00  0.00000000000E+00  0.13065859244E+03  0.35047160670E+04  0.35022796922E+04 0.  0.
        5    1    3    3  502    0 -0.14242304163E+04 -0.32287047640E+02 -0.95370810155E+03  0.17143675117E+04  0.46999998093E+01 0. -1.
       -5    1    3    3    0  502  0.14242304163E+04  0.32287047640E+02  0.10843666940E+04  0.17903485553E+04  0.46999998093E+01 0.  1.
</event>
<event>
 5   0  0.5740827E-07  0.3500457E+04  0.7818609E-02  0.8113682E-01
       -2   -1    0    0    0  501  0.00000000000E+00  0.00000000000E+00  0.15399331165E+04  0.15399331165E+04  0.25500000920E-02 0.  1.
        2   -1    0    0  501    0  0.00000000000E+00  0.00000000000E+00 -0.19892424205E+04  0.19892424205E+04  0.25500000920E-02 0. -1.
    10030    2    1    2    0    0  0.00000000000E+00  0.00000000000E+00 -0.44930930400E+03  0.35291755370E+04  0.35004572730E+04 0.  0.
        2    1    3    3  502    0 -0.58507731289E+03  0.49527020118E+03  0.13616872919E+04  0.15626260958E+04  0.25500000920E-02 0.  1.
       -2    1    3    3    0  502  0.58507731289E+03 -0.49527020118E+03 -0.18109965959E+04  0.19665494412E+04  0.25500000920E-02 0. -1.
</event>
<event>
 5   0  0.1873457E-07  0.3491903E+04  0.7818609E-02  0.8115711E-01
        1   -1    0    0  501    0  0.00000000000E+00  0.00000000000E+00  0.20776115662E+04  0.20776115662E+04  0.50400001928E-02 0.  1.
       -1   -1    0    0    0  501  0.00000000000E+00  0.00000000000E+00 -0.14672361235E+04  0.14672361235E+04  0.50400001928E-02 0. -1.
    10030    2    1    2    0    0  0.00000000000E+00  0.00000000000E+00  0.61037544269E+03  0.35448476898E+04  0.34919030574E+04 0.  0.
        3    1    3    3  502    0  0.16251493836E+04  0.38374018030E+03 -0.21242519904E+03  0.16832978110E+04  0.10100000352E+00 0. -1.
       -3    1    3    3    0  502 -0.16251493836E+04 -0.38374018030E+03  0.82280064173E+03  0.18615498788E+04  0.10100000352E+00 0.  1.
</event>
<event>
 5   0  0.1866421E-07  0.3503170E+04  0.7818609E-02  0.8113039E-01
        1   -1    0    0  501    0  0.00000000000E+00  0.00000000000E+00  0.17018836469E+04  0.17018836469E+04  0.50400001928E-02 0.  1.
       -1   -1    0    0    0  501  0.00000000000E+00  0.00000000000E+00 -0.18027378040E+04  0.18027378040E+04  0.50400001928E-02 0. -1.
    10030    2    1    2    0    0  0.00000000000E+00  0.00000000000E+00 -0.10085415713E+03  0.35046214510E+04  0.35031699864E+04 0.  0.
        1    1    3    3  502    0  0.17070172632E+03 -0.86462642494E+03 -0.15647689085E+04  0.17958896600E+04  0.50400001928E-02 0. -1.
       -1    1    3    3    0  502 -0.17070172632E+03  0.86462642494E+03  0.14639147514E+04  0.17087317909E+04  0.50400001928E-02 0.  1.
</event>
<event>
 5   0  0.1933647E-07  0.3493642E+04  0.7818609E-02  0.8115298E-01
       -1   -1    0    0    0  501  0.00000000000E+00  0.00000000000E+00  0.10534165760E+04  0.10534165760E+04  0.50400001928E-02 0.  1.
        1   -1    0    0  501    0  0.00000000000E+00  0.00000000000E+00 -0.28966547833E+04  0.28966547833E+04  0.50400001928E-02 0. -1.
    10030    2    1    2    0    0  0.00000000000E+00  0.00000000000E+00 -0.18432382073E+04  0.39500713593E+04  0.34936423192E+04 0.  0.
        4    1    3    3  502    0  0.11750981739E+04 -0.12607932799E+04 -0.59997648240E+03  0.18249462472E+04  0.12699999809E+01 0.  1.
       -4    1    3    3    0  502 -0.11750981739E+04  0.12607932799E+04 -0.12432617249E+04  0.21251251121E+04  0.12699999809E+01 0. -1.
</event>
<event>
 5   0  0.5573334E-07  0.3493767E+04  0.7818609E-02  0.8115269E-01
        2   -1    0    0  501    0  0.00000000000E+00  0.00000000000E+00  0.24082232686E+04  0.24082232686E+04  0.25500000920E-02 0. -1.
       -2   -1    0    0    0  501  0.00000000000E+00  0.00000000000E+00 -0.12671591131E+04  0.12671591131E+04  0.25500000920E-02 0.  1.
    10030    2    1    2    0    0  0.00000000000E+00  0.00000000000E+00  0.11410641555E+04  0.36753823817E+04  0.34937670565E+04 0.  0.
        4    1    3    3  502    0  0.48892741474E+03 -0.94955530645E+03  0.20247416966E+04  0.22891670642E+04  0.12699999809E+01 0. -1.
       -4    1    3    3    0  502 -0.48892741474E+03  0.94955530645E+03 -0.88367754115E+03  0.13862153175E+04  0.12699999809E+01 0.  1.
</event>
<event>
 5   0  0.1873457E-07  0.3513298E+04  0.7818609E-02  0.8110646E-01
       -1   -1    0    0    0  501  0.00000000000E+00  0.00000000000E+00  0.10979587380E+04  0.10979587380E+04  0.50400001928E-02 0. -1.
        1   -1    0    0  501    0  0.00000000000E+00  0.00000000000E+00 -0.28105024283E+04  0.28105024283E+04  0.50400001928E-02 0.  1.
    10030    2    1    2    0    0  0.00000000000E+00  0.00000000000E+00 -0.17125436904E+04  0.39084611663E+04  0.35132979944E+04 0.  0.
        3    1    3    3  502    0  0.98635860515E+03  0.11808352312E+04  0.86738492919E+02  0.15410381947E+04  0.10100000352E+00 0. -1.
       -3    1    3    3    0  502 -0.98635860515E+03 -0.11808352312E+04 -0.17992821833E+04  0.23674229716E+04  0.10100000352E+00 0.  1.
</event>
<event>
 5   0  0.1908190E-07  0.3448877E+04  0.7818609E-02  0.8126013E-01
        1   -1    0    0  501    0  0.00000000000E+00  0.00000000000E+00  0.24621503271E+04  0.24621503271E+04  0.50400001928E-02 0.  1.
       -1   -1    0    0    0  501  0.00000000000E+00  0.00000000000E+00 -0.12077606662E+04  0.12077606663E+04  0.50400001928E-02 0. -1.
    10030    2    1    2    0    0  0.00000000000E+00  0.00000000000E+00  0.12543896609E+04  0.36699109934E+04  0.34488771039E+04 0.  0.
        5    1    3    3  502    0  0.12267760592E+04  0.11957824460E+04  0.41761779006E+03  0.17633212600E+04  0.46999998093E+01 0. -1.
       -5    1    3    3    0  502 -0.12267760592E+04 -0.11957824460E+04  0.83677187083E+03  0.19065897334E+04  0.46999998093E+01 0.  1.
</event>
<event>
 5   0  0.1933647E-07  0.3495036E+04  0.7818609E-02  0.8114967E-01
       -1   -1    0    0    0  501  0.00000000000E+00  0.00000000000E+00  0.13489487607E+04  0.13489487608E+04  0.50400001928E-02 0.  1.
        1   -1    0    0  501    0  0.00000000000E+00  0.00000000000E+00 -0.22638514691E+04  0.22638514692E+04  0.50400001928E-02 0. -1.
    10030    2    1    2    0    0  0.00000000000E+00  0.00000000000E+00 -0.91490270841E+03  0.36128002299E+04  0.34950362710E+04 0.  0.
        4    1    3    3  502    0 -0.18306652431E+02 -0.49599342762E+03 -0.21894601227E+04  0.22450126627E+04  0.12699999809E+01 0. -1.
       -4    1    3    3    0  502  0.18306652431E+02  0.49599342762E+03  0.12745574143E+04  0.13677875672E+04  0.12699999809E+01 0.  1.
</event>
<event>
 5   0  0.5740827E-07  0.3505083E+04  0.7818609E-02  0.8112586E-01
        2   -1    0    0  501    0  0.00000000000E+00  0.00000000000E+00  0.23177030897E+04  0.23177030897E+04  0.25500000920E-02 0.  1.
       -2   -1    0    0    0  501  0.00000000000E+00  0.00000000000E+00 -0.13251917921E+04  0.13251917922E+04  0.25500000920E-02 0. -1.
    10030    2    1    2    0    0  0.00000000000E+00  0.00000000000E+00  0.99251129759E+03  0.36428948819E+04  0.35050826588E+04 0.  0.
        2    1    3    3  502    0  0.63505956527E+03 -0.58248498690E+03  0.20823008583E+04  0.22535674554E+04  0.25500000920E-02 0.  1.
       -2    1    3    3    0  502 -0.63505956527E+03  0.58248498690E+03 -0.10897895607E+04  0.13893274265E+04  0.25500000920E-02 0. -1.
</event>
<event>
 5   0  0.5573334E-07  0.3466523E+04  0.7818609E-02  0.8121770E-01
        2   -1    0    0  501    0  0.00000000000E+00  0.00000000000E+00  0.16539874835E+04  0.16539874835E+04  0.25500000920E-02 0. -1.
       -2   -1    0    0    0  501  0.00000000000E+00  0.00000000000E+00 -0.18163346421E+04  0.18163346421E+04  0.25500000920E-02 0.  1.
    10030    2    1    2    0    0  0.00000000000E+00  0.00000000000E+00 -0.16234715860E+03  0.34703221256E+04  0.34665226172E+04 0.  0.
        4    1    3    3  502    0 -0.12979169852E+04  0.11463248683E+04 -0.66342843907E+01  0.17316739967E+04  0.12699999809E+01 0. -1.
       -4    1    3    3    0  502  0.12979169852E+04 -0.11463248683E+04 -0.15571287421E+03  0.17386481289E+04  0.12699999809E+01 0.  1.
</event>
<event>
 5   0  0.5573334E-07  0.3288785E+04  0.7818609E-02  0.8165755E-01
        2   -1    0    0  501    0  0.00000000000E+00  0.00000000000E+00  0.20896101221E+04  0.20896101221E+04  0.25500000920E-02 0.  1.
       -2   -1    0    0    0  501  0.00000000000E+00  0.00000000000E+00 -0.12940339019E+04  0.12940339019E+04  0.25500000920E-02 0. -1.
    10030    2    1    2    0    0  0.00000000000E+00  0.00000000000E+00  0.79557622019E+03  0.33836440240E+04  0.32887847845E+04 0.  0.
        4    1    3    3  502    0  0.13168117720E+04 -0.56446144881E+03 -0.43259404696E+03  0.14965791634E+04  0.12699999809E+01 0. -1.
       -4    1    3    3    0  502 -0.13168117720E+04  0.56446144881E+03  0.12281702671E+04  0.18870648606E+04  0.12699999809E+01 0.  1.
</event>
<event>
 5   0  0.1933647E-07  0.3483561E+04  0.7818609E-02  0.8117697E-01
       -1   -1    0    0    0  501  0.00000000000E+00  0.00000000000E+00  0.16154118222E+04  0.16154118222E+04  0.50400001928E-02 0.  1.
        1   -1    0    0  501    0  0.00000000000E+00  0.00000000000E+00 -0.18780341812E+04  0.18780341812E+04  0.50400001928E-02 0. -1.
    10030    2    1    2    0    0  0.00000000000E+00  0.00000000000E+00 -0.26262235904E+03  0.34934460034E+04  0.34835606031E+04 0.  0.
        4    1    3    3  502    0  0.15680801289E+04  0.72022067978E+03 -0.36905752165E+03  0.17645957569E+04  0.12699999809E+01 0.  1.
       -4    1    3    3    0  502 -0.15680801289E+04 -0.72022067978E+03  0.10643516261E+03  0.17288502465E+04  0.12699999809E+01 0. -1.
</event>
<event>
 5   0  0.5740827E-07  0.3466435E+04  0.7818609E-02  0.8121791E-01
        2   -1    0    0  501    0  0.00000000000E+00  0.00000000000E+00  0.27190868770E+04  0.27190868770E+04  0.25500000920E-02 0.  1.
       -2   -1    0    0    0  501  0.00000000000E+00  0.00000000000E+00 -0.11047981494E+04  0.11047981494E+04  0.25500000920E-02 0. -1.
    10030    2    1    2    0    0  0.00000000000E+00  0.00000000000E+00  0.16142887276E+04  0.38238850264E+04  0.34664345659E+04 0.  0.
        2    1    3    3  502    0  0.51618414154E+03 -0.48344576241E+03 -0.93838939216E+03  0.11750491583E+04  0.25500000920E-02 0. -1.
       -2    1    3    3    0  502 -0.51618414154E+03  0.48344576241E+03  0.25526781197E+04  0.26488358681E+04  0.25500000920E-02 0.  1.
</event>
<event>
 5   0  0.5573334E-07  0.3157787E+04  0.7818609E-02  0.8200055E-01
       -2   -1    0    0    0  501  0.00000000000E+00  0.00000000000E+00  0.14179240171E+04  0.14179240171E+04  0.25500000920E-02 0.  1.
        2   -1    0    0  501    0  0.00000000000E+00  0.00000000000E+00 -0.17581372826E+04  0.17581372826E+04  0.25500000920E-02 0. -1.
    10030    2    1    2    0    0  0.00000000000E+00  0.00000000000E+00 -0.34021326550E+03  0.31760612997E+04  0.31577872495E+04 0.  0.
        4    1    3    3  502    0 -0.76820617280E+03  0.58283016338E+03  0.10873570909E+04  0.14533336779E+04  0.12699999809E+01 0.  1.
       -4    1    3    3    0  502  0.76820617280E+03 -0.58283016338E+03 -0.14275703564E+04  0.17227276217E+04  0.12699999809E+01 0. -1.
</event>
<event>
 5   0  0.5554745E-07  0.3451826E+04  0.7818609E-02  0.8125302E-01
       -2   -1    0    0    0  501  0.00000000000E+00  0.00000000000E+00  0.14157771272E+04  0.14157771272E+04  0.25500000920E-02 0. -1.
        2   -1    0    0  501    0  0.00000000000E+00  0.00000000000E+00 -0.21039860331E+04  0.21039860331E+04  0.25500000920E-02 0.  1.
    10030    2    1    2    0    0  0.00000000000E+00  0.00000000000E+00 -0.68820890587E+03  0.35197631603E+04  0.34518257787E+04 0.  0.
        5    1    3    3  502    0  0.99591271048E+03 -0.62269912584E+03  0.94536218293E+03  0.15077559733E+04  0.46999998093E+01 0. -1.
       -5    1    3    3    0  502 -0.99591271048E+03  0.62269912584E+03 -0.16335710888E+04  0.20120071870E+04  0.46999998093E+01 0.  1.
</event>
<event>
 5   0  0.1823000E-07  0.3493469E+04  0.7818609E-02  0.8115339E-01
        4   -1    0    0  501    0  0.00000000000E+00  0.00000000000E+00  0.14804599508E+04  0.14804604956E+04  0.12699999809E+01 0.  1.
       -4   -1    0    0    0  501  0.00000000000E+00  0.00000000000E+00 -0.20609003040E+04  0.20609006953E+04  0.12699999809E+01 0. -1.
    10030    2    1    2    0    0  0.00000000000E+00  0.00000000000E+00 -0.58044035321E+03  0.35413611909E+04  0.34934693473E+04 0.  0.
        1    1    3    3  502    0 -0.59576840187E+03 -0.16601746016E+03 -0.19461938158E+04  0.20420999374E+04  0.50400001928E-02 0. -1.
       -1    1    3    3    0  502  0.59576840187E+03  0.16601746016E+03  0.13657534626E+04  0.14992612535E+04  0.50400001928E-02 0.  1.
</event>
<event>
 5   0  0.5677193E-07  0.3461233E+04  0.7818609E-02  0.8123039E-01
        2   -1    0    0  501    0  0.00000000000E+00  0.00000000000E+00  0.22128960023E+04  0.22128960023E+04  0.25500000920E-02 0.  1.
       -2   -1    0    0    0  501  0.00000000000E+00  0.00000000000E+00 -0.13534454567E+04  0.13534454567E+04  0.25500000920E-02 0. -1.
    10030    2    1    2    0    0  0.00000000000E+00  0.00000000000E+00  0.85945054562E+03  0.35663414589E+04  0.34612333295E+04 0.  0.
        3    1    3    3  502    0 -0.22265824284E+03  0.14811137407E+04  0.13230955225E+04  0.19984635043E+04  0.10100000352E+00 0.  1.
       -3    1    3    3    0  502  0.22265824284E+03 -0.14811137407E+04 -0.46364497691E+03  0.15678779547E+04  0.10100000352E+00 0. -1.
</event>
<event>
 5   0  0.1823000E-07  0.3498656E+04  0.7818609E-02  0.8114109E-01
        3   -1    0    0  501    0  0.00000000000E+00  0.00000000000E+00  0.11962156241E+04  0.11962156284E+04  0.10100000352E+00 0.  1.
       -3   -1    0    0    0  501  0.00000000000E+00  0.00000000000E+00 -0.25581906664E+04  0.25581906683E+04  0.10100000352E+00 0. -1.
    10030    2    1    2    0    0  0.00000000000E+00  0.00000000000E+00 -0.13619750422E+04  0.37544062968E+04  0.34986555454E+04 0.  0.
        4    1    3    3  502    0 -0.15070975924E+04  0.76974160890E+03 -0.11564333678E+04  0.20496792540E+04  0.12699999809E+01 0. -1.
       -4    1    3    3    0  502  0.15070975924E+04 -0.76974160890E+03 -0.20554167445E+03  0.17047270427E+04  0.12699999809E+01 0.  1.
</event>
<event>
 5   0  0.1897049E-07  0.3526234E+04  0.7818609E-02  0.8107601E-01
        1   -1    0    0  501    0  0.00000000000E+00  0.00000000000E+00  0.29623511730E+04  0.29623511730E+04  0.50400001928E-02 0.  1.
       -1   -1    0    0    0  501  0.00000000000E+00  0.00000000000E+00 -0.10493630071E+04  0.10493630071E+04  0.50400001928E-02 0. -1.
    10030    2    1    2    0    0  0.00000000000E+00  0.00000000000E+00  0.19129881659E+04  0.40117141801E+04  0.35262341017E+04 0.  0.
        2    1    3    3  502    0  0.99839249526E+03  0.11555824239E+04 -0.45968465256E+02  0.15278322594E+04  0.25500000920E-02 0. -1.
       -2    1    3    3    0  502 -0.99839249526E+03 -0.11555824239E+04  0.19589566312E+04  0.24838819207E+04  0.25500000920E-02 0.  1.
</event>
<event>
 5   0  0.5707187E-07  0.3442173E+04  0.7818609E-02  0.8127633E-01
       -2   -1    0    0    0  501  0.00000000000E+00  0.00000000000E+00  0.22400599904E+04  0.22400599904E+04  0.25500000920E-02 0. -1.
        2   -1    0    0  501    0  0.00000000000E+00  0.00000000000E+00 -0.13223479385E+04  0.13223479386E+04  0.25500000920E-02 0.  1.
    10030    2    1    2    0    0  0.00000000000E+00  0.00000000000E+00  0.91771205181E+03  0.35624079289E+04  0.34421729826E+04 0.  0.
        1    1    3    3  502    0 -0.14047948715E+04 -0.71262850319E+03  0.11765116318E+04  0.19660792543E+04  0.50400001928E-02 0. -1.
       -1    1    3    3    0  502  0.14047948715E+04  0.71262850319E+03 -0.25879957995E+03  0.15963286746E+04  0.50400001928E-02 0.  1.
</event>
<event>
 5   0  0.1933647E-07  0.3488267E+04  0.7818609E-02  0.8116576E-01
       -1   -1    0    0    0  501  0.00000000000E+00  0.00000000000E+00  0.17614137479E+04  0.17614137479E+04  0.50400001928E-02 0. -1.
        1   -1    0    0  501    0  0.00000000000E+00  0.00000000000E+00 -0.17270223209E+04  0.17270223210E+04  0.50400001928E-02 0.  1.
    10030    2    1    2    0    0  0.00000000000E+00  0.00000000000E+00  0.34391426939E+02  0.34884360688E+04  0.34882665374E+04 0.  0.
        4    1    3    3  502    0 -0.78849860630E+03  0.36741685715E+02 -0.15381673855E+04  0.17288841841E+04  0.12699999809E+01 0.  1.
       -4    1    3    3    0  502  0.78849860630E+03 -0.36741685715E+02  0.15725588124E+04  0.17595518847E+04  0.12699999809E+01 0. -1.
</event>
<event>
 5   0  0.5677193E-07  0.3554369E+04  0.7818609E-02  0.8101025E-01
       -2   -1    0    0    0  501  0.00000000000E+00  0.00000000000E+00  0.11988750312E+04  0.11988750312E+04  0.25500000920E-02 0.  1.
        2   -1    0    0  501    0  0.00000000000E+00  0.00000000000E+00 -0.26344565211E+04  0.26344565211E+04  0.25500000920E-02 0. -1.
    10030    2    1    2    0    0  0.00000000000E+00  0.00000000000E+00 -0.14355814898E+04  0.38333315523E+04  0.35543686607E+04 0.  0.
        3    1    3    3  502    0 -0.11936080908E+03 -0.10407568875E+04 -0.22660686974E+04  0.24964953942E+04  0.10100000352E+00 0. -1.
       -3    1    3    3    0  502  0.11936080908E+03  0.10407568875E+04  0.83048720757E+03  0.13368361581E+04  0.10100000352E+00 0.  1.
</event>
<event>
 5   0  0.1908190E-07  0.3495998E+04  0.7818609E-02  0.8114739E-01
        1   -1    0    0  501    0  0.00000000000E+00  0.00000000000E+00  0.24967751557E+04  0.24967751557E+04  0.50400001928E-02 0. -1.
       -1   -1    0    0    0  501  0.00000000000E+00  0.00000000000E+00 -0.12237790934E+04  0.12237790934E+04  0.50400001928E-02 0.  1.
    10030    2    1    2    0    0  0.00000000000E+00  0.00000000000E+00  0.12729960623E+04  0.37205542491E+04  0.34959984190E+04 0.  0.
        5    1    3    3  502    0 -0.13793570448E+04 -0.67977733690E+03 -0.24800386064E+03  0.15576427991E+04  0.46999998093E+01 0.  1.
       -5    1    3    3    0  502  0.13793570448E+04  0.67977733690E+03  0.15209999230E+04  0.21629114500E+04  0.46999998093E+01 0. -1.
</event>
<event>
 5   0  0.1873457E-07  0.3503328E+04  0.7818609E-02  0.8113002E-01
       -1   -1    0    0    0  501  0.00000000000E+00  0.00000000000E+00  0.15640176104E+04  0.15640176104E+04  0.50400001928E-02 0.  1.
        1   -1    0    0  501    0  0.00000000000E+00  0.00000000000E+00 -0.19618239983E+04  0.19618239983E+04  0.50400001928E-02 0. -1.
    10030    2    1    2    0    0  0.00000000000E+00  0.00000000000E+00 -0.39780638788E+03  0.35258416087E+04  0.35033282929E+04 0.  0.
        3    1    3    3  502    0 -0.13222978685E+04 -0.80867506808E+03  0.62236792781E+03  0.16702601194E+04  0.10100000352E+00 0.  1.
       -3    1    3    3    0  502  0.13222978685E+04  0.80867506808E+03 -0.10201743157E+04  0.18555814893E+04  0.10100000352E+00 0. -1.
</event>
<event>
 5   0  0.5740827E-07  0.3496384E+04  0.7818609E-02  0.8114647E-01
       -2   -1    0    0    0  501  0.00000000000E+00  0.00000000000E+00  0.33316552110E+04  0.33316552110E+04  0.25500000920E-02 0.  1.
        2   -1    0    0  501    0  0.00000000000E+00  0.00000000000E+00 -0.91731458125E+03  0.91731458125E+03  0.25500000920E-02 0. -1.
    10030    2    1    2    0    0  0.00000000000E+00  0.00000000000E+00  0.24143406298E+04  0.42489697923E+04  0.34963843637E+04 0.  0.
        2    1    3    3  502    0 -0.14464028651E+04  0.58590449960E+03  0.24965875261E+03  0.15804097011E+04  0.25500000920E-02 0. -1.
       -2    1    3    3    0  502  0.14464028651E+04 -0.58590449960E+03  0.21646818771E+04  0.26685600911E+04  0.25500000920E-02 0.  1.
</event>
<event>
 5   0  0.5554745E-07  0.3488040E+04  0.7818609E-02  0.8116630E-01
        2   -1    0    0  501    0  0.00000000000E+00  0.00000000000E+00  0.15613023635E+04  0.15613023635E+04  0.25500000920E-02 0.  1.
       -2   -1    0    0    0  501  0.00000000000E+00  0.00000000000E+00 -0.19481204518E+04  0.19481204518E+04  0.25500000920E-02 0. -1.
    10030    2    1    2    0    0  0.00000000000E+00  0.00000000000E+00 -0.38681808828E+03  0.35094228153E+04  0.34880396017E+04 0.  0.
        5    1    3    3  502    0 -0.69612077468E+03  0.39700047751E+03  0.13650832591E+04  0.15829301647E+04  0.46999998093E+01 0.  1.
       -5    1    3    3    0  502  0.69612077468E+03 -0.39700047751E+03 -0.17519013473E+04  0.19264926506E+04  0.46999998093E+01 0. -1.
</event>
<event>
 5   0  0.1933647E-07  0.3504547E+04  0.7818609E-02  0.8112713E-01
       -1   -1    0    0    0  501  0.00000000000E+00  0.00000000000E+00  0.20705980335E+04  0.20705980335E+04  0.50400001928E-02 0. -1.
        1   -1    0    0  501    0  0.00000000000E+00  0.00000000000E+00 -0.14828869376E+04  0.14828869376E+04  0.50400001928E-02 0.  1.
    10030    2    1    2    0    0  0.00000000000E+00  0.00000000000E+00  0.58771109589E+03  0.35534849710E+04  0.35045472043E+04 0.  0.
        4    1    3    3  502    0 -0.10375082460E+04  0.12000516124E+04  0.10485023099E+04  0.19015535595E+04  0.12699999809E+01 0. -1.
       -4    1    3    3    0  502  0.10375082460E+04 -0.12000516124E+04 -0.46079121399E+03  0.16519314116E+04  0.12699999809E+01 0.  1.
</event>
<event>
 5   0  0.5573334E-07  0.3436918E+04  0.7818609E-02  0.8128904E-01
        2   -1    0    0  501    0  0.00000000000E+00  0.00000000000E+00  0.18769923274E+04  0.18769923274E+04  0.25500000920E-02 0.  1.
       -2   -1    0    0    0  501  0.00000000000E+00  0.00000000000E+00 -0.15733160567E+04  0.15733160567E+04  0.25500000920E-02 0. -1.
    10030    2    1    2    0    0  0.00000000000E+00  0.00000000000E+00  0.30367627073E+03  0.34503083841E+04  0.34369184844E+04 0.  0.
        4    1    3    3  502    0  0.13841755349E+04 -0.80826613376E+03 -0.47014363568E+03  0.16704109391E+04  0.12699999809E+01 0. -1.
       -4    1    3    3    0  502 -0.13841755349E+04  0.80826613376E+03  0.77381990640E+03  0.17798974450E+04  0.12699999809E+01 0.  1.
</event>
<event>
 5   0  0.1908190E-07  0.3506828E+04  0.7818609E-02  0.8112174E-01
       -1   -1    0    0    0  501  0.00000000000E+00  0.00000000000E+00  0.21907006250E+04  0.21907006250E+04  0.50400001928E-02 0.  1.
        1   -1    0    0  501    0  0.00000000000E+00  0.00000000000E+00 -0.14034143235E+04  0.14034143235E+04  0.50400001928E-02 0. -1.
    10030    2    1    2    0    0  0.00000000000E+00  0.00000000000E+00  0.78728630148E+03  0.35941149485E+04  0.35068279887E+04 0.  0.
        5    1    3    3  502    0  0.17180895496E+04  0.92906120788E+02  0.73964854275E+03  0.18728495146E+04  0.46999998093E+01 0.  1.
       -5    1    3    3    0  502 -0.17180895496E+04 -0.92906120788E+02  0.47637758729E+02  0.17212654338E+04  0.46999998093E+01 0. -1.
</event>
<event>
 5   0  0.5740827E-07  0.3474741E+04  0.7818609E-02  0.8119802E-01
       -2   -1    0    0    0  501  0.00000000000E+00  0.00000000000E+00  0.12654222443E+04  0.12654222443E+04  0.25500000920E-02 0. -1.
        2   -1    0    0  501    0  0.00000000000E+00  0.00000000000E+00 -0.23853349727E+04  0.23853349727E+04  0.25500000920E-02 0.  1.
    10030    2    1    2    0    0  0.00000000000E+00  0.00000000000E+00 -0.11199127284E+04  0.36507572170E+04  0.34747408160E+04 0.  0.
        2    1    3    3  502    0  0.11951684757E+04 -0.12124730154E+04 -0.19609334620E+03  0.17137593468E+04  0.25500000920E-02 0.  1.
       -2    1    3    3    0  502 -0.11951684757E+04  0.12124730154E+04 -0.92381938219E+03  0.19369978702E+04  0.25500000920E-02 0. -1.
</event>
<event>
 5   0  0.5677193E-07  0.3551707E+04  0.7818609E-02  0.8101644E-01
        2   -1    0    0  501    0  0.00000000000E+00  0.00000000000E+00  0.18440345486E+04  0.18440345486E+04  0.25500000920E-02 0. -1.
       -2   -1    0    0    0  501  0.00000000000E+00  0.00000000000E+00 -0.17101931354E+04  0.17101931354E+04  0.25500000920E-02 0.  1.
    10030    2    1    2    0    0  0.00000000000E+00  0.00000000000E+00  0.13384141317E+03  0.35542276840E+04  0.35517067596E+04 0.  0.
        3    1    3    3  502    0  0.15269530883E+04  0.89005997477E+03 -0.10601029269E+03  0.17706017861E+04  0.10100000352E+00 0.  1.
       -3    1    3    3    0  502 -0.15269530883E+04 -0.89005997477E+03  0.23985170586E+03  0.17836258979E+04  0.10100000352E+00 0. -1.
</event>
<event>
 5   0  0.1897049E-07  0.3507857E+04  0.7818609E-02  0.8111930E-01
        1   -1    0    0  501    0  0.00000000000E+00  0.00000000000E+00  0.23275407607E+04  0.23275407607E+04  0.50400001928E-02 0.  1.
       -1   -1    0    0    0  501  0.00000000000E+00  0.00000000000E+00 -0.13216807389E+04  0.13216807389E+04  0.50400001928E-02 0. -1.
    10030    2    1    2    0    0  0.00000000000E+00  0.00000000000E+00  0.10058600218E+04  0.36492214996E+04  0.35078573474E+04 0.  0.
        2    1    3    3  502    0  0.15500828272E+04  0.41372046839E+03 -0.23439519645E+03  0.16213767315E+04  0.25500000920E-02 0.  1.
       -2    1    3    3    0  502 -0.15500828272E+04 -0.41372046839E+03  0.12402552183E+04  0.20278447681E+04  0.25500000920E-02 0. -1.
</event>
<event>
 5   0  0.1908190E-07  0.3499384E+04  0.7818609E-02  0.8113936E-01
       -1   -1    0    0    0  501  0.00000000000E+00  0.00000000000E+00  0.11592323933E+04  0.11592323933E+04  0.50400001928E-02 0. -1.
        1   -1    0    0  501    0  0.00000000000E+00  0.00000000000E+00 -0.26409052413E+04  0.26409052413E+04  0.50400001928E-02 0.  1.
    10030    2    1    2    0    0  0.00000000000E+00  0.00000000000E+00 -0.14816728480E+04  0.38001376346E+04  0.34993844621E+04 0.  0.
        5    1    3    3  502    0 -0.48678785330E+03  0.14724851317E+04 -0.16205359597E+04  0.22430634774E+04  0.46999998093E+01 0.  1.
       -5    1    3    3    0  502  0.48678785330E+03 -0.14724851317E+04  0.13886311163E+03  0.15570741572E+04  0.46999998093E+01 0. -1.
</event>
<event>
 5   0  0.5677193E-07  0.3502095E+04  0.7818609E-02  0.8113294E-01
       -2   -1    0    0    0  501  0.00000000000E+00  0.00000000000E+00  0.11320837060E+04  0.11320837060E+04  0.25500000920E-02 0.  1.
        2   -1    0    0  501    0  0.00000000000E+00  0.00000000000E+00 -0.27084274664E+04  0.27084274664E+04  0.25500000920E-02 0. -1.
    10030    2    1    2    0    0  0.00000000000E+00  0.00000000000E+00 -0.15763437604E+04  0.38405111724E+04  0.35020945753E+04 0.  0.
        3    1    3    3  502    0 -0.52172203217E+03  0.72886520327E+03  0.86142322878E+03  0.12431767182E+04  0.10100000352E+00 0.  1.
       -3    1    3    3    0  502  0.52172203217E+03 -0.72886520327E+03 -0.24377669892E+04  0.25973344542E+04  0.10100000352E+00 0. -1.
</event>
<event>
 5   0  0.5677193E-07  0.3479094E+04  0.7818609E-02  0.8118762E-01
       -2   -1    0    0    0  501  0.00000000000E+00  0.00000000000E+00  0.13185642287E+04  0.13185642287E+04  0.25500000920E-02 0. -1.
        2   -1    0    0  501    0  0.00000000000E+00  0.00000000000E+00 -0.22949386846E+04  0.22949386846E+04  0.25500000920E-02 0.  1.
    10030    2    1    2    0    0  0.00000000000E+00  0.00000000000E+00 -0.97637445592E+03  0.36135029133E+04  0.34790941675E+04 0.  0.
        3    1    3    3  502    0  0.76815256778E+03  0.78851315135E+03  0.91077608493E+03  0.14287492587E+04  0.10100000352E+00 0. -1.
       -3    1    3    3    0  502 -0.76815256778E+03 -0.78851315135E+03 -0.18871505408E+04  0.21847536546E+04  0.10100000352E+00 0.  1.
</event>
<event>
 5   0  0.5740827E-07  0.3499148E+04  0.7818609E-02  0.8113992E-01
       -2   -1    0    0    0  501  0.00000000000E+00  0.00000000000E+00  0.13091361199E+04  0.13091361199E+04  0.25500000920E-02 0.  1.
        2   -1    0    0  501    0  0.00000000000E+00  0.00000000000E+00 -0.23381896718E+04  0.23381896718E+04  0.25500000920E-02 0. -1.
    10030    2    1    2    0    0  0.00000000000E+00  0.00000000000E+00 -0.10290535518E+04  0.36473257917E+04  0.34991476417E+04 0.  0.
        2    1    3    3  502    0  0.12238166303E+04 -0.42865319863E+03 -0.17388021107E+04  0.21690789496E+04  0.25500000920E-02 0. -1.
       -2    1    3    3    0  502 -0.12238166303E+04  0.42865319863E+03  0.70974855888E+03  0.14782468421E+04  0.25500000920E-02 0.  1.
</event>
<event>
 5   0  0.1866421E-07  0.3488943E+04  0.7818609E-02  0.8116415E-01
        1   -1    0    0  501    0  0.00000000000E+00  0.00000000000E+00  0.16931870767E+04  0.16931870767E+04  0.50400001928E-02 0. -1.
       -1   -1    0    0    0  501  0.00000000000E+00  0.00000000000E+00 -0.17973095718E+04  0.17973095718E+04  0.50400001928E-02 0.  1.
    10030    2    1    2    0    0  0.00000000000E+00  0.00000000000E+00 -0.10412249510E+03  0.34904966485E+04  0.34889433012E+04 0.  0.
        1    1    3    3  502    0 -0.10099622189E+04 -0.44536024646E+03 -0.14035186661E+04  0.17855626785E+04  0.50400001928E-02 0.  1.
       -1    1    3    3    0  502  0.10099622189E+04  0.44536024646E+03  0.12993961710E+04  0.17049339700E+04  0.50400001928E-02 0. -1.
</event>
<event>
 5   0  0.5573334E-07  0.3513463E+04  0.7818609E-02  0.8110607E-01
       -2   -1    0    0    0  501  0.00000000000E+00  0.00000000000E+00  0.26239442972E+04  0.26239442972E+04  0.25500000920E-02 0. -1.
        2   -1    0    0  501    0  0.00000000000E+00  0.00000000000E+00 -0.11761323038E+04  0.11761323038E+04  0.25500000920E-02 0.  1.
    10030    2    1    2    0    0  0.00000000000E+00  0.00000000000E+00  0.14478119935E+04  0.38000766010E+04  0.35134630502E+04 0.  0.
        4    1    3    3  502    0 -0.21654333969E+02 -0.11349505053E+04 -0.72618122516E+03  0.13475616291E+04  0.12699999809E+01 0.  1.
       -4    1    3    3    0  502  0.21654333969E+02  0.11349505053E+04  0.21739932186E+04  0.24525149719E+04  0.12699999809E+01 0. -1.
</event>
<event>
 5   0  0.5677193E-07  0.3514677E+04  0.7818609E-02  0.8110321E-01
        2   -1    0    0  501    0  0.00000000000E+00  0.00000000000E+00  0.27151128759E+04  0.27151128759E+04  0.25500000920E-02 0.  1.
       -2   -1    0    0    0  501  0.00000000000E+00  0.00000000000E+00 -0.11374251951E+04  0.11374251951E+04  0.25500000920E-02 0. -1.
    10030    2    1    2    0    0  0.00000000000E+00  0.00000000000E+00  0.15776876808E+04  0.38525380710E+04  0.35146765386E+04 0.  0.
        3    1    3    3  502    0 -0.36503638212E+03  0.26861861467E+03  0.26499498563E+04  0.26884273789E+04  0.10100000352E+00 0.  1.
       -3    1    3    3    0  502  0.36503638212E+03 -0.26861861467E+03 -0.10722621755E+04  0.11641106922E+04  0.10100000352E+00 0. -1.
</event>
<event>
 5   0  0.1897049E-07  0.3488898E+04  0.7818609E-02  0.8116426E-01
        1   -1    0    0  501    0  0.00000000000E+00  0.00000000000E+00  0.17028994008E+04  0.17028994008E+04  0.50400001928E-02 0.  1.
       -1   -1    0    0    0  501  0.00000000000E+00  0.00000000000E+00 -0.17870128455E+04  0.17870128455E+04  0.50400001928E-02 0. -1.
    10030    2    1    2    0    0  0.00000000000E+00  0.00000000000E+00 -0.84113444679E+02  0.34899122464E+04  0.34888984531E+04 0.  0.
        2    1    3    3  502    0 -0.94371005271E+03  0.50534957333E+03 -0.14198226448E+04  0.17781628715E+04  0.25500000920E-02 0. -1.
       -2    1    3    3    0  502  0.94371005271E+03 -0.50534957333E+03  0.13357092002E+04  0.17117493748E+04  0.25500000920E-02 0.  1.
</event>
<event>
 5   0  0.1866421E-07  0.3488718E+04  0.7818609E-02  0.8116469E-01
       -1   -1    0    0    0  501  0.00000000000E+00  0.00000000000E+00  0.13758966822E+04  0.13758966822E+04  0.50400001928E-02 0. -1.
        1   -1    0    0  501    0  0.00000000000E+00  0.00000000000E+00 -0.22114948139E+04  0.22114948139E+04  0.50400001928E-02 0.  1.
    10030    2    1    2    0    0  0.00000000000E+00  0.00000000000E+00 -0.83559813172E+03  0.35873914961E+04  0.34887180323E+04 0.  0.
        1    1    3    3  502    0 -0.11029062534E+04  0.78317673189E+03 -0.15503218634E+04  0.20574901889E+04  0.50400001928E-02 0.  1.
       -1    1    3    3    0  502  0.11029062534E+04 -0.78317673189E+03  0.71472373168E+03  0.15299013072E+04  0.50400001928E-02 0. -1.
</event>
<event>
 5   0  0.5707187E-07  0.3495729E+04  0.7818609E-02  0.8114803E-01
       -2   -1    0    0    0  501  0.00000000000E+00  0.00000000000E+00  0.25399270835E+04  0.25399270835E+04  0.25500000920E-02 0.  1.
        2   -1    0    0  501    0  0.00000000000E+00  0.00000000000E+00 -0.12028023669E+04  0.12028023669E+04  0.25500000920E-02 0. -1.
    10030    2    1    2    0    0  0.00000000000E+00  0.00000000000E+00  0.13371247165E+04  0.37427294504E+04  0.34957289986E+04 0.  0.
        1    1    3    3  502    0  0.97436871805E+03 -0.31869587623E+03  0.21842405294E+04  0.24128547719E+04  0.50400001928E-02 0.  1.
       -1    1    3    3    0  502 -0.97436871805E+03  0.31869587623E+03 -0.84711581281E+03  0.13298746785E+04  0.50400001928E-02 0. -1.
</event>
<event>
 5   0  0.1908190E-07  0.3499487E+04  0.7818609E-02  0.8113912E-01
       -1   -1    0    0    0  501  0.00000000000E+00  0.00000000000E+00  0.14138077891E+04  0.14138077891E+04  0.50400001928E-02 0. -1.
        1   -1    0    0  501    0  0.00000000000E+00  0.00000000000E+00 -0.21655011274E+04  0.21655011274E+04  0.50400001928E-02 0.  1.
    10030    2    1    2    0    0  0.00000000000E+00  0.00000000000E+00 -0.75169333834E+03  0.35793089165E+04  0.34994870260E+04 0.  0.
        5    1    3    3  502    0  0.11236327429E+04  0.72779907089E+03 -0.15281942036E+04  0.20316598245E+04  0.46999998093E+01 0.  1.
       -5    1    3    3    0  502 -0.11236327429E+04 -0.72779907089E+03  0.77650086526E+03  0.15476490921E+04  0.46999998093E+01 0. -1.
</event>
<event>
 5   0  0.1866421E-07  0.3547847E+04  0.7818609E-02  0.8102543E-01
        1   -1    0    0  501    0  0.00000000000E+00  0.00000000000E+00  0.23360936702E+04  0.23360936702E+04  0.50400001928E-02 0.  1.
       -1   -1    0    0    0  501  0.00000000000E+00  0.00000000000E+00 -0.13470373307E+04  0.13470373308E+04  0.50400001928E-02 0. -1.
    10030    2    1    2    0    0  0.00000000000E+00  0.00000000000E+00  0.98905633947E+03  0.36831310010E+04  0.35478474499E+04 0.  0.
        1    1    3    3  502    0 -0.17315170801E+04  0.20062352334E+03  0.15272565568E+03  0.17497789354E+04  0.50400001928E-02 0. -1.
       -1    1    3    3    0  502  0.17315170801E+04 -0.20062352334E+03  0.83633068378E+03  0.19333520656E+04  0.50400001928E-02 0.  1.
</event>
<event>
 5   0  0.5677193E-07  0.3299578E+04  0.7818609E-02  0.8163003E-01
       -2   -1    0    0    0  501  0.00000000000E+00  0.00000000000E+00  0.13404679087E+04  0.13404679087E+04  0.25500000920E-02 0. -1.
        2   -1    0    0  501    0  0.00000000000E+00  0.00000000000E+00 -0.20304883735E+04  0.20304883735E+04  0.25500000920E-02 0.  1.
    10030    2    1    2    0    0  0.00000000000E+00  0.00000000000E+00 -0.69002046479E+03  0.33709562823E+04  0.32995784602E+04 0.  0.
        3    1    3    3  502    0  0.99905342382E+03 -0.96324328137E+03 -0.12564180764E+04  0.18720394642E+04  0.10100000352E+00 0.  1.
       -3    1    3    3    0  502 -0.99905342382E+03  0.96324328137E+03  0.56639761161E+03  0.14989168180E+04  0.10100000352E+00 0. -1.
</event>
<event>
 5   0  0.1866421E-07  0.3510683E+04  0.7818609E-02  0.8111263E-01
       -1   -1    0    0    0  501  0.00000000000E+00  0.00000000000E+00  0.19334573252E+04  0.19334573252E+04  0.50400001928E-02 0. -1.
        1   -1    0    0  501    0  0.00000000000E+00  0.00000000000E+00 -0.15936342294E+04  0.15936342294E+04  0.50400001928E-02 0.  1.
    10030    2    1    2    0    0  0.00000000000E+00  0.00000000000E+00  0.33982309582E+03  0.35270915546E+04  0.35106829959E+04 0.  0.
        1    1    3    3  502    0  0.15279823996E+04  0.52661255677E+03  0.85807486611E+03  0.18298479375E+04  0.50400001928E-02 0. -1.
       -1    1    3    3    0  502 -0.15279823996E+04 -0.52661255677E+03 -0.51825177029E+03  0.16972436171E+04  0.50400001928E-02 0.  1.
</event>
<event>
 5   0  0.1866421E-07  0.3492376E+04  0.7818609E-02  0.8115599E-01
        1   -1    0    0  501    0  0.00000000000E+00  0.00000000000E+00  0.27444442452E+04  0.27444442452E+04  0.50400001928E-02 0.  1.
       -1   -1    0    0    0  501  0.00000000000E+00  0.00000000000E+00 -0.11110346805E+04  0.11110346805E+04  0.50400001928E-02 0. -1.
    10030    2    1    2    0    0  0.00000000000E+00  0.00000000000E+00  0.16334095647E+04  0.38554789257E+04  0.34923761167E+04 0.  0.
        1    1    3    3  502    0 -0.10098722954E+04  0.67365785242E+03 -0.56899357681E+03  0.13406754438E+04  0.50400001928E-02 0. -1.
       -1    1    3    3    0  502  0.10098722954E+04 -0.67365785242E+03  0.22024031415E+04  0.25148034819E+04  0.50400001928E-02 0.  1.
</event>
<event>
 5   0  0.1897049E-07  0.3490428E+04  0.7818609E-02  0.8116062E-01
       -1   -1    0    0    0  501  0.00000000000E+00  0.00000000000E+00  0.11496130017E+04  0.11496130017E+04  0.50400001928E-02 0. -1.
        1   -1    0    0  501    0  0.00000000000E+00  0.00000000000E+00 -0.26493887268E+04  0.26493887268E+04  0.50400001928E-02 0.  1.
    10030    2    1    2    0    0  0.00000000000E+00  0.00000000000E+00 -0.14997757251E+04  0.37990017285E+04  0.34904278974E+04 0.  0.
        2    1    3    3  502    0  0.11479038277E+04  0.45876665619E+03  0.59093862798E+03  0.13701673272E+04  0.25500000920E-02 0. -1.
       -2    1    3    3    0  502 -0.11479038277E+04 -0.45876665619E+03 -0.20907143531E+04  0.24288344013E+04  0.25500000920E-02 0.  1.
</event>
<event>
 5   0  0.5707187E-07  0.3540119E+04  0.7818609E-02  0.8104348E-01
       -2   -1    0    0    0  501  0.00000000000E+00  0.00000000000E+00  0.14053632387E+04  0.14053632387E+04  0.25500000920E-02 0. -1.
        2   -1    0    0  501    0  0.00000000000E+00  0.00000000000E+00 -0.22293953638E+04  0.22293953638E+04  0.25500000920E-02 0.  1.
    10030    2    1    2    0    0  0.00000000000E+00  0.00000000000E+00 -0.82403212514E+03  0.36347586025E+04  0.35401188052E+04 0.  0.
        1    1    3    3  502    0  0.35691602629E+03  0.17107151291E+04 -0.12311327402E+03  0.17518824678E+04  0.50400001928E-02 0.  1.
       -1    1    3    3    0  502 -0.35691602629E+03 -0.17107151291E+04 -0.70091885112E+03  0.18828761347E+04  0.50400001928E-02 0. -1.
</event>
<event>
 5   0  0.5677193E-07  0.3485250E+04  0.7818609E-02  0.8117294E-01
       -2   -1    0    0    0  501  0.00000000000E+00  0.00000000000E+00  0.12073097394E+04  0.12073097394E+04  0.25500000920E-02 0. -1.
        2   -1    0    0  501    0  0.00000000000E+00  0.00000000000E+00 -0.25152970770E+04  0.25152970770E+04  0.25500000920E-02 0.  1.
    10030    2    1    2    0    0  0.00000000000E+00  0.00000000000E+00 -0.13079873376E+04  0.37226068164E+04  0.34852504407E+04 0.  0.
        3    1    3    3  502    0 -0.11376260072E+04 -0.78591621535E+03  0.47884305955E+03  0.14632661807E+04  0.10100000352E+00 0. -1.
       -3    1    3    3    0  502  0.11376260072E+04  0.78591621535E+03 -0.17868303971E+04  0.22593406357E+04  0.10100000352E+00 0.  1.
</event>
<event>
 5   0  0.5740827E-07  0.3501759E+04  0.7818609E-02  0.8113373E-01
       -2   -1    0    0    0  501  0.00000000000E+00  0.00000000000E+00  0.14661857890E+04  0.14661857890E+04  0.25500000920E-02 0. -1.
        2   -1    0    0  501    0  0.00000000000E+00  0.00000000000E+00 -0.20908531348E+04  0.20908531348E+04  0.25500000920E-02 0.  1.
    10030    2    1    2    0    0  0.00000000000E+00  0.00000000000E+00 -0.62466734582E+03  0.35570389238E+04  0.35017590740E+04 0.  0.
        2    1    3    3  502    0 -0.47055001422E+03  0.16836561254E+04 -0.21351542185E+03  0.17611655515E+04  0.25500000920E-02 0.  1.
       -2    1    3    3    0  502  0.47055001422E+03 -0.16836561254E+04 -0.41115192397E+03  0.17958733723E+04  0.25500000920E-02 0. -1.
</event>
<event>
 5   0  0.5573334E-07  0.3531039E+04  0.7818609E-02  0.8106473E-01
       -2   -1    0    0    0  501  0.00000000000E+00  0.00000000000E+00  0.16478727975E+04  0.16478727975E+04  0.25500000920E-02 0. -1.
        2   -1    0    0  501    0  0.00000000000E+00  0.00000000000E+00 -0.18915650651E+04  0.18915650651E+04  0.25500000920E-02 0.  1.
    10030    2    1    2    0    0  0.00000000000E+00  0.00000000000E+00 -0.24369226759E+03  0.35394378626E+04  0.35310387228E+04 0.  0.
        4    1    3    3  502    0  0.10915566737E+03  0.66603990312E+03 -0.17571472412E+04  0.18823103231E+04  0.12699999809E+01 0.  1.
       -4    1    3    3    0  502 -0.10915566737E+03 -0.66603990312E+03  0.15134549736E+04  0.16571275395E+04  0.12699999809E+01 0. -1.
</event>
<event>
 5   0  0.5677193E-07  0.3482983E+04  0.7818609E-02  0.8117835E-01
        2   -1    0    0  501    0  0.00000000000E+00  0.00000000000E+00  0.15334530166E+04  0.15334530166E+04  0.25500000920E-02 0. -1.
       -2   -1    0    0    0  501  0.00000000000E+00  0.00000000000E+00 -0.19777533182E+04  0.19777533182E+04  0.25500000920E-02 0.  1.
    10030    2    1    2    0    0  0.00000000000E+00  0.00000000000E+00 -0.44430030162E+03  0.35112063347E+04  0.34829825103E+04 0.  0.
        3    1    3    3  502    0 -0.35729264563E+03 -0.12693695364E+04 -0.13688360169E+04  0.19007022665E+04  0.10100000352E+00 0.  1.
       -3    1    3    3    0  502  0.35729264563E+03  0.12693695364E+04  0.92453571527E+03  0.16105040682E+04  0.10100000352E+00 0. -1.
</event>
<event>
 5   0  0.1866421E-07  0.3481669E+04  0.7818609E-02  0.8118148E-01
        1   -1    0    0  501    0  0.00000000000E+00  0.00000000000E+00  0.16618836253E+04  0.16618836253E+04  0.50400001928E-02 0.  1.
       -1   -1    0    0    0  501  0.00000000000E+00  0.00000000000E+00 -0.18235359586E+04  0.18235359586E+04  0.50400001928E-02 0. -1.
    10030    2    1    2    0    0  0.00000000000E+00  0.00000000000E+00 -0.16165233337E+03  0.34854195839E+04  0.34816688813E+04 0.  0.
        1    1    3    3  502    0 -0.77140266153E+03 -0.15558877194E+04  0.40365754733E+02  0.17370889602E+04  0.50400001928E-02 0.  1.
       -1    1    3    3    0  502  0.77140266153E+03  0.15558877194E+04 -0.20201808810E+03  0.17483306236E+04  0.50400001928E-02 0. -1.
</event>
<event>
 5   0  0.1823000E-07  0.3374947E+04  0.7818609E-02  0.8144083E-01
        3   -1    0    0  501    0  0.00000000000E+00  0.00000000000E+00  0.22357977130E+04  0.22357977153E+04  0.10100000352E+00 0. -1.
       -3   -1    0    0    0  501  0.00000000000E+00  0.00000000000E+00 -0.12736244621E+04  0.12736244661E+04  0.10100000352E+00 0.  1.
    10030    2    1    2    0    0  0.00000000000E+00  0.00000000000E+00  0.96217325090E+03  0.35094221815E+04  0.33749469156E+04 0.  0.
        5    1    3    3  502    0  0.30043035376E+03 -0.13890530644E+04  0.14271844465E+04  0.20141013747E+04  0.46999998093E+01 0. -1.
       -5    1    3    3    0  502 -0.30043035376E+03  0.13890530644E+04 -0.46501119564E+03  0.14953208068E+04  0.46999998093E+01 0.  1.
</event>
<event>
 5   0  0.5573334E-07  0.3507226E+04  0.7818609E-02  0.8112080E-01
        2   -1    0    0  501    0  0.00000000000E+00  0.00000000000E+00  0.97048542480E+03  0.97048542480E+03  0.25500000920E-02 0.  1.
       -2   -1    0    0    0  501  0.00000000000E+00  0.00000000000E+00 -0.31686801138E+04  0.31686801138E+04  0.25500000920E-02 0. -1.
    10030    2    1    2    0    0  0.00000000000E+00  0.00000000000E+00 -0.21981946890E+04  0.41391655386E+04  0.35072256080E+04 0.  0.
        4    1    3    3  502    0  0.12115824405E+04 -0.11149712344E+04 -0.18111917871E+04  0.24477561493E+04  0.12699999809E+01 0. -1.
       -4    1    3    3    0  502 -0.12115824405E+04  0.11149712344E+04 -0.38700290189E+03  0.16914093894E+04  0.12699999809E+01 0.  1.
</event>
<event>
 5   0  0.5740827E-07  0.3483290E+04  0.7818609E-02  0.8117761E-01
       -2   -1    0    0    0  501  0.00000000000E+00  0.00000000000E+00  0.11570443379E+04  0.11570443379E+04  0.25500000920E-02 0.  1.
        2   -1    0    0  501    0  0.00000000000E+00  0.00000000000E+00 -0.26216178425E+04  0.26216178425E+04  0.25500000920E-02 0. -1.
    10030    2    1    2    0    0  0.00000000000E+00  0.00000000000E+00 -0.14645735047E+04  0.37786621804E+04  0.34832904448E+04 0.  0.
        2    1    3    3  502    0  0.14223278546E+04 -0.85933761360E+03 -0.16668156603E+03  0.16701079021E+04  0.25500000920E-02 0. -1.
       -2    1    3    3    0  502 -0.14223278546E+04  0.85933761360E+03 -0.12978919386E+04  0.21085542783E+04  0.25500000920E-02 0.  1.
</event>
<event>
 5   0  0.1897049E-07  0.3483354E+04  0.7818609E-02  0.8117746E-01
       -1   -1    0    0    0  501  0.00000000000E+00  0.00000000000E+00  0.16442510748E+04  0.16442510748E+04  0.50400001928E-02 0.  1.
        1   -1    0    0  501    0  0.00000000000E+00  0.00000000000E+00 -0.18448755823E+04  0.18448755823E+04  0.50400001928E-02 0. -1.
    10030    2    1    2    0    0  0.00000000000E+00  0.00000000000E+00 -0.20062450751E+03  0.34891266572E+04  0.34833539350E+04 0.  0.
        2    1    3    3  502    0 -0.84438710911E+03  0.15232704171E+04 -0.11014206294E+03  0.17451285418E+04  0.25500000920E-02 0. -1.
       -2    1    3    3    0  502  0.84438710911E+03 -0.15232704171E+04 -0.90482444572E+02  0.17439981153E+04  0.25500000920E-02 0.  1.
</event>
<event>
 5   0  0.1897049E-07  0.3501770E+04  0.7818609E-02  0.8113370E-01
        1   -1    0    0  501    0  0.00000000000E+00  0.00000000000E+00  0.24541942427E+04  0.24541942427E+04  0.50400001928E-02 0. -1.
       -1   -1    0    0    0  501  0.00000000000E+00  0.00000000000E+00 -0.12491265006E+04  0.12491265006E+04  0.50400001928E-02 0.  1.
    10030    2    1    2    0    0  0.00000000000E+00  0.00000000000E+00  0.12050677421E+04  0.37033207433E+04  0.35017704472E+04 0.  0.
        2    1    3    3  502    0 -0.12281784947E+04  0.46601566592E+03 -0.62167926200E+03  0.14532990472E+04  0.25500000920E-02 0.  1.
       -2    1    3    3    0  502  0.12281784947E+04 -0.46601566592E+03  0.18267470041E+04  0.22500216961E+04  0.25500000920E-02 0. -1.
</event>
<event>
 5   0  0.5707187E-07  0.3501433E+04  0.7818609E-02  0.8113451E-01
        2   -1    0    0  501    0  0.00000000000E+00  0.00000000000E+00  0.10198980565E+04  0.10198980565E+04  0.25500000920E-02 0.  1.
       -2   -1    0    0    0  501  0.00000000000E+00  0.00000000000E+00 -0.30052096857E+04  0.30052096858E+04  0.25500000920E-02 0. -1.
    10030    2    1    2    0    0  0.00000000000E+00  0.00000000000E+00 -0.19853116293E+04  0.40251077422E+04  0.35014325741E+04 0.  0.
        1    1    3    3  502    0  0.85477680241E+03 -0.11828673710E+04  0.11902834676E+03  0.14642357552E+04  0.50400001928E-02 0.  1.
       -1    1    3    3    0  502 -0.85477680241E+03  0.11828673710E+04 -0.21043399760E+04  0.25608719871E+04  0.50400001928E-02 0. -1.
</event>
<event>
 5   0  0.1866421E-07  0.3751338E+04  0.7818609E-02  0.8056679E-01
        1   -1    0    0  501    0  0.00000000000E+00  0.00000000000E+00  0.18596755228E+04  0.18596755228E+04  0.50400001928E-02 0. -1.
       -1   -1    0    0    0  501  0.00000000000E+00  0.00000000000E+00 -0.18918000175E+04  0.18918000175E+04  0.50400001928E-02 0.  1.
    10030    2    1    2    0    0  0.00000000000E+00  0.00000000000E+00 -0.32124494687E+02  0.37514755403E+04  0.37513379941E+04 0.  0.
        1    1    3    3  502    0  0.55112269761E+03 -0.10113771833E+04 -0.14964928814E+04  0.18884149382E+04  0.50400001928E-02 0.  1.
       -1    1    3    3    0  502 -0.55112269761E+03  0.10113771833E+04  0.14643683868E+04  0.18630606020E+04  0.50400001928E-02 0. -1.
</event>
<event>
 5   0  0.1908190E-07  0.3497560E+04  0.7818609E-02  0.8114369E-01
       -1   -1    0    0    0  501  0.00000000000E+00  0.00000000000E+00  0.98716082731E+03  0.98716082732E+03  0.50400001928E-02 0.  1.
        1   -1    0    0  501    0  0.00000000000E+00  0.00000000000E+00 -0.30980064896E+04  0.30980064896E+04  0.50400001928E-02 0. -1.
    10030    2    1    2    0    0  0.00000000000E+00  0.00000000000E+00 -0.21108456623E+04  0.40851673169E+04  0.34975595202E+04 0.  0.
        5    1    3    3  502    0  0.12819581540E+04 -0.64386145101E+03 -0.22235647332E+04  0.26461739341E+04  0.46999998093E+01 0. -1.
       -5    1    3    3    0  502 -0.12819581540E+04  0.64386145101E+03  0.11271907093E+03  0.14389933828E+04  0.46999998093E+01 0.  1.
</event>
<event>
 5   0  0.1866421E-07  0.3497169E+04  0.7818609E-02  0.8114461E-01
        1   -1    0    0  501    0  0.00000000000E+00  0.00000000000E+00  0.22626798092E+04  0.22626798093E+04  0.50400001928E-02 0. -1.
       -1   -1    0    0    0  501  0.00000000000E+00  0.00000000000E+00 -0.13512945443E+04  0.13512945443E+04  0.50400001928E-02 0.  1.
    10030    2    1    2    0    0  0.00000000000E+00  0.00000000000E+00  0.91138526495E+03  0.36139743536E+04  0.34971685014E+04 0.  0.
        1    1    3    3  502    0 -0.96210476651E+03  0.14508087371E+04  0.62567142948E+03  0.18498530512E+04  0.50400001928E-02 0.  1.
       -1    1    3    3    0  502  0.96210476651E+03 -0.14508087371E+04  0.28571383547E+03  0.17641213023E+04  0.50400001928E-02 0. -1.
</event>
<event>
 5   0  0.1873457E-07  0.3317216E+04  0.7818609E-02  0.8158528E-01
        1   -1    0    0  501    0  0.00000000000E+00  0.00000000000E+00  0.11841810006E+04  0.11841810006E+04  0.50400001928E-02 0. -1.
       -1   -1    0    0    0  501  0.00000000000E+00  0.00000000000E+00 -0.23231084870E+04  0.23231084870E+04  0.50400001928E-02 0.  1.
    10030    2    1    2    0    0  0.00000000000E+00  0.00000000000E+00 -0.11389274864E+04  0.35072894877E+04  0.33172162623E+04 0.  0.
        3    1    3    3  502    0 -0.49766483970E+03 -0.90322606558E+03 -0.19429327283E+04  0.21996534307E+04  0.10100000352E+00 0.  1.
       -3    1    3    3    0  502  0.49766483970E+03  0.90322606558E+03  0.80400524194E+03  0.13076360570E+04  0.10100000352E+00 0. -1.
</event>
<event>
 5   0  0.5707187E-07  0.3466693E+04  0.7818609E-02  0.8121729E-01
        2   -1    0    0  501    0  0.00000000000E+00  0.00000000000E+00  0.20131484860E+04  0.20131484860E+04  0.25500000920E-02 0.  1.
       -2   -1    0    0    0  501  0.00000000000E+00  0.00000000000E+00 -0.14924330336E+04  0.14924330336E+04  0.25500000920E-02 0. -1.
    10030    2    1    2    0    0  0.00000000000E+00  0.00000000000E+00  0.52071545233E+03  0.35055815196E+04  0.34666925460E+04 0.  0.
        1    1    3    3  502    0 -0.47487288968E+03  0.16656845368E+04  0.19267359131E+03  0.17427370284E+04  0.50400001928E-02 0.  1.
       -1    1    3    3    0  502  0.47487288968E+03 -0.16656845368E+04  0.32804186102E+03  0.17628444912E+04  0.50400001928E-02 0. -1.
</event>
<event>
 5   0  0.5707187E-07  0.3503593E+04  0.7818609E-02  0.8112939E-01
        2   -1    0    0  501    0  0.00000000000E+00  0.00000000000E+00  0.19111724331E+04  0.19111724331E+04  0.25500000920E-02 0.  1.
       -2   -1    0    0    0  501  0.00000000000E+00  0.00000000000E+00 -0.16057112737E+04  0.16057112737E+04  0.25500000920E-02 0. -1.
    10030    2    1    2    0    0  0.00000000000E+00  0.00000000000E+00  0.30546115940E+03  0.35168837068E+04  0.35035930824E+04 0.  0.
        1    1    3    3  502    0  0.21406813019E+03  0.68137940786E+03  0.17583884735E+04  0.18979022856E+04  0.50400001928E-02 0.  1.
       -1    1    3    3    0  502 -0.21406813019E+03 -0.68137940786E+03 -0.14529273141E+04  0.16189814212E+04  0.50400001928E-02 0. -1.
</event>
<event>
 5   0  0.5573334E-07  0.3501993E+04  0.7818609E-02  0.8113318E-01
       -2   -1    0    0    0  501  0.00000000000E+00  0.00000000000E+00  0.15448795393E+04  0.15448795393E+04  0.25500000920E-02 0.  1.
        2   -1    0    0  501    0  0.00000000000E+00  0.00000000000E+00 -0.19846132856E+04  0.19846132856E+04  0.25500000920E-02 0. -1.
    10030    2    1    2    0    0  0.00000000000E+00  0.00000000000E+00 -0.43973374631E+03  0.35294928250E+04  0.35019928375E+04 0.  0.
        4    1    3    3  502    0  0.58019446093E+03 -0.77323842352E+03  0.12515509332E+04  0.15814248713E+04  0.12699999809E+01 0.  1.
       -4    1    3    3    0  502 -0.58019446093E+03  0.77323842352E+03 -0.16912846795E+04  0.19480679537E+04  0.12699999809E+01 0. -1.
</event>
<event>
 5   0  0.1897049E-07  0.3537587E+04  0.7818609E-02  0.8104940E-01
        1   -1    0    0  501    0  0.00000000000E+00  0.00000000000E+00  0.21702746015E+04  0.21702746015E+04  0.50400001928E-02 0. -1.
       -1   -1    0    0    0  501  0.00000000000E+00  0.00000000000E+00 -0.14415828319E+04  0.14415828319E+04  0.50400001928E-02 0.  1.
    10030    2    1    2    0    0  0.00000000000E+00  0.00000000000E+00  0.72869176963E+03  0.36118574334E+04  0.35375870907E+04 0.  0.
        2    1    3    3  502    0 -0.16597652491E+04  0.28459847432E+03 -0.18813735167E+03  0.16944652953E+04  0.25500000920E-02 0.  1.
       -2    1    3    3    0  502  0.16597652491E+04 -0.28459847432E+03  0.91682912131E+03  0.19173921382E+04  0.25500000920E-02 0. -1.
</event>
<event>
 5   0  0.5554745E-07  0.3481721E+04  0.7818609E-02  0.8118136E-01
       -2   -1    0    0    0  501  0.00000000000E+00  0.00000000000E+00  0.15684192809E+04  0.15684192809E+04  0.25500000920E-02 0. -1.
        2   -1    0    0  501    0  0.00000000000E+00  0.00000000000E+00 -0.19322604551E+04  0.19322604551E+04  0.25500000920E-02 0.  1.
    10030    2    1    2    0    0  0.00000000000E+00  0.00000000000E+00 -0.36384117418E+03  0.35006797360E+04  0.34817205824E+04 0.  0.
        5    1    3    3  502    0 -0.16081494707E+04 -0.63699684840E+03  0.15778600599E+02  0.17297921144E+04  0.46999998093E+01 0. -1.
       -5    1    3    3    0  502  0.16081494707E+04  0.63699684840E+03 -0.37961977478E+03  0.17708876216E+04  0.46999998093E+01 0.  1.
</event>
<event>
 5   0  0.5554745E-07  0.3605194E+04  0.7818609E-02  0.8089303E-01
        2   -1    0    0  501    0  0.00000000000E+00  0.00000000000E+00  0.24333966181E+04  0.24333966181E+04  0.25500000920E-02 0. -1.
       -2   -1    0    0    0  501  0.00000000000E+00  0.00000000000E+00 -0.13353169886E+04  0.13353169886E+04  0.25500000920E-02 0.  1.
    10030    2    1    2    0    0  0.00000000000E+00  0.00000000000E+00  0.10980796295E+04  0.37687136067E+04  0.36051939443E+04 0.  0.
        5    1    3    3  502    0  0.15363152435E+04 -0.94282666924E+03  0.56171834056E+03  0.18880509102E+04  0.46999998093E+01 0.  1.
       -5    1    3    3    0  502 -0.15363152435E+04  0.94282666924E+03  0.53636128890E+03  0.18806626964E+04  0.46999998093E+01 0. -1.
</event>
<event>
 5   0  0.5677193E-07  0.3486628E+04  0.7818609E-02  0.8116966E-01
       -2   -1    0    0    0  501  0.00000000000E+00  0.00000000000E+00  0.12891645435E+04  0.12891645435E+04  0.25500000920E-02 0.  1.
        2   -1    0    0  501    0  0.00000000000E+00  0.00000000000E+00 -0.23574515167E+04  0.23574515167E+04  0.25500000920E-02 0. -1.
    10030    2    1    2    0    0  0.00000000000E+00  0.00000000000E+00 -0.10682869733E+04  0.36466160602E+04  0.34866275444E+04 0.  0.
        3    1    3    3  502    0 -0.88953717464E+02  0.39637650583E+03  0.12389703327E+04  0.13038690861E+04  0.10100000352E+00 0.  1.
       -3    1    3    3    0  502  0.88953717464E+02 -0.39637650583E+03 -0.23072573060E+04  0.23427469741E+04  0.10100000352E+00 0. -1.
</event>
<event>
 5   0  0.5554745E-07  0.3509956E+04  0.7818609E-02  0.8111435E-01
       -2   -1    0    0    0  501  0.00000000000E+00  0.00000000000E+00  0.16618808268E+04  0.16618808268E+04  0.25500000920E-02 0. -1.
        2   -1    0    0  501    0  0.00000000000E+00  0.00000000000E+00 -0.18532902599E+04  0.18532902599E+04  0.25500000920E-02 0.  1.
    10030    2    1    2    0    0  0.00000000000E+00  0.00000000000E+00 -0.19140943311E+03  0.35151710866E+04  0.35099558683E+04 0.  0.
        5    1    3    3  502    0 -0.24092691929E+03 -0.15857134156E+04  0.61766865484E+03  0.17187406651E+04  0.46999998093E+01 0. -1.
       -5    1    3    3    0  502  0.24092691929E+03  0.15857134156E+04 -0.80907808795E+03  0.17964304215E+04  0.46999998093E+01 0.  1.
</event>
<event>
 5   0  0.5740827E-07  0.3504298E+04  0.7818609E-02  0.8112772E-01
        2   -1    0    0  501    0  0.00000000000E+00  0.00000000000E+00  0.26354256781E+04  0.26354256781E+04  0.25500000920E-02 0.  1.
       -2   -1    0    0    0  501  0.00000000000E+00  0.00000000000E+00 -0.11649067931E+04  0.11649067931E+04  0.25500000920E-02 0. -1.
    10030    2    1    2    0    0  0.00000000000E+00  0.00000000000E+00  0.14705188850E+04  0.38003324712E+04  0.35042975189E+04 0.  0.
        2    1    3    3  502    0  0.12236324670E+04  0.51476712554E+03 -0.50492207580E+03  0.14202844470E+04  0.25500000920E-02 0. -1.
       -2    1    3    3    0  502 -0.12236324670E+04 -0.51476712554E+03  0.19754409608E+04  0.23800480242E+04  0.25500000920E-02 0.  1.
</event>
<event>
 5   0  0.5554745E-07  0.3825920E+04  0.7818609E-02  0.8040615E-01
       -2   -1    0    0    0  501  0.00000000000E+00  0.00000000000E+00  0.13609111059E+04  0.13609111059E+04  0.25500000920E-02 0.  1.
        2   -1    0    0  501    0  0.00000000000E+00  0.00000000000E+00 -0.26889462216E+04  0.26889462216E+04  0.25500000920E-02 0. -1.
    10030    2    1    2    0    0  0.00000000000E+00  0.00000000000E+00 -0.13280351157E+04  0.40498573275E+04  0.38259204258E+04 0.  0.
        5    1    3    3  502    0  0.45055841339E+03 -0.31076085261E+03  0.12762506317E+04  0.13886730920E+04  0.46999998093E+01 0.  1.
       -5    1    3    3    0  502 -0.45055841339E+03  0.31076085261E+03 -0.26042857474E+04  0.26611842355E+04  0.46999998093E+01 0. -1.
</event>
<event>
 5   0  0.5740827E-07  0.3325965E+04  0.7818609E-02  0.8156320E-01
        2   -1    0    0  501    0  0.00000000000E+00  0.00000000000E+00  0.17292893983E+04  0.17292893983E+04  0.25500000920E-02 0.  1.
       -2   -1    0    0    0  501  0.00000000000E+00  0.00000000000E+00 -0.15992182622E+04  0.15992182622E+04  0.25500000920E-02 0. -1.
    10030    2    1    2    0    0  0.00000000000E+00  0.00000000000E+00  0.13007113606E+03  0.33285076605E+04  0.33259652351E+04 0.  0.
        2    1    3    3  502    0 -0.29332189303E+03 -0.15773694930E+04  0.50283875953E+03  0.16813622657E+04  0.25500000920E-02 0.  1.
       -2    1    3    3    0  502  0.29332189303E+03  0.15773694930E+04 -0.37276762348E+03  0.16471453948E+04  0.25500000920E-02 0. -1.
</event>
<event>
 5   0  0.5573334E-07  0.3505630E+04  0.7818609E-02  0.8112457E-01
       -2   -1    0    0    0  501  0.00000000000E+00  0.00000000000E+00  0.88586985798E+03  0.88586985798E+03  0.25500000920E-02 0. -1.
        2   -1    0    0  501    0  0.00000000000E+00  0.00000000000E+00 -0.34681844279E+04  0.34681844279E+04  0.25500000920E-02 0.  1.
    10030    2    1    2    0    0  0.00000000000E+00  0.00000000000E+00 -0.25823145699E+04  0.43540542859E+04  0.35056297846E+04 0.  0.
        4    1    3    3  502    0  0.14135987919E+04  0.10363313520E+04 -0.12778834842E+04  0.21691546804E+04  0.12699999809E+01 0. -1.
       -4    1    3    3    0  502 -0.14135987919E+04 -0.10363313520E+04 -0.13044310858E+04  0.21848996055E+04  0.12699999809E+01 0.  1.
</event>
<event>
 5   0  0.5707187E-07  0.3277972E+04  0.7818609E-02  0.8168523E-01
       -2   -1    0    0    0  501  0.00000000000E+00  0.00000000000E+00  0.19647760331E+04  0.19647760331E+04  0.25500000920E-02 0. -1.
        2   -1    0    0  501    0  0.00000000000E+00  0.00000000000E+00 -0.13672166811E+04  0.13672166811E+04  0.25500000920E-02 0.  1.
    10030    2    1    2    0    0  0.00000000000E+00  0.00000000000E+00  0.59755935197E+03  0.33319927142E+04  0.32779716698E+04 0.  0.
        1    1    3    3  502    0 -0.15537339503E+04  0.48123340744E+03  0.93965166114E+02  0.16292649365E+04  0.50400001928E-02 0.  1.
       -1    1    3    3    0  502  0.15537339503E+04 -0.48123340744E+03  0.50359418586E+03  0.17027277777E+04  0.50400001928E-02 0. -1.
</event>
<event>
 5   0  0.1866421E-07  0.3492487E+04  0.7818609E-02  0.8115573E-01
        1   -1    0    0  501    0  0.00000000000E+00  0.00000000000E+00  0.15327468821E+04  0.15327468821E+04  0.50400001928E-02 0. -1.
       -1   -1    0    0    0  501  0.00000000000E+00  0.00000000000E+00 -0.19894784369E+04  0.19894784369E+04  0.50400001928E-02 0.  1.
    10030    2    1    2    0    0  0.00000000000E+00  0.00000000000E+00 -0.45673155485E+03  0.35222253190E+04  0.34924872920E+04 0.  0.
        1    1    3    3  502    0  0.12630458272E+04 -0.12058356979E+04 -0.22180040893E+03  0.17602613196E+04  0.50400001928E-02 0. -1.
       -1    1    3    3    0  502 -0.12630458272E+04  0.12058356979E+04 -0.23493114591E+03  0.17619639994E+04  0.50400001928E-02 0.  1.
</event>
<event>
 5   0  0.1908190E-07  0.3594114E+04  0.7818609E-02  0.8091841E-01
        1   -1    0    0  501    0  0.00000000000E+00  0.00000000000E+00  0.24272769197E+04  0.24272769197E+04  0.50400001928E-02 0.  1.
       -1   -1    0    0    0  501  0.00000000000E+00  0.00000000000E+00 -0.13304681147E+04  0.13304681147E+04  0.50400001928E-02 0. -1.
    10030    2    1    2    0    0  0.00000000000E+00  0.00000000000E+00  0.10968088050E+04  0.37577450345E+04  0.35941143818E+04 0.  0.
        5    1    3    3  502    0 -0.12019301256E+04  0.98416850900E+03 -0.39614657851E+03  0.16031774333E+04  0.46999998093E+01 0. -1.
       -5    1    3    3    0  502  0.12019301256E+04 -0.98416850900E+03  0.14929553835E+04  0.21545676012E+04  0.46999998093E+01 0.  1.
</event>
<event>
 5   0  0.1897049E-07  0.3492379E+04  0.7818609E-02  0.8115598E-01
        1   -1    0    0  501    0  0.00000000000E+00  0.00000000000E+00  0.26129790139E+04  0.26129790139E+04  0.50400001928E-02 0.  1.
       -1   -1    0    0    0  501  0.00000000000E+00  0.00000000000E+00 -0.11669354381E+04  0.11669354381E+04  0.50400001928E-02 0. -1.
    10030    2    1    2    0    0  0.00000000000E+00  0.00000000000E+00  0.14460435757E+04  0.37799144520E+04  0.34923790232E+04 0.  0.
        2    1    3    3  502    0 -0.11566361773E+04 -0.37436754743E+03 -0.63366323467E+03  0.13709439822E+04  0.25500000920E-02 0. -1.
       -2    1    3    3    0  502  0.11566361773E+04  0.37436754743E+03  0.20797068104E+04  0.24089704698E+04  0.25500000920E-02 0.  1.
</event>
<event>
 5   0  0.1908190E-07  0.3496239E+04  0.7818609E-02  0.8114682E-01
       -1   -1    0    0    0  501  0.00000000000E+00  0.00000000000E+00  0.12042497459E+04  0.12042497459E+04  0.50400001928E-02 0. -1.
        1   -1    0    0  501    0  0.00000000000E+00  0.00000000000E+00 -0.25376152331E+04  0.25376152331E+04  0.50400001928E-02 0.  1.
    10030    2    1    2    0    0  0.00000000000E+00  0.00000000000E+00 -0.13333654872E+04  0.37418649790E+04  0.34962394080E+04 0.  0.
        5    1    3    3  502    0 -0.35030546858E+03 -0.97450658274E+03 -0.21740032717E+04  0.24080467845E+04  0.46999998093E+01 0.  1.
       -5    1    3    3    0  502  0.35030546858E+03  0.97450658274E+03  0.84063778448E+03  0.13338181944E+04  0.46999998093E+01 0. -1.
</event>
<event>
 5   0  0.5707187E-07  0.3496328E+04  0.7818609E-02  0.8114661E-01
       -2   -1    0    0    0  501  0.00000000000E+00  0.00000000000E+00  0.11026080930E+04  0.11026080930E+04  0.25500000920E-02 0. -1.
        2   -1    0    0  501    0  0.00000000000E+00  0.00000000000E+00 -0.27716797796E+04  0.27716797796E+04  0.25500000920E-02 0.  1.
    10030    2    1    2    0    0  0.00000000000E+00  0.00000000000E+00 -0.16690716866E+04  0.38742878727E+04  0.34963275340E+04 0.  0.
        1    1    3    3  502    0 -0.25350672131E+03 -0.41347737373E+03 -0.26956352473E+04  0.27389192363E+04  0.50400001928E-02 0.  1.
       -1    1    3    3    0  502  0.25350672131E+03  0.41347737373E+03  0.10265635607E+04  0.11353686364E+04  0.50400001928E-02 0. -1.
</event>
<event>
 5   0  0.5573334E-07  0.3490508E+04  0.7818609E-02  0.8116043E-01
       -2   -1    0    0    0  501  0.00000000000E+00  0.00000000000E+00  0.14636665028E+04  0.14636665028E+04  0.25500000920E-02 0.  1.
        2   -1    0    0  501    0  0.00000000000E+00  0.00000000000E+00 -0.20810151800E+04  0.20810151800E+04  0.25500000920E-02 0. -1.
    10030    2    1    2    0    0  0.00000000000E+00  0.00000000000E+00 -0.61734867723E+03  0.35446816828E+04  0.34905083933E+04 0.  0.
        4    1    3    3  502    0  0.67586776765E+03 -0.13267722460E+04  0.61583325406E+03  0.16113267955E+04  0.12699999809E+01 0.  1.
       -4    1    3    3    0  502 -0.67586776765E+03  0.13267722460E+04 -0.12331819313E+04  0.19333548874E+04  0.12699999809E+01 0. -1.
</event>
<event>
 5   0  0.1933647E-07  0.3502785E+04  0.7818609E-02  0.8113130E-01
        1   -1    0    0  501    0  0.00000000000E+00  0.00000000000E+00  0.23701125328E+04  0.23701125328E+04  0.50400001928E-02 0. -1.
       -1   -1    0    0    0  501  0.00000000000E+00  0.00000000000E+00 -0.12941900898E+04  0.12941900898E+04  0.50400001928E-02 0.  1.
    10030    2    1    2    0    0  0.00000000000E+00  0.00000000000E+00  0.10759224430E+04  0.36643026226E+04  0.35027852641E+04 0.  0.
        4    1    3    3  502    0 -0.11233142065E+04  0.25717386506E+03  0.19176391573E+04  0.22372560770E+04  0.12699999809E+01 0.  1.
       -4    1    3    3    0  502  0.11233142065E+04 -0.25717386506E+03 -0.84171671430E+03  0.14270465456E+04  0.12699999809E+01 0. -1.
</event>
<event>
 5   0  0.1897049E-07  0.3414792E+04  0.7818609E-02  0.8134285E-01
       -1   -1    0    0    0  501  0.00000000000E+00  0.00000000000E+00  0.14301119637E+04  0.14301119637E+04  0.50400001928E-02 0.  1.
        1   -1    0    0  501    0  0.00000000000E+00  0.00000000000E+00 -0.20384426145E+04  0.20384426146E+04  0.50400001928E-02 0. -1.
    10030    2    1    2    0    0  0.00000000000E+00  0.00000000000E+00 -0.60833065085E+03  0.34685545783E+04  0.34147920408E+04 0.  0.
        2    1    3    3  502    0 -0.15950965591E+04  0.37580525624E+03  0.18258546676E+03  0.16489087532E+04  0.25500000920E-02 0. -1.
       -2    1    3    3    0  502  0.15950965591E+04 -0.37580525624E+03 -0.79091611761E+03  0.18196458251E+04  0.25500000920E-02 0.  1.
</event>
<event>
 5   0  0.1897049E-07  0.3508628E+04  0.7818609E-02  0.8111748E-01
        1   -1    0    0  501    0  0.00000000000E+00  0.00000000000E+00  0.15094757439E+04  0.15094757439E+04  0.50400001928E-02 0.  1.
       -1   -1    0    0    0  501  0.00000000000E+00  0.00000000000E+00 -0.20388649593E+04  0.20388649593E+04  0.50400001928E-02 0. -1.
    10030    2    1    2    0    0  0.00000000000E+00  0.00000000000E+00 -0.52938921539E+03  0.35483407032E+04  0.35086277666E+04 0.  0.
        2    1    3    3  502    0  0.24300979979E+03 -0.19923407474E+03  0.14807808056E+04  0.15137568409E+04  0.25500000920E-02 0.  1.
       -2    1    3    3    0  502 -0.24300979979E+03  0.19923407474E+03 -0.20101700210E+04  0.20345838623E+04  0.25500000920E-02 0. -1.
</event>
<event>
 5   0  0.5740827E-07  0.3502292E+04  0.7818609E-02  0.8113247E-01
       -2   -1    0    0    0  501  0.00000000000E+00  0.00000000000E+00  0.16305777407E+04  0.16305777407E+04  0.25500000920E-02 0. -1.
        2   -1    0    0  501    0  0.00000000000E+00  0.00000000000E+00 -0.18806288097E+04  0.18806288097E+04  0.25500000920E-02 0.  1.
    10030    2    1    2    0    0  0.00000000000E+00  0.00000000000E+00 -0.25005106900E+03  0.35112065505E+04  0.35022915217E+04 0.  0.
        2    1    3    3  502    0  0.18647035699E+03 -0.14307677317E+04  0.86979261549E+03  0.16847571606E+04  0.25500000920E-02 0. -1.
       -2    1    3    3    0  502 -0.18647035699E+03  0.14307677317E+04 -0.11198436845E+04  0.18264493899E+04  0.25500000920E-02 0.  1.
</event>
<event>
 5   0  0.1866421E-07  0.3320647E+04  0.7818609E-02  0.8157662E-01
       -1   -1    0    0    0  501  0.00000000000E+00  0.00000000000E+00  0.18199251071E+04  0.18199251071E+04  0.50400001928E-02 0. -1.
        1   -1    0    0  501    0  0.00000000000E+00  0.00000000000E+00 -0.15147179908E+04  0.15147179908E+04  0.50400001928E-02 0.  1.
    10030    2    1    2    0    0  0.00000000000E+00  0.00000000000E+00  0.30520711626E+03  0.33346430979E+04  0.33206465043E+04 0.  0.
        1    1    3    3  502    0 -0.13601336281E+04  0.85322651852E+02  0.11049837715E+04  0.17544892638E+04  0.50400001928E-02 0. -1.
       -1    1    3    3    0  502  0.13601336281E+04 -0.85322651852E+02 -0.79977665529E+03  0.15801538342E+04  0.50400001928E-02 0.  1.
</event>
<event>
 5   0  0.1933647E-07  0.3403768E+04  0.7818609E-02  0.8136982E-01
       -1   -1    0    0    0  501  0.00000000000E+00  0.00000000000E+00  0.12165229708E+04  0.12165229708E+04  0.50400001928E-02 0. -1.
        1   -1    0    0  501    0  0.00000000000E+00  0.00000000000E+00 -0.23808921237E+04  0.23808921237E+04  0.50400001928E-02 0.  1.
    10030    2    1    2    0    0  0.00000000000E+00  0.00000000000E+00 -0.11643691529E+04  0.35974150944E+04  0.34037684759E+04 0.  0.
        4    1    3    3  502    0  0.11025754433E+04 -0.12864215483E+04 -0.41224064779E+03  0.17437020883E+04  0.12699999809E+01 0. -1.
       -4    1    3    3    0  502 -0.11025754433E+04  0.12864215483E+04 -0.75212850511E+03  0.18537130062E+04  0.12699999809E+01 0.  1.
</event>
<event>
 5   0  0.1873457E-07  0.3523580E+04  0.7818609E-02  0.8108225E-01
       -1   -1    0    0    0  501  0.00000000000E+00  0.00000000000E+00  0.12258826932E+04  0.12258826932E+04  0.50400001928E-02 0. -1.
        1   -1    0    0  501    0  0.00000000000E+00  0.00000000000E+00 -0.25319742432E+04  0.25319742432E+04  0.50400001928E-02 0.  1.
    10030    2    1    2    0    0  0.00000000000E+00  0.00000000000E+00 -0.13060915500E+04  0.37578569365E+04  0.35235796596E+04 0.  0.
        3    1    3    3  502    0  0.12001076089E+04  0.83639726334E+03  0.39411593139E+03  0.15149739379E+04  0.10100000352E+00 0. -1.
       -3    1    3    3    0  502 -0.12001076089E+04 -0.83639726334E+03 -0.17002074814E+04  0.22428829985E+04  0.10100000352E+00 0.  1.
</event>
<event>
 5   0  0.1933647E-07  0.3275503E+04  0.7818609E-02  0.8169157E-01
       -1   -1    0    0    0  501  0.00000000000E+00  0.00000000000E+00  0.13775875264E+04  0.13775875264E+04  0.50400001928E-02 0. -1.
        1   -1    0    0  501    0  0.00000000000E+00  0.00000000000E+00 -0.19470482892E+04  0.19470482892E+04  0.50400001928E-02 0.  1.
    10030    2    1    2    0    0  0.00000000000E+00  0.00000000000E+00 -0.56946076282E+03  0.33246358156E+04  0.32755026707E+04 0.  0.
        4    1    3    3  502    0  0.37342699440E+03 -0.15945610458E+04 -0.29737414926E+03  0.16644835975E+04  0.12699999809E+01 0.  1.
       -4    1    3    3    0  502 -0.37342699440E+03  0.15945610458E+04 -0.27208661356E+03  0.16601522180E+04  0.12699999809E+01 0. -1.
</event>
<event>
 5   0  0.5573334E-07  0.3494462E+04  0.7818609E-02  0.8115104E-01
       -2   -1    0    0    0  501  0.00000000000E+00  0.00000000000E+00  0.12229744356E+04  0.12229744357E+04  0.25500000920E-02 0.  1.
        2   -1    0    0  501    0  0.00000000000E+00  0.00000000000E+00 -0.24962223486E+04  0.24962223486E+04  0.25500000920E-02 0. -1.
    10030    2    1    2    0    0  0.00000000000E+00  0.00000000000E+00 -0.12732479129E+04  0.37191967842E+04  0.34944619718E+04 0.  0.
        4    1    3    3  502    0 -0.10834902465E+04  0.51240031132E+03 -0.19897276405E+04  0.23228264872E+04  0.12699999809E+01 0. -1.
       -4    1    3    3    0  502  0.10834902465E+04 -0.51240031132E+03  0.71647972759E+03  0.13963702970E+04  0.12699999809E+01 0.  1.
</event>
<event>
 5   0  0.5740827E-07  0.3499679E+04  0.7818609E-02  0.8113866E-01
        2   -1    0    0  501    0  0.00000000000E+00  0.00000000000E+00  0.21923984167E+04  0.21923984167E+04  0.25500000920E-02 0. -1.
       -2   -1    0    0    0  501  0.00000000000E+00  0.00000000000E+00 -0.13966159246E+04  0.13966159246E+04  0.25500000920E-02 0.  1.
    10030    2    1    2    0    0  0.00000000000E+00  0.00000000000E+00  0.79578249213E+03  0.35890143413E+04  0.34996791520E+04 0.  0.
        2    1    3    3  502    0 -0.12643860777E+03 -0.95492061735E+03 -0.11002478992E+04  0.14623288093E+04  0.25500000920E-02 0.  1.
       -2    1    3    3    0  502  0.12643860777E+03  0.95492061735E+03  0.18960303913E+04  0.21266855319E+04  0.25500000920E-02 0. -1.
</event>
<event>
 5   0  0.5554745E-07  0.3580214E+04  0.7818609E-02  0.8095039E-01
       -2   -1    0    0    0  501  0.00000000000E+00  0.00000000000E+00  0.16087599574E+04  0.16087599574E+04  0.25500000920E-02 0.  1.
        2   -1    0    0  501    0  0.00000000000E+00  0.00000000000E+00 -0.19918968236E+04  0.19918968236E+04  0.25500000920E-02 0. -1.
    10030    2    1    2    0    0  0.00000000000E+00  0.00000000000E+00 -0.38313686621E+03  0.36006567811E+04  0.35802144345E+04 0.  0.
        5    1    3    3  502    0  0.52934845792E+03 -0.16769813800E+04 -0.52812140435E+03  0.18361401489E+04  0.46999998093E+01 0.  1.
       -5    1    3    3    0  502 -0.52934845792E+03  0.16769813800E+04  0.14498453814E+03  0.17645166321E+04  0.46999998093E+01 0. -1.
</event>
<event>
 5   0  0.5677193E-07  0.3465943E+04  0.7818609E-02  0.8121909E-01
       -2   -1    0    0    0  501  0.00000000000E+00  0.00000000000E+00  0.14005628135E+04  0.14005628135E+04  0.25500000920E-02 0. -1.
        2   -1    0    0  501    0  0.00000000000E+00  0.00000000000E+00 -0.21442732863E+04  0.21442732863E+04  0.25500000920E-02 0.  1.
    10030    2    1    2    0    0  0.00000000000E+00  0.00000000000E+00 -0.74371047277E+03  0.35448360997E+04  0.34659425423E+04 0.  0.
        3    1    3    3  502    0  0.11649831456E+04  0.52593116354E+03  0.82499546414E+03  0.15213174700E+04  0.10100000352E+00 0. -1.
       -3    1    3    3    0  502 -0.11649831456E+04 -0.52593116354E+03 -0.15687059369E+04  0.20235186298E+04  0.10100000352E+00 0.  1.
</event>
<event>
 5   0  0.5707187E-07  0.3485976E+04  0.7818609E-02  0.8117122E-01
        2   -1    0    0  501    0  0.00000000000E+00  0.00000000000E+00  0.10799058301E+04  0.10799058301E+04  0.25500000920E-02 0.  1.
       -2   -1    0    0    0  501  0.00000000000E+00  0.00000000000E+00 -0.28132141749E+04  0.28132141749E+04  0.25500000920E-02 0. -1.
    10030    2    1    2    0    0  0.00000000000E+00  0.00000000000E+00 -0.17333083448E+04  0.38931200050E+04  0.34859755529E+04 0.  0.
        1    1    3    3  502    0  0.11202046541E+04  0.62438253841E+03 -0.21848954143E+04  0.25334719246E+04  0.50400001928E-02 0. -1.
       -1    1    3    3    0  502 -0.11202046541E+04 -0.62438253841E+03  0.45158706949E+03  0.13596480804E+04  0.50400001928E-02 0.  1.
</event>
<event>
 5   0  0.1873457E-07  0.3593452E+04  0.7818609E-02  0.8091993E-01
        1   -1    0    0  501    0  0.00000000000E+00  0.00000000000E+00  0.22084464160E+04  0.22084464160E+04  0.50400001928E-02 0. -1.
       -1   -1    0    0    0  501  0.00000000000E+00  0.00000000000E+00 -0.14617623278E+04  0.14617623278E+04  0.50400001928E-02 0.  1.
    10030    2    1    2    0    0  0.00000000000E+00  0.00000000000E+00  0.74668408815E+03  0.36702087438E+04  0.35934516966E+04 0.  0.
        3    1    3    3  502    0  0.97599964581E+02  0.17326805907E+04 -0.10190993391E+03  0.17384169313E+04  0.10100000352E+00 0.  1.
       -3    1    3    3    0  502 -0.97599964581E+02 -0.17326805907E+04  0.84859402206E+03  0.19317918125E+04  0.10100000352E+00 0. -1.
</event>
<event>
 5   0  0.1873457E-07  0.3549042E+04  0.7818609E-02  0.8102265E-01
        1   -1    0    0  501    0  0.00000000000E+00  0.00000000000E+00  0.33814553340E+04  0.33814553340E+04  0.50400001928E-02 0.  1.
       -1   -1    0    0    0  501  0.00000000000E+00  0.00000000000E+00 -0.93123381855E+03  0.93123381856E+03  0.50400001928E-02 0. -1.
    10030    2    1    2    0    0  0.00000000000E+00  0.00000000000E+00  0.24502215155E+04  0.43126891526E+04  0.35490424416E+04 0.  0.
        3    1    3    3  502    0  0.15276004627E+04 -0.57744993009E+03  0.38153961298E+03  0.16770760513E+04  0.10100000352E+00 0. -1.
       -3    1    3    3    0  502 -0.15276004627E+04  0.57744993009E+03  0.20686819025E+04  0.26356131012E+04  0.10100000352E+00 0.  1.
</event>
<event>
 5   0  0.5677193E-07  0.3496087E+04  0.7818609E-02  0.8114718E-01
       -2   -1    0    0    0  501  0.00000000000E+00  0.00000000000E+00  0.18134351178E+04  0.18134351178E+04  0.25500000920E-02 0.  1.
        2   -1    0    0  501    0  0.00000000000E+00  0.00000000000E+00 -0.16850097010E+04  0.16850097010E+04  0.25500000920E-02 0. -1.
    10030    2    1    2    0    0  0.00000000000E+00  0.00000000000E+00  0.12842541679E+03  0.34984448188E+04  0.34960868214E+04 0.  0.
        3    1    3    3  502    0  0.74032804785E+03 -0.33648773267E+03 -0.14841984289E+04  0.16923813398E+04  0.10100000352E+00 0. -1.
       -3    1    3    3    0  502 -0.74032804785E+03  0.33648773267E+03  0.16126238457E+04  0.18060634791E+04  0.10100000352E+00 0.  1.
</event>
<event>
 5   0  0.1933647E-07  0.3452062E+04  0.7818609E-02  0.8125245E-01
        1   -1    0    0  501    0  0.00000000000E+00  0.00000000000E+00  0.19585198033E+04  0.19585198033E+04  0.50400001928E-02 0.  1.
       -1   -1    0    0    0  501  0.00000000000E+00  0.00000000000E+00 -0.15211403648E+04  0.15211403648E+04  0.50400001928E-02 0. -1.
    10030    2    1    2    0    0  0.00000000000E+00  0.00000000000E+00  0.43737943850E+03  0.34796601681E+04  0.34520622984E+04 0.  0.
        4    1    3    3  502    0  0.11446106068E+04 -0.62377554974E+01 -0.10835400518E+04  0.15761449830E+04  0.12699999809E+01 0. -1.
       -4    1    3    3    0  502 -0.11446106068E+04  0.62377554974E+01  0.15209194903E+04  0.19035151851E+04  0.12699999809E+01 0.  1.
</event>
<event>
 5   0  0.5707187E-07  0.3478537E+04  0.7818609E-02  0.8118895E-01
       -2   -1    0    0    0  501  0.00000000000E+00  0.00000000000E+00  0.18790870740E+04  0.18790870740E+04  0.25500000920E-02 0. -1.
        2   -1    0    0  501    0  0.00000000000E+00  0.00000000000E+00 -0.16098539552E+04  0.16098539552E+04  0.25500000920E-02 0.  1.
    10030    2    1    2    0    0  0.00000000000E+00  0.00000000000E+00  0.26923311882E+03  0.34889410292E+04  0.34785374848E+04 0.  0.
        1    1    3    3  502    0  0.15643505341E+04 -0.45205999628E+03 -0.47836175045E+03  0.16971684649E+04  0.50400001928E-02 0. -1.
       -1    1    3    3    0  502 -0.15643505341E+04  0.45205999628E+03  0.74759486927E+03  0.17917725644E+04  0.50400001928E-02 0.  1.
</event>
<event>
 5   0  0.5677193E-07  0.3489271E+04  0.7818609E-02  0.8116337E-01
        2   -1    0    0  501    0  0.00000000000E+00  0.00000000000E+00  0.21882464662E+04  0.21882464662E+04  0.25500000920E-02 0.  1.
       -2   -1    0    0    0  501  0.00000000000E+00  0.00000000000E+00 -0.13909556698E+04  0.13909556698E+04  0.25500000920E-02 0. -1.
    10030    2    1    2    0    0  0.00000000000E+00  0.00000000000E+00  0.79729079634E+03  0.35792021360E+04  0.34892714593E+04 0.  0.
        3    1    3    3  502    0 -0.84312695168E+02  0.10788222320E+04 -0.10051239373E+04  0.14769022237E+04  0.10100000352E+00 0.  1.
       -3    1    3    3    0  502  0.84312695168E+02 -0.10788222320E+04  0.18024147337E+04  0.21022999123E+04  0.10100000352E+00 0. -1.
</event>
<event>
 5   0  0.1873457E-07  0.3560761E+04  0.7818609E-02  0.8099539E-01
       -1   -1    0    0    0  501  0.00000000000E+00  0.00000000000E+00  0.13624307896E+04  0.13624307896E+04  0.50400001928E-02 0.  1.
        1   -1    0    0  501    0  0.00000000000E+00  0.00000000000E+00 -0.23265433694E+04  0.23265433695E+04  0.50400001928E-02 0. -1.
    10030    2    1    2    0    0  0.00000000000E+00  0.00000000000E+00 -0.96411257988E+03  0.36889741590E+04  0.35607607725E+04 0.  0.
        3    1    3    3  502    0  0.36441047907E+03  0.13031368620E+04 -0.16807814892E+04  0.21577736450E+04  0.10100000352E+00 0. -1.
       -3    1    3    3    0  502 -0.36441047907E+03 -0.13031368620E+04  0.71666890931E+03  0.15312005140E+04  0.10100000352E+00 0.  1.
</event>
<event>
 5   0  0.5677193E-07  0.3498505E+04  0.7818609E-02  0.8114144E-01
        2   -1    0    0  501    0  0.00000000000E+00  0.00000000000E+00  0.23565892267E+04  0.23565892267E+04  0.25500000920E-02 0. -1.
       -2   -1    0    0    0  501  0.00000000000E+00  0.00000000000E+00 -0.12984375743E+04  0.12984375743E+04  0.25500000920E-02 0.  1.
    10030    2    1    2    0    0  0.00000000000E+00  0.00000000000E+00  0.10581516524E+04  0.36550268010E+04  0.34985048230E+04 0.  0.
        3    1    3    3  502    0 -0.15474142028E+04  0.23628975524E+03 -0.28659789472E+03  0.15913710840E+04  0.10100000352E+00 0.  1.
       -3    1    3    3    0  502  0.15474142028E+04 -0.23628975524E+03  0.13447495471E+04  0.20636557170E+04  0.10100000352E+00 0. -1.
</event>
<event>
 5   0  0.5707187E-07  0.3497917E+04  0.7818609E-02  0.8114284E-01
        2   -1    0    0  501    0  0.00000000000E+00  0.00000000000E+00  0.17357516014E+04  0.17357516014E+04  0.25500000920E-02 0. -1.
       -2   -1    0    0    0  501  0.00000000000E+00  0.00000000000E+00 -0.17622655866E+04  0.17622655866E+04  0.25500000920E-02 0.  1.
    10030    2    1    2    0    0  0.00000000000E+00  0.00000000000E+00 -0.26513985273E+02  0.34980171880E+04  0.34979167023E+04 0.  0.
        1    1    3    3  502    0  0.10185501231E+04 -0.84104050751E+03 -0.11596152811E+04  0.17576976670E+04  0.50400001928E-02 0.  1.
       -1    1    3    3    0  502 -0.10185501231E+04  0.84104050751E+03  0.11331012958E+04  0.17403195210E+04  0.50400001928E-02 0. -1.
</event>
<event>
 5   0  0.1897049E-07  0.3491671E+04  0.7818609E-02  0.8115767E-01
        1   -1    0    0  501    0  0.00000000000E+00  0.00000000000E+00  0.14369053390E+04  0.14369053390E+04  0.50400001928E-02 0.  1.
       -1   -1    0    0    0  501  0.00000000000E+00  0.00000000000E+00 -0.21211842721E+04  0.21211842721E+04  0.50400001928E-02 0. -1.
    10030    2    1    2    0    0  0.00000000000E+00  0.00000000000E+00 -0.68427893305E+03  0.35580896111E+04  0.34916706635E+04 0.  0.
        2    1    3    3  502    0 -0.10918794568E+04 -0.11640345498E+04  0.37896814764E+03  0.16403639957E+04  0.25500000920E-02 0.  1.
       -2    1    3    3    0  502  0.10918794568E+04  0.11640345498E+04 -0.10632470807E+04  0.19177256154E+04  0.25500000920E-02 0. -1.
</event>
<event>
 5   0  0.5573334E-07  0.3490612E+04  0.7818609E-02  0.8116018E-01
       -2   -1    0    0    0  501  0.00000000000E+00  0.00000000000E+00  0.25491235661E+04  0.25491235661E+04  0.25500000920E-02 0. -1.
        2   -1    0    0  501    0  0.00000000000E+00  0.00000000000E+00 -0.11949570754E+04  0.11949570754E+04  0.25500000920E-02 0.  1.
    10030    2    1    2    0    0  0.00000000000E+00  0.00000000000E+00  0.13541664907E+04  0.37440806416E+04  0.34906121191E+04 0.  0.
        4    1    3    3  502    0  0.15001707703E+04 -0.84480257235E+03  0.98402323554E+03  0.19830549834E+04  0.12699999809E+01 0. -1.
       -4    1    3    3    0  502 -0.15001707703E+04  0.84480257235E+03  0.37014325513E+03  0.17610256581E+04  0.12699999809E+01 0.  1.
</event>
<event>
 5   0  0.5740827E-07  0.3486964E+04  0.7818609E-02  0.8116886E-01
       -2   -1    0    0    0  501  0.00000000000E+00  0.00000000000E+00  0.17017807586E+04  0.17017807586E+04  0.25500000920E-02 0. -1.
        2   -1    0    0  501    0  0.00000000000E+00  0.00000000000E+00 -0.17862051995E+04  0.17862051995E+04  0.25500000920E-02 0.  1.
    10030    2    1    2    0    0  0.00000000000E+00  0.00000000000E+00 -0.84424440958E+02  0.34879859581E+04  0.34869640890E+04 0.  0.
        2    1    3    3  502    0  0.10090969347E+04 -0.13660602226E+04  0.35202570128E+03  0.17344507055E+04  0.25500000920E-02 0. -1.
       -2    1    3    3    0  502 -0.10090969347E+04  0.13660602226E+04 -0.43645014224E+03  0.17535352526E+04  0.25500000920E-02 0.  1.
</event>
<event>
 5   0  0.1873457E-07  0.3520463E+04  0.7818609E-02  0.8108958E-01
        1   -1    0    0  501    0  0.00000000000E+00  0.00000000000E+00  0.22251813143E+04  0.22251813143E+04  0.50400001928E-02 0. -1.
       -1   -1    0    0    0  501  0.00000000000E+00  0.00000000000E+00 -0.13924322545E+04  0.13924322545E+04  0.50400001928E-02 0.  1.
    10030    2    1    2    0    0  0.00000000000E+00  0.00000000000E+00  0.83274905982E+03  0.36176135688E+04  0.35204626027E+04 0.  0.
        3    1    3    3  502    0  0.15390470302E+04 -0.33189813511E+03  0.12252382776E+04  0.19950014989E+04  0.10100000352E+00 0. -1.
       -3    1    3    3    0  502 -0.15390470302E+04  0.33189813511E+03 -0.39248921782E+03  0.16226120700E+04  0.10100000352E+00 0.  1.
</event>
<event>
 5   0  0.1933647E-07  0.3534717E+04  0.7818609E-02  0.8105611E-01
       -1   -1    0    0    0  501  0.00000000000E+00  0.00000000000E+00  0.18870704657E+04  0.18870704657E+04  0.50400001928E-02 0. -1.
        1   -1    0    0  501    0  0.00000000000E+00  0.00000000000E+00 -0.16552411232E+04  0.16552411232E+04  0.50400001928E-02 0.  1.
    10030    2    1    2    0    0  0.00000000000E+00  0.00000000000E+00  0.23182934246E+03  0.35423115890E+04  0.35347173224E+04 0.  0.
        4    1    3    3  502    0  0.52259849590E+03 -0.11325090814E+04 -0.11389213030E+04  0.16890320763E+04  0.12699999809E+01 0.  1.
       -4    1    3    3    0  502 -0.52259849590E+03  0.11325090814E+04  0.13707506454E+04  0.18532795127E+04  0.12699999809E+01 0. -1.
</event>
<event>
 5   0  0.1908190E-07  0.3492160E+04  0.7818609E-02  0.8115650E-01
       -1   -1    0    0    0  501  0.00000000000E+00  0.00000000000E+00  0.13158637573E+04  0.13158637573E+04  0.50400001928E-02 0. -1.
        1   -1    0    0  501    0  0.00000000000E+00  0.00000000000E+00 -0.23169542935E+04  0.23169542935E+04  0.50400001928E-02 0.  1.
    10030    2    1    2    0    0  0.00000000000E+00  0.00000000000E+00 -0.10010905362E+04  0.36328180508E+04  0.34921604672E+04 0.  0.
        5    1    3    3  502    0  0.75343125656E+02 -0.15139102186E+04  0.40106643998E+03  0.15679531612E+04  0.46999998093E+01 0. -1.
       -5    1    3    3    0  502 -0.75343125656E+02  0.15139102186E+04 -0.14021569761E+04  0.20648648896E+04  0.46999998093E+01 0.  1.
</event>
<event>
 5   0  0.1933647E-07  0.3485072E+04  0.7818609E-02  0.8117337E-01
        1   -1    0    0  501    0  0.00000000000E+00  0.00000000000E+00  0.15890247892E+04  0.15890247892E+04  0.50400001928E-02 0.  1.
       -1   -1    0    0    0  501  0.00000000000E+00  0.00000000000E+00 -0.19108773685E+04  0.19108773685E+04  0.50400001928E-02 0. -1.
    10030    2    1    2    0    0  0.00000000000E+00  0.00000000000E+00 -0.32185257932E+03  0.34999021577E+04  0.34850718831E+04 0.  0.
        4    1    3    3  502    0 -0.14556612008E+04  0.32999858378E+03  0.74211167584E+03  0.16669073007E+04  0.12699999809E+01 0.  1.
       -4    1    3    3    0  502  0.14556612008E+04 -0.32999858378E+03 -0.10639642552E+04  0.18329948570E+04  0.12699999809E+01 0. -1.
</event>
<event>
 5   0  0.1866421E-07  0.3543566E+04  0.7818609E-02  0.8103542E-01
        1   -1    0    0  501    0  0.00000000000E+00  0.00000000000E+00  0.21743627962E+04  0.21743627962E+04  0.50400001928E-02 0.  1.
       -1   -1    0    0    0  501  0.00000000000E+00  0.00000000000E+00 -0.14437402310E+04  0.14437402310E+04  0.50400001928E-02 0. -1.
    10030    2    1    2    0    0  0.00000000000E+00  0.00000000000E+00  0.73062256522E+03  0.36181030273E+04  0.35435660263E+04 0.  0.
        1    1    3    3  502    0  0.51991418478E+02 -0.11039864225E+03  0.21700670488E+04  0.21734953334E+04  0.50400001928E-02 0.  1.
       -1    1    3    3    0  502 -0.51991418478E+02  0.11039864225E+03 -0.14394444836E+04  0.14446076939E+04  0.50400001928E-02 0. -1.
</event>
<event>
 5   0  0.5554745E-07  0.3579470E+04  0.7818609E-02  0.8095210E-01
       -2   -1    0    0    0  501  0.00000000000E+00  0.00000000000E+00  0.13365600685E+04  0.13365600685E+04  0.25500000920E-02 0.  1.
        2   -1    0    0  501    0  0.00000000000E+00  0.00000000000E+00 -0.23965642210E+04  0.23965642210E+04  0.25500000920E-02 0. -1.
    10030    2    1    2    0    0  0.00000000000E+00  0.00000000000E+00 -0.10600041525E+04  0.37331242895E+04  0.35794703739E+04 0.  0.
        5    1    3    3  502    0  0.97466169000E+03 -0.12528722717E+04  0.33221215720E+03  0.16217402217E+04  0.46999998093E+01 0.  1.
       -5    1    3    3    0  502 -0.97466169000E+03  0.12528722717E+04 -0.13922163097E+04  0.21113840679E+04  0.46999998093E+01 0. -1.
</event>
<event>
 5   0  0.1933647E-07  0.3499704E+04  0.7818609E-02  0.8113860E-01
        1   -1    0    0  501    0  0.00000000000E+00  0.00000000000E+00  0.21151662798E+04  0.21151662798E+04  0.50400001928E-02 0. -1.
       -1   -1    0    0    0  501  0.00000000000E+00  0.00000000000E+00 -0.14476319548E+04  0.14476319548E+04  0.50400001928E-02 0.  1.
    10030    2    1    2    0    0  0.00000000000E+00  0.00000000000E+00  0.66753432503E+03  0.35627982346E+04  0.34997041568E+04 0.  0.
        4    1    3    3  502    0  0.21710144876E+03 -0.17232494005E+04  0.55034453620E+03  0.18219775675E+04  0.12699999809E+01 0. -1.
       -4    1    3    3    0  502 -0.21710144876E+03  0.17232494005E+04  0.11718978883E+03  0.17408206670E+04  0.12699999809E+01 0.  1.
</event>
<event>
 5   0  0.5554745E-07  0.3502394E+04  0.7818609E-02  0.8113223E-01
       -2   -1    0    0    0  501  0.00000000000E+00  0.00000000000E+00  0.13673356965E+04  0.13673356965E+04  0.25500000920E-02 0.  1.
        2   -1    0    0  501    0  0.00000000000E+00  0.00000000000E+00 -0.22428225540E+04  0.22428225540E+04  0.25500000920E-02 0. -1.
    10030    2    1    2    0    0  0.00000000000E+00  0.00000000000E+00 -0.87548685756E+03  0.36101582505E+04  0.35023942319E+04 0.  0.
        5    1    3    3  502    0 -0.12996103302E+04  0.52191608061E+03 -0.15214170810E+04  0.20678770345E+04  0.46999998093E+01 0. -1.
       -5    1    3    3    0  502  0.12996103302E+04 -0.52191608061E+03  0.64593022343E+03  0.15422812160E+04  0.46999998093E+01 0.  1.
</event>
<event>
 5   0  0.5677193E-07  0.3505141E+04  0.7818609E-02  0.8112573E-01
       -2   -1    0    0    0  501  0.00000000000E+00  0.00000000000E+00  0.17713810348E+04  0.17713810348E+04  0.25500000920E-02 0. -1.
        2   -1    0    0  501    0  0.00000000000E+00  0.00000000000E+00 -0.17339597492E+04  0.17339597492E+04  0.25500000920E-02 0.  1.
    10030    2    1    2    0    0  0.00000000000E+00  0.00000000000E+00  0.37421285677E+02  0.35053407840E+04  0.35051410327E+04 0.  0.
        3    1    3    3  502    0 -0.15490281624E+04 -0.37515780661E+03 -0.71021482034E+03  0.17448887440E+04  0.10100000352E+00 0.  1.
       -3    1    3    3    0  502  0.15490281624E+04  0.37515780661E+03  0.74763610601E+03  0.17604520400E+04  0.10100000352E+00 0. -1.
</event>
<event>
 5   0  0.5677193E-07  0.3485388E+04  0.7818609E-02  0.8117262E-01
       -2   -1    0    0    0  501  0.00000000000E+00  0.00000000000E+00  0.16348153994E+04  0.16348153994E+04  0.25500000920E-02 0.  1.
        2   -1    0    0  501    0  0.00000000000E+00  0.00000000000E+00 -0.18576910776E+04  0.18576910776E+04  0.25500000920E-02 0. -1.
    10030    2    1    2    0    0  0.00000000000E+00  0.00000000000E+00 -0.22287567814E+03  0.34925064770E+04  0.34853877724E+04 0.  0.
        3    1    3    3  502    0  0.20450823686E+03  0.19750829132E+02  0.16226365637E+04  0.16355925966E+04  0.10100000352E+00 0.  1.
       -3    1    3    3    0  502 -0.20450823686E+03 -0.19750829132E+02 -0.18455122418E+04  0.18569138804E+04  0.10100000352E+00 0. -1.
</event>
<event>
 5   0  0.1908190E-07  0.3473329E+04  0.7818609E-02  0.8120140E-01
        1   -1    0    0  501    0  0.00000000000E+00  0.00000000000E+00  0.17436493881E+04  0.17436493881E+04  0.50400001928E-02 0. -1.
       -1   -1    0    0    0  501  0.00000000000E+00  0.00000000000E+00 -0.17297076238E+04  0.17297076238E+04  0.50400001928E-02 0.  1.
    10030    2    1    2    0    0  0.00000000000E+00  0.00000000000E+00  0.13941764369E+02  0.34733570119E+04  0.34733290313E+04 0.  0.
        5    1    3    3  502    0  0.21154868189E+03  0.11309447109E+04 -0.12938826954E+04  0.17314569886E+04  0.46999998093E+01 0.  1.
       -5    1    3    3    0  502 -0.21154868189E+03 -0.11309447109E+04  0.13078244597E+04  0.17419000234E+04  0.46999998093E+01 0. -1.
</event>
<event>
 5   0  0.5554745E-07  0.3408265E+04  0.7818609E-02  0.8135881E-01
        2   -1    0    0  501    0  0.00000000000E+00  0.00000000000E+00  0.18136549086E+04  0.18136549086E+04  0.25500000920E-02 0.  1.
       -2   -1    0    0    0  501  0.00000000000E+00  0.00000000000E+00 -0.16012242231E+04  0.16012242231E+04  0.25500000920E-02 0. -1.
    10030    2    1    2    0    0  0.00000000000E+00  0.00000000000E+00  0.21243068543E+03  0.34148791317E+04  0.34082653489E+04 0.  0.
        5    1    3    3  502    0 -0.75431186874E+03  0.11227717160E+04 -0.93234970036E+03  0.16428331551E+04  0.46999998093E+01 0. -1.
       -5    1    3    3    0  502  0.75431186874E+03 -0.11227717160E+04  0.11447803858E+04  0.17720459766E+04  0.46999998093E+01 0.  1.
</event>
<event>
 5   0  0.5677193E-07  0.3546428E+04  0.7818609E-02  0.8102874E-01
       -2   -1    0    0    0  501  0.00000000000E+00  0.00000000000E+00  0.13488674050E+04  0.13488674050E+04  0.25500000920E-02 0.  1.
        2   -1    0    0  501    0  0.00000000000E+00  0.00000000000E+00 -0.23310575599E+04  0.23310575599E+04  0.25500000920E-02 0. -1.
    10030    2    1    2    0    0  0.00000000000E+00  0.00000000000E+00 -0.98219015491E+03  0.36799249649E+04  0.35464278150E+04 0.  0.
        3    1    3    3  502    0  0.46773667004E+03 -0.76990515519E+02 -0.22640929266E+04  0.23131843684E+04  0.10100000352E+00 0. -1.
       -3    1    3    3    0  502 -0.46773667004E+03  0.76990515519E+02  0.12819027716E+04  0.13667405965E+04  0.10100000352E+00 0.  1.
</event>
<event>
 5   0  0.1873457E-07  0.3486615E+04  0.7818609E-02  0.8116969E-01
       -1   -1    0    0    0  501  0.00000000000E+00  0.00000000000E+00  0.20666681930E+04  0.20666681930E+04  0.50400001928E-02 0. -1.
        1   -1    0    0  501    0  0.00000000000E+00  0.00000000000E+00 -0.14705414753E+04  0.14705414753E+04  0.50400001928E-02 0.  1.
    10030    2    1    2    0    0  0.00000000000E+00  0.00000000000E+00  0.59612671773E+03  0.35372096683E+04  0.34866151457E+04 0.  0.
        3    1    3    3  502    0 -0.98363551392E+03 -0.12781055381E+04  0.96950468935E+03  0.18817629882E+04  0.10100000352E+00 0. -1.
       -3    1    3    3    0  502  0.98363551392E+03  0.12781055381E+04 -0.37337797162E+03  0.16554466801E+04  0.10100000352E+00 0.  1.
</event>
<event>
 5   0  0.1873457E-07  0.3474854E+04  0.7818609E-02  0.8119775E-01
        1   -1    0    0  501    0  0.00000000000E+00  0.00000000000E+00  0.19527930416E+04  0.19527930416E+04  0.50400001928E-02 0. -1.
       -1   -1    0    0    0  501  0.00000000000E+00  0.00000000000E+00 -0.15458126497E+04  0.15458126497E+04  0.50400001928E-02 0.  1.
    10030    2    1    2    0    0  0.00000000000E+00  0.00000000000E+00  0.40698039190E+03  0.34986056913E+04  0.34748537730E+04 0.  0.
        3    1    3    3  502    0  0.42715218493E+03  0.25537203383E+03  0.18794941079E+04  0.19442664366E+04  0.10100000352E+00 0. -1.
       -3    1    3    3    0  502 -0.42715218493E+03 -0.25537203383E+03 -0.14725137160E+04  0.15543392547E+04  0.10100000352E+00 0.  1.
</event>
<event>
 5   0  0.1933647E-07  0.3512597E+04  0.7818609E-02  0.8110811E-01
       -1   -1    0    0    0  501  0.00000000000E+00  0.00000000000E+00  0.15457152660E+04  0.15457152660E+04  0.50400001928E-02 0.  1.
        1   -1    0    0  501    0  0.00000000000E+00  0.00000000000E+00 -0.19955708223E+04  0.19955708223E+04  0.50400001928E-02 0. -1.
    10030    2    1    2    0    0  0.00000000000E+00  0.00000000000E+00 -0.44985555630E+03  0.35412860883E+04  0.35125969221E+04 0.  0.
        4    1    3    3  502    0  0.95432021935E+03 -0.13065745019E+04  0.46382010967E+03  0.16831502360E+04  0.12699999809E+01 0.  1.
       -4    1    3    3    0  502 -0.95432021935E+03  0.13065745019E+04 -0.91367566598E+03  0.18581358523E+04  0.12699999809E+01 0. -1.
</event>
<event>
 5   0  0.5707187E-07  0.3484430E+04  0.7818609E-02  0.8117490E-01
       -2   -1    0    0    0  501  0.00000000000E+00  0.00000000000E+00  0.14568486181E+04  0.14568486181E+04  0.25500000920E-02 0. -1.
        2   -1    0    0  501    0  0.00000000000E+00  0.00000000000E+00 -0.20834783947E+04  0.20834783947E+04  0.25500000920E-02 0.  1.
    10030    2    1    2    0    0  0.00000000000E+00  0.00000000000E+00 -0.62662977655E+03  0.35403270128E+04  0.34844297211E+04 0.  0.
        1    1    3    3  502    0  0.32397192796E+03  0.12873110571E+04 -0.14597710028E+04  0.19730836142E+04  0.50400001928E-02 0.  1.
       -1    1    3    3    0  502 -0.32397192796E+03 -0.12873110571E+04  0.83314122623E+03  0.15672433987E+04  0.50400001928E-02 0. -1.
</event>
<event>
 5   0  0.5554745E-07  0.3511851E+04  0.7818609E-02  0.8110987E-01
       -2   -1    0    0    0  501  0.00000000000E+00  0.00000000000E+00  0.13799652722E+04  0.13799652722E+04  0.25500000920E-02 0. -1.
        2   -1    0    0  501    0  0.00000000000E+00  0.00000000000E+00 -0.22343123852E+04  0.22343123852E+04  0.25500000920E-02 0.  1.
    10030    2    1    2    0    0  0.00000000000E+00  0.00000000000E+00 -0.85434711300E+03  0.36142776574E+04  0.35118505086E+04 0.  0.
        5    1    3    3  502    0  0.85648408666E+02  0.37070635747E+03  0.13370263296E+04  0.13901152288E+04  0.46999998093E+01 0. -1.
       -5    1    3    3    0  502 -0.85648408666E+02 -0.37070635747E+03 -0.21913734426E+04  0.22241624285E+04  0.46999998093E+01 0.  1.
</event>
<event>
 5   0  0.5740827E-07  0.3477240E+04  0.7818609E-02  0.8119205E-01
        2   -1    0    0  501    0  0.00000000000E+00  0.00000000000E+00  0.14719573047E+04  0.14719573047E+04  0.25500000920E-02 0. -1.
       -2   -1    0    0    0  501  0.00000000000E+00  0.00000000000E+00 -0.20535917445E+04  0.20535917445E+04  0.25500000920E-02 0.  1.
    10030    2    1    2    0    0  0.00000000000E+00  0.00000000000E+00 -0.58163443985E+03  0.35255490492E+04  0.34772399223E+04 0.  0.
        2    1    3    3  502    0  0.37241913497E+03  0.34877065675E+03 -0.19759739172E+04  0.20407865897E+04  0.25500000920E-02 0.  1.
       -2    1    3    3    0  502 -0.37241913497E+03 -0.34877065675E+03  0.13943394774E+04  0.14847624595E+04  0.25500000920E-02 0. -1.
</event>
<event>
 5   0  0.5677193E-07  0.3491523E+04  0.7818609E-02  0.8115802E-01
        2   -1    0    0  501    0  0.00000000000E+00  0.00000000000E+00  0.22483885515E+04  0.22483885515E+04  0.25500000920E-02 0.  1.
       -2   -1    0    0    0  501  0.00000000000E+00  0.00000000000E+00 -0.13554966662E+04  0.13554966662E+04  0.25500000920E-02 0. -1.
    10030    2    1    2    0    0  0.00000000000E+00  0.00000000000E+00  0.89289188535E+03  0.36038852177E+04  0.34915229834E+04 0.  0.
        3    1    3    3  502    0 -0.72697215770E+03 -0.15732344525E+04  0.66327288282E+03  0.18556632475E+04  0.10100000352E+00 0.  1.
       -3    1    3    3    0  502  0.72697215770E+03  0.15732344525E+04  0.22961900253E+03  0.17482219702E+04  0.10100000352E+00 0. -1.
</event>
<event>
 5   0  0.1897049E-07  0.3445880E+04  0.7818609E-02  0.8126737E-01
        1   -1    0    0  501    0  0.00000000000E+00  0.00000000000E+00  0.14045580788E+04  0.14045580788E+04  0.50400001928E-02 0.  1.
       -1   -1    0    0    0  501  0.00000000000E+00  0.00000000000E+00 -0.21134916742E+04  0.21134916742E+04  0.50400001928E-02 0. -1.
    10030    2    1    2    0    0  0.00000000000E+00  0.00000000000E+00 -0.70893359541E+03  0.35180497530E+04  0.34458797457E+04 0.  0.
        2    1    3    3  502    0  0.10080909496E+04  0.10271991268E+04  0.61254349753E+03  0.15641595012E+04  0.25500000920E-02 0.  1.
       -2    1    3    3    0  502 -0.10080909496E+04 -0.10271991268E+04 -0.13214770929E+04  0.19538902518E+04  0.25500000920E-02 0. -1.
</event>
<event>
 5   0  0.1866421E-07  0.3504665E+04  0.7818609E-02  0.8112685E-01
       -1   -1    0    0    0  501  0.00000000000E+00  0.00000000000E+00  0.16156594388E+04  0.16156594388E+04  0.50400001928E-02 0. -1.
        1   -1    0    0  501    0  0.00000000000E+00  0.00000000000E+00 -0.19005672123E+04  0.19005672123E+04  0.50400001928E-02 0.  1.
    10030    2    1    2    0    0  0.00000000000E+00  0.00000000000E+00 -0.28490777350E+03  0.35162266512E+04  0.35046650943E+04 0.  0.
        1    1    3    3  502    0 -0.14579618180E+04 -0.44057731158E+03  0.72695444530E+03  0.16876681533E+04  0.50400001928E-02 0. -1.
       -1    1    3    3    0  502  0.14579618180E+04  0.44057731158E+03 -0.10118622188E+04  0.18285584978E+04  0.50400001928E-02 0.  1.
</event>
<event>
 5   0  0.5677193E-07  0.3435110E+04  0.7818609E-02  0.8129343E-01
       -2   -1    0    0    0  501  0.00000000000E+00  0.00000000000E+00  0.18981263049E+04  0.18981263049E+04  0.25500000920E-02 0. -1.
        2   -1    0    0  501    0  0.00000000000E+00  0.00000000000E+00 -0.15541617861E+04  0.15541617861E+04  0.25500000920E-02 0.  1.
    10030    2    1    2    0    0  0.00000000000E+00  0.00000000000E+00  0.34396451882E+03  0.34522880910E+04  0.34351101108E+04 0.  0.
        3    1    3    3  502    0  0.10358060019E+04  0.26911066397E+03 -0.11781196720E+04  0.15916282841E+04  0.10100000352E+00 0.  1.
       -3    1    3    3    0  502 -0.10358060019E+04 -0.26911066397E+03  0.15220841908E+04  0.18606598069E+04  0.10100000352E+00 0. -1.
</event>
<event>
 5   0  0.5554745E-07  0.3462245E+04  0.7818609E-02  0.8122796E-01
       -2   -1    0    0    0  501  0.00000000000E+00  0.00000000000E+00  0.18543642970E+04  0.18543642970E+04  0.25500000920E-02 0.  1.
        2   -1    0    0  501    0  0.00000000000E+00  0.00000000000E+00 -0.16160716696E+04  0.16160716696E+04  0.25500000920E-02 0. -1.
    10030    2    1    2    0    0  0.00000000000E+00  0.00000000000E+00  0.23829262747E+03  0.34704359666E+04  0.34622452862E+04 0.  0.
        5    1    3    3  502    0 -0.27576995589E+03  0.24702206679E+03 -0.15759173977E+04  0.16188288064E+04  0.46999998093E+01 0. -1.
       -5    1    3    3    0  502  0.27576995589E+03 -0.24702206679E+03  0.18142100252E+04  0.18516071602E+04  0.46999998093E+01 0.  1.
</event>
<event>
 5   0  0.1873457E-07  0.3480360E+04  0.7818609E-02  0.8118460E-01
       -1   -1    0    0    0  501  0.00000000000E+00  0.00000000000E+00  0.17871778653E+04  0.17871778653E+04  0.50400001928E-02 0.  1.
        1   -1    0    0  501    0  0.00000000000E+00  0.00000000000E+00 -0.16944184766E+04  0.16944184766E+04  0.50400001928E-02 0. -1.
    10030    2    1    2    0    0  0.00000000000E+00  0.00000000000E+00  0.92759388743E+02  0.34815963419E+04  0.34803604387E+04 0.  0.
        3    1    3    3  502    0 -0.13385064774E+04  0.83974350341E+03  0.77565053655E+03  0.17602279701E+04  0.10100000352E+00 0. -1.
       -3    1    3    3    0  502  0.13385064774E+04 -0.83974350341E+03 -0.68289114780E+03  0.17213683718E+04  0.10100000352E+00 0.  1.
</event>
<event>
 5   0  0.1933647E-07  0.3536494E+04  0.7818609E-02  0.8105195E-01
       -1   -1    0    0    0  501  0.00000000000E+00  0.00000000000E+00  0.18510615339E+04  0.18510615339E+04  0.50400001928E-02 0. -1.
        1   -1    0    0  501    0  0.00000000000E+00  0.00000000000E+00 -0.16891372299E+04  0.16891372299E+04  0.50400001928E-02 0.  1.
    10030    2    1    2    0    0  0.00000000000E+00  0.00000000000E+00  0.16192430404E+03  0.35401987638E+04  0.35364937166E+04 0.  0.
        4    1    3    3  502    0 -0.10883487016E+04 -0.10047193814E+04  0.10477541690E+04  0.18143192506E+04  0.12699999809E+01 0. -1.
       -4    1    3    3    0  502  0.10883487016E+04  0.10047193814E+04 -0.88582986501E+03  0.17258795132E+04  0.12699999809E+01 0.  1.
</event>
<event>
 5   0  0.1897049E-07  0.3498110E+04  0.7818609E-02  0.8114238E-01
        1   -1    0    0  501    0  0.00000000000E+00  0.00000000000E+00  0.16514536769E+04  0.16514536769E+04  0.50400001928E-02 0. -1.
       -1   -1    0    0    0  501  0.00000000000E+00  0.00000000000E+00 -0.18524248120E+04  0.18524248120E+04  0.50400001928E-02 0.  1.
    10030    2    1    2    0    0  0.00000000000E+00  0.00000000000E+00 -0.20097113508E+03  0.35038784889E+04  0.34981102138E+04 0.  0.
        2    1    3    3  502    0 -0.91720441948E+03  0.13773313232E+04  0.46691851071E+03  0.17193947821E+04  0.25500000920E-02 0. -1.
       -2    1    3    3    0  502  0.91720441948E+03 -0.13773313232E+04 -0.66788964579E+03  0.17844837068E+04  0.25500000920E-02 0.  1.
</event>
<event>
 5   0  0.5573334E-07  0.3483981E+04  0.7818609E-02  0.8117597E-01
       -2   -1    0    0    0  501  0.00000000000E+00  0.00000000000E+00  0.14750521285E+04  0.14750521285E+04  0.25500000920E-02 0. -1.
        2   -1    0    0  501    0  0.00000000000E+00  0.00000000000E+00 -0.20572365509E+04  0.20572365509E+04  0.25500000920E-02 0.  1.
    10030    2    1    2    0    0  0.00000000000E+00  0.00000000000E+00 -0.58218442239E+03  0.35322886794E+04  0.34839811442E+04 0.  0.
        4    1    3    3  502    0  0.66802784615E+03  0.67826709512E+02 -0.19207587039E+04  0.20347425580E+04  0.12699999809E+01 0.  1.
       -4    1    3    3    0  502 -0.66802784615E+03 -0.67826709512E+02  0.13385742815E+04  0.14975461214E+04  0.12699999809E+01 0. -1.
</event>
<event>
 5   0  0.1908190E-07  0.3360089E+04  0.7818609E-02  0.8147772E-01
       -1   -1    0    0    0  501  0.00000000000E+00  0.00000000000E+00  0.13377104602E+04  0.13377104602E+04  0.50400001928E-02 0.  1.
        1   -1    0    0  501    0  0.00000000000E+00  0.00000000000E+00 -0.21099858851E+04  0.21099858851E+04  0.50400001928E-02 0. -1.
    10030    2    1    2    0    0  0.00000000000E+00  0.00000000000E+00 -0.77227542487E+03  0.34476963453E+04  0.33600893972E+04 0.  0.
        5    1    3    3  502    0 -0.76076671754E+03  0.93194902029E+03  0.81714129075E+03  0.14543166622E+04  0.46999998093E+01 0.  1.
       -5    1    3    3    0  502  0.76076671754E+03 -0.93194902029E+03 -0.15894167156E+04  0.19933796831E+04  0.46999998093E+01 0. -1.
</event>
<event>
 5   0  0.5554745E-07  0.3585613E+04  0.7818609E-02  0.8093795E-01
        2   -1    0    0  501    0  0.00000000000E+00  0.00000000000E+00  0.16748857291E+04  0.16748857291E+04  0.25500000920E-02 0.  1.
       -2   -1    0    0    0  501  0.00000000000E+00  0.00000000000E+00 -0.19190291753E+04  0.19190291753E+04  0.25500000920E-02 0. -1.
    10030    2    1    2    0    0  0.00000000000E+00  0.00000000000E+00 -0.24414344620E+03  0.35939149044E+04  0.35856126837E+04 0.  0.
        5    1    3    3  502    0  0.13325915215E+04  0.49162614443E+02 -0.13231431503E+04  0.18785491774E+04  0.46999998093E+01 0. -1.
       -5    1    3    3    0  502 -0.13325915215E+04 -0.49162614443E+02  0.10789997041E+04  0.17153657270E+04  0.46999998093E+01 0.  1.
</event>
<event>
 5   0  0.1897049E-07  0.3474988E+04  0.7818609E-02  0.8119743E-01
        1   -1    0    0  501    0  0.00000000000E+00  0.00000000000E+00  0.28735909801E+04  0.28735909801E+04  0.50400001928E-02 0. -1.
       -1   -1    0    0    0  501  0.00000000000E+00  0.00000000000E+00 -0.10505618301E+04  0.10505618302E+04  0.50400001928E-02 0.  1.
    10030    2    1    2    0    0  0.00000000000E+00  0.00000000000E+00  0.18230291499E+04  0.39241528102E+04  0.34749877692E+04 0.  0.
        2    1    3    3  502    0 -0.98285472264E+03  0.12493975681E+04  0.11951410402E+03  0.15941396771E+04  0.25500000920E-02 0.  1.
       -2    1    3    3    0  502  0.98285472264E+03 -0.12493975681E+04  0.17035150459E+04  0.23300131331E+04  0.25500000920E-02 0. -1.
</event>
<event>
 5   0  0.5707187E-07  0.3503995E+04  0.7818609E-02  0.8112844E-01
       -2   -1    0    0    0  501  0.00000000000E+00  0.00000000000E+00  0.20849605591E+04  0.20849605591E+04  0.25500000920E-02 0. -1.
        2   -1    0    0  501    0  0.00000000000E+00  0.00000000000E+00 -0.14722076012E+04  0.14722076012E+04  0.25500000920E-02 0.  1.
    10030    2    1    2    0    0  0.00000000000E+00  0.00000000000E+00  0.61275295791E+03  0.35571681603E+04  0.35039947394E+04 0.  0.
        1    1    3    3  502    0  0.54012222722E+03  0.59954563222E+03  0.18850660464E+04  0.20505270018E+04  0.50400001928E-02 0. -1.
       -1    1    3    3    0  502 -0.54012222722E+03 -0.59954563222E+03 -0.12723130885E+04  0.15066411586E+04  0.50400001928E-02 0.  1.
</event>
<event>
 5   0  0.1908190E-07  0.3519073E+04  0.7818609E-02  0.8109285E-01
        1   -1    0    0  501    0  0.00000000000E+00  0.00000000000E+00  0.11575209978E+04  0.11575209978E+04  0.50400001928E-02 0.  1.
       -1   -1    0    0    0  501  0.00000000000E+00  0.00000000000E+00 -0.26746544984E+04  0.26746544984E+04  0.50400001928E-02 0. -1.
    10030    2    1    2    0    0  0.00000000000E+00  0.00000000000E+00 -0.15171335007E+04  0.38321754962E+04  0.35190730278E+04 0.  0.
        5    1    3    3  502    0  0.16223796310E+04 -0.61229166891E+03 -0.43382284494E+03  0.17875237357E+04  0.46999998093E+01 0.  1.
       -5    1    3    3    0  502 -0.16223796310E+04  0.61229166891E+03 -0.10833106557E+04  0.20446517605E+04  0.46999998093E+01 0. -1.
</event>
<event>
 5   0  0.1897049E-07  0.3516257E+04  0.7818609E-02  0.8109948E-01
        1   -1    0    0  501    0  0.00000000000E+00  0.00000000000E+00  0.19415975502E+04  0.19415975502E+04  0.50400001928E-02 0.  1.
       -1   -1    0    0    0  501  0.00000000000E+00  0.00000000000E+00 -0.15919962244E+04  0.15919962244E+04  0.50400001928E-02 0. -1.
    10030    2    1    2    0    0  0.00000000000E+00  0.00000000000E+00  0.34960132581E+03  0.35335937746E+04  0.35162570834E+04 0.  0.
        2    1    3    3  502    0 -0.16563126344E+02 -0.22210912106E+02 -0.15917768165E+04  0.15920179318E+04  0.25500000920E-02 0. -1.
       -2    1    3    3    0  502  0.16563126344E+02  0.22210912106E+02  0.19413781423E+04  0.19415758427E+04  0.25500000920E-02 0.  1.
</event>
<event>
 5   0  0.5740827E-07  0.3491306E+04  0.7818609E-02  0.8115853E-01
        2   -1    0    0  501    0  0.00000000000E+00  0.00000000000E+00  0.23717102124E+04  0.23717102124E+04  0.25500000920E-02 0. -1.
       -2   -1    0    0    0  501  0.00000000000E+00  0.00000000000E+00 -0.12848556277E+04  0.12848556277E+04  0.25500000920E-02 0.  1.
    10030    2    1    2    0    0  0.00000000000E+00  0.00000000000E+00  0.10868545847E+04  0.36565658402E+04  0.34913064682E+04 0.  0.
        2    1    3    3  502    0 -0.52341377387E+03  0.59755408468E+02  0.22864677848E+04  0.23463732905E+04  0.25500000920E-02 0. -1.
       -2    1    3    3    0  502  0.52341377387E+03 -0.59755408468E+02 -0.11996132000E+04  0.13101925497E+04  0.25500000920E-02 0.  1.
</event>
<event>
 5   0  0.5740827E-07  0.3478221E+04  0.7818609E-02  0.8118971E-01
       -2   -1    0    0    0  501  0.00000000000E+00  0.00000000000E+00  0.18394452053E+04  0.18394452053E+04  0.25500000920E-02 0.  1.
        2   -1    0    0  501    0  0.00000000000E+00  0.00000000000E+00 -0.16442491248E+04  0.16442491248E+04  0.25500000920E-02 0. -1.
    10030    2    1    2    0    0  0.00000000000E+00  0.00000000000E+00  0.19519608046E+03  0.34836943301E+04  0.34782214817E+04 0.  0.
        2    1    3    3  502    0 -0.61343349298E+03 -0.12715997814E+04 -0.91949944747E+03  0.16848578244E+04  0.25500000920E-02 0. -1.
       -2    1    3    3    0  502  0.61343349298E+03  0.12715997814E+04  0.11146955279E+04  0.17988365057E+04  0.25500000920E-02 0.  1.
</event>
<event>
 5   0  0.5573334E-07  0.3542026E+04  0.7818609E-02  0.8103902E-01
        2   -1    0    0  501    0  0.00000000000E+00  0.00000000000E+00  0.20193391455E+04  0.20193391455E+04  0.25500000920E-02 0.  1.
       -2   -1    0    0    0  501  0.00000000000E+00  0.00000000000E+00 -0.15532242171E+04  0.15532242171E+04  0.25500000920E-02 0. -1.
    10030    2    1    2    0    0  0.00000000000E+00  0.00000000000E+00  0.46611492839E+03  0.35725633627E+04  0.35420256710E+04 0.  0.
        4    1    3    3  502    0 -0.48263324760E+03 -0.16651437333E+04  0.59790299934E+03  0.18338833425E+04  0.12699999809E+01 0.  1.
       -4    1    3    3    0  502  0.48263324760E+03  0.16651437333E+04 -0.13178807095E+03  0.17386800202E+04  0.12699999809E+01 0. -1.
</event>
<event>
 5   0  0.5740827E-07  0.3489742E+04  0.7818609E-02  0.8116225E-01
        2   -1    0    0  501    0  0.00000000000E+00  0.00000000000E+00  0.21547269649E+04  0.21547269649E+04  0.25500000920E-02 0.  1.
       -2   -1    0    0    0  501  0.00000000000E+00  0.00000000000E+00 -0.14129751537E+04  0.14129751537E+04  0.25500000920E-02 0. -1.
    10030    2    1    2    0    0  0.00000000000E+00  0.00000000000E+00  0.74175181114E+03  0.35677021186E+04  0.34897424916E+04 0.  0.
        2    1    3    3  502    0  0.79829064969E+03  0.78944576204E+03  0.17364106144E+04  0.20677558837E+04  0.25500000920E-02 0.  1.
       -2    1    3    3    0  502 -0.79829064969E+03 -0.78944576204E+03 -0.99465880331E+03  0.14999462349E+04  0.25500000920E-02 0. -1.
</event>
<event>
 5   0  0.5740827E-07  0.3547913E+04  0.7818609E-02  0.8102528E-01
        2   -1    0    0  501    0  0.00000000000E+00  0.00000000000E+00  0.23475922085E+04  0.23475922085E+04  0.25500000920E-02 0.  1.
       -2   -1    0    0    0  501  0.00000000000E+00  0.00000000000E+00 -0.13404893509E+04  0.13404893509E+04  0.25500000920E-02 0. -1.
    10030    2    1    2    0    0  0.00000000000E+00  0.00000000000E+00  0.10071028575E+04  0.36880815594E+04  0.35479133900E+04 0.  0.
        2    1    3    3  502    0  0.12545320866E+04 -0.24611292936E+03 -0.77487341696E+03  0.14949418526E+04  0.25500000920E-02 0. -1.
       -2    1    3    3    0  502 -0.12545320866E+04  0.24611292936E+03  0.17819762745E+04  0.21931397067E+04  0.25500000920E-02 0.  1.
</event>
<event>
 5   0  0.5677193E-07  0.3522292E+04  0.7818609E-02  0.8108527E-01
        2   -1    0    0  501    0  0.00000000000E+00  0.00000000000E+00  0.20512349405E+04  0.20512349405E+04  0.25500000920E-02 0. -1.
       -2   -1    0    0    0  501  0.00000000000E+00  0.00000000000E+00 -0.15120821772E+04  0.15120821772E+04  0.25500000920E-02 0.  1.
    10030    2    1    2    0    0  0.00000000000E+00  0.00000000000E+00  0.53915276322E+03  0.35633171177E+04  0.35222923188E+04 0.  0.
        3    1    3    3  502    0 -0.19281584722E+03  0.17181251406E+04  0.60889894676E+03  0.18330002421E+04  0.10100000352E+00 0.  1.
       -3    1    3    3    0  502  0.19281584722E+03 -0.17181251406E+04 -0.69746183544E+02  0.17303168756E+04  0.10100000352E+00 0. -1.
</event>
<event>
 5   0  0.1933647E-07  0.3508735E+04  0.7818609E-02  0.8111723E-01
        1   -1    0    0  501    0  0.00000000000E+00  0.00000000000E+00  0.11208331010E+04  0.11208331010E+04  0.50400001928E-02 0. -1.
       -1   -1    0    0    0  501  0.00000000000E+00  0.00000000000E+00 -0.27459985885E+04  0.27459985885E+04  0.50400001928E-02 0.  1.
    10030    2    1    2    0    0  0.00000000000E+00  0.00000000000E+00 -0.16251654875E+04  0.38668316895E+04  0.35087354493E+04 0.  0.
        4    1    3    3  502    0  0.20799076023E+03 -0.17147488927E+04 -0.11507918703E+04  0.20755595542E+04  0.12699999809E+01 0. -1.
       -4    1    3    3    0  502 -0.20799076023E+03  0.17147488927E+04 -0.47437361720E+03  0.17912721354E+04  0.12699999809E+01 0.  1.
</event>
<event>
 5   0  0.1866421E-07  0.3479663E+04  0.7818609E-02  0.8118627E-01
        1   -1    0    0  501    0  0.00000000000E+00  0.00000000000E+00  0.21114171085E+04  0.21114171085E+04  0.50400001928E-02 0.  1.
       -1   -1    0    0    0  501  0.00000000000E+00  0.00000000000E+00 -0.14336404358E+04  0.14336404358E+04  0.50400001928E-02 0. -1.
    10030    2    1    2    0    0  0.00000000000E+00  0.00000000000E+00  0.67777667274E+03  0.35450575443E+04  0.34796625948E+04 0.  0.
        1    1    3    3  502    0  0.49724313436E+03  0.93274727356E+03  0.17467948393E+04  0.20417052730E+04  0.50400001928E-02 0.  1.
       -1    1    3    3    0  502 -0.49724313436E+03 -0.93274727356E+03 -0.10690181666E+04  0.15033522713E+04  0.50400001928E-02 0. -1.
</event>
<event>
 5   0  0.1873457E-07  0.3501684E+04  0.7818609E-02  0.8113391E-01
        1   -1    0    0  501    0  0.00000000000E+00  0.00000000000E+00  0.20778704500E+04  0.20778704500E+04  0.50400001928E-02 0. -1.
       -1   -1    0    0    0  501  0.00000000000E+00  0.00000000000E+00 -0.14752836350E+04  0.14752836350E+04  0.50400001928E-02 0.  1.
    10030    2    1    2    0    0  0.00000000000E+00  0.00000000000E+00  0.60258681498E+03  0.35531540850E+04  0.35016843208E+04 0.  0.
        3    1    3    3  502    0  0.83958064232E+03 -0.14998192407E+04  0.63950151541E+03  0.18339344612E+04  0.10100000352E+00 0. -1.
       -3    1    3    3    0  502 -0.83958064232E+03  0.14998192407E+04 -0.36914700422E+02  0.17192196238E+04  0.10100000352E+00 0.  1.
</event>
<event>
 5   0  0.1897049E-07  0.3363687E+04  0.7818609E-02  0.8146877E-01
       -1   -1    0    0    0  501  0.00000000000E+00  0.00000000000E+00  0.27028574757E+04  0.27028574757E+04  0.50400001928E-02 0. -1.
        1   -1    0    0  501    0  0.00000000000E+00  0.00000000000E+00 -0.10465214031E+04  0.10465214031E+04  0.50400001928E-02 0.  1.
    10030    2    1    2    0    0  0.00000000000E+00  0.00000000000E+00  0.16563360727E+04  0.37493788788E+04  0.33636873801E+04 0.  0.
        2    1    3    3  502    0 -0.11619977183E+04 -0.11625480986E+04  0.43118289809E+03  0.16993161773E+04  0.25500000920E-02 0.  1.
       -2    1    3    3    0  502  0.11619977183E+04  0.11625480986E+04  0.12251531746E+04  0.20500627015E+04  0.25500000920E-02 0. -1.
</event>
<event>
 5   0  0.1873457E-07  0.3507001E+04  0.7818609E-02  0.8112133E-01
        1   -1    0    0  501    0  0.00000000000E+00  0.00000000000E+00  0.19294787258E+04  0.19294787258E+04  0.50400001928E-02 0.  1.
       -1   -1    0    0    0  501  0.00000000000E+00  0.00000000000E+00 -0.15935719528E+04  0.15935719528E+04  0.50400001928E-02 0. -1.
    10030    2    1    2    0    0  0.00000000000E+00  0.00000000000E+00  0.33590677299E+03  0.35230506786E+04  0.35070005309E+04 0.  0.
        3    1    3    3  502    0 -0.53229499115E+03  0.62098854188E+03  0.17261156376E+04  0.19100889852E+04  0.10100000352E+00 0.  1.
       -3    1    3    3    0  502  0.53229499115E+03 -0.62098854188E+03 -0.13902088646E+04  0.16129616934E+04  0.10100000352E+00 0. -1.
</event>
<event>
 5   0  0.5573334E-07  0.3541129E+04  0.7818609E-02  0.8104111E-01
        2   -1    0    0  501    0  0.00000000000E+00  0.00000000000E+00  0.15642607211E+04  0.15642607211E+04  0.25500000920E-02 0. -1.
       -2   -1    0    0    0  501  0.00000000000E+00  0.00000000000E+00 -0.20040772295E+04  0.20040772295E+04  0.25500000920E-02 0.  1.
    10030    2    1    2    0    0  0.00000000000E+00  0.00000000000E+00 -0.43981650841E+03  0.35683379505E+04  0.35411293634E+04 0.  0.
        4    1    3    3  502    0  0.87699053914E+03 -0.10290252500E+04 -0.13718859944E+04  0.19261563191E+04  0.12699999809E+01 0.  1.
       -4    1    3    3    0  502 -0.87699053914E+03  0.10290252500E+04  0.93206948604E+03  0.16421816314E+04  0.12699999809E+01 0. -1.
</event>
<event>
 5   0  0.5573334E-07  0.3494910E+04  0.7818609E-02  0.8114997E-01
       -2   -1    0    0    0  501  0.00000000000E+00  0.00000000000E+00  0.11914014349E+04  0.11914014349E+04  0.25500000920E-02 0.  1.
        2   -1    0    0  501    0  0.00000000000E+00  0.00000000000E+00 -0.25630309773E+04  0.25630309773E+04  0.25500000920E-02 0. -1.
    10030    2    1    2    0    0  0.00000000000E+00  0.00000000000E+00 -0.13716295423E+04  0.37544324122E+04  0.34949098896E+04 0.  0.
        4    1    3    3  502    0 -0.13607566216E+04 -0.10927729144E+04 -0.78060509088E+03  0.19118465280E+04  0.12699999809E+01 0. -1.
       -4    1    3    3    0  502  0.13607566216E+04  0.10927729144E+04 -0.59102445146E+03  0.18425858842E+04  0.12699999809E+01 0.  1.
</event>
<event>
 5   0  0.5740827E-07  0.3488292E+04  0.7818609E-02  0.8116570E-01
       -2   -1    0    0    0  501  0.00000000000E+00  0.00000000000E+00  0.19207342348E+04  0.19207342348E+04  0.25500000920E-02 0.  1.
        2   -1    0    0  501    0  0.00000000000E+00  0.00000000000E+00 -0.15837929389E+04  0.15837929389E+04  0.25500000920E-02 0. -1.
    10030    2    1    2    0    0  0.00000000000E+00  0.00000000000E+00  0.33694129587E+03  0.35045271737E+04  0.34882920282E+04 0.  0.
        2    1    3    3  502    0 -0.90660107638E+03 -0.14606637755E+03  0.16582018767E+04  0.18954931713E+04  0.25500000920E-02 0.  1.
       -2    1    3    3    0  502  0.90660107638E+03  0.14606637755E+03 -0.13212605809E+04  0.16090340024E+04  0.25500000920E-02 0. -1.
</event>
<event>
 5   0  0.1823000E-07  0.3482838E+04  0.7818609E-02  0.8117869E-01
        3   -1    0    0  501    0  0.00000000000E+00  0.00000000000E+00  0.21529649188E+04  0.21529649212E+04  0.10100000352E+00 0. -1.
       -3   -1    0    0    0  501  0.00000000000E+00  0.00000000000E+00 -0.14085410100E+04  0.14085410136E+04  0.10100000352E+00 0.  1.
    10030    2    1    2    0    0  0.00000000000E+00  0.00000000000E+00  0.74442390882E+03  0.35615059348E+04  0.34828375741E+04 0.  0.
        5    1    3    3  502    0  0.12336792605E+04  0.53446966021E+03  0.15039603206E+04  0.20173103557E+04  0.46999998093E+01 0. -1.
       -5    1    3    3    0  502 -0.12336792605E+04 -0.53446966021E+03 -0.75953641174E+03  0.15441955790E+04  0.46999998093E+01 0.  1.
</event>
<event>
 5   0  0.1933647E-07  0.3506277E+04  0.7818609E-02  0.8112304E-01
       -1   -1    0    0    0  501  0.00000000000E+00  0.00000000000E+00  0.19167407547E+04  0.19167407547E+04  0.50400001928E-02 0. -1.
        1   -1    0    0  501    0  0.00000000000E+00  0.00000000000E+00 -0.16035006848E+04  0.16035006848E+04  0.50400001928E-02 0.  1.
    10030    2    1    2    0    0  0.00000000000E+00  0.00000000000E+00  0.31324006986E+03  0.35202414395E+04  0.35062772923E+04 0.  0.
        4    1    3    3  502    0  0.24817237471E+03  0.23335757336E+03 -0.15699522543E+04  0.16064859098E+04  0.12699999809E+01 0.  1.
       -4    1    3    3    0  502 -0.24817237471E+03 -0.23335757336E+03  0.18831923242E+04  0.19137555297E+04  0.12699999809E+01 0. -1.
</event>
<event>
 5   0  0.1873457E-07  0.3331948E+04  0.7818609E-02  0.8154813E-01
        1   -1    0    0  501    0  0.00000000000E+00  0.00000000000E+00  0.24334613322E+04  0.24334613322E+04  0.50400001928E-02 0.  1.
       -1   -1    0    0    0  501  0.00000000000E+00  0.00000000000E+00 -0.11405439704E+04  0.11405439705E+04  0.50400001928E-02 0. -1.
    10030    2    1    2    0    0  0.00000000000E+00  0.00000000000E+00  0.12929173617E+04  0.35740053026E+04  0.33319481687E+04 0.  0.
        3    1    3    3  502    0 -0.16156294264E+04 -0.40199440202E+03  0.71092198969E+03  0.18103226310E+04  0.10100000352E+00 0. -1.
       -3    1    3    3    0  502  0.16156294264E+04  0.40199440202E+03  0.58199537202E+03  0.17636826716E+04  0.10100000352E+00 0.  1.
</event>
<event>
 5   0  0.1933647E-07  0.3408907E+04  0.7818609E-02  0.8135724E-01
       -1   -1    0    0    0  501  0.00000000000E+00  0.00000000000E+00  0.20029194331E+04  0.20029194331E+04  0.50400001928E-02 0. -1.
        1   -1    0    0  501    0  0.00000000000E+00  0.00000000000E+00 -0.14504638830E+04  0.14504638830E+04  0.50400001928E-02 0.  1.
    10030    2    1    2    0    0  0.00000000000E+00  0.00000000000E+00  0.55245555002E+03  0.34533833161E+04  0.34089073313E+04 0.  0.
        4    1    3    3  502    0  0.89536875364E+02 -0.49946686594E+03  0.19246257280E+04  0.19903943850E+04  0.12699999809E+01 0. -1.
       -4    1    3    3    0  502 -0.89536875364E+02  0.49946686594E+03 -0.13721701780E+04  0.14629889311E+04  0.12699999809E+01 0.  1.
</event>
<event>
 5   0  0.1933647E-07  0.3496750E+04  0.7818609E-02  0.8114560E-01
        1   -1    0    0  501    0  0.00000000000E+00  0.00000000000E+00  0.26499067139E+04  0.26499067139E+04  0.50400001928E-02 0. -1.
       -1   -1    0    0    0  501  0.00000000000E+00  0.00000000000E+00 -0.11535560738E+04  0.11535560739E+04  0.50400001928E-02 0.  1.
    10030    2    1    2    0    0  0.00000000000E+00  0.00000000000E+00  0.14963506400E+04  0.38034627878E+04  0.34967504829E+04 0.  0.
        4    1    3    3  502    0 -0.22636951729E+03 -0.89945418193E+03  0.23602509390E+04  0.25359509246E+04  0.12699999809E+01 0. -1.
       -4    1    3    3    0  502  0.22636951729E+03  0.89945418193E+03 -0.86390029900E+03  0.12675118632E+04  0.12699999809E+01 0.  1.
</event>
<event>
 5   0  0.5707187E-07  0.3494799E+04  0.7818609E-02  0.8115024E-01
       -2   -1    0    0    0  501  0.00000000000E+00  0.00000000000E+00  0.15091416175E+04  0.15091416175E+04  0.25500000920E-02 0. -1.
        2   -1    0    0  501    0  0.00000000000E+00  0.00000000000E+00 -0.20232726938E+04  0.20232726938E+04  0.25500000920E-02 0.  1.
    10030    2    1    2    0    0  0.00000000000E+00  0.00000000000E+00 -0.51413107630E+03  0.35324143113E+04  0.34947990076E+04 0.  0.
        1    1    3    3  502    0  0.29792105128E+03  0.17106837844E+04 -0.59490249462E+02  0.17374507339E+04  0.50400001928E-02 0. -1.
       -1    1    3    3    0  502 -0.29792105128E+03 -0.17106837844E+04 -0.45464082684E+03  0.17949635774E+04  0.50400001928E-02 0.  1.
</event>
<event>
 5   0  0.5740827E-07  0.3499517E+04  0.7818609E-02  0.8113904E-01
        2   -1    0    0  501    0  0.00000000000E+00  0.00000000000E+00  0.95680062688E+03  0.95680062688E+03  0.25500000920E-02 0.  1.
       -2   -1    0    0    0  501  0.00000000000E+00  0.00000000000E+00 -0.31998875147E+04  0.31998875147E+04  0.25500000920E-02 0. -1.
    10030    2    1    2    0    0  0.00000000000E+00  0.00000000000E+00 -0.22430868878E+04  0.41566881415E+04  0.34995167552E+04 0.  0.
        2    1    3    3  502    0 -0.22313628508E+03  0.32180662440E+03  0.90408294350E+03  0.98524883860E+03  0.25500000920E-02 0.  1.
       -2    1    3    3    0  502  0.22313628508E+03 -0.32180662440E+03 -0.31471698313E+04  0.31714393029E+04  0.25500000920E-02 0. -1.
</event>
<event>
 5   0  0.5677193E-07  0.3473884E+04  0.7818609E-02  0.8120007E-01
        2   -1    0    0  501    0  0.00000000000E+00  0.00000000000E+00  0.24282730963E+04  0.24282730963E+04  0.25500000920E-02 0. -1.
       -2   -1    0    0    0  501  0.00000000000E+00  0.00000000000E+00 -0.12424334553E+04  0.12424334553E+04  0.25500000920E-02 0.  1.
    10030    2    1    2    0    0  0.00000000000E+00  0.00000000000E+00  0.11858396410E+04  0.36707065516E+04  0.34738841279E+04 0.  0.
        3    1    3    3  502    0 -0.19171030265E+03 -0.16990764969E+04  0.91576972807E+03  0.19396515119E+04  0.10100000352E+00 0.  1.
       -3    1    3    3    0  502  0.19171030265E+03  0.16990764969E+04  0.27006991298E+03  0.17310550397E+04  0.10100000352E+00 0. -1.
</event>
<event>
 5   0  0.5554745E-07  0.3491704E+04  0.7818609E-02  0.8115759E-01
       -2   -1    0    0    0  501  0.00000000000E+00  0.00000000000E+00  0.12579238381E+04  0.12579238381E+04  0.25500000920E-02 0. -1.
        2   -1    0    0  501    0  0.00000000000E+00  0.00000000000E+00 -0.24230396578E+04  0.24230396578E+04  0.25500000920E-02 0.  1.
    10030    2    1    2    0    0  0.00000000000E+00  0.00000000000E+00 -0.11651158197E+04  0.36809634958E+04  0.34917040803E+04 0.  0.
        5    1    3    3  502    0 -0.10316002679E+03 -0.17304138593E+04 -0.36394582453E+03  0.17712856260E+04  0.46999998093E+01 0.  1.
       -5    1    3    3    0  502  0.10316002679E+03  0.17304138593E+04 -0.80116999517E+03  0.19096778699E+04  0.46999998093E+01 0. -1.
</event>
<event>
 5   0  0.1908190E-07  0.3480266E+04  0.7818609E-02  0.8118483E-01
       -1   -1    0    0    0  501  0.00000000000E+00  0.00000000000E+00  0.15479006231E+04  0.15479006231E+04  0.50400001928E-02 0.  1.
        1   -1    0    0  501    0  0.00000000000E+00  0.00000000000E+00 -0.19562385748E+04  0.19562385748E+04  0.50400001928E-02 0. -1.
    10030    2    1    2    0    0  0.00000000000E+00  0.00000000000E+00 -0.40833795176E+03  0.35041391979E+04  0.34802660294E+04 0.  0.
        5    1    3    3  502    0 -0.32988849228E+03  0.74624017489E+03  0.13433647032E+04  0.15717352295E+04  0.46999998093E+01 0.  1.
       -5    1    3    3    0  502  0.32988849228E+03 -0.74624017489E+03 -0.17517026549E+04  0.19324039684E+04  0.46999998093E+01 0. -1.
</event>
<event>
 5   0  0.1897049E-07  0.3497078E+04  0.7818609E-02  0.8114483E-01
       -1   -1    0    0    0  501  0.00000000000E+00  0.00000000000E+00  0.12001583052E+04  0.12001583052E+04  0.50400001928E-02 0. -1.
        1   -1    0    0  501    0  0.00000000000E+00  0.00000000000E+00 -0.25474881355E+04  0.25474881355E+04  0.50400001928E-02 0.  1.
    10030    2    1    2    0    0  0.00000000000E+00  0.00000000000E+00 -0.13473298303E+04  0.37476464407E+04  0.34970782338E+04 0.  0.
        2    1    3    3  502    0  0.12032027605E+04  0.90760561147E+03 -0.16237207393E+04  0.22153812015E+04  0.25500000920E-02 0.  1.
       -2    1    3    3    0  502 -0.12032027605E+04 -0.90760561147E+03  0.27639090896E+03  0.15322652392E+04  0.25500000920E-02 0. -1.
</event>
<event>
 5   0  0.1908190E-07  0.3496737E+04  0.7818609E-02  0.8114564E-01
       -1   -1    0    0    0  501  0.00000000000E+00  0.00000000000E+00  0.25005790795E+04  0.25005790795E+04  0.50400001928E-02 0. -1.
        1   -1    0    0  501    0  0.00000000000E+00  0.00000000000E+00 -0.12224340823E+04  0.12224340823E+04  0.50400001928E-02 0.  1.
    10030    2    1    2    0    0  0.00000000000E+00  0.00000000000E+00  0.12781449971E+04  0.37230131618E+04  0.34967373892E+04 0.  0.
        5    1    3    3  502    0  0.80924575909E+03 -0.43430893083E+03  0.22230483719E+04  0.24053002099E+04  0.46999998093E+01 0. -1.
       -5    1    3    3    0  502 -0.80924575909E+03  0.43430893083E+03 -0.94490337475E+03  0.13177129519E+04  0.46999998093E+01 0.  1.
</event>
<event>
 5   0  0.5740827E-07  0.3529097E+04  0.7818609E-02  0.8106929E-01
       -2   -1    0    0    0  501  0.00000000000E+00  0.00000000000E+00  0.15441798619E+04  0.15441798619E+04  0.25500000920E-02 0. -1.
        2   -1    0    0  501    0  0.00000000000E+00  0.00000000000E+00 -0.20163659243E+04  0.20163659243E+04  0.25500000920E-02 0.  1.
    10030    2    1    2    0    0  0.00000000000E+00  0.00000000000E+00 -0.47218606244E+03  0.35605457862E+04  0.35290971392E+04 0.  0.
        2    1    3    3  502    0 -0.46499173348E+03  0.88778144308E+03 -0.17013637173E+04  0.19745915277E+04  0.25500000920E-02 0.  1.
       -2    1    3    3    0  502  0.46499173348E+03 -0.88778144308E+03  0.12291776548E+04  0.15859542585E+04  0.25500000920E-02 0. -1.
</event>
<event>
 5   0  0.5707187E-07  0.3483583E+04  0.7818609E-02  0.8117692E-01
       -2   -1    0    0    0  501  0.00000000000E+00  0.00000000000E+00  0.13971123609E+04  0.13971123609E+04  0.25500000920E-02 0.  1.
        2   -1    0    0  501    0  0.00000000000E+00  0.00000000000E+00 -0.21715053712E+04  0.21715053712E+04  0.25500000920E-02 0. -1.
    10030    2    1    2    0    0  0.00000000000E+00  0.00000000000E+00 -0.77439301032E+03  0.35686177321E+04  0.34835826362E+04 0.  0.
        1    1    3    3  502    0 -0.75122808222E+03  0.13313373323E+04  0.46806904286E+03  0.15987155321E+04  0.50400001928E-02 0.  1.
       -1    1    3    3    0  502  0.75122808222E+03 -0.13313373323E+04 -0.12424620532E+04  0.19699022000E+04  0.50400001928E-02 0. -1.
</event>
<event>
 5   0  0.5707187E-07  0.3458949E+04  0.7818609E-02  0.8123588E-01
       -2   -1    0    0    0  501  0.00000000000E+00  0.00000000000E+00  0.16132446257E+04  0.16132446257E+04  0.25500000920E-02 0.  1.
        2   -1    0    0  501    0  0.00000000000E+00  0.00000000000E+00 -0.18540788617E+04  0.18540788617E+04  0.25500000920E-02 0. -1.
    10030    2    1    2    0    0  0.00000000000E+00  0.00000000000E+00 -0.24083423608E+03  0.34673234874E+04  0.34589494123E+04 0.  0.
        1    1    3    3  502    0  0.60116963579E+03 -0.16212502877E+04 -0.85327616206E+02  0.17312244882E+04  0.50400001928E-02 0.  1.
       -1    1    3    3    0  502 -0.60116963579E+03  0.16212502877E+04 -0.15550661988E+03  0.17360989992E+04  0.50400001928E-02 0. -1.
</event>
<event>
 5   0  0.5677193E-07  0.3508899E+04  0.7818609E-02  0.8111684E-01
       -2   -1    0    0    0  501  0.00000000000E+00  0.00000000000E+00  0.14725815524E+04  0.14725815524E+04  0.25500000920E-02 0. -1.
        2   -1    0    0  501    0  0.00000000000E+00  0.00000000000E+00 -0.20902697455E+04  0.20902697455E+04  0.25500000920E-02 0.  1.
    10030    2    1    2    0    0  0.00000000000E+00  0.00000000000E+00 -0.61768819309E+03  0.35628512979E+04  0.35088987827E+04 0.  0.
        3    1    3    3  502    0 -0.51855039311E+03 -0.56425437999E+03 -0.19113424958E+04  0.20592492958E+04  0.10100000352E+00 0.  1.
       -3    1    3    3    0  502  0.51855039311E+03  0.56425437999E+03  0.12936543028E+04  0.15036020021E+04  0.10100000352E+00 0. -1.
</event>
<event>
 5   0  0.1933647E-07  0.3497280E+04  0.7818609E-02  0.8114435E-01
       -1   -1    0    0    0  501  0.00000000000E+00  0.00000000000E+00  0.23894815730E+04  0.23894815730E+04  0.50400001928E-02 0.  1.
        1   -1    0    0  501    0  0.00000000000E+00  0.00000000000E+00 -0.12796675237E+04  0.12796675237E+04  0.50400001928E-02 0. -1.
    10030    2    1    2    0    0  0.00000000000E+00  0.00000000000E+00  0.11098140493E+04  0.36691490967E+04  0.34972800674E+04 0.  0.
        4    1    3    3  502    0  0.11760508356E+04 -0.20630647997E+03 -0.78540523770E+03  0.14291679159E+04  0.12699999809E+01 0. -1.
       -4    1    3    3    0  502 -0.11760508356E+04  0.20630647997E+03  0.18952192870E+04  0.22399811808E+04  0.12699999809E+01 0.  1.
</event>
<event>
 5   0  0.5677193E-07  0.3227715E+04  0.7818609E-02  0.8181536E-01
       -2   -1    0    0    0  501  0.00000000000E+00  0.00000000000E+00  0.12310936604E+04  0.12310936604E+04  0.25500000920E-02 0. -1.
        2   -1    0    0  501    0  0.00000000000E+00  0.00000000000E+00 -0.21156282747E+04  0.21156282747E+04  0.25500000920E-02 0.  1.
    10030    2    1    2    0    0  0.00000000000E+00  0.00000000000E+00 -0.88453461425E+03  0.33467219351E+04  0.32277153263E+04 0.  0.
        3    1    3    3  502    0  0.68323815961E+03 -0.13372962118E+04 -0.10551277920E+04  0.18353392625E+04  0.10100000352E+00 0.  1.
       -3    1    3    3    0  502 -0.68323815961E+03  0.13372962118E+04  0.17059317777E+03  0.15113826727E+04  0.10100000352E+00 0. -1.
</event>
<event>
 5   0  0.1897049E-07  0.3519490E+04  0.7818609E-02  0.8109187E-01
        1   -1    0    0  501    0  0.00000000000E+00  0.00000000000E+00  0.23781757605E+04  0.23781757605E+04  0.50400001928E-02 0.  1.
       -1   -1    0    0    0  501  0.00000000000E+00  0.00000000000E+00 -0.13021332461E+04  0.13021332461E+04  0.50400001928E-02 0. -1.
    10030    2    1    2    0    0  0.00000000000E+00  0.00000000000E+00  0.10760425145E+04  0.36803090066E+04  0.35194895782E+04 0.  0.
        2    1    3    3  502    0  0.25865877625E+03  0.81079174507E+03 -0.10726238210E+04  0.13692368231E+04  0.25500000920E-02 0.  1.
       -2    1    3    3    0  502 -0.25865877625E+03 -0.81079174507E+03  0.21486663354E+04  0.23110721835E+04  0.25500000920E-02 0. -1.
</event>
<event>
 5   0  0.5554745E-07  0.3495109E+04  0.7818609E-02  0.8114950E-01
        2   -1    0    0  501    0  0.00000000000E+00  0.00000000000E+00  0.12990701713E+04  0.12990701713E+04  0.25500000920E-02 0. -1.
       -2   -1    0    0    0  501  0.00000000000E+00  0.00000000000E+00 -0.23508714766E+04  0.23508714766E+04  0.25500000920E-02 0.  1.
    10030    2    1    2    0    0  0.00000000000E+00  0.00000000000E+00 -0.10518013053E+04  0.36499416479E+04  0.34951091610E+04 0.  0.
        5    1    3    3  502    0 -0.12362248419E+04  0.11988163295E+04 -0.21521055783E+03  0.17354394619E+04  0.46999998093E+01 0. -1.
       -5    1    3    3    0  502  0.12362248419E+04 -0.11988163295E+04 -0.83659074743E+03  0.19145021860E+04  0.46999998093E+01 0.  1.
</event>
<event>
 5   0  0.5677193E-07  0.3442265E+04  0.7818609E-02  0.8127610E-01
        2   -1    0    0  501    0  0.00000000000E+00  0.00000000000E+00  0.19653861052E+04  0.19653861052E+04  0.25500000920E-02 0.  1.
       -2   -1    0    0    0  501  0.00000000000E+00  0.00000000000E+00 -0.15072339006E+04  0.15072339006E+04  0.25500000920E-02 0. -1.
    10030    2    1    2    0    0  0.00000000000E+00  0.00000000000E+00  0.45815220461E+03  0.34726200057E+04  0.34422646995E+04 0.  0.
        3    1    3    3  502    0  0.14016268797E+04 -0.14308991701E+03  0.12263602884E+04  0.18678844186E+04  0.10100000352E+00 0.  1.
       -3    1    3    3    0  502 -0.14016268797E+04  0.14308991701E+03 -0.76820808376E+03  0.16047355871E+04  0.10100000352E+00 0. -1.
</event>
<event>
 5   0  0.1897049E-07  0.3484407E+04  0.7818609E-02  0.8117495E-01
        1   -1    0    0  501    0  0.00000000000E+00  0.00000000000E+00  0.24999641312E+04  0.24999641312E+04  0.50400001928E-02 0.  1.
       -1   -1    0    0    0  501  0.00000000000E+00  0.00000000000E+00 -0.12141264196E+04  0.12141264196E+04  0.50400001928E-02 0. -1.
    10030    2    1    2    0    0  0.00000000000E+00  0.00000000000E+00  0.12858377117E+04  0.37140905508E+04  0.34844066925E+04 0.  0.
        2    1    3    3  502    0  0.61811977985E+03  0.10324760162E+04 -0.69996550444E+03  0.13921316366E+04  0.25500000920E-02 0. -1.
       -2    1    3    3    0  502 -0.61811977985E+03 -0.10324760162E+04  0.19858032161E+04  0.23219589142E+04  0.25500000920E-02 0.  1.
</event>
<event>
 5   0  0.1897049E-07  0.3544383E+04  0.7818609E-02  0.8103352E-01
       -1   -1    0    0    0  501  0.00000000000E+00  0.00000000000E+00  0.10574502145E+04  0.10574502145E+04  0.50400001928E-02 0.  1.
        1   -1    0    0  501    0  0.00000000000E+00  0.00000000000E+00 -0.29700335627E+04  0.29700335627E+04  0.50400001928E-02 0. -1.
    10030    2    1    2    0    0  0.00000000000E+00  0.00000000000E+00 -0.19125833482E+04  0.40274837772E+04  0.35443829522E+04 0.  0.
        2    1    3    3  502    0 -0.22715768613E+02  0.14469028189E+03 -0.29631446720E+04  0.29667621460E+04  0.25500000920E-02 0. -1.
       -2    1    3    3    0  502  0.22715768613E+02 -0.14469028189E+03  0.10505613238E+04  0.10607216312E+04  0.25500000920E-02 0.  1.
</event>
<event>
 5   0  0.1823000E-07  0.3511510E+04  0.7818609E-02  0.8111068E-01
        3   -1    0    0  501    0  0.00000000000E+00  0.00000000000E+00  0.17444296957E+04  0.17444296986E+04  0.10100000352E+00 0. -1.
       -3   -1    0    0    0  501  0.00000000000E+00  0.00000000000E+00 -0.17671540878E+04  0.17671540906E+04  0.10100000352E+00 0.  1.
    10030    2    1    2    0    0  0.00000000000E+00  0.00000000000E+00 -0.22724392096E+02  0.35115837892E+04  0.35115102607E+04 0.  0.
        4    1    3    3  502    0  0.13414410348E+03 -0.59942308343E+03  0.16334736893E+04  0.17451477244E+04  0.12699999809E+01 0. -1.
       -4    1    3    3    0  502 -0.13414410348E+03  0.59942308343E+03 -0.16561980814E+04  0.17664360648E+04  0.12699999809E+01 0.  1.
</event>
<event>
 5   0  0.5740827E-07  0.3479687E+04  0.7818609E-02  0.8118621E-01
       -2   -1    0    0    0  501  0.00000000000E+00  0.00000000000E+00  0.15696386399E+04  0.15696386399E+04  0.25500000920E-02 0.  1.
        2   -1    0    0  501    0  0.00000000000E+00  0.00000000000E+00 -0.19285046122E+04  0.19285046122E+04  0.25500000920E-02 0. -1.
    10030    2    1    2    0    0  0.00000000000E+00  0.00000000000E+00 -0.35886597239E+03  0.34981432521E+04  0.34796869724E+04 0.  0.
        2    1    3    3  502    0 -0.34372230284E+02 -0.17489905498E+03 -0.19193015160E+04  0.19275604891E+04  0.25500000920E-02 0. -1.
       -2    1    3    3    0  502  0.34372230284E+02  0.17489905498E+03  0.15604355436E+04  0.15705827630E+04  0.25500000920E-02 0.  1.
</event>
<event>
 5   0  0.5740827E-07  0.3488084E+04  0.7818609E-02  0.8116620E-01
        2   -1    0    0  501    0  0.00000000000E+00  0.00000000000E+00  0.18605059078E+04  0.18605059078E+04  0.25500000920E-02 0. -1.
       -2   -1    0    0    0  501  0.00000000000E+00  0.00000000000E+00 -0.16348683264E+04  0.16348683264E+04  0.25500000920E-02 0.  1.
    10030    2    1    2    0    0  0.00000000000E+00  0.00000000000E+00  0.22563758139E+03  0.34953742342E+04  0.34880838176E+04 0.  0.
        2    1    3    3  502    0 -0.50978043551E+03 -0.36180402648E+02  0.17837862357E+04  0.18555534077E+04  0.25500000920E-02 0. -1.
       -2    1    3    3    0  502  0.50978043551E+03  0.36180402648E+02 -0.15581486543E+04  0.16398208265E+04  0.25500000920E-02 0.  1.
</event>
<event>
 5   0  0.1873457E-07  0.3519046E+04  0.7818609E-02  0.8109291E-01
       -1   -1    0    0    0  501  0.00000000000E+00  0.00000000000E+00  0.13713698262E+04  0.13713698262E+04  0.50400001928E-02 0. -1.
        1   -1    0    0  501    0  0.00000000000E+00  0.00000000000E+00 -0.22575388301E+04  0.22575388301E+04  0.50400001928E-02 0.  1.
    10030    2    1    2    0    0  0.00000000000E+00  0.00000000000E+00 -0.88616900390E+03  0.36289086564E+04  0.35190456849E+04 0.  0.
        3    1    3    3  502    0 -0.32285651079E+03  0.15792314534E+04  0.28442777104E+03  0.16367979341E+04  0.10100000352E+00 0. -1.
       -3    1    3    3    0  502  0.32285651079E+03 -0.15792314534E+04 -0.11705967749E+04  0.19921107222E+04  0.10100000352E+00 0.  1.
</event>
<event>
 5   0  0.5573334E-07  0.3554203E+04  0.7818609E-02  0.8101063E-01
       -2   -1    0    0    0  501  0.00000000000E+00  0.00000000000E+00  0.15472010192E+04  0.15472010192E+04  0.25500000920E-02 0. -1.
        2   -1    0    0  501    0  0.00000000000E+00  0.00000000000E+00 -0.20411630917E+04  0.20411630917E+04  0.25500000920E-02 0.  1.
    10030    2    1    2    0    0  0.00000000000E+00  0.00000000000E+00 -0.49396207252E+03  0.35883641108E+04  0.35542029293E+04 0.  0.
        4    1    3    3  502    0 -0.13771045290E+04 -0.51801499144E+02 -0.13798117926E+04  0.19501237076E+04  0.12699999809E+01 0.  1.
       -4    1    3    3    0  502  0.13771045290E+04  0.51801499144E+02  0.88584972008E+03  0.16382404032E+04  0.12699999809E+01 0. -1.
</event>
<event>
 5   0  0.1866421E-07  0.3517462E+04  0.7818609E-02  0.8109664E-01
        1   -1    0    0  501    0  0.00000000000E+00  0.00000000000E+00  0.28255121612E+04  0.28255121612E+04  0.50400001928E-02 0. -1.
       -1   -1    0    0    0  501  0.00000000000E+00  0.00000000000E+00 -0.10947162695E+04  0.10947162695E+04  0.50400001928E-02 0.  1.
    10030    2    1    2    0    0  0.00000000000E+00  0.00000000000E+00  0.17307958917E+04  0.39202284307E+04  0.35174616600E+04 0.  0.
        1    1    3    3  502    0 -0.10921435541E+04  0.12855765278E+04  0.31077121094E+03  0.17152443841E+04  0.50400001928E-02 0. -1.
       -1    1    3    3    0  502  0.10921435541E+04 -0.12855765278E+04  0.14200246808E+04  0.22049840466E+04  0.50400001928E-02 0.  1.
</event>
<event>
 5   0  0.5740827E-07  0.3499579E+04  0.7818609E-02  0.8113890E-01
       -2   -1    0    0    0  501  0.00000000000E+00  0.00000000000E+00  0.32766400526E+04  0.32766400526E+04  0.25500000920E-02 0. -1.
        2   -1    0    0  501    0  0.00000000000E+00  0.00000000000E+00 -0.93442182676E+03  0.93442182677E+03  0.25500000920E-02 0.  1.
    10030    2    1    2    0    0  0.00000000000E+00  0.00000000000E+00  0.23422182258E+04  0.42110618794E+04  0.34995793939E+04 0.  0.
        2    1    3    3  502    0  0.88524149369E+03 -0.91591105285E+03  0.26146833661E+04  0.29084557180E+04  0.25500000920E-02 0. -1.
       -2    1    3    3    0  502 -0.88524149369E+03  0.91591105285E+03 -0.27246514025E+03  0.13026061613E+04  0.25500000920E-02 0.  1.
</event>
<event>
 5   0  0.1908190E-07  0.3476669E+04  0.7818609E-02  0.8119342E-01
        1   -1    0    0  501    0  0.00000000000E+00  0.00000000000E+00  0.21536526229E+04  0.21536526230E+04  0.50400001928E-02 0.  1.
       -1   -1    0    0    0  501  0.00000000000E+00  0.00000000000E+00 -0.14031075002E+04  0.14031075003E+04  0.50400001928E-02 0. -1.
    10030    2    1    2    0    0  0.00000000000E+00  0.00000000000E+00  0.75054512270E+03  0.35567601232E+04  0.34766686056E+04 0.  0.
        5    1    3    3  502    0 -0.61676643923E+03 -0.77269227900E+02 -0.12855207851E+04  0.14279205696E+04  0.46999998093E+01 0. -1.
       -5    1    3    3    0  502  0.61676643923E+03  0.77269227900E+02  0.20360659078E+04  0.21288395536E+04  0.46999998093E+01 0.  1.
</event>
<event>
 5   0  0.5707187E-07  0.3775336E+04  0.7818609E-02  0.8051469E-01
       -2   -1    0    0    0  501  0.00000000000E+00  0.00000000000E+00  0.12137361887E+04  0.12137361887E+04  0.25500000920E-02 0. -1.
        2   -1    0    0  501    0  0.00000000000E+00  0.00000000000E+00 -0.29358027257E+04  0.29358027257E+04  0.25500000920E-02 0.  1.
    10030    2    1    2    0    0  0.00000000000E+00  0.00000000000E+00 -0.17220665370E+04  0.41495389144E+04  0.37753357525E+04 0.  0.
        1    1    3    3  502    0  0.37182018624E+03  0.17755620615E+04 -0.14347044826E+04  0.23128441015E+04  0.50400001928E-02 0.  1.
       -1    1    3    3    0  502 -0.37182018624E+03 -0.17755620615E+04 -0.28736205443E+03  0.18366948129E+04  0.50400001928E-02 0. -1.
</event>
<event>
 5   0  0.5554745E-07  0.3574808E+04  0.7818609E-02  0.8096287E-01
        2   -1    0    0  501    0  0.00000000000E+00  0.00000000000E+00  0.19294070939E+04  0.19294070939E+04  0.25500000920E-02 0. -1.
       -2   -1    0    0    0  501  0.00000000000E+00  0.00000000000E+00 -0.16558524468E+04  0.16558524468E+04  0.25500000920E-02 0.  1.
    10030    2    1    2    0    0  0.00000000000E+00  0.00000000000E+00  0.27355464711E+03  0.35852595407E+04  0.35748082227E+04 0.  0.
        5    1    3    3  502    0 -0.64575546684E+03 -0.80097848572E+03 -0.13290787105E+04  0.16807852231E+04  0.46999998093E+01 0.  1.
       -5    1    3    3    0  502  0.64575546684E+03  0.80097848572E+03  0.16026333576E+04  0.19044743176E+04  0.46999998093E+01 0. -1.
</event>
<event>
 5   0  0.1866421E-07  0.3481180E+04  0.7818609E-02  0.8118265E-01
       -1   -1    0    0    0  501  0.00000000000E+00  0.00000000000E+00  0.13077450095E+04  0.13077450095E+04  0.50400001928E-02 0. -1.
        1   -1    0    0  501    0  0.00000000000E+00  0.00000000000E+00 -0.23167008404E+04  0.23167008404E+04  0.50400001928E-02 0.  1.
    10030    2    1    2    0    0  0.00000000000E+00  0.00000000000E+00 -0.10089558309E+04  0.36244458500E+04  0.34811802382E+04 0.  0.
        1    1    3    3  502    0 -0.66662549688E+02 -0.15832154596E+03  0.12988976547E+04  0.13102078937E+04  0.50400001928E-02 0. -1.
       -1    1    3    3    0  502  0.66662549688E+02  0.15832154596E+03 -0.23078534855E+04  0.23142379563E+04  0.50400001928E-02 0.  1.
</event>
<event>
 5   0  0.1933647E-07  0.3196789E+04  0.7818609E-02  0.8189666E-01
        1   -1    0    0  501    0  0.00000000000E+00  0.00000000000E+00  0.15452999173E+04  0.15452999173E+04  0.50400001928E-02 0. -1.
       -1   -1    0    0    0  501  0.00000000000E+00  0.00000000000E+00 -0.16533131938E+04  0.16533131938E+04  0.50400001928E-02 0.  1.
    10030    2    1    2    0    0  0.00000000000E+00  0.00000000000E+00 -0.10801327651E+03  0.31986131111E+04  0.31967888524E+04 0.  0.
        4    1    3    3  502    0  0.48378582649E+03  0.13364936169E+04  0.67757352196E+03  0.15746019828E+04  0.12699999809E+01 0. -1.
       -4    1    3    3    0  502 -0.48378582649E+03 -0.13364936169E+04 -0.78558679848E+03  0.16240111282E+04  0.12699999809E+01 0.  1.
</event>
<event>
 5   0  0.1933647E-07  0.3476258E+04  0.7818609E-02  0.8119440E-01
       -1   -1    0    0    0  501  0.00000000000E+00  0.00000000000E+00  0.15230617027E+04  0.15230617027E+04  0.50400001928E-02 0. -1.
        1   -1    0    0  501    0  0.00000000000E+00  0.00000000000E+00 -0.19835655167E+04  0.19835655167E+04  0.50400001928E-02 0.  1.
    10030    2    1    2    0    0  0.00000000000E+00  0.00000000000E+00 -0.46050381395E+03  0.35066272194E+04  0.34762581454E+04 0.  0.
        4    1    3    3  502    0  0.13709255525E+04 -0.68222517753E+02  0.84536541892E+03  0.16120593931E+04  0.12699999809E+01 0. -1.
       -4    1    3    3    0  502 -0.13709255525E+04  0.68222517753E+02 -0.13058692329E+04  0.18945678263E+04  0.12699999809E+01 0.  1.
</event>
<event>
 5   0  0.5740827E-07  0.3445952E+04  0.7818609E-02  0.8126719E-01
       -2   -1    0    0    0  501  0.00000000000E+00  0.00000000000E+00  0.14961333075E+04  0.14961333075E+04  0.25500000920E-02 0. -1.
        2   -1    0    0  501    0  0.00000000000E+00  0.00000000000E+00 -0.19842127504E+04  0.19842127504E+04  0.25500000920E-02 0.  1.
    10030    2    1    2    0    0  0.00000000000E+00  0.00000000000E+00 -0.48807944289E+03  0.34803460579E+04  0.34459522835E+04 0.  0.
        2    1    3    3  502    0  0.10642700084E+04 -0.97736145348E+03  0.70380502710E+03  0.16072484493E+04  0.25500000920E-02 0. -1.
       -2    1    3    3    0  502 -0.10642700084E+04  0.97736145348E+03 -0.11918844700E+04  0.18730976086E+04  0.25500000920E-02 0.  1.
</event>
<event>
 5   0  0.5740827E-07  0.3469015E+04  0.7818609E-02  0.8121172E-01
        2   -1    0    0  501    0  0.00000000000E+00  0.00000000000E+00  0.21945456013E+04  0.21945456013E+04  0.25500000920E-02 0.  1.
       -2   -1    0    0    0  501  0.00000000000E+00  0.00000000000E+00 -0.13709066062E+04  0.13709066062E+04  0.25500000920E-02 0. -1.
    10030    2    1    2    0    0  0.00000000000E+00  0.00000000000E+00  0.82363899513E+03  0.35654522075E+04  0.34690154583E+04 0.  0.
        2    1    3    3  502    0  0.15446340237E+04  0.21844736017E+03 -0.36748265888E+03  0.16027030358E+04  0.25500000920E-02 0. -1.
       -2    1    3    3    0  502 -0.15446340237E+04 -0.21844736017E+03  0.11911216540E+04  0.19627491717E+04  0.25500000920E-02 0.  1.
</event>
<event>
 5   0  0.5573334E-07  0.3523584E+04  0.7818609E-02  0.8108224E-01
       -2   -1    0    0    0  501  0.00000000000E+00  0.00000000000E+00  0.21611630687E+04  0.21611630687E+04  0.25500000920E-02 0. -1.
        2   -1    0    0  501    0  0.00000000000E+00  0.00000000000E+00 -0.14362221893E+04  0.14362221893E+04  0.25500000920E-02 0.  1.
    10030    2    1    2    0    0  0.00000000000E+00  0.00000000000E+00  0.72494087941E+03  0.35973852581E+04  0.35235836043E+04 0.  0.
        4    1    3    3  502    0 -0.62585378005E+03  0.16221474659E+04  0.72167471352E+02  0.17401911136E+04  0.12699999809E+01 0.  1.
       -4    1    3    3    0  502  0.62585378005E+03 -0.16221474659E+04  0.65277340806E+03  0.18571941445E+04  0.12699999809E+01 0. -1.
</event>
<event>
 5   0  0.5554745E-07  0.3477607E+04  0.7818609E-02  0.8119117E-01
       -2   -1    0    0    0  501  0.00000000000E+00  0.00000000000E+00  0.14582180186E+04  0.14582180186E+04  0.25500000920E-02 0. -1.
        2   -1    0    0  501    0  0.00000000000E+00  0.00000000000E+00 -0.20733787288E+04  0.20733787288E+04  0.25500000920E-02 0.  1.
    10030    2    1    2    0    0  0.00000000000E+00  0.00000000000E+00 -0.61516071026E+03  0.35315967474E+04  0.34776073508E+04 0.  0.
        5    1    3    3  502    0  0.16308859322E+04  0.27614543717E+00  0.30479640834E+03  0.16591298745E+04  0.46999998093E+01 0. -1.
       -5    1    3    3    0  502 -0.16308859322E+04 -0.27614543717E+00 -0.91995711860E+03  0.18724668729E+04  0.46999998093E+01 0.  1.
</event>
<event>
 5   0  0.5740827E-07  0.3556749E+04  0.7818609E-02  0.8100471E-01
        2   -1    0    0  501    0  0.00000000000E+00  0.00000000000E+00  0.18764430483E+04  0.18764430483E+04  0.25500000920E-02 0.  1.
       -2   -1    0    0    0  501  0.00000000000E+00  0.00000000000E+00 -0.16854308926E+04  0.16854308926E+04  0.25500000920E-02 0. -1.
    10030    2    1    2    0    0  0.00000000000E+00  0.00000000000E+00  0.19101215569E+03  0.35618739408E+04  0.35567485611E+04 0.  0.
        2    1    3    3  502    0 -0.86835728977E+03  0.12309455605E+04  0.10420367168E+04  0.18316964472E+04  0.25500000920E-02 0.  1.
       -2    1    3    3    0  502  0.86835728977E+03 -0.12309455605E+04 -0.85102456115E+03  0.17301774936E+04  0.25500000920E-02 0. -1.
</event>
<event>
 5   0  0.5707187E-07  0.3481335E+04  0.7818609E-02  0.8118228E-01
        2   -1    0    0  501    0  0.00000000000E+00  0.00000000000E+00  0.18631280819E+04  0.18631280819E+04  0.25500000920E-02 0.  1.
       -2   -1    0    0    0  501  0.00000000000E+00  0.00000000000E+00 -0.16262559222E+04  0.16262559222E+04  0.25500000920E-02 0. -1.
    10030    2    1    2    0    0  0.00000000000E+00  0.00000000000E+00  0.23687215971E+03  0.34893840041E+04  0.34813348457E+04 0.  0.
        1    1    3    3  502    0 -0.15260357039E+04 -0.22386351221E+03  0.92716172159E+03  0.17995912591E+04  0.50400001928E-02 0.  1.
       -1    1    3    3    0  502  0.15260357039E+04  0.22386351221E+03 -0.69028956188E+03  0.16897927450E+04  0.50400001928E-02 0. -1.
</event>
<event>
 5   0  0.5573334E-07  0.3485632E+04  0.7818609E-02  0.8117204E-01
        2   -1    0    0  501    0  0.00000000000E+00  0.00000000000E+00  0.13169036835E+04  0.13169036835E+04  0.25500000920E-02 0. -1.
       -2   -1    0    0    0  501  0.00000000000E+00  0.00000000000E+00 -0.23064761648E+04  0.23064761648E+04  0.25500000920E-02 0.  1.
    10030    2    1    2    0    0  0.00000000000E+00  0.00000000000E+00 -0.98957248132E+03  0.36233798483E+04  0.34856316256E+04 0.  0.
        4    1    3    3  502    0 -0.31381906991E+03 -0.13619628648E+03  0.12816579876E+04  0.13265295500E+04  0.12699999809E+01 0. -1.
       -4    1    3    3    0  502  0.31381906991E+03  0.13619628648E+03 -0.22712304689E+04  0.22968502983E+04  0.12699999809E+01 0.  1.
</event>
<event>
 5   0  0.5573334E-07  0.3504109E+04  0.7818609E-02  0.8112817E-01
       -2   -1    0    0    0  501  0.00000000000E+00  0.00000000000E+00  0.25983639354E+04  0.25983639354E+04  0.25500000920E-02 0.  1.
        2   -1    0    0  501    0  0.00000000000E+00  0.00000000000E+00 -0.11813954237E+04  0.11813954237E+04  0.25500000920E-02 0. -1.
    10030    2    1    2    0    0  0.00000000000E+00  0.00000000000E+00  0.14169685117E+04  0.37797593591E+04  0.35041091663E+04 0.  0.
        4    1    3    3  502    0  0.15900067547E+04 -0.20215713102E+03  0.14717527600E+04  0.21760162649E+04  0.12699999809E+01 0.  1.
       -4    1    3    3    0  502 -0.15900067547E+04  0.20215713102E+03 -0.54784248217E+02  0.16037430942E+04  0.12699999809E+01 0. -1.
</event>
<event>
 5   0  0.5554745E-07  0.3449417E+04  0.7818609E-02  0.8125883E-01
       -2   -1    0    0    0  501  0.00000000000E+00  0.00000000000E+00  0.12522885728E+04  0.12522885728E+04  0.25500000920E-02 0. -1.
        2   -1    0    0  501    0  0.00000000000E+00  0.00000000000E+00 -0.23753467074E+04  0.23753467074E+04  0.25500000920E-02 0.  1.
    10030    2    1    2    0    0  0.00000000000E+00  0.00000000000E+00 -0.11230581346E+04  0.36276352803E+04  0.34494170743E+04 0.  0.
        5    1    3    3  502    0 -0.17111485744E+04 -0.20511562764E+03 -0.63204235342E+03  0.18356474310E+04  0.46999998093E+01 0. -1.
       -5    1    3    3    0  502  0.17111485744E+04  0.20511562764E+03 -0.49101578122E+03  0.17919878492E+04  0.46999998093E+01 0.  1.
</event>
<event>
 5   0  0.1933647E-07  0.3458434E+04  0.7818609E-02  0.8123712E-01
       -1   -1    0    0    0  501  0.00000000000E+00  0.00000000000E+00  0.32125792442E+04  0.32125792442E+04  0.50400001928E-02 0. -1.
        1   -1    0    0  501    0  0.00000000000E+00  0.00000000000E+00 -0.93077581003E+03  0.93077581004E+03  0.50400001928E-02 0.  1.
    10030    2    1    2    0    0  0.00000000000E+00  0.00000000000E+00  0.22818034342E+04  0.41433550543E+04  0.34584337775E+04 0.  0.
        4    1    3    3  502    0 -0.13189619802E+03  0.12217495373E+04  0.25984443999E+04  0.28743666174E+04  0.12699999809E+01 0. -1.
       -4    1    3    3    0  502  0.13189619802E+03 -0.12217495373E+04 -0.31664096570E+03  0.12689884369E+04  0.12699999809E+01 0.  1.
</event>
<event>
 5   0  0.5554745E-07  0.3508187E+04  0.7818609E-02  0.8111853E-01
        2   -1    0    0  501    0  0.00000000000E+00  0.00000000000E+00  0.13912032969E+04  0.13912032969E+04  0.25500000920E-02 0.  1.
       -2   -1    0    0    0  501  0.00000000000E+00  0.00000000000E+00 -0.22116417383E+04  0.22116417383E+04  0.25500000920E-02 0. -1.
    10030    2    1    2    0    0  0.00000000000E+00  0.00000000000E+00 -0.82043844141E+03  0.36028450352E+04  0.35081865845E+04 0.  0.
        5    1    3    3  502    0 -0.12621660529E+04 -0.11800026475E+04 -0.72061902691E+03  0.18721066383E+04  0.46999998093E+01 0. -1.
       -5    1    3    3    0  502  0.12621660529E+04  0.11800026475E+04 -0.99819414500E+02  0.17307383969E+04  0.46999998093E+01 0.  1.
</event>
<event>
 5   0  0.5677193E-07  0.3480379E+04  0.7818609E-02  0.8118456E-01
        2   -1    0    0  501    0  0.00000000000E+00  0.00000000000E+00  0.14741510360E+04  0.14741510360E+04  0.25500000920E-02 0. -1.
       -2   -1    0    0    0  501  0.00000000000E+00  0.00000000000E+00 -0.20542394122E+04  0.20542394122E+04  0.25500000920E-02 0.  1.
    10030    2    1    2    0    0  0.00000000000E+00  0.00000000000E+00 -0.58008837621E+03  0.35283904482E+04  0.34803788057E+04 0.  0.
        3    1    3    3  502    0  0.74925301698E+03  0.11749759055E+04 -0.13466844338E+04  0.19379131653E+04  0.10100000352E+00 0.  1.
       -3    1    3    3    0  502 -0.74925301698E+03 -0.11749759055E+04  0.76659605756E+03  0.15904772829E+04  0.10100000352E+00 0. -1.
</event>
<event>
 5   0  0.5554745E-07  0.3472424E+04  0.7818609E-02  0.8120356E-01
       -2   -1    0    0    0  501  0.00000000000E+00  0.00000000000E+00  0.15447316066E+04  0.15447316066E+04  0.25500000920E-02 0.  1.
        2   -1    0    0  501    0  0.00000000000E+00  0.00000000000E+00 -0.19514280251E+04  0.19514280251E+04  0.25500000920E-02 0. -1.
    10030    2    1    2    0    0  0.00000000000E+00  0.00000000000E+00 -0.40669641852E+03  0.34961596316E+04  0.34724242530E+04 0.  0.
        5    1    3    3  502    0  0.98574951526E+03 -0.44984493808E+03 -0.15692152836E+04  0.19069665103E+04  0.46999998093E+01 0. -1.
       -5    1    3    3    0  502 -0.98574951526E+03  0.44984493808E+03  0.11625188651E+04  0.15891931213E+04  0.46999998093E+01 0.  1.
</event>
<event>
 5   0  0.1866421E-07  0.3372613E+04  0.7818609E-02  0.8144661E-01
        1   -1    0    0  501    0  0.00000000000E+00  0.00000000000E+00  0.12044979451E+04  0.12044979451E+04  0.50400001928E-02 0.  1.
       -1   -1    0    0    0  501  0.00000000000E+00  0.00000000000E+00 -0.23608420165E+04  0.23608420165E+04  0.50400001928E-02 0. -1.
    10030    2    1    2    0    0  0.00000000000E+00  0.00000000000E+00 -0.11563440714E+04  0.35653399615E+04  0.33726128491E+04 0.  0.
        1    1    3    3  502    0  0.99548299891E+03 -0.22836881068E+03 -0.19966738348E+04  0.22427316196E+04  0.50400001928E-02 0. -1.
       -1    1    3    3    0  502 -0.99548299891E+03  0.22836881068E+03  0.84032976343E+03  0.13226083419E+04  0.50400001928E-02 0.  1.
</event>
<event>
 5   0  0.1908190E-07  0.3491733E+04  0.7818609E-02  0.8115752E-01
       -1   -1    0    0    0  501  0.00000000000E+00  0.00000000000E+00  0.13359273718E+04  0.13359273719E+04  0.50400001928E-02 0.  1.
        1   -1    0    0  501    0  0.00000000000E+00  0.00000000000E+00 -0.22815979919E+04  0.22815979919E+04  0.50400001928E-02 0. -1.
    10030    2    1    2    0    0  0.00000000000E+00  0.00000000000E+00 -0.94567062003E+03  0.36175253637E+04  0.34917326409E+04 0.  0.
        5    1    3    3  502    0  0.99271623586E+02 -0.52891540829E+03 -0.21935182703E+04  0.22585727477E+04  0.46999998093E+01 0. -1.
       -5    1    3    3    0  502 -0.99271623586E+02  0.52891540829E+03  0.12478476503E+04  0.13589526161E+04  0.46999998093E+01 0.  1.
</event>
<event>
 5   0  0.1908190E-07  0.3530280E+04  0.7818609E-02  0.8106651E-01
        1   -1    0    0  501    0  0.00000000000E+00  0.00000000000E+00  0.12872243016E+04  0.12872243016E+04  0.50400001928E-02 0.  1.
       -1   -1    0    0    0  501  0.00000000000E+00  0.00000000000E+00 -0.24204940284E+04  0.24204940284E+04  0.50400001928E-02 0. -1.
    10030    2    1    2    0    0  0.00000000000E+00  0.00000000000E+00 -0.11332697268E+04  0.37077183300E+04  0.35302797256E+04 0.  0.
        5    1    3    3  502    0 -0.96252166097E+02  0.75817033874E+03 -0.22377101188E+04  0.23646258494E+04  0.46999998093E+01 0. -1.
       -5    1    3    3    0  502  0.96252166097E+02 -0.75817033874E+03  0.11044403920E+04  0.13430924806E+04  0.46999998093E+01 0.  1.
</event>
<event>
 5   0  0.5707187E-07  0.3501027E+04  0.7818609E-02  0.8113547E-01
        2   -1    0    0  501    0  0.00000000000E+00  0.00000000000E+00  0.25619185006E+04  0.25619185006E+04  0.25500000920E-02 0. -1.
       -2   -1    0    0    0  501  0.00000000000E+00  0.00000000000E+00 -0.11960950041E+04  0.11960950041E+04  0.25500000920E-02 0.  1.
    10030    2    1    2    0    0  0.00000000000E+00  0.00000000000E+00  0.13658234965E+04  0.37580135048E+04  0.35010272319E+04 0.  0.
        1    1    3    3  502    0 -0.16814027237E+04  0.47723047390E+03  0.57865410349E+03  0.18411150469E+04  0.50400001928E-02 0.  1.
       -1    1    3    3    0  502  0.16814027237E+04 -0.47723047390E+03  0.78716939305E+03  0.19168984579E+04  0.50400001928E-02 0. -1.
</event>
<event>
 5   0  0.5707187E-07  0.3493224E+04  0.7818609E-02  0.8115398E-01
        2   -1    0    0  501    0  0.00000000000E+00  0.00000000000E+00  0.97585528891E+03  0.97585528891E+03  0.25500000920E-02 0.  1.
       -2   -1    0    0    0  501  0.00000000000E+00  0.00000000000E+00 -0.31261328266E+04  0.31261328266E+04  0.25500000920E-02 0. -1.
    10030    2    1    2    0    0  0.00000000000E+00  0.00000000000E+00 -0.21502775377E+04  0.41019881155E+04  0.34932238707E+04 0.  0.
        1    1    3    3  502    0  0.16787829600E+04  0.13511095433E+03 -0.16184668720E+04  0.23358086849E+04  0.50400001928E-02 0. -1.
       -1    1    3    3    0  502 -0.16787829600E+04 -0.13511095433E+03 -0.53181066570E+03  0.17661794306E+04  0.50400001928E-02 0.  1.
</event>
<event>
 5   0  0.1933647E-07  0.3458341E+04  0.7818609E-02  0.8123734E-01
       -1   -1    0    0    0  501  0.00000000000E+00  0.00000000000E+00  0.23361916367E+04  0.23361916367E+04  0.50400001928E-02 0. -1.
        1   -1    0    0  501    0  0.00000000000E+00  0.00000000000E+00 -0.12798741354E+04  0.12798741354E+04  0.50400001928E-02 0.  1.
    10030    2    1    2    0    0  0.00000000000E+00  0.00000000000E+00  0.10563175012E+04  0.36160657721E+04  0.34583413662E+04 0.  0.
        4    1    3    3  502    0  0.10279717585E+04 -0.11534268239E+04  0.13400442793E+04  0.20451991731E+04  0.12699999809E+01 0. -1.
       -4    1    3    3    0  502 -0.10279717585E+04  0.11534268239E+04 -0.28372677804E+03  0.15708665990E+04  0.12699999809E+01 0.  1.
</event>
<event>
 5   0  0.5740827E-07  0.3492409E+04  0.7818609E-02  0.8115591E-01
       -2   -1    0    0    0  501  0.00000000000E+00  0.00000000000E+00  0.14777927448E+04  0.14777927448E+04  0.25500000920E-02 0. -1.
        2   -1    0    0  501    0  0.00000000000E+00  0.00000000000E+00 -0.20633680008E+04  0.20633680008E+04  0.25500000920E-02 0.  1.
    10030    2    1    2    0    0  0.00000000000E+00  0.00000000000E+00 -0.58557525597E+03  0.35411607456E+04  0.34924090605E+04 0.  0.
        2    1    3    3  502    0 -0.22286924464E+03 -0.16414460234E+04  0.26738660197E+03  0.16779485519E+04  0.25500000920E-02 0.  1.
       -2    1    3    3    0  502  0.22286924464E+03  0.16414460234E+04 -0.85296185795E+03  0.18632121937E+04  0.25500000920E-02 0. -1.
</event>
<event>
 5   0  0.5554745E-07  0.3457418E+04  0.7818609E-02  0.8123956E-01
       -2   -1    0    0    0  501  0.00000000000E+00  0.00000000000E+00  0.12895826645E+04  0.12895826646E+04  0.25500000920E-02 0.  1.
        2   -1    0    0  501    0  0.00000000000E+00  0.00000000000E+00 -0.23173653222E+04  0.23173653222E+04  0.25500000920E-02 0. -1.
    10030    2    1    2    0    0  0.00000000000E+00  0.00000000000E+00 -0.10277826577E+04  0.36069479868E+04  0.34574176184E+04 0.  0.
        5    1    3    3  502    0 -0.70295110833E+03 -0.72639174818E+03 -0.19769071352E+04  0.22203533826E+04  0.46999998093E+01 0. -1.
       -5    1    3    3    0  502  0.70295110833E+03  0.72639174818E+03  0.94912447751E+03  0.13865946042E+04  0.46999998093E+01 0.  1.
</event>
<event>
 5   0  0.5554745E-07  0.3499628E+04  0.7818609E-02  0.8113878E-01
       -2   -1    0    0    0  501  0.00000000000E+00  0.00000000000E+00  0.27050551460E+04  0.27050551460E+04  0.25500000920E-02 0.  1.
        2   -1    0    0  501    0  0.00000000000E+00  0.00000000000E+00 -0.11318986213E+04  0.11318986213E+04  0.25500000920E-02 0. -1.
    10030    2    1    2    0    0  0.00000000000E+00  0.00000000000E+00  0.15731565246E+04  0.38369537673E+04  0.34996275175E+04 0.  0.
        5    1    3    3  502    0  0.12621471921E+04 -0.86512346037E+03 -0.14397908973E+03  0.15369470402E+04  0.46999998093E+01 0.  1.
       -5    1    3    3    0  502 -0.12621471921E+04  0.86512346037E+03  0.17171356144E+04  0.23000067270E+04  0.46999998093E+01 0. -1.
</event>
<event>
 5   0  0.1866421E-07  0.3484514E+04  0.7818609E-02  0.8117470E-01
       -1   -1    0    0    0  501  0.00000000000E+00  0.00000000000E+00  0.13556867381E+04  0.13556867381E+04  0.50400001928E-02 0. -1.
        1   -1    0    0  501    0  0.00000000000E+00  0.00000000000E+00 -0.22390570519E+04  0.22390570519E+04  0.50400001928E-02 0.  1.
    10030    2    1    2    0    0  0.00000000000E+00  0.00000000000E+00 -0.88337031375E+03  0.35947437900E+04  0.34845142853E+04 0.  0.
        1    1    3    3  502    0 -0.69317396815E+03  0.15239533877E+04  0.55789170097E+02  0.16751228341E+04  0.50400001928E-02 0. -1.
       -1    1    3    3    0  502  0.69317396815E+03 -0.15239533877E+04 -0.93915948385E+03  0.19196209558E+04  0.50400001928E-02 0.  1.
</event>
<event>
 5   0  0.1933647E-07  0.3445004E+04  0.7818609E-02  0.8126948E-01
       -1   -1    0    0    0  501  0.00000000000E+00  0.00000000000E+00  0.11584298408E+04  0.11584298408E+04  0.50400001928E-02 0. -1.
        1   -1    0    0  501    0  0.00000000000E+00  0.00000000000E+00 -0.25612361606E+04  0.25612361606E+04  0.50400001928E-02 0.  1.
    10030    2    1    2    0    0  0.00000000000E+00  0.00000000000E+00 -0.14028063198E+04  0.37196660015E+04  0.34450035692E+04 0.  0.
        4    1    3    3  502    0 -0.16864989090E+04  0.19356583188E+02 -0.32371824978E+03  0.17173958092E+04  0.12699999809E+01 0. -1.
       -4    1    3    3    0  502  0.16864989090E+04 -0.19356583188E+02 -0.10790880700E+04  0.20022701923E+04  0.12699999809E+01 0.  1.
</event>
<event>
 5   0  0.5677193E-07  0.3497188E+04  0.7818609E-02  0.8114457E-01
       -2   -1    0    0    0  501  0.00000000000E+00  0.00000000000E+00  0.14787112982E+04  0.14787112982E+04  0.25500000920E-02 0. -1.
        2   -1    0    0  501    0  0.00000000000E+00  0.00000000000E+00 -0.20677333042E+04  0.20677333042E+04  0.25500000920E-02 0.  1.
    10030    2    1    2    0    0  0.00000000000E+00  0.00000000000E+00 -0.58902200600E+03  0.35464446025E+04  0.34971877838E+04 0.  0.
        3    1    3    3  502    0  0.16535494725E+04  0.17614190815E+03  0.25377858513E+03  0.16821579624E+04  0.10100000352E+00 0.  1.
       -3    1    3    3    0  502 -0.16535494725E+04 -0.17614190815E+03 -0.84280059113E+03  0.18642866401E+04  0.10100000352E+00 0. -1.
</event>
<event>
 5   0  0.5707187E-07  0.3496565E+04  0.7818609E-02  0.8114605E-01
        2   -1    0    0  501    0  0.00000000000E+00  0.00000000000E+00  0.16841020005E+04  0.16841020005E+04  0.25500000920E-02 0. -1.
       -2   -1    0    0    0  501  0.00000000000E+00  0.00000000000E+00 -0.18149084339E+04  0.18149084339E+04  0.25500000920E-02 0.  1.
    10030    2    1    2    0    0  0.00000000000E+00  0.00000000000E+00 -0.13080643339E+03  0.34990104343E+04  0.34965645563E+04 0.  0.
        1    1    3    3  502    0  0.15179861779E+04  0.66027160709E+03  0.49735151417E+03  0.17284672864E+04  0.50400001928E-02 0. -1.
       -1    1    3    3    0  502 -0.15179861779E+04 -0.66027160709E+03 -0.62815794756E+03  0.17705431479E+04  0.50400001928E-02 0.  1.
</event>
<event>
 5   0  0.5554745E-07  0.3349641E+04  0.7818609E-02  0.8150378E-01
       -2   -1    0    0    0  501  0.00000000000E+00  0.00000000000E+00  0.18455479023E+04  0.18455479023E+04  0.25500000920E-02 0. -1.
        2   -1    0    0  501    0  0.00000000000E+00  0.00000000000E+00 -0.15198868697E+04  0.15198868697E+04  0.25500000920E-02 0.  1.
    10030    2    1    2    0    0  0.00000000000E+00  0.00000000000E+00  0.32566103269E+03  0.33654347720E+04  0.33496411892E+04 0.  0.
        5    1    3    3  502    0  0.15284553911E+03  0.12908888221E+04  0.12238619984E+04  0.17853895908E+04  0.46999998093E+01 0. -1.
       -5    1    3    3    0  502 -0.15284553911E+03 -0.12908888221E+04 -0.89820096574E+03  0.15800451812E+04  0.46999998093E+01 0.  1.
</event>
<event>
 5   0  0.5554745E-07  0.3557681E+04  0.7818609E-02  0.8100255E-01
        2   -1    0    0  501    0  0.00000000000E+00  0.00000000000E+00  0.27869158441E+04  0.27869158441E+04  0.25500000920E-02 0.  1.
       -2   -1    0    0    0  501  0.00000000000E+00  0.00000000000E+00 -0.11354030520E+04  0.11354030520E+04  0.25500000920E-02 0. -1.
    10030    2    1    2    0    0  0.00000000000E+00  0.00000000000E+00  0.16515127921E+04  0.39223188960E+04  0.35576805674E+04 0.  0.
        5    1    3    3  502    0 -0.15066435784E+04  0.52999305637E+03  0.16892156936E+04  0.23247234807E+04  0.46999998093E+01 0.  1.
       -5    1    3    3    0  502  0.15066435784E+04 -0.52999305637E+03 -0.37702901499E+02  0.15975954153E+04  0.46999998093E+01 0. -1.
</event>
<event>
 5   0  0.5677193E-07  0.3457976E+04  0.7818609E-02  0.8123822E-01
        2   -1    0    0  501    0  0.00000000000E+00  0.00000000000E+00  0.14705589820E+04  0.14705589820E+04  0.25500000920E-02 0. -1.
       -2   -1    0    0    0  501  0.00000000000E+00  0.00000000000E+00 -0.20328324319E+04  0.20328324320E+04  0.25500000920E-02 0.  1.
    10030    2    1    2    0    0  0.00000000000E+00  0.00000000000E+00 -0.56227345000E+03  0.35033914139E+04  0.34579762819E+04 0.  0.
        3    1    3    3  502    0 -0.16305101641E+04 -0.34982161169E+03  0.18143544805E+03  0.16774556290E+04  0.10100000352E+00 0.  1.
       -3    1    3    3    0  502  0.16305101641E+04  0.34982161169E+03 -0.74370889805E+03  0.18259357849E+04  0.10100000352E+00 0. -1.
</event>
<event>
 5   0  0.5573334E-07  0.3490699E+04  0.7818609E-02  0.8115998E-01
        2   -1    0    0  501    0  0.00000000000E+00  0.00000000000E+00  0.15220608723E+04  0.15220608723E+04  0.25500000920E-02 0.  1.
       -2   -1    0    0    0  501  0.00000000000E+00  0.00000000000E+00 -0.20013948153E+04  0.20013948153E+04  0.25500000920E-02 0. -1.
    10030    2    1    2    0    0  0.00000000000E+00  0.00000000000E+00 -0.47933394294E+03  0.35234556876E+04  0.34906989205E+04 0.  0.
        4    1    3    3  502    0 -0.70046042030E+03 -0.96112589079E+03 -0.15290875302E+04  0.19371417259E+04  0.12699999809E+01 0. -1.
       -4    1    3    3    0  502  0.70046042030E+03  0.96112589079E+03  0.10497535872E+04  0.15863139617E+04  0.12699999809E+01 0.  1.
</event>
<event>
 5   0  0.1823000E-07  0.3488301E+04  0.7818609E-02  0.8116568E-01
       -3   -1    0    0    0  501  0.00000000000E+00  0.00000000000E+00  0.12267161479E+04  0.12267161521E+04  0.10100000352E+00 0. -1.
        3   -1    0    0  501    0  0.00000000000E+00  0.00000000000E+00 -0.24798403159E+04  0.24798403180E+04  0.10100000352E+00 0.  1.
    10030    2    1    2    0    0  0.00000000000E+00  0.00000000000E+00 -0.12531241680E+04  0.37065564700E+04  0.34883005440E+04 0.  0.
        5    1    3    3  502    0  0.25542137010E+03  0.14397126704E+04  0.38373023095E+03  0.15117154592E+04  0.46999998093E+01 0. -1.
       -5    1    3    3    0  502 -0.25542137010E+03 -0.14397126704E+04 -0.16368543989E+04  0.21948410108E+04  0.46999998093E+01 0.  1.
</event>
<event>
 5   0  0.5677193E-07  0.3488749E+04  0.7818609E-02  0.8116461E-01
       -2   -1    0    0    0  501  0.00000000000E+00  0.00000000000E+00  0.17167107876E+04  0.17167107876E+04  0.25500000920E-02 0. -1.
        2   -1    0    0  501    0  0.00000000000E+00  0.00000000000E+00 -0.17724840215E+04  0.17724840215E+04  0.25500000920E-02 0.  1.
    10030    2    1    2    0    0  0.00000000000E+00  0.00000000000E+00 -0.55773233966E+02  0.34891948091E+04  0.34887490254E+04 0.  0.
        3    1    3    3  502    0 -0.34385198995E+03 -0.16805181585E+04 -0.34489235000E+03  0.17496646008E+04  0.10100000352E+00 0.  1.
       -3    1    3    3    0  502  0.34385198995E+03  0.16805181585E+04  0.28911911603E+03  0.17395302083E+04  0.10100000352E+00 0. -1.
</event>
<event>
 5   0  0.5573334E-07  0.3496099E+04  0.7818609E-02  0.8114715E-01
       -2   -1    0    0    0  501  0.00000000000E+00  0.00000000000E+00  0.32744661475E+04  0.32744661475E+04  0.25500000920E-02 0.  1.
        2   -1    0    0  501    0  0.00000000000E+00  0.00000000000E+00 -0.93318343671E+03  0.93318343671E+03  0.25500000920E-02 0. -1.
    10030    2    1    2    0    0  0.00000000000E+00  0.00000000000E+00  0.23412827108E+04  0.42076495842E+04  0.34960992966E+04 0.  0.
        4    1    3    3  502    0  0.13605362116E+04  0.90858152043E+03  0.19116629483E+04  0.25161550038E+04  0.12699999809E+01 0.  1.
       -4    1    3    3    0  502 -0.13605362116E+04 -0.90858152043E+03  0.42961976250E+03  0.16914945804E+04  0.12699999809E+01 0. -1.
</event>
<event>
 5   0  0.5707187E-07  0.3501641E+04  0.7818609E-02  0.8113401E-01
        2   -1    0    0  501    0  0.00000000000E+00  0.00000000000E+00  0.22883338801E+04  0.22883338801E+04  0.25500000920E-02 0.  1.
       -2   -1    0    0    0  501  0.00000000000E+00  0.00000000000E+00 -0.13395654199E+04  0.13395654199E+04  0.25500000920E-02 0. -1.
    10030    2    1    2    0    0  0.00000000000E+00  0.00000000000E+00  0.94876846016E+03  0.36278993000E+04  0.35016412923E+04 0.  0.
        1    1    3    3  502    0 -0.62692664583E+03 -0.86873165341E+02  0.21656621528E+04  0.22562527620E+04  0.50400001928E-02 0.  1.
       -1    1    3    3    0  502  0.62692664583E+03  0.86873165341E+02 -0.12168936926E+04  0.13716465380E+04  0.50400001928E-02 0. -1.
</event>
<event>
 5   0  0.1933647E-07  0.3401038E+04  0.7818609E-02  0.8137652E-01
        1   -1    0    0  501    0  0.00000000000E+00  0.00000000000E+00  0.19910784291E+04  0.19910784291E+04  0.50400001928E-02 0.  1.
       -1   -1    0    0    0  501  0.00000000000E+00  0.00000000000E+00 -0.14523607308E+04  0.14523607308E+04  0.50400001928E-02 0. -1.
    10030    2    1    2    0    0  0.00000000000E+00  0.00000000000E+00  0.53871769828E+03  0.34434391599E+04  0.34010375607E+04 0.  0.
        4    1    3    3  502    0 -0.13606527924E+04  0.96131600084E+03  0.61457608774E+03  0.17757279790E+04  0.12699999809E+01 0.  1.
       -4    1    3    3    0  502  0.13606527924E+04 -0.96131600084E+03 -0.75858389453E+02  0.16677111809E+04  0.12699999809E+01 0. -1.
</event>
<event>
 5   0  0.5677193E-07  0.3507737E+04  0.7818609E-02  0.8111959E-01
       -2   -1    0    0    0  501  0.00000000000E+00  0.00000000000E+00  0.16287005372E+04  0.16287005372E+04  0.25500000920E-02 0.  1.
        2   -1    0    0  501    0  0.00000000000E+00  0.00000000000E+00 -0.18886553932E+04  0.18886553932E+04  0.25500000920E-02 0. -1.
    10030    2    1    2    0    0  0.00000000000E+00  0.00000000000E+00 -0.25995485594E+03  0.35173559304E+04  0.35077366227E+04 0.  0.
        3    1    3    3  502    0 -0.14570071169E+04 -0.58037809400E+03  0.65725229153E+03  0.17004967085E+04  0.10100000352E+00 0.  1.
       -3    1    3    3    0  502  0.14570071169E+04  0.58037809400E+03 -0.91720714747E+03  0.18168592219E+04  0.10100000352E+00 0. -1.
</event>
<event>
 5   0  0.5554745E-07  0.3530777E+04  0.7818609E-02  0.8106535E-01
       -2   -1    0    0    0  501  0.00000000000E+00  0.00000000000E+00  0.12126879620E+04  0.12126879620E+04  0.25500000920E-02 0. -1.
        2   -1    0    0  501    0  0.00000000000E+00  0.00000000000E+00 -0.25699901820E+04  0.25699901820E+04  0.25500000920E-02 0.  1.
    10030    2    1    2    0    0  0.00000000000E+00  0.00000000000E+00 -0.13573022201E+04  0.37826781440E+04  0.35307767735E+04 0.  0.
        5    1    3    3  502    0 -0.12124811708E+03  0.10491511261E+04  0.83689613598E+03  0.13475297487E+04  0.46999998093E+01 0. -1.
       -5    1    3    3    0  502  0.12124811708E+03 -0.10491511261E+04 -0.21941983560E+04  0.24351483952E+04  0.46999998093E+01 0.  1.
</event>
<event>
 5   0  0.1873457E-07  0.3508020E+04  0.7818609E-02  0.8111892E-01
        1   -1    0    0  501    0  0.00000000000E+00  0.00000000000E+00  0.25305941860E+04  0.25305941861E+04  0.50400001928E-02 0.  1.
       -1   -1    0    0    0  501  0.00000000000E+00  0.00000000000E+00 -0.12157423677E+04  0.12157423677E+04  0.50400001928E-02 0. -1.
    10030    2    1    2    0    0  0.00000000000E+00  0.00000000000E+00  0.13148518184E+04  0.37463365538E+04  0.35080197077E+04 0.  0.
        3    1    3    3  502    0  0.16544839343E+04 -0.57658737472E+03  0.56948831168E+03  0.18423048165E+04  0.10100000352E+00 0.  1.
       -3    1    3    3    0  502 -0.16544839343E+04  0.57658737472E+03  0.74536350667E+03  0.19040317373E+04  0.10100000352E+00 0. -1.
</event>
<event>
 5   0  0.1933647E-07  0.3485593E+04  0.7818609E-02  0.8117213E-01
        1   -1    0    0  501    0  0.00000000000E+00  0.00000000000E+00  0.15450931560E+04  0.15450931560E+04  0.50400001928E-02 0. -1.
       -1   -1    0    0    0  501  0.00000000000E+00  0.00000000000E+00 -0.19657975812E+04  0.19657975812E+04  0.50400001928E-02 0.  1.
    10030    2    1    2    0    0  0.00000000000E+00  0.00000000000E+00 -0.42070442515E+03  0.35108907372E+04  0.34855934295E+04 0.  0.
        4    1    3    3  502    0 -0.29337917366E+03  0.13898993552E+04  0.80665248376E+03  0.16335793215E+04  0.12699999809E+01 0. -1.
       -4    1    3    3    0  502  0.29337917366E+03 -0.13898993552E+04 -0.12273569089E+04  0.18773114158E+04  0.12699999809E+01 0.  1.
</event>
<event>
 5   0  0.5573334E-07  0.3498840E+04  0.7818609E-02  0.8114065E-01
       -2   -1    0    0    0  501  0.00000000000E+00  0.00000000000E+00  0.19666683760E+04  0.19666683760E+04  0.25500000920E-02 0.  1.
        2   -1    0    0  501    0  0.00000000000E+00  0.00000000000E+00 -0.15561696390E+04  0.15561696390E+04  0.25500000920E-02 0. -1.
    10030    2    1    2    0    0  0.00000000000E+00  0.00000000000E+00  0.41049873702E+03  0.35228380150E+04  0.34988395887E+04 0.  0.
        4    1    3    3  502    0 -0.15178889615E+04  0.19143646165E+03 -0.64899981939E+03  0.16618776118E+04  0.12699999809E+01 0. -1.
       -4    1    3    3    0  502  0.15178889615E+04 -0.19143646165E+03  0.10594985564E+04  0.18609604032E+04  0.12699999809E+01 0.  1.
</event>
<event>
 5   0  0.1873457E-07  0.3501253E+04  0.7818609E-02  0.8113493E-01
        1   -1    0    0  501    0  0.00000000000E+00  0.00000000000E+00  0.15674827652E+04  0.15674827652E+04  0.50400001928E-02 0.  1.
       -1   -1    0    0    0  501  0.00000000000E+00  0.00000000000E+00 -0.19551683771E+04  0.19551683771E+04  0.50400001928E-02 0. -1.
    10030    2    1    2    0    0  0.00000000000E+00  0.00000000000E+00 -0.38768561191E+03  0.35226511423E+04  0.35012527668E+04 0.  0.
        3    1    3    3  502    0 -0.13102696219E+04 -0.94804733802E+03 -0.86808211013E+03  0.18355290238E+04  0.10100000352E+00 0. -1.
       -3    1    3    3    0  502  0.13102696219E+04  0.94804733802E+03  0.48039649821E+03  0.16871221185E+04  0.10100000352E+00 0.  1.
</event>
<event>
 5   0  0.5554745E-07  0.3479310E+04  0.7818609E-02  0.8118711E-01
       -2   -1    0    0    0  501  0.00000000000E+00  0.00000000000E+00  0.20852956148E+04  0.20852956148E+04  0.25500000920E-02 0. -1.
        2   -1    0    0  501    0  0.00000000000E+00  0.00000000000E+00 -0.14513049542E+04  0.14513049542E+04  0.25500000920E-02 0.  1.
    10030    2    1    2    0    0  0.00000000000E+00  0.00000000000E+00  0.63399066067E+03  0.35366005690E+04  0.34793101941E+04 0.  0.
        5    1    3    3  502    0 -0.26720921243E+03 -0.83388156131E+03  0.18449498525E+04  0.20422098986E+04  0.46999998093E+01 0. -1.
       -5    1    3    3    0  502  0.26720921243E+03  0.83388156131E+03 -0.12109591919E+04  0.14943906704E+04  0.46999998093E+01 0.  1.
</event>
<event>
 5   0  0.5740827E-07  0.3485341E+04  0.7818609E-02  0.8117273E-01
        2   -1    0    0  501    0  0.00000000000E+00  0.00000000000E+00  0.33760523216E+04  0.33760523216E+04  0.25500000920E-02 0. -1.
       -2   -1    0    0    0  501  0.00000000000E+00  0.00000000000E+00 -0.89954198665E+03  0.89954198666E+03  0.25500000920E-02 0.  1.
    10030    2    1    2    0    0  0.00000000000E+00  0.00000000000E+00  0.24765103350E+04  0.42755943083E+04  0.34853411956E+04 0.  0.
        2    1    3    3  502    0  0.11796221288E+03 -0.15569281015E+03 -0.88606999700E+03  0.90734523440E+03  0.25500000920E-02 0.  1.
       -2    1    3    3    0  502 -0.11796221288E+03  0.15569281015E+03  0.33625803320E+04  0.33682490739E+04  0.25500000920E-02 0. -1.
</event>
<event>
 5   0  0.5554745E-07  0.3473266E+04  0.7818609E-02  0.8120155E-01
       -2   -1    0    0    0  501  0.00000000000E+00  0.00000000000E+00  0.22871895362E+04  0.22871895362E+04  0.25500000920E-02 0. -1.
        2   -1    0    0  501    0  0.00000000000E+00  0.00000000000E+00 -0.13186022965E+04  0.13186022965E+04  0.25500000920E-02 0.  1.
    10030    2    1    2    0    0  0.00000000000E+00  0.00000000000E+00  0.96858723967E+03  0.36057918327E+04  0.34732655384E+04 0.  0.
        5    1    3    3  502    0 -0.13852924545E+04 -0.14876305687E+03 -0.59194216966E+03  0.15137976265E+04  0.46999998093E+01 0.  1.
       -5    1    3    3    0  502  0.13852924545E+04  0.14876305687E+03  0.15605294093E+04  0.20919942063E+04  0.46999998093E+01 0. -1.
</event>
<event>
 5   0  0.1908190E-07  0.3496135E+04  0.7818609E-02  0.8114707E-01
        1   -1    0    0  501    0  0.00000000000E+00  0.00000000000E+00  0.22269936735E+04  0.22269936735E+04  0.50400001928E-02 0. -1.
       -1   -1    0    0    0  501  0.00000000000E+00  0.00000000000E+00 -0.13721365531E+04  0.13721365531E+04  0.50400001928E-02 0.  1.
    10030    2    1    2    0    0  0.00000000000E+00  0.00000000000E+00  0.85485712041E+03  0.35991302267E+04  0.34961346788E+04 0.  0.
        5    1    3    3  502    0 -0.33289104187E+03  0.10879457245E+04  0.17936559588E+04  0.21240682978E+04  0.46999998093E+01 0. -1.
       -5    1    3    3    0  502  0.33289104187E+03 -0.10879457245E+04 -0.93879883835E+03  0.14750619289E+04  0.46999998093E+01 0.  1.
</event>
<event>
 5   0  0.1933647E-07  0.3145223E+04  0.7818609E-02  0.8203435E-01
        1   -1    0    0  501    0  0.00000000000E+00  0.00000000000E+00  0.25427546005E+04  0.25427546005E+04  0.50400001928E-02 0. -1.
       -1   -1    0    0    0  501  0.00000000000E+00  0.00000000000E+00 -0.97260953688E+03  0.97260953689E+03  0.50400001928E-02 0.  1.
    10030    2    1    2    0    0  0.00000000000E+00  0.00000000000E+00  0.15701450636E+04  0.35153641374E+04  0.31452232826E+04 0.  0.
        4    1    3    3  502    0  0.10697639802E+04  0.63095562138E+03 -0.29313338718E+03  0.12760990420E+04  0.12699999809E+01 0.  1.
       -4    1    3    3    0  502 -0.10697639802E+04 -0.63095562138E+03  0.18632784508E+04  0.22392650954E+04  0.12699999809E+01 0. -1.
</event>
<event>
 5   0  0.5677193E-07  0.3504027E+04  0.7818609E-02  0.8112836E-01
       -2   -1    0    0    0  501  0.00000000000E+00  0.00000000000E+00  0.13162230742E+04  0.13162230742E+04  0.25500000920E-02 0.  1.
        2   -1    0    0  501    0  0.00000000000E+00  0.00000000000E+00 -0.23320910231E+04  0.23320910231E+04  0.25500000920E-02 0. -1.
    10030    2    1    2    0    0  0.00000000000E+00  0.00000000000E+00 -0.10158679489E+04  0.36483140974E+04  0.35040274062E+04 0.  0.
        3    1    3    3  502    0  0.12917530461E+04  0.10064465646E+04  0.14060453501E+03  0.16435724094E+04  0.10100000352E+00 0.  1.
       -3    1    3    3    0  502 -0.12917530461E+04 -0.10064465646E+04 -0.11564724839E+04  0.20047416880E+04  0.10100000352E+00 0. -1.
</event>
<event>
 5   0  0.1897049E-07  0.3493264E+04  0.7818609E-02  0.8115388E-01
        1   -1    0    0  501    0  0.00000000000E+00  0.00000000000E+00  0.23590399284E+04  0.23590399284E+04  0.50400001928E-02 0.  1.
       -1   -1    0    0    0  501  0.00000000000E+00  0.00000000000E+00 -0.12932058266E+04  0.12932058267E+04  0.50400001928E-02 0. -1.
    10030    2    1    2    0    0  0.00000000000E+00  0.00000000000E+00  0.10658341017E+04  0.36522457550E+04  0.34932644793E+04 0.  0.
        2    1    3    3  502    0 -0.12590962612E+04  0.11022524794E+04  0.10561325443E+04  0.19788127436E+04  0.25500000920E-02 0.  1.
       -2    1    3    3    0  502  0.12590962612E+04 -0.11022524794E+04  0.97015574380E+01  0.16734330114E+04  0.25500000920E-02 0. -1.
</event>
<event>
 5   0  0.5573334E-07  0.3364663E+04  0.7818609E-02  0.8146634E-01
        2   -1    0    0  501    0  0.00000000000E+00  0.00000000000E+00  0.24419226919E+04  0.24419226919E+04  0.25500000920E-02 0. -1.
       -2   -1    0    0    0  501  0.00000000000E+00  0.00000000000E+00 -0.11590211731E+04  0.11590211731E+04  0.25500000920E-02 0.  1.
    10030    2    1    2    0    0  0.00000000000E+00  0.00000000000E+00  0.12829015188E+04  0.36009438650E+04  0.33646634916E+04 0.  0.
        4    1    3    3  502    0  0.81676108302E+03 -0.13112123816E+04  0.13544657423E+04  0.20544964435E+04  0.12699999809E+01 0.  1.
       -4    1    3    3    0  502 -0.81676108302E+03  0.13112123816E+04 -0.71564223503E+02  0.15464474215E+04  0.12699999809E+01 0. -1.
</event>
<event>
 5   0  0.1933647E-07  0.3543928E+04  0.7818609E-02  0.8103458E-01
        1   -1    0    0  501    0  0.00000000000E+00  0.00000000000E+00  0.10114718771E+04  0.10114718771E+04  0.50400001928E-02 0.  1.
       -1   -1    0    0    0  501  0.00000000000E+00  0.00000000000E+00 -0.31042440857E+04  0.31042440857E+04  0.50400001928E-02 0. -1.
    10030    2    1    2    0    0  0.00000000000E+00  0.00000000000E+00 -0.20927722086E+04  0.41157159628E+04  0.35439275345E+04 0.  0.
        4    1    3    3  502    0  0.13603043463E+04  0.79414768299E+03 -0.10379638894E+03  0.15785669958E+04  0.12699999809E+01 0.  1.
       -4    1    3    3    0  502 -0.13603043463E+04 -0.79414768299E+03 -0.19889758196E+04  0.25371489670E+04  0.12699999809E+01 0. -1.
</event>
<event>
 5   0  0.1866421E-07  0.3504484E+04  0.7818609E-02  0.8112728E-01
        1   -1    0    0  501    0  0.00000000000E+00  0.00000000000E+00  0.18613114010E+04  0.18613114010E+04  0.50400001928E-02 0. -1.
       -1   -1    0    0    0  501  0.00000000000E+00  0.00000000000E+00 -0.16495641307E+04  0.16495641308E+04  0.50400001928E-02 0.  1.
    10030    2    1    2    0    0  0.00000000000E+00  0.00000000000E+00  0.21174727028E+03  0.35108755318E+04  0.35044842835E+04 0.  0.
        1    1    3    3  502    0  0.38456464163E+03  0.11903962771E+03 -0.16026080604E+04  0.16523961365E+04  0.50400001928E-02 0.  1.
       -1    1    3    3    0  502 -0.38456464163E+03 -0.11903962771E+03  0.18143553307E+04  0.18584793953E+04  0.50400001928E-02 0. -1.
</event>
<event>
 5   0  0.1908190E-07  0.3503808E+04  0.7818609E-02  0.8112888E-01
        1   -1    0    0  501    0  0.00000000000E+00  0.00000000000E+00  0.31509495715E+04  0.31509495715E+04  0.50400001928E-02 0. -1.
       -1   -1    0    0    0  501  0.00000000000E+00  0.00000000000E+00 -0.97404531499E+03  0.97404531500E+03  0.50400001928E-02 0.  1.
    10030    2    1    2    0    0  0.00000000000E+00  0.00000000000E+00  0.21769042565E+04  0.41249948865E+04  0.35038080244E+04 0.  0.
        5    1    3    3  502    0 -0.10476153591E+04 -0.81840163942E+03 -0.25482716398E+03  0.13536019199E+04  0.46999998093E+01 0.  1.
       -5    1    3    3    0  502  0.10476153591E+04  0.81840163942E+03  0.24317314205E+04  0.27713929666E+04  0.46999998093E+01 0. -1.
</event>
<event>
 5   0  0.1873457E-07  0.3522056E+04  0.7818609E-02  0.8108583E-01
        1   -1    0    0  501    0  0.00000000000E+00  0.00000000000E+00  0.14894927449E+04  0.14894927449E+04  0.50400001928E-02 0. -1.
       -1   -1    0    0    0  501  0.00000000000E+00  0.00000000000E+00 -0.20820638310E+04  0.20820638310E+04  0.50400001928E-02 0.  1.
    10030    2    1    2    0    0  0.00000000000E+00  0.00000000000E+00 -0.59257108616E+03  0.35715565759E+04  0.35220556331E+04 0.  0.
        3    1    3    3  502    0 -0.96183865935E+03 -0.91801078829E+03  0.87464740985E+03  0.15915041677E+04  0.10100000352E+00 0. -1.
       -3    1    3    3    0  502  0.96183865935E+03  0.91801078829E+03 -0.14672184960E+04  0.19800524082E+04  0.10100000352E+00 0.  1.
</event>
<event>
 5   0  0.5740827E-07  0.3491953E+04  0.7818609E-02  0.8115700E-01
        2   -1    0    0  501    0  0.00000000000E+00  0.00000000000E+00  0.19820715185E+04  0.19820715185E+04  0.25500000920E-02 0.  1.
       -2   -1    0    0    0  501  0.00000000000E+00  0.00000000000E+00 -0.15380037920E+04  0.15380037920E+04  0.25500000920E-02 0. -1.
    10030    2    1    2    0    0  0.00000000000E+00  0.00000000000E+00  0.44406772646E+03  0.35200753105E+04  0.34919527554E+04 0.  0.
        2    1    3    3  502    0 -0.39443858874E+03 -0.15911797061E+03  0.19290507678E+04  0.19753827968E+04  0.25500000920E-02 0.  1.
       -2    1    3    3    0  502  0.39443858874E+03  0.15911797061E+03 -0.14849830414E+04  0.15446925138E+04  0.25500000920E-02 0. -1.
</event>
<event>
 5   0  0.1933647E-07  0.3357641E+04  0.7818609E-02  0.8148382E-01
        1   -1    0    0  501    0  0.00000000000E+00  0.00000000000E+00  0.15384367235E+04  0.15384367235E+04  0.50400001928E-02 0.  1.
       -1   -1    0    0    0  501  0.00000000000E+00  0.00000000000E+00 -0.18320142665E+04  0.18320142665E+04  0.50400001928E-02 0. -1.
    10030    2    1    2    0    0  0.00000000000E+00  0.00000000000E+00 -0.29357754293E+03  0.33704509900E+04  0.33576408537E+04 0.  0.
        4    1    3    3  502    0 -0.20843754964E+03 -0.67966585211E+02  0.15240045171E+04  0.15396938169E+04  0.12699999809E+01 0.  1.
       -4    1    3    3    0  502  0.20843754964E+03  0.67966585211E+02 -0.18175820601E+04  0.18307571731E+04  0.12699999809E+01 0. -1.
</event>
<event>
 5   0  0.5677193E-07  0.3493499E+04  0.7818609E-02  0.8115332E-01
        2   -1    0    0  501    0  0.00000000000E+00  0.00000000000E+00  0.10919410366E+04  0.10919410366E+04  0.25500000920E-02 0.  1.
       -2   -1    0    0    0  501  0.00000000000E+00  0.00000000000E+00 -0.27942291136E+04  0.27942291136E+04  0.25500000920E-02 0. -1.
    10030    2    1    2    0    0  0.00000000000E+00  0.00000000000E+00 -0.17022880770E+04  0.38861701503E+04  0.34934987820E+04 0.  0.
        3    1    3    3  502    0  0.78087982821E+03  0.85919769118E+02 -0.25866237135E+04  0.27032901728E+04  0.10100000352E+00 0. -1.
       -3    1    3    3    0  502 -0.78087982821E+03 -0.85919769118E+02  0.88433563653E+03  0.11828799775E+04  0.10100000352E+00 0.  1.
</event>
<event>
 5   0  0.5573334E-07  0.3515918E+04  0.7818609E-02  0.8110028E-01
        2   -1    0    0  501    0  0.00000000000E+00  0.00000000000E+00  0.26254073604E+04  0.26254073604E+04  0.25500000920E-02 0.  1.
       -2   -1    0    0    0  501  0.00000000000E+00  0.00000000000E+00 -0.11771199714E+04  0.11771199714E+04  0.25500000920E-02 0. -1.
    10030    2    1    2    0    0  0.00000000000E+00  0.00000000000E+00  0.14482873891E+04  0.38025273318E+04  0.35159177675E+04 0.  0.
        4    1    3    3  502    0 -0.76683817999E+03 -0.15068960889E+04  0.20361875185E+03  0.17030087569E+04  0.12699999809E+01 0. -1.
       -4    1    3    3    0  502  0.76683817999E+03  0.15068960889E+04  0.12446686372E+04  0.20995185749E+04  0.12699999809E+01 0.  1.
</event>
<event>
 5   0  0.1866421E-07  0.3518006E+04  0.7818609E-02  0.8109536E-01
        1   -1    0    0  501    0  0.00000000000E+00  0.00000000000E+00  0.10576500845E+04  0.10576500845E+04  0.50400001928E-02 0.  1.
       -1   -1    0    0    0  501  0.00000000000E+00  0.00000000000E+00 -0.29254402740E+04  0.29254402740E+04  0.50400001928E-02 0. -1.
    10030    2    1    2    0    0  0.00000000000E+00  0.00000000000E+00 -0.18677901895E+04  0.39830903586E+04  0.35180063406E+04 0.  0.
        1    1    3    3  502    0 -0.15603443079E+04  0.72637529141E+03 -0.13449273069E+04  0.21842904761E+04  0.50400001928E-02 0. -1.
       -1    1    3    3    0  502  0.15603443079E+04 -0.72637529141E+03 -0.52286288261E+03  0.17987998825E+04  0.50400001928E-02 0.  1.
</event>
<event>
 5   0  0.5554745E-07  0.3504116E+04  0.7818609E-02  0.8112815E-01
        2   -1    0    0  501    0  0.00000000000E+00  0.00000000000E+00  0.22081936832E+04  0.22081936832E+04  0.25500000920E-02 0.  1.
       -2   -1    0    0    0  501  0.00000000000E+00  0.00000000000E+00 -0.13901443620E+04  0.13901443620E+04  0.25500000920E-02 0. -1.
    10030    2    1    2    0    0  0.00000000000E+00  0.00000000000E+00  0.81804932115E+03  0.35983380452E+04  0.35041164358E+04 0.  0.
        5    1    3    3  502    0  0.75745956682E+03 -0.20109929395E+03  0.20181630655E+04  0.21649919562E+04  0.46999998093E+01 0.  1.
       -5    1    3    3    0  502 -0.75745956682E+03  0.20109929395E+03 -0.12001137444E+04  0.14333460890E+04  0.46999998093E+01 0. -1.
</event>
<event>
 5   0  0.5707187E-07  0.3515280E+04  0.7818609E-02  0.8110178E-01
       -2   -1    0    0    0  501  0.00000000000E+00  0.00000000000E+00  0.20982924154E+04  0.20982924154E+04  0.25500000920E-02 0.  1.
        2   -1    0    0  501    0  0.00000000000E+00  0.00000000000E+00 -0.14722912920E+04  0.14722912920E+04  0.25500000920E-02 0. -1.
    10030    2    1    2    0    0  0.00000000000E+00  0.00000000000E+00  0.62600112339E+03  0.35705837074E+04  0.35152795914E+04 0.  0.
        1    1    3    3  502    0 -0.11721333764E+04  0.11968816610E+04 -0.22722714152E+03  0.16905781663E+04  0.50400001928E-02 0. -1.
       -1    1    3    3    0  502  0.11721333764E+04 -0.11968816610E+04  0.85322826491E+03  0.18800055411E+04  0.50400001928E-02 0.  1.
</event>
<event>
 5   0  0.5677193E-07  0.3486081E+04  0.7818609E-02  0.8117097E-01
       -2   -1    0    0    0  501  0.00000000000E+00  0.00000000000E+00  0.13708110774E+04  0.13708110774E+04  0.25500000920E-02 0.  1.
        2   -1    0    0  501    0  0.00000000000E+00  0.00000000000E+00 -0.22163448005E+04  0.22163448005E+04  0.25500000920E-02 0. -1.
    10030    2    1    2    0    0  0.00000000000E+00  0.00000000000E+00 -0.84553372317E+03  0.35871558779E+04  0.34860808963E+04 0.  0.
        3    1    3    3  502    0  0.25096280126E+03  0.10373900833E+03  0.13489101563E+04  0.13759733753E+04  0.10100000352E+00 0.  1.
       -3    1    3    3    0  502 -0.25096280126E+03 -0.10373900833E+03 -0.21944438795E+04  0.22111825026E+04  0.10100000352E+00 0. -1.
</event>
<event>
 5   0  0.1866421E-07  0.3614069E+04  0.7818609E-02  0.8087277E-01
       -1   -1    0    0    0  501  0.00000000000E+00  0.00000000000E+00  0.27002465919E+04  0.27002465919E+04  0.50400001928E-02 0. -1.
        1   -1    0    0  501    0  0.00000000000E+00  0.00000000000E+00 -0.12092869988E+04  0.12092869988E+04  0.50400001928E-02 0.  1.
    10030    2    1    2    0    0  0.00000000000E+00  0.00000000000E+00  0.14909595931E+04  0.39095335907E+04  0.36140686752E+04 0.  0.
        1    1    3    3  502    0  0.44960183286E+03 -0.10089418521E+04 -0.80156760383E+03  0.13647769387E+04  0.50400001928E-02 0.  1.
       -1    1    3    3    0  502 -0.44960183286E+03  0.10089418521E+04  0.22925271970E+04  0.25447566520E+04  0.50400001928E-02 0. -1.
</event>
<event>
 5   0  0.1897049E-07  0.3505646E+04  0.7818609E-02  0.8112453E-01
       -1   -1    0    0    0  501  0.00000000000E+00  0.00000000000E+00  0.12746563442E+04  0.12746563442E+04  0.50400001928E-02 0.  1.
        1   -1    0    0  501    0  0.00000000000E+00  0.00000000000E+00 -0.24103667079E+04  0.24103667079E+04  0.50400001928E-02 0. -1.
    10030    2    1    2    0    0  0.00000000000E+00  0.00000000000E+00 -0.11357103636E+04  0.36850230521E+04  0.35056464261E+04 0.  0.
        2    1    3    3  502    0  0.16962941042E+04 -0.15004752684E+03 -0.13132137309E+03  0.17079734340E+04  0.25500000920E-02 0.  1.
       -2    1    3    3    0  502 -0.16962941042E+04  0.15004752684E+03 -0.10043889905E+04  0.19770496181E+04  0.25500000920E-02 0. -1.
</event>
<event>
 5   0  0.5707187E-07  0.3503685E+04  0.7818609E-02  0.8112917E-01
       -2   -1    0    0    0  501  0.00000000000E+00  0.00000000000E+00  0.15508860771E+04  0.15508860771E+04  0.25500000920E-02 0.  1.
        2   -1    0    0  501    0  0.00000000000E+00  0.00000000000E+00 -0.19788380206E+04  0.19788380206E+04  0.25500000920E-02 0. -1.
    10030    2    1    2    0    0  0.00000000000E+00  0.00000000000E+00 -0.42795194346E+03  0.35297240977E+04  0.35036851086E+04 0.  0.
        1    1    3    3  502    0 -0.25866025757E+03 -0.10614995932E+04 -0.15935566764E+04  0.19321256160E+04  0.50400001928E-02 0. -1.
       -1    1    3    3    0  502  0.25866025757E+03  0.10614995932E+04  0.11656047329E+04  0.15975984817E+04  0.50400001928E-02 0.  1.
</event>
<event>
 5   0  0.5677193E-07  0.3502966E+04  0.7818609E-02  0.8113087E-01
        2   -1    0    0  501    0  0.00000000000E+00  0.00000000000E+00  0.10228574093E+04  0.10228574093E+04  0.25500000920E-02 0. -1.
       -2   -1    0    0    0  501  0.00000000000E+00  0.00000000000E+00 -0.29991399713E+04  0.29991399713E+04  0.25500000920E-02 0.  1.
    10030    2    1    2    0    0  0.00000000000E+00  0.00000000000E+00 -0.19762825620E+04  0.40219973805E+04  0.35029659097E+04 0.  0.
        3    1    3    3  502    0 -0.10340673603E+04 -0.13267908770E+04 -0.42797687192E+03  0.17357515807E+04  0.10100000352E+00 0. -1.
       -3    1    3    3    0  502  0.10340673603E+04  0.13267908770E+04 -0.15483056901E+04  0.22862457998E+04  0.10100000352E+00 0.  1.
</event>
<event>
 5   0  0.1908190E-07  0.3489582E+04  0.7818609E-02  0.8116263E-01
       -1   -1    0    0    0  501  0.00000000000E+00  0.00000000000E+00  0.12184782522E+04  0.12184782522E+04  0.50400001928E-02 0. -1.
        1   -1    0    0  501    0  0.00000000000E+00  0.00000000000E+00 -0.24984406413E+04  0.24984406413E+04  0.50400001928E-02 0.  1.
    10030    2    1    2    0    0  0.00000000000E+00  0.00000000000E+00 -0.12799623891E+04  0.37169188935E+04  0.34895819726E+04 0.  0.
        5    1    3    3  502    0 -0.61607091937E+03  0.33104128249E+02  0.10984078402E+04  0.12598258349E+04  0.46999998093E+01 0. -1.
       -5    1    3    3    0  502  0.61607091937E+03 -0.33104128249E+02 -0.23783702293E+04  0.24570930586E+04  0.46999998093E+01 0.  1.
</event>
<event>
 5   0  0.5677193E-07  0.3502153E+04  0.7818609E-02  0.8113280E-01
        2   -1    0    0  501    0  0.00000000000E+00  0.00000000000E+00  0.24035089320E+04  0.24035089320E+04  0.25500000920E-02 0.  1.
       -2   -1    0    0    0  501  0.00000000000E+00  0.00000000000E+00 -0.12757466956E+04  0.12757466956E+04  0.25500000920E-02 0. -1.
    10030    2    1    2    0    0  0.00000000000E+00  0.00000000000E+00  0.11277622364E+04  0.36792556277E+04  0.35021528110E+04 0.  0.
        3    1    3    3  502    0  0.35373344397E+03  0.25405518424E+03  0.23457034439E+04  0.23857904441E+04  0.10100000352E+00 0.  1.
       -3    1    3    3    0  502 -0.35373344397E+03 -0.25405518424E+03 -0.12179412075E+04  0.12934651836E+04  0.10100000352E+00 0. -1.
</event>
<event>
 5   0  0.1933647E-07  0.3480708E+04  0.7818609E-02  0.8118377E-01
        1   -1    0    0  501    0  0.00000000000E+00  0.00000000000E+00  0.21184571837E+04  0.21184571838E+04  0.50400001928E-02 0.  1.
       -1   -1    0    0    0  501  0.00000000000E+00  0.00000000000E+00 -0.14297345256E+04  0.14297345256E+04  0.50400001928E-02 0. -1.
    10030    2    1    2    0    0  0.00000000000E+00  0.00000000000E+00  0.68872265814E+03  0.35481917094E+04  0.34807076158E+04 0.  0.
        4    1    3    3  502    0 -0.41275274241E+03  0.91792547984E+03 -0.11029822178E+04  0.14931588658E+04  0.12699999809E+01 0. -1.
       -4    1    3    3    0  502  0.41275274241E+03 -0.91792547984E+03  0.17917048759E+04  0.20550328436E+04  0.12699999809E+01 0.  1.
</event>
<event>
 5   0  0.1933647E-07  0.3481123E+04  0.7818609E-02  0.8118278E-01
       -1   -1    0    0    0  501  0.00000000000E+00  0.00000000000E+00  0.15929100084E+04  0.15929100084E+04  0.50400001928E-02 0. -1.
        1   -1    0    0  501    0  0.00000000000E+00  0.00000000000E+00 -0.19018992907E+04  0.19018992907E+04  0.50400001928E-02 0.  1.
    10030    2    1    2    0    0  0.00000000000E+00  0.00000000000E+00 -0.30898928226E+03  0.34948092991E+04  0.34811230459E+04 0.  0.
        4    1    3    3  502    0 -0.11069086989E+04  0.13577506376E+03 -0.14961135136E+04  0.18660222384E+04  0.12699999809E+01 0.  1.
       -4    1    3    3    0  502  0.11069086989E+04 -0.13577506376E+03  0.11871242314E+04  0.16287870607E+04  0.12699999809E+01 0. -1.
</event>
<event>
 5   0  0.5677193E-07  0.3536314E+04  0.7818609E-02  0.8105237E-01
        2   -1    0    0  501    0  0.00000000000E+00  0.00000000000E+00  0.20140434066E+04  0.20140434066E+04  0.25500000920E-02 0. -1.
       -2   -1    0    0    0  501  0.00000000000E+00  0.00000000000E+00 -0.15522902412E+04  0.15522902412E+04  0.25500000920E-02 0.  1.
    10030    2    1    2    0    0  0.00000000000E+00  0.00000000000E+00  0.46175316538E+03  0.35663336479E+04  0.35363144236E+04 0.  0.
        3    1    3    3  502    0 -0.22375772716E+03  0.70298160003E+03 -0.13896646613E+04  0.15733462847E+04  0.10100000352E+00 0.  1.
       -3    1    3    3    0  502  0.22375772716E+03 -0.70298160003E+03  0.18514178267E+04  0.19929873632E+04  0.10100000352E+00 0. -1.
</event>
<event>
 5   0  0.1908190E-07  0.3501479E+04  0.7818609E-02  0.8113440E-01
       -1   -1    0    0    0  501  0.00000000000E+00  0.00000000000E+00  0.13342818273E+04  0.13342818273E+04  0.50400001928E-02 0. -1.
        1   -1    0    0  501    0  0.00000000000E+00  0.00000000000E+00 -0.22971825021E+04  0.22971825021E+04  0.50400001928E-02 0.  1.
    10030    2    1    2    0    0  0.00000000000E+00  0.00000000000E+00 -0.96290067475E+03  0.36314643294E+04  0.35014790399E+04 0.  0.
        5    1    3    3  502    0  0.76705469183E+03  0.86653074164E+03  0.88102231182E+03  0.14544658230E+04  0.46999998093E+01 0. -1.
       -5    1    3    3    0  502 -0.76705469183E+03 -0.86653074164E+03 -0.18439229866E+04  0.21769985064E+04  0.46999998093E+01 0.  1.
</event>
<event>
 5   0  0.1866421E-07  0.3503877E+04  0.7818609E-02  0.8112872E-01
       -1   -1    0    0    0  501  0.00000000000E+00  0.00000000000E+00  0.13941377009E+04  0.13941377009E+04  0.50400001928E-02 0. -1.
        1   -1    0    0  501    0  0.00000000000E+00  0.00000000000E+00 -0.22015675937E+04  0.22015675937E+04  0.50400001928E-02 0.  1.
    10030    2    1    2    0    0  0.00000000000E+00  0.00000000000E+00 -0.80742989281E+03  0.35957052946E+04  0.35038769291E+04 0.  0.
        1    1    3    3  502    0  0.11105331782E+04  0.57948759107E+03  0.85321079475E+03  0.15156049843E+04  0.50400001928E-02 0. -1.
       -1    1    3    3    0  502 -0.11105331782E+04 -0.57948759107E+03 -0.16606406876E+04  0.20801003104E+04  0.50400001928E-02 0.  1.
</event>
<event>
 5   0  0.1933647E-07  0.3508685E+04  0.7818609E-02  0.8111735E-01
        1   -1    0    0  501    0  0.00000000000E+00  0.00000000000E+00  0.17901093983E+04  0.17901093983E+04  0.50400001928E-02 0. -1.
       -1   -1    0    0    0  501  0.00000000000E+00  0.00000000000E+00 -0.17192902477E+04  0.17192902477E+04  0.50400001928E-02 0.  1.
    10030    2    1    2    0    0  0.00000000000E+00  0.00000000000E+00  0.70819150648E+02  0.35093996460E+04  0.35086850134E+04 0.  0.
        4    1    3    3  502    0 -0.90938097207E+03  0.76487898890E+03  0.13262933780E+04  0.17807496616E+04  0.12699999809E+01 0. -1.
       -4    1    3    3    0  502  0.90938097207E+03 -0.76487898890E+03 -0.12554742273E+04  0.17286499844E+04  0.12699999809E+01 0.  1.
</event>
<event>
 5   0  0.5740827E-07  0.3533460E+04  0.7818609E-02  0.8105906E-01
        2   -1    0    0  501    0  0.00000000000E+00  0.00000000000E+00  0.21015707386E+04  0.21015707386E+04  0.25500000920E-02 0.  1.
       -2   -1    0    0    0  501  0.00000000000E+00  0.00000000000E+00 -0.14852387627E+04  0.14852387627E+04  0.25500000920E-02 0. -1.
    10030    2    1    2    0    0  0.00000000000E+00  0.00000000000E+00  0.61633197586E+03  0.35868095013E+04  0.35334596778E+04 0.  0.
        2    1    3    3  502    0  0.27750224647E+03 -0.77276501481E+03 -0.12797936093E+04  0.15205410048E+04  0.25500000920E-02 0. -1.
       -2    1    3    3    0  502 -0.27750224647E+03  0.77276501481E+03  0.18961255852E+04  0.20662684965E+04  0.25500000920E-02 0.  1.
</event>
<event>
 5   0  0.5740827E-07  0.3518862E+04  0.7818609E-02  0.8109334E-01
        2   -1    0    0  501    0  0.00000000000E+00  0.00000000000E+00  0.25125946172E+04  0.25125946172E+04  0.25500000920E-02 0.  1.
       -2   -1    0    0    0  501  0.00000000000E+00  0.00000000000E+00 -0.12320320062E+04  0.12320320062E+04  0.25500000920E-02 0. -1.
    10030    2    1    2    0    0  0.00000000000E+00  0.00000000000E+00  0.12805626110E+04  0.37446266234E+04  0.35188617404E+04 0.  0.
        2    1    3    3  502    0 -0.80292890680E+03  0.80990496747E+03 -0.78543538309E+03  0.13847561615E+04  0.25500000920E-02 0. -1.
       -2    1    3    3    0  502  0.80292890680E+03 -0.80990496747E+03  0.20659979940E+04  0.23598704619E+04  0.25500000920E-02 0.  1.
</event>
<event>
 5   0  0.5740827E-07  0.3473888E+04  0.7818609E-02  0.8120006E-01
       -2   -1    0    0    0  501  0.00000000000E+00  0.00000000000E+00  0.14818118523E+04  0.14818118523E+04  0.25500000920E-02 0. -1.
        2   -1    0    0  501    0  0.00000000000E+00  0.00000000000E+00 -0.20360035205E+04  0.20360035205E+04  0.25500000920E-02 0.  1.
    10030    2    1    2    0    0  0.00000000000E+00  0.00000000000E+00 -0.55419166815E+03  0.35178153728E+04  0.34738878209E+04 0.  0.
        2    1    3    3  502    0  0.80599175756E+03 -0.13708825847E+03 -0.18289750615E+04  0.20033885493E+04  0.25500000920E-02 0.  1.
       -2    1    3    3    0  502 -0.80599175756E+03  0.13708825847E+03  0.12747833934E+04  0.15144268235E+04  0.25500000920E-02 0. -1.
</event>
<event>
 5   0  0.1897049E-07  0.3512627E+04  0.7818609E-02  0.8110804E-01
       -1   -1    0    0    0  501  0.00000000000E+00  0.00000000000E+00  0.16278514010E+04  0.16278514010E+04  0.50400001928E-02 0. -1.
        1   -1    0    0  501    0  0.00000000000E+00  0.00000000000E+00 -0.18949133902E+04  0.18949133902E+04  0.50400001928E-02 0.  1.
    10030    2    1    2    0    0  0.00000000000E+00  0.00000000000E+00 -0.26706198925E+03  0.35227647912E+04  0.35126271746E+04 0.  0.
        2    1    3    3  502    0 -0.12095634301E+04 -0.85700187569E+03  0.81106922183E+03  0.16897719340E+04  0.25500000920E-02 0. -1.
       -2    1    3    3    0  502  0.12095634301E+04  0.85700187569E+03 -0.10781312111E+04  0.18329928572E+04  0.25500000920E-02 0.  1.
</event>
<event>
 5   0  0.1933647E-07  0.3504737E+04  0.7818609E-02  0.8112668E-01
        1   -1    0    0  501    0  0.00000000000E+00  0.00000000000E+00  0.18987588475E+04  0.18987588475E+04  0.50400001928E-02 0.  1.
       -1   -1    0    0    0  501  0.00000000000E+00  0.00000000000E+00 -0.16172643539E+04  0.16172643539E+04  0.50400001928E-02 0. -1.
    10030    2    1    2    0    0  0.00000000000E+00  0.00000000000E+00  0.28149449365E+03  0.35160232014E+04  0.35047367951E+04 0.  0.
        4    1    3    3  502    0 -0.35193442344E+03 -0.52965760416E+03 -0.14974222758E+04  0.16268589678E+04  0.12699999809E+01 0. -1.
       -4    1    3    3    0  502  0.35193442344E+03  0.52965760416E+03  0.17789167694E+04  0.18891642336E+04  0.12699999809E+01 0.  1.
</event>
<event>
 5   0  0.1873457E-07  0.3555498E+04  0.7818609E-02  0.8100762E-01
        1   -1    0    0  501    0  0.00000000000E+00  0.00000000000E+00  0.19308433835E+04  0.19308433836E+04  0.50400001928E-02 0. -1.
       -1   -1    0    0    0  501  0.00000000000E+00  0.00000000000E+00 -0.16367930770E+04  0.16367930770E+04  0.50400001928E-02 0.  1.
    10030    2    1    2    0    0  0.00000000000E+00  0.00000000000E+00  0.29405030658E+03  0.35676364605E+04  0.35554977614E+04 0.  0.
        3    1    3    3  502    0 -0.40848357923E+03 -0.11423646005E+04  0.14508980676E+04  0.18912855225E+04  0.10100000352E+00 0. -1.
       -3    1    3    3    0  502  0.40848357923E+03  0.11423646005E+04 -0.11568477610E+04  0.16763509380E+04  0.10100000352E+00 0.  1.
</event>
<event>
 5   0  0.5554745E-07  0.3493053E+04  0.7818609E-02  0.8115438E-01
        2   -1    0    0  501    0  0.00000000000E+00  0.00000000000E+00  0.18988039105E+04  0.18988039105E+04  0.25500000920E-02 0. -1.
       -2   -1    0    0    0  501  0.00000000000E+00  0.00000000000E+00 -0.16064612002E+04  0.16064612002E+04  0.25500000920E-02 0.  1.
    10030    2    1    2    0    0  0.00000000000E+00  0.00000000000E+00  0.29234271022E+03  0.35052651107E+04  0.34930529965E+04 0.  0.
        5    1    3    3  502    0 -0.70110751209E+03  0.38873004144E+03 -0.14109202735E+04  0.16227695144E+04  0.46999998093E+01 0.  1.
       -5    1    3    3    0  502  0.70110751209E+03 -0.38873004144E+03  0.17032629837E+04  0.18824955963E+04  0.46999998093E+01 0. -1.
</event>
<event>
 5   0  0.1933647E-07  0.3481201E+04  0.7818609E-02  0.8118259E-01
       -1   -1    0    0    0  501  0.00000000000E+00  0.00000000000E+00  0.26632310301E+04  0.26632310301E+04  0.50400001928E-02 0. -1.
        1   -1    0    0  501    0  0.00000000000E+00  0.00000000000E+00 -0.11375996950E+04  0.11375996950E+04  0.50400001928E-02 0.  1.
    10030    2    1    2    0    0  0.00000000000E+00  0.00000000000E+00  0.15256313351E+04  0.38008307251E+04  0.34812014061E+04 0.  0.
        4    1    3    3  502    0  0.10535659599E+04 -0.37651145405E+03  0.22186312086E+04  0.24847712490E+04  0.12699999809E+01 0. -1.
       -4    1    3    3    0  502 -0.10535659599E+04  0.37651145405E+03 -0.69299987354E+03  0.13160594761E+04  0.12699999809E+01 0.  1.
</event>
<event>
 5   0  0.5554745E-07  0.3506093E+04  0.7818609E-02  0.8112348E-01
       -2   -1    0    0    0  501  0.00000000000E+00  0.00000000000E+00  0.19433195363E+04  0.19433195363E+04  0.25500000920E-02 0.  1.
        2   -1    0    0  501    0  0.00000000000E+00  0.00000000000E+00 -0.15814030250E+04  0.15814030250E+04  0.25500000920E-02 0. -1.
    10030    2    1    2    0    0  0.00000000000E+00  0.00000000000E+00  0.36191651134E+03  0.35247225613E+04  0.35060926361E+04 0.  0.
        5    1    3    3  502    0  0.66397538638E+03 -0.12447220473E+04 -0.86522161369E+03  0.16549401256E+04  0.46999998093E+01 0. -1.
       -5    1    3    3    0  502 -0.66397538638E+03  0.12447220473E+04  0.12271381250E+04  0.18697824356E+04  0.46999998093E+01 0.  1.
</event>
<event>
 5   0  0.1933647E-07  0.3091806E+04  0.7818609E-02  0.8217990E-01
        1   -1    0    0  501    0  0.00000000000E+00  0.00000000000E+00  0.17032588906E+04  0.17032588906E+04  0.50400001928E-02 0. -1.
       -1   -1    0    0    0  501  0.00000000000E+00  0.00000000000E+00 -0.14030847022E+04  0.14030847022E+04  0.50400001928E-02 0.  1.
    10030    2    1    2    0    0  0.00000000000E+00  0.00000000000E+00  0.30017418846E+03  0.31063435928E+04  0.30918062638E+04 0.  0.
        4    1    3    3  502    0 -0.14008291591E+04 -0.26322229360E+03  0.75140480200E+03  0.16112787152E+04  0.12699999809E+01 0.  1.
       -4    1    3    3    0  502  0.14008291591E+04  0.26322229360E+03 -0.45123061354E+03  0.14950648776E+04  0.12699999809E+01 0. -1.
</event>
<event>
 5   0  0.1823000E-07  0.3523529E+04  0.7818609E-02  0.8108236E-01
        3   -1    0    0  501    0  0.00000000000E+00  0.00000000000E+00  0.21302342727E+04  0.21302342750E+04  0.10100000352E+00 0.  1.
       -3   -1    0    0    0  501  0.00000000000E+00  0.00000000000E+00 -0.14570293813E+04  0.14570293848E+04  0.10100000352E+00 0. -1.
    10030    2    1    2    0    0  0.00000000000E+00  0.00000000000E+00  0.67320489133E+03  0.35872636599E+04  0.35235288760E+04 0.  0.
        4    1    3    3  502    0  0.85255877598E+03 -0.29486080973E+03 -0.12040491319E+04  0.15045049978E+04  0.12699999809E+01 0. -1.
       -4    1    3    3    0  502 -0.85255877598E+03  0.29486080973E+03  0.18772540232E+04  0.20827586620E+04  0.12699999809E+01 0.  1.
</event>
<event>
 5   0  0.1873457E-07  0.3550912E+04  0.7818609E-02  0.8101829E-01
        1   -1    0    0  501    0  0.00000000000E+00  0.00000000000E+00  0.17827579720E+04  0.17827579720E+04  0.50400001928E-02 0. -1.
       -1   -1    0    0    0  501  0.00000000000E+00  0.00000000000E+00 -0.17681838081E+04  0.17681838081E+04  0.50400001928E-02 0.  1.
    10030    2    1    2    0    0  0.00000000000E+00  0.00000000000E+00  0.14574163874E+02  0.35509417801E+04  0.35509118716E+04 0.  0.
        3    1    3    3  502    0  0.10939743102E+04 -0.12341891875E+04  0.66474301886E+03  0.17781692927E+04  0.10100000352E+00 0. -1.
       -3    1    3    3    0  502 -0.10939743102E+04  0.12341891875E+04 -0.65016885498E+03  0.17727724875E+04  0.10100000352E+00 0.  1.
</event>
<event>
 5   0  0.1873457E-07  0.3480356E+04  0.7818609E-02  0.8118461E-01
        1   -1    0    0  501    0  0.00000000000E+00  0.00000000000E+00  0.20101179760E+04  0.20101179760E+04  0.50400001928E-02 0.  1.
       -1   -1    0    0    0  501  0.00000000000E+00  0.00000000000E+00 -0.15064887096E+04  0.15064887096E+04  0.50400001928E-02 0. -1.
    10030    2    1    2    0    0  0.00000000000E+00  0.00000000000E+00  0.50362926639E+03  0.35166066856E+04  0.34803563242E+04 0.  0.
        3    1    3    3  502    0  0.12969287141E+04 -0.10757042715E+04  0.69114944246E+03  0.18212224826E+04  0.10100000352E+00 0.  1.
       -3    1    3    3    0  502 -0.12969287141E+04  0.10757042715E+04 -0.18752017607E+03  0.16953842030E+04  0.10100000352E+00 0. -1.
</event>
<event>
 5   0  0.5573334E-07  0.3519470E+04  0.7818609E-02  0.8109191E-01
        2   -1    0    0  501    0  0.00000000000E+00  0.00000000000E+00  0.21684059633E+04  0.21684059633E+04  0.25500000920E-02 0. -1.
       -2   -1    0    0    0  501  0.00000000000E+00  0.00000000000E+00 -0.14280846648E+04  0.14280846648E+04  0.25500000920E-02 0.  1.
    10030    2    1    2    0    0  0.00000000000E+00  0.00000000000E+00  0.74032129851E+03  0.35964906280E+04  0.35194700187E+04 0.  0.
        4    1    3    3  502    0  0.12415972036E+04  0.10673085198E+04  0.10292201539E+04  0.19339097265E+04  0.12699999809E+01 0. -1.
       -4    1    3    3    0  502 -0.12415972036E+04 -0.10673085198E+04 -0.28889885534E+03  0.16625809015E+04  0.12699999809E+01 0.  1.
</event>
<event>
 5   0  0.5740827E-07  0.3441275E+04  0.7818609E-02  0.8127850E-01
        2   -1    0    0  501    0  0.00000000000E+00  0.00000000000E+00  0.20687487727E+04  0.20687487727E+04  0.25500000920E-02 0.  1.
       -2   -1    0    0    0  501  0.00000000000E+00  0.00000000000E+00 -0.14311036735E+04  0.14311036735E+04  0.25500000920E-02 0. -1.
    10030    2    1    2    0    0  0.00000000000E+00  0.00000000000E+00  0.63764509919E+03  0.34998524461E+04  0.34412753264E+04 0.  0.
        2    1    3    3  502    0  0.63088557367E+03 -0.10698780174E+04 -0.89221886323E+03  0.15292841721E+04  0.25500000920E-02 0. -1.
       -2    1    3    3    0  502 -0.63088557367E+03  0.10698780174E+04  0.15298639624E+04  0.19705682740E+04  0.25500000920E-02 0.  1.
</event>
<event>
 5   0  0.1873457E-07  0.3533010E+04  0.7818609E-02  0.8106011E-01
        1   -1    0    0  501    0  0.00000000000E+00  0.00000000000E+00  0.27592857489E+04  0.27592857489E+04  0.50400001928E-02 0. -1.
       -1   -1    0    0    0  501  0.00000000000E+00  0.00000000000E+00 -0.11309231565E+04  0.11309231565E+04  0.50400001928E-02 0.  1.
    10030    2    1    2    0    0  0.00000000000E+00  0.00000000000E+00  0.16283625923E+04  0.38902089054E+04  0.35330101324E+04 0.  0.
        3    1    3    3  502    0  0.34805608511E+03 -0.13364183310E+04  0.20270869478E+04  0.24528021726E+04  0.10100000352E+00 0.  1.
       -3    1    3    3    0  502 -0.34805608511E+03  0.13364183310E+04 -0.39872435543E+03  0.14374067328E+04  0.10100000352E+00 0. -1.
</event>
<event>
 5   0  0.5677193E-07  0.3504461E+04  0.7818609E-02  0.8112734E-01
        2   -1    0    0  501    0  0.00000000000E+00  0.00000000000E+00  0.21871224348E+04  0.21871224348E+04  0.25500000920E-02 0.  1.
       -2   -1    0    0    0  501  0.00000000000E+00  0.00000000000E+00 -0.14038132650E+04  0.14038132650E+04  0.25500000920E-02 0. -1.
    10030    2    1    2    0    0  0.00000000000E+00  0.00000000000E+00  0.78330916983E+03  0.35909356998E+04  0.35044608636E+04 0.  0.
        3    1    3    3  502    0  0.11106143741E+04 -0.11676395420E+04  0.10967215952E+04  0.19492677229E+04  0.10100000352E+00 0.  1.
       -3    1    3    3    0  502 -0.11106143741E+04  0.11676395420E+04 -0.31341242538E+03  0.16416679769E+04  0.10100000352E+00 0. -1.
</event>
<event>
 5   0  0.1866421E-07  0.3483340E+04  0.7818609E-02  0.8117749E-01
        1   -1    0    0  501    0  0.00000000000E+00  0.00000000000E+00  0.16703328447E+04  0.16703328447E+04  0.50400001928E-02 0. -1.
       -1   -1    0    0    0  501  0.00000000000E+00  0.00000000000E+00 -0.18160541836E+04  0.18160541836E+04  0.50400001928E-02 0.  1.
    10030    2    1    2    0    0  0.00000000000E+00  0.00000000000E+00 -0.14572133893E+03  0.34863870283E+04  0.34833403225E+04 0.  0.
        1    1    3    3  502    0  0.32125225335E+03 -0.15586209850E+03  0.16333059394E+04  0.16718804669E+04  0.50400001928E-02 0. -1.
       -1    1    3    3    0  502 -0.32125225335E+03  0.15586209850E+03 -0.17790272783E+04  0.18145065613E+04  0.50400001928E-02 0.  1.
</event>
<event>
 5   0  0.1933647E-07  0.3488805E+04  0.7818609E-02  0.8116448E-01
       -1   -1    0    0    0  501  0.00000000000E+00  0.00000000000E+00  0.12964869605E+04  0.12964869605E+04  0.50400001928E-02 0.  1.
        1   -1    0    0  501    0  0.00000000000E+00  0.00000000000E+00 -0.23470662981E+04  0.23470662981E+04  0.50400001928E-02 0. -1.
    10030    2    1    2    0    0  0.00000000000E+00  0.00000000000E+00 -0.10505793376E+04  0.36435532586E+04  0.34888054408E+04 0.  0.
        4    1    3    3  502    0 -0.15349223468E+04  0.23210942072E+03  0.30566422744E+03  0.15821800235E+04  0.12699999809E+01 0.  1.
       -4    1    3    3    0  502  0.15349223468E+04 -0.23210942072E+03 -0.13562435650E+04  0.20613732351E+04  0.12699999809E+01 0. -1.
</event>
<event>
 5   0  0.1908190E-07  0.3521720E+04  0.7818609E-02  0.8108662E-01
        1   -1    0    0  501    0  0.00000000000E+00  0.00000000000E+00  0.10184340086E+04  0.10184340086E+04  0.50400001928E-02 0. -1.
       -1   -1    0    0    0  501  0.00000000000E+00  0.00000000000E+00 -0.30445049432E+04  0.30445049432E+04  0.50400001928E-02 0.  1.
    10030    2    1    2    0    0  0.00000000000E+00  0.00000000000E+00 -0.20260709346E+04  0.40629389519E+04  0.35217196786E+04 0.  0.
        5    1    3    3  502    0  0.11065852459E+04  0.13659989994E+04 -0.11291000210E+04  0.20893475345E+04  0.46999998093E+01 0.  1.
       -5    1    3    3    0  502 -0.11065852459E+04 -0.13659989994E+04 -0.89697091361E+03  0.19735914173E+04  0.46999998093E+01 0. -1.
</event>
<event>
 5   0  0.5677193E-07  0.3486622E+04  0.7818609E-02  0.8116968E-01
       -2   -1    0    0    0  501  0.00000000000E+00  0.00000000000E+00  0.13833318929E+04  0.13833318929E+04  0.25500000920E-02 0.  1.
        2   -1    0    0  501    0  0.00000000000E+00  0.00000000000E+00 -0.21969665538E+04  0.21969665538E+04  0.25500000920E-02 0. -1.
    10030    2    1    2    0    0  0.00000000000E+00  0.00000000000E+00 -0.81363466084E+03  0.35802984467E+04  0.34866223779E+04 0.  0.
        3    1    3    3  502    0  0.53754812436E+03  0.16320137755E+04 -0.70918910718E+03  0.18588642095E+04  0.10100000352E+00 0. -1.
       -3    1    3    3    0  502 -0.53754812436E+03 -0.16320137755E+04 -0.10444555366E+03  0.17214342373E+04  0.10100000352E+00 0.  1.
</event>
<event>
 5   0  0.1866421E-07  0.3560296E+04  0.7818609E-02  0.8099647E-01
       -1   -1    0    0    0  501  0.00000000000E+00  0.00000000000E+00  0.15866480958E+04  0.15866480959E+04  0.50400001928E-02 0.  1.
        1   -1    0    0  501    0  0.00000000000E+00  0.00000000000E+00 -0.19972465002E+04  0.19972465002E+04  0.50400001928E-02 0. -1.
    10030    2    1    2    0    0  0.00000000000E+00  0.00000000000E+00 -0.41059840435E+03  0.35838945961E+04  0.35602962554E+04 0.  0.
        1    1    3    3  502    0  0.15795077121E+04  0.29176422542E+03  0.56722244258E+03  0.17034413037E+04  0.50400001928E-02 0.  1.
       -1    1    3    3    0  502 -0.15795077121E+04 -0.29176422542E+03 -0.97782084693E+03  0.18804532923E+04  0.50400001928E-02 0. -1.
</event>
<event>
 5   0  0.5707187E-07  0.3486619E+04  0.7818609E-02  0.8116968E-01
       -2   -1    0    0    0  501  0.00000000000E+00  0.00000000000E+00  0.14418333649E+04  0.14418333649E+04  0.25500000920E-02 0. -1.
        2   -1    0    0  501    0  0.00000000000E+00  0.00000000000E+00 -0.21078219427E+04  0.21078219427E+04  0.25500000920E-02 0.  1.
    10030    2    1    2    0    0  0.00000000000E+00  0.00000000000E+00 -0.66598857779E+03  0.35496553076E+04  0.34866189951E+04 0.  0.
        1    1    3    3  502    0 -0.13613174641E+04  0.92307789559E+03  0.25526713030E+03  0.16644576736E+04  0.50400001928E-02 0. -1.
       -1    1    3    3    0  502  0.13613174641E+04 -0.92307789559E+03 -0.92125570809E+03  0.18851976340E+04  0.50400001928E-02 0.  1.
</event>
<event>
 5   0  0.1933647E-07  0.3505019E+04  0.7818609E-02  0.8112602E-01
        1   -1    0    0  501    0  0.00000000000E+00  0.00000000000E+00  0.20717982084E+04  0.20717982084E+04  0.50400001928E-02 0. -1.
       -1   -1    0    0    0  501  0.00000000000E+00  0.00000000000E+00 -0.14824266329E+04  0.14824266329E+04  0.50400001928E-02 0.  1.
    10030    2    1    2    0    0  0.00000000000E+00  0.00000000000E+00  0.58937157544E+03  0.35542248413E+04  0.35050185975E+04 0.  0.
        4    1    3    3  502    0 -0.44333776884E+03 -0.11655409651E+04  0.15433349315E+04  0.19841669391E+04  0.12699999809E+01 0. -1.
       -4    1    3    3    0  502  0.44333776884E+03  0.11655409651E+04 -0.95396335604E+03  0.15700579022E+04  0.12699999809E+01 0.  1.
</event>
<event>
 5   0  0.1908190E-07  0.3474649E+04  0.7818609E-02  0.8119824E-01
       -1   -1    0    0    0  501  0.00000000000E+00  0.00000000000E+00  0.14405621797E+04  0.14405621798E+04  0.50400001928E-02 0. -1.
        1   -1    0    0  501    0  0.00000000000E+00  0.00000000000E+00 -0.20952215021E+04  0.20952215021E+04  0.50400001928E-02 0.  1.
    10030    2    1    2    0    0  0.00000000000E+00  0.00000000000E+00 -0.65465932234E+03  0.35357836819E+04  0.34746492509E+04 0.  0.
        5    1    3    3  502    0 -0.10382147533E+04 -0.10215115697E+04  0.63638060767E+03  0.15894584388E+04  0.46999998093E+01 0. -1.
       -5    1    3    3    0  502  0.10382147533E+04  0.10215115697E+04 -0.12910399300E+04  0.19463252431E+04  0.46999998093E+01 0.  1.
</event>
<event>
 5   0  0.1897049E-07  0.3447648E+04  0.7818609E-02  0.8126310E-01
        1   -1    0    0  501    0  0.00000000000E+00  0.00000000000E+00  0.18647812062E+04  0.18647812062E+04  0.50400001928E-02 0.  1.
       -1   -1    0    0    0  501  0.00000000000E+00  0.00000000000E+00 -0.15935214208E+04  0.15935214209E+04  0.50400001928E-02 0. -1.
    10030    2    1    2    0    0  0.00000000000E+00  0.00000000000E+00  0.27125978532E+03  0.34583026270E+04  0.34476477762E+04 0.  0.
        2    1    3    3  502    0  0.38359753804E+03  0.87994310783E+03 -0.13006197766E+04  0.16164958235E+04  0.25500000920E-02 0. -1.
       -2    1    3    3    0  502 -0.38359753804E+03 -0.87994310783E+03  0.15718795619E+04  0.18418068035E+04  0.25500000920E-02 0.  1.
</event>
<event>
 5   0  0.1933647E-07  0.3486120E+04  0.7818609E-02  0.8117087E-01
        1   -1    0    0  501    0  0.00000000000E+00  0.00000000000E+00  0.15731702252E+04  0.15731702252E+04  0.50400001928E-02 0.  1.
       -1   -1    0    0    0  501  0.00000000000E+00  0.00000000000E+00 -0.19312967574E+04  0.19312967574E+04  0.50400001928E-02 0. -1.
    10030    2    1    2    0    0  0.00000000000E+00  0.00000000000E+00 -0.35812653221E+03  0.35044669826E+04  0.34861202244E+04 0.  0.
        4    1    3    3  502    0  0.24626284046E+03  0.13393265080E+04  0.91469595137E+03  0.16404606603E+04  0.12699999809E+01 0.  1.
       -4    1    3    3    0  502 -0.24626284046E+03 -0.13393265080E+04 -0.12728224836E+04  0.18640063222E+04  0.12699999809E+01 0. -1.
</event>
<event>
 5   0  0.1908190E-07  0.3497492E+04  0.7818609E-02  0.8114385E-01
        1   -1    0    0  501    0  0.00000000000E+00  0.00000000000E+00  0.19855627557E+04  0.19855627557E+04  0.50400001928E-02 0.  1.
       -1   -1    0    0    0  501  0.00000000000E+00  0.00000000000E+00 -0.15401741559E+04  0.15401741559E+04  0.50400001928E-02 0. -1.
    10030    2    1    2    0    0  0.00000000000E+00  0.00000000000E+00  0.44538859987E+03  0.35257369116E+04  0.34974919249E+04 0.  0.
        5    1    3    3  502    0  0.34625731654E+03  0.15592883164E+04  0.94035375746E+03  0.18535267633E+04  0.46999998093E+01 0.  1.
       -5    1    3    3    0  502 -0.34625731654E+03 -0.15592883164E+04 -0.49496515759E+03  0.16722101483E+04  0.46999998093E+01 0. -1.
</event>
<event>
 5   0  0.5740827E-07  0.3494660E+04  0.7818609E-02  0.8115057E-01
       -2   -1    0    0    0  501  0.00000000000E+00  0.00000000000E+00  0.19129361728E+04  0.19129361728E+04  0.25500000920E-02 0.  1.
        2   -1    0    0  501    0  0.00000000000E+00  0.00000000000E+00 -0.15960610206E+04  0.15960610206E+04  0.25500000920E-02 0. -1.
    10030    2    1    2    0    0  0.00000000000E+00  0.00000000000E+00  0.31687515217E+03  0.35089971934E+04  0.34946604186E+04 0.  0.
        2    1    3    3  502    0  0.16543157033E+04 -0.22757617092E+03 -0.35807678084E+03  0.17078554800E+04  0.25500000920E-02 0.  1.
       -2    1    3    3    0  502 -0.16543157033E+04  0.22757617092E+03  0.67495193301E+03  0.18011417134E+04  0.25500000920E-02 0. -1.
</event>
<event>
 5   0  0.1866421E-07  0.3739833E+04  0.7818609E-02  0.8059191E-01
       -1   -1    0    0    0  501  0.00000000000E+00  0.00000000000E+00  0.13954852715E+04  0.13954852716E+04  0.50400001928E-02 0. -1.
        1   -1    0    0  501    0  0.00000000000E+00  0.00000000000E+00 -0.25056433555E+04  0.25056433555E+04  0.50400001928E-02 0.  1.
    10030    2    1    2    0    0  0.00000000000E+00  0.00000000000E+00 -0.11101580839E+04  0.39011286270E+04  0.37398333644E+04 0.  0.
        1    1    3    3  502    0  0.15870900042E+04  0.58202445880E+03  0.27875970894E+03  0.17132758469E+04  0.50400001928E-02 0. -1.
       -1    1    3    3    0  502 -0.15870900042E+04 -0.58202445880E+03 -0.13889177928E+04  0.21878527801E+04  0.50400001928E-02 0.  1.
</event>
<event>
 5   0  0.1866421E-07  0.3498652E+04  0.7818609E-02  0.8114110E-01
        1   -1    0    0  501    0  0.00000000000E+00  0.00000000000E+00  0.14208045726E+04  0.14208045726E+04  0.50400001928E-02 0.  1.
       -1   -1    0    0    0  501  0.00000000000E+00  0.00000000000E+00 -0.21538086105E+04  0.21538086105E+04  0.50400001928E-02 0. -1.
    10030    2    1    2    0    0  0.00000000000E+00  0.00000000000E+00 -0.73300403791E+03  0.35746131831E+04  0.34986518102E+04 0.  0.
        1    1    3    3  502    0  0.26851360035E+03 -0.11822015800E+04  0.92200595349E+03  0.15230873605E+04  0.50400001928E-02 0.  1.
       -1    1    3    3    0  502 -0.26851360035E+03  0.11822015800E+04 -0.16550099914E+04  0.20515258226E+04  0.50400001928E-02 0. -1.
</event>
<event>
 5   0  0.1866421E-07  0.3453001E+04  0.7818609E-02  0.8125019E-01
       -1   -1    0    0    0  501  0.00000000000E+00  0.00000000000E+00  0.10888115028E+04  0.10888115028E+04  0.50400001928E-02 0. -1.
        1   -1    0    0  501    0  0.00000000000E+00  0.00000000000E+00 -0.27376672524E+04  0.27376672524E+04  0.50400001928E-02 0.  1.
    10030    2    1    2    0    0  0.00000000000E+00  0.00000000000E+00 -0.16488557495E+04  0.38264787552E+04  0.34530007792E+04 0.  0.
        1    1    3    3  502    0 -0.84305306400E+03  0.62346588124E+03 -0.23444085090E+04  0.25682093822E+04  0.50400001928E-02 0.  1.
       -1    1    3    3    0  502  0.84305306400E+03 -0.62346588124E+03  0.69555275946E+03  0.12582693730E+04  0.50400001928E-02 0. -1.
</event>
<event>
 5   0  0.5573334E-07  0.3498428E+04  0.7818609E-02  0.8114162E-01
       -2   -1    0    0    0  501  0.00000000000E+00  0.00000000000E+00  0.15705163430E+04  0.15705163430E+04  0.25500000920E-02 0. -1.
        2   -1    0    0  501    0  0.00000000000E+00  0.00000000000E+00 -0.19482448895E+04  0.19482448895E+04  0.25500000920E-02 0.  1.
    10030    2    1    2    0    0  0.00000000000E+00  0.00000000000E+00 -0.37772854650E+03  0.35187612326E+04  0.34984284696E+04 0.  0.
        4    1    3    3  502    0  0.11995947662E+04 -0.12640145626E+04 -0.36363777052E+02  0.17430101419E+04  0.12699999809E+01 0.  1.
       -4    1    3    3    0  502 -0.11995947662E+04  0.12640145626E+04 -0.34136476944E+03  0.17757510907E+04  0.12699999809E+01 0. -1.
</event>
<event>
 5   0  0.1873457E-07  0.3507974E+04  0.7818609E-02  0.8111903E-01
       -1   -1    0    0    0  501  0.00000000000E+00  0.00000000000E+00  0.12793685350E+04  0.12793685350E+04  0.50400001928E-02 0. -1.
        1   -1    0    0  501    0  0.00000000000E+00  0.00000000000E+00 -0.24046792041E+04  0.24046792041E+04  0.50400001928E-02 0.  1.
    10030    2    1    2    0    0  0.00000000000E+00  0.00000000000E+00 -0.11253106691E+04  0.36840477391E+04  0.35079742932E+04 0.  0.
        3    1    3    3  502    0  0.12189450988E+04  0.98558345755E+03 -0.13890899802E+04  0.20944624344E+04  0.10100000352E+00 0.  1.
       -3    1    3    3    0  502 -0.12189450988E+04 -0.98558345755E+03  0.26377931120E+03  0.15895853047E+04  0.10100000352E+00 0. -1.
</event>
<event>
 5   0  0.5573334E-07  0.3640823E+04  0.7818609E-02  0.8081204E-01
       -2   -1    0    0    0  501  0.00000000000E+00  0.00000000000E+00  0.26825079357E+04  0.26825079357E+04  0.25500000920E-02 0.  1.
        2   -1    0    0  501    0  0.00000000000E+00  0.00000000000E+00 -0.12353728926E+04  0.12353728926E+04  0.25500000920E-02 0. -1.
    10030    2    1    2    0    0  0.00000000000E+00  0.00000000000E+00  0.14471350431E+04  0.39178808282E+04  0.36408227575E+04 0.  0.
        4    1    3    3  502    0 -0.17088001026E+03 -0.99777251304E+03  0.23516950963E+04  0.25603166609E+04  0.12699999809E+01 0.  1.
       -4    1    3    3    0  502  0.17088001026E+03  0.99777251304E+03 -0.90456005316E+03  0.13575641673E+04  0.12699999809E+01 0. -1.
</event>
<event>
 5   0  0.5677193E-07  0.3517857E+04  0.7818609E-02  0.8109571E-01
        2   -1    0    0  501    0  0.00000000000E+00  0.00000000000E+00  0.23144601696E+04  0.23144601696E+04  0.25500000920E-02 0.  1.
       -2   -1    0    0    0  501  0.00000000000E+00  0.00000000000E+00 -0.13367388469E+04  0.13367388469E+04  0.25500000920E-02 0. -1.
    10030    2    1    2    0    0  0.00000000000E+00  0.00000000000E+00  0.97772132274E+03  0.36511990165E+04  0.35178566305E+04 0.  0.
        3    1    3    3  502    0 -0.16192677289E+04  0.47958862102E+03  0.99922644821E+03  0.19622657129E+04  0.10100000352E+00 0. -1.
       -3    1    3    3    0  502  0.16192677289E+04 -0.47958862102E+03 -0.21505125468E+02  0.16889333035E+04  0.10100000352E+00 0.  1.
</event>
<event>
 5   0  0.5707187E-07  0.3357443E+04  0.7818609E-02  0.8148431E-01
        2   -1    0    0  501    0  0.00000000000E+00  0.00000000000E+00  0.21874844497E+04  0.21874844497E+04  0.25500000920E-02 0. -1.
       -2   -1    0    0    0  501  0.00000000000E+00  0.00000000000E+00 -0.12882857802E+04  0.12882857802E+04  0.25500000920E-02 0.  1.
    10030    2    1    2    0    0  0.00000000000E+00  0.00000000000E+00  0.89919866958E+03  0.34757702299E+04  0.33574425451E+04 0.  0.
        1    1    3    3  502    0 -0.14140978936E+04 -0.82165998084E+03  0.84150033808E+03  0.18392718113E+04  0.50400001928E-02 0.  1.
       -1    1    3    3    0  502  0.14140978936E+04  0.82165998084E+03  0.57698331498E+02  0.16364984186E+04  0.50400001928E-02 0. -1.
</event>
<event>
 5   0  0.5573334E-07  0.3490068E+04  0.7818609E-02  0.8116148E-01
       -2   -1    0    0    0  501  0.00000000000E+00  0.00000000000E+00  0.13279314771E+04  0.13279314771E+04  0.25500000920E-02 0. -1.
        2   -1    0    0  501    0  0.00000000000E+00  0.00000000000E+00 -0.22931483690E+04  0.22931483690E+04  0.25500000920E-02 0.  1.
    10030    2    1    2    0    0  0.00000000000E+00  0.00000000000E+00 -0.96521689189E+03  0.36210798461E+04  0.34900681373E+04 0.  0.
        4    1    3    3  502    0 -0.15961782459E+03  0.29614429529E+03 -0.22591830012E+04  0.22840947308E+04  0.12699999809E+01 0.  1.
       -4    1    3    3    0  502  0.15961782459E+03 -0.29614429529E+03  0.12939661093E+04  0.13369851153E+04  0.12699999809E+01 0. -1.
</event>
<event>
 5   0  0.1873457E-07  0.3499474E+04  0.7818609E-02  0.8113915E-01
       -1   -1    0    0    0  501  0.00000000000E+00  0.00000000000E+00  0.13391010563E+04  0.13391010563E+04  0.50400001928E-02 0.  1.
        1   -1    0    0  501    0  0.00000000000E+00  0.00000000000E+00 -0.22862943955E+04  0.22862943955E+04  0.50400001928E-02 0. -1.
    10030    2    1    2    0    0  0.00000000000E+00  0.00000000000E+00 -0.94719333921E+03  0.36253954518E+04  0.34994738119E+04 0.  0.
        3    1    3    3  502    0 -0.60717378661E+03 -0.22612775124E+03  0.12102456128E+04  0.13727666300E+04  0.10100000352E+00 0.  1.
       -3    1    3    3    0  502  0.60717378661E+03  0.22612775124E+03 -0.21574389520E+04  0.22526288218E+04  0.10100000352E+00 0. -1.
</event>
<event>
 5   0  0.5677193E-07  0.3498974E+04  0.7818609E-02  0.8114033E-01
        2   -1    0    0  501    0  0.00000000000E+00  0.00000000000E+00  0.17556506069E+04  0.17556506069E+04  0.25500000920E-02 0. -1.
       -2   -1    0    0    0  501  0.00000000000E+00  0.00000000000E+00 -0.17433453758E+04  0.17433453758E+04  0.25500000920E-02 0.  1.
    10030    2    1    2    0    0  0.00000000000E+00  0.00000000000E+00  0.12305231114E+02  0.34989959828E+04  0.34989743453E+04 0.  0.
        3    1    3    3  502    0  0.14002861472E+04  0.10454997614E+04  0.88823023370E+02  0.17497887258E+04  0.10100000352E+00 0. -1.
       -3    1    3    3    0  502 -0.14002861472E+04 -0.10454997614E+04 -0.76517792256E+02  0.17492072570E+04  0.10100000352E+00 0.  1.
</event>
<event>
 5   0  0.1873457E-07  0.3501835E+04  0.7818609E-02  0.8113355E-01
        1   -1    0    0  501    0  0.00000000000E+00  0.00000000000E+00  0.23370651835E+04  0.23370651835E+04  0.50400001928E-02 0. -1.
       -1   -1    0    0    0  501  0.00000000000E+00  0.00000000000E+00 -0.13117782775E+04  0.13117782776E+04  0.50400001928E-02 0.  1.
    10030    2    1    2    0    0  0.00000000000E+00  0.00000000000E+00  0.10252869059E+04  0.36488434610E+04  0.35018345711E+04 0.  0.
        3    1    3    3  502    0 -0.42122255019E+03  0.16488623735E+03  0.22751298651E+04  0.23196620058E+04  0.10100000352E+00 0. -1.
       -3    1    3    3    0  502  0.42122255019E+03 -0.16488623735E+03 -0.12498429592E+04  0.13291814552E+04  0.10100000352E+00 0.  1.
</event>
<event>
 5   0  0.5573334E-07  0.3090095E+04  0.7818609E-02  0.8218462E-01
        2   -1    0    0  501    0  0.00000000000E+00  0.00000000000E+00  0.13520552923E+04  0.13520552923E+04  0.25500000920E-02 0.  1.
       -2   -1    0    0    0  501  0.00000000000E+00  0.00000000000E+00 -0.17655870731E+04  0.17655870731E+04  0.25500000920E-02 0. -1.
    10030    2    1    2    0    0  0.00000000000E+00  0.00000000000E+00 -0.41353178082E+03  0.31176423655E+04  0.30900947211E+04 0.  0.
        4    1    3    3  502    0  0.41063639414E+03  0.41617919643E+03  0.12361383474E+04  0.13674308021E+04  0.12699999809E+01 0.  1.
       -4    1    3    3    0  502 -0.41063639414E+03 -0.41617919643E+03 -0.16496701282E+04  0.17502115634E+04  0.12699999809E+01 0. -1.
</event>
<event>
 5   0  0.5740827E-07  0.3511781E+04  0.7818609E-02  0.8111004E-01
       -2   -1    0    0    0  501  0.00000000000E+00  0.00000000000E+00  0.11115434264E+04  0.11115434264E+04  0.25500000920E-02 0. -1.
        2   -1    0    0  501    0  0.00000000000E+00  0.00000000000E+00 -0.27737569742E+04  0.27737569742E+04  0.25500000920E-02 0.  1.
    10030    2    1    2    0    0  0.00000000000E+00  0.00000000000E+00 -0.16622135478E+04  0.38853004006E+04  0.35117809335E+04 0.  0.
        2    1    3    3  502    0  0.14593212564E+04 -0.85969880672E+03 -0.31876356422E+03  0.17234589573E+04  0.25500000920E-02 0. -1.
       -2    1    3    3    0  502 -0.14593212564E+04  0.85969880672E+03 -0.13434499836E+04  0.21618414433E+04  0.25500000920E-02 0.  1.
</event>
<event>
 5   0  0.5707187E-07  0.3484982E+04  0.7818609E-02  0.8117358E-01
       -2   -1    0    0    0  501  0.00000000000E+00  0.00000000000E+00  0.18249777059E+04  0.18249777059E+04  0.25500000920E-02 0. -1.
        2   -1    0    0  501    0  0.00000000000E+00  0.00000000000E+00 -0.16637328288E+04  0.16637328288E+04  0.25500000920E-02 0.  1.
    10030    2    1    2    0    0  0.00000000000E+00  0.00000000000E+00  0.16124487704E+03  0.34887105347E+04  0.34849822502E+04 0.  0.
        1    1    3    3  502    0  0.17128298488E+04  0.31774081173E+03  0.11977958266E+03  0.17461650732E+04  0.50400001928E-02 0. -1.
       -1    1    3    3    0  502 -0.17128298488E+04 -0.31774081173E+03  0.41465294379E+02  0.17425454614E+04  0.50400001928E-02 0.  1.
</event>
<event>
 5   0  0.5677193E-07  0.3515314E+04  0.7818609E-02  0.8110170E-01
       -2   -1    0    0    0  501  0.00000000000E+00  0.00000000000E+00  0.15983479048E+04  0.15983479048E+04  0.25500000920E-02 0. -1.
        2   -1    0    0  501    0  0.00000000000E+00  0.00000000000E+00 -0.19328440800E+04  0.19328440800E+04  0.25500000920E-02 0.  1.
    10030    2    1    2    0    0  0.00000000000E+00  0.00000000000E+00 -0.33449617525E+03  0.35311919848E+04  0.35153135198E+04 0.  0.
        3    1    3    3  502    0  0.93252411129E+03  0.12926134675E+03 -0.16582191078E+04  0.19068299173E+04  0.10100000352E+00 0.  1.
       -3    1    3    3    0  502 -0.93252411129E+03 -0.12926134675E+03  0.13237229326E+04  0.16243620675E+04  0.10100000352E+00 0. -1.
</event>
<event>
 5   0  0.5740827E-07  0.3504353E+04  0.7818609E-02  0.8112759E-01
       -2   -1    0    0    0  501  0.00000000000E+00  0.00000000000E+00  0.15810888729E+04  0.15810888729E+04  0.25500000920E-02 0. -1.
        2   -1    0    0  501    0  0.00000000000E+00  0.00000000000E+00 -0.19417771888E+04  0.19417771888E+04  0.25500000920E-02 0.  1.
    10030    2    1    2    0    0  0.00000000000E+00  0.00000000000E+00 -0.36068831591E+03  0.35228660617E+04  0.35043528971E+04 0.  0.
        2    1    3    3  502    0 -0.39255977145E+03  0.14073230277E+04  0.79195777057E+03  0.16618839878E+04  0.25500000920E-02 0. -1.
       -2    1    3    3    0  502  0.39255977145E+03 -0.14073230277E+04 -0.11526460865E+04  0.18609820739E+04  0.25500000920E-02 0.  1.
</event>
<event>
 5   0  0.1897049E-07  0.3483667E+04  0.7818609E-02  0.8117672E-01
        1   -1    0    0  501    0  0.00000000000E+00  0.00000000000E+00  0.10301642362E+04  0.10301642362E+04  0.50400001928E-02 0.  1.
       -1   -1    0    0    0  501  0.00000000000E+00  0.00000000000E+00 -0.29451463237E+04  0.29451463237E+04  0.50400001928E-02 0. -1.
    10030    2    1    2    0    0  0.00000000000E+00  0.00000000000E+00 -0.19149820874E+04  0.39753105599E+04  0.34836672707E+04 0.  0.
        2    1    3    3  502    0 -0.63841664688E+03  0.40373566767E+03 -0.27485191494E+04  0.28504273046E+04  0.25500000920E-02 0. -1.
       -2    1    3    3    0  502  0.63841664688E+03 -0.40373566767E+03  0.83353706197E+03  0.11248832553E+04  0.25500000920E-02 0.  1.
</event>
<event>
 5   0  0.1897049E-07  0.3512739E+04  0.7818609E-02  0.8110778E-01
        1   -1    0    0  501    0  0.00000000000E+00  0.00000000000E+00  0.15483093946E+04  0.15483093946E+04  0.50400001928E-02 0. -1.
       -1   -1    0    0    0  501  0.00000000000E+00  0.00000000000E+00 -0.19923885187E+04  0.19923885187E+04  0.50400001928E-02 0.  1.
    10030    2    1    2    0    0  0.00000000000E+00  0.00000000000E+00 -0.44407912406E+03  0.35406979133E+04  0.35127390231E+04 0.  0.
        2    1    3    3  502    0 -0.89454224783E+03  0.15059547126E+04 -0.35240744193E+03  0.17866998726E+04  0.25500000920E-02 0.  1.
       -2    1    3    3    0  502  0.89454224783E+03 -0.15059547126E+04 -0.91671682133E+02  0.17539980407E+04  0.25500000920E-02 0. -1.
</event>
<event>
 5   0  0.1933647E-07  0.3535363E+04  0.7818609E-02  0.8105460E-01
        1   -1    0    0  501    0  0.00000000000E+00  0.00000000000E+00  0.25030637774E+04  0.25030637774E+04  0.50400001928E-02 0.  1.
       -1   -1    0    0    0  501  0.00000000000E+00  0.00000000000E+00 -0.12483494203E+04  0.12483494203E+04  0.50400001928E-02 0. -1.
    10030    2    1    2    0    0  0.00000000000E+00  0.00000000000E+00  0.12547143571E+04  0.37514131977E+04  0.35353631867E+04 0.  0.
        4    1    3    3  502    0  0.34924869164E+02  0.10402017153E+04  0.21434682223E+04  0.23827918473E+04  0.12699999809E+01 0.  1.
       -4    1    3    3    0  502 -0.34924869164E+02 -0.10402017153E+04 -0.88875386512E+03  0.13686213504E+04  0.12699999809E+01 0. -1.
</event>
<event>
 5   0  0.1908190E-07  0.3555395E+04  0.7818609E-02  0.8100786E-01
       -1   -1    0    0    0  501  0.00000000000E+00  0.00000000000E+00  0.16226905721E+04  0.16226905721E+04  0.50400001928E-02 0.  1.
        1   -1    0    0  501    0  0.00000000000E+00  0.00000000000E+00 -0.19475114729E+04  0.19475114729E+04  0.50400001928E-02 0. -1.
    10030    2    1    2    0    0  0.00000000000E+00  0.00000000000E+00 -0.32482090084E+03  0.35702020450E+04  0.35553950589E+04 0.  0.
        5    1    3    3  502    0  0.17009313885E+04 -0.50752965730E+03 -0.25993585390E+03  0.17939739908E+04  0.46999998093E+01 0. -1.
       -5    1    3    3    0  502 -0.17009313885E+04  0.50752965730E+03 -0.64885046935E+02  0.17762280543E+04  0.46999998093E+01 0.  1.
</event>
<event>
 5   0  0.1908190E-07  0.3487355E+04  0.7818609E-02  0.8116793E-01
       -1   -1    0    0    0  501  0.00000000000E+00  0.00000000000E+00  0.10525880655E+04  0.10525880656E+04  0.50400001928E-02 0. -1.
        1   -1    0    0  501    0  0.00000000000E+00  0.00000000000E+00 -0.28885102942E+04  0.28885102942E+04  0.50400001928E-02 0.  1.
    10030    2    1    2    0    0  0.00000000000E+00  0.00000000000E+00 -0.18359222286E+04  0.39410983598E+04  0.34873551370E+04 0.  0.
        5    1    3    3  502    0 -0.76968518220E+03 -0.74916252907E+03 -0.24702620843E+04  0.26936734453E+04  0.46999998093E+01 0.  1.
       -5    1    3    3    0  502  0.76968518220E+03  0.74916252907E+03  0.63433985568E+03  0.12474249144E+04  0.46999998093E+01 0. -1.
</event>
<event>
 5   0  0.5677193E-07  0.3488772E+04  0.7818609E-02  0.8116456E-01
        2   -1    0    0  501    0  0.00000000000E+00  0.00000000000E+00  0.15082276172E+04  0.15082276172E+04  0.25500000920E-02 0.  1.
       -2   -1    0    0    0  501  0.00000000000E+00  0.00000000000E+00 -0.20175222412E+04  0.20175222412E+04  0.25500000920E-02 0. -1.
    10030    2    1    2    0    0  0.00000000000E+00  0.00000000000E+00 -0.50929462402E+03  0.35257498584E+04  0.34887721407E+04 0.  0.
        3    1    3    3  502    0  0.15036885459E+04 -0.27161256429E+03  0.59571647885E+03  0.16400398659E+04  0.10100000352E+00 0.  1.
       -3    1    3    3    0  502 -0.15036885459E+04  0.27161256429E+03 -0.11050111029E+04  0.18857099925E+04  0.10100000352E+00 0. -1.
</event>
<event>
 5   0  0.5677193E-07  0.3503023E+04  0.7818609E-02  0.8113074E-01
        2   -1    0    0  501    0  0.00000000000E+00  0.00000000000E+00  0.22310188440E+04  0.22310188440E+04  0.25500000920E-02 0.  1.
       -2   -1    0    0    0  501  0.00000000000E+00  0.00000000000E+00 -0.13750634014E+04  0.13750634014E+04  0.25500000920E-02 0. -1.
    10030    2    1    2    0    0  0.00000000000E+00  0.00000000000E+00  0.85595544264E+03  0.36060822454E+04  0.35030229004E+04 0.  0.
        3    1    3    3  502    0 -0.87675218060E+03 -0.25581332995E+03 -0.11105344702E+04  0.14378531447E+04  0.10100000352E+00 0. -1.
       -3    1    3    3    0  502  0.87675218060E+03  0.25581332995E+03  0.19664899128E+04  0.21682291007E+04  0.10100000352E+00 0.  1.
</event>
<event>
 5   0  0.1823000E-07  0.3505625E+04  0.7818609E-02  0.8112458E-01
       -3   -1    0    0    0  501  0.00000000000E+00  0.00000000000E+00  0.17596582231E+04  0.17596582260E+04  0.10100000352E+00 0. -1.
        3   -1    0    0  501    0  0.00000000000E+00  0.00000000000E+00 -0.17459931813E+04  0.17459931843E+04  0.10100000352E+00 0.  1.
    10030    2    1    2    0    0  0.00000000000E+00  0.00000000000E+00  0.13665041728E+02  0.35056514102E+04  0.35056247769E+04 0.  0.
        4    1    3    3  502    0 -0.24471991802E+03  0.11679783977E+04  0.12906990738E+04  0.17578302215E+04  0.12699999809E+01 0. -1.
       -4    1    3    3    0  502  0.24471991802E+03 -0.11679783977E+04 -0.12770340321E+04  0.17478211887E+04  0.12699999809E+01 0.  1.
</event>
<event>
 5   0  0.5707187E-07  0.3467941E+04  0.7818609E-02  0.8121430E-01
        2   -1    0    0  501    0  0.00000000000E+00  0.00000000000E+00  0.26923920064E+04  0.26923920064E+04  0.25500000920E-02 0.  1.
       -2   -1    0    0    0  501  0.00000000000E+00  0.00000000000E+00 -0.11167218086E+04  0.11167218086E+04  0.25500000920E-02 0. -1.
    10030    2    1    2    0    0  0.00000000000E+00  0.00000000000E+00  0.15756701978E+04  0.38091138151E+04  0.34679405249E+04 0.  0.
        1    1    3    3  502    0 -0.44866852720E+03 -0.68850868136E+03  0.24649077499E+04  0.25982913361E+04  0.50400001928E-02 0.  1.
       -1    1    3    3    0  502  0.44866852720E+03  0.68850868136E+03 -0.88923755207E+03  0.12108224790E+04  0.50400001928E-02 0. -1.
</event>
<event>
 5   0  0.1897049E-07  0.3496487E+04  0.7818609E-02  0.8114623E-01
       -1   -1    0    0    0  501  0.00000000000E+00  0.00000000000E+00  0.13890849312E+04  0.13890849312E+04  0.50400001928E-02 0.  1.
        1   -1    0    0  501    0  0.00000000000E+00  0.00000000000E+00 -0.22002652434E+04  0.22002652434E+04  0.50400001928E-02 0. -1.
    10030    2    1    2    0    0  0.00000000000E+00  0.00000000000E+00 -0.81118031218E+03  0.35893501746E+04  0.34964869765E+04 0.  0.
        2    1    3    3  502    0  0.81464976143E+03 -0.52489257058E+02 -0.19925939080E+04  0.21533322637E+04  0.25500000920E-02 0. -1.
       -2    1    3    3    0  502 -0.81464976143E+03  0.52489257058E+02  0.11814135958E+04  0.14360179108E+04  0.25500000920E-02 0.  1.
</event>
<event>
 5   0  0.5677193E-07  0.3492516E+04  0.7818609E-02  0.8115566E-01
        2   -1    0    0  501    0  0.00000000000E+00  0.00000000000E+00  0.25728007693E+04  0.25728007693E+04  0.25500000920E-02 0. -1.
       -2   -1    0    0    0  501  0.00000000000E+00  0.00000000000E+00 -0.11852519045E+04  0.11852519045E+04  0.25500000920E-02 0.  1.
    10030    2    1    2    0    0  0.00000000000E+00  0.00000000000E+00  0.13875488648E+04  0.37580526738E+04  0.34925160052E+04 0.  0.
        3    1    3    3  502    0  0.86577889526E+03  0.14128312815E+04  0.10073468866E+03  0.16600640991E+04  0.10100000352E+00 0.  1.
       -3    1    3    3    0  502 -0.86577889526E+03 -0.14128312815E+04  0.12868141762E+04  0.20979885747E+04  0.10100000352E+00 0. -1.
</event>
<event>
 5   0  0.5573334E-07  0.3531496E+04  0.7818609E-02  0.8106366E-01
        2   -1    0    0  501    0  0.00000000000E+00  0.00000000000E+00  0.25308116961E+04  0.25308116961E+04  0.25500000920E-02 0.  1.
       -2   -1    0    0    0  501  0.00000000000E+00  0.00000000000E+00 -0.12319629416E+04  0.12319629416E+04  0.25500000920E-02 0. -1.
    10030    2    1    2    0    0  0.00000000000E+00  0.00000000000E+00  0.12988487545E+04  0.37627746377E+04  0.35314961259E+04 0.  0.
        4    1    3    3  502    0  0.12274639071E+04 -0.14815301960E+03 -0.69378978652E+03  0.14177315830E+04  0.12699999809E+01 0. -1.
       -4    1    3    3    0  502 -0.12274639071E+04  0.14815301960E+03  0.19926385411E+04  0.23450430548E+04  0.12699999809E+01 0.  1.
</event>
<event>
 5   0  0.5554745E-07  0.3125319E+04  0.7818609E-02  0.8208824E-01
       -2   -1    0    0    0  501  0.00000000000E+00  0.00000000000E+00  0.18174165870E+04  0.18174165870E+04  0.25500000920E-02 0. -1.
        2   -1    0    0  501    0  0.00000000000E+00  0.00000000000E+00 -0.13436129177E+04  0.13436129177E+04  0.25500000920E-02 0.  1.
    10030    2    1    2    0    0  0.00000000000E+00  0.00000000000E+00  0.47380366928E+03  0.31610295047E+04  0.31253188018E+04 0.  0.
        5    1    3    3  502    0  0.13908113133E+04  0.43682511145E+03  0.80610214832E+03  0.16658316394E+04  0.46999998093E+01 0.  1.
       -5    1    3    3    0  502 -0.13908113133E+04 -0.43682511145E+03 -0.33229847904E+03  0.14951978653E+04  0.46999998093E+01 0. -1.
</event>
<event>
 5   0  0.1866421E-07  0.3518371E+04  0.7818609E-02  0.8109450E-01
        1   -1    0    0  501    0  0.00000000000E+00  0.00000000000E+00  0.27424073960E+04  0.27424073960E+04  0.50400001928E-02 0.  1.
       -1   -1    0    0    0  501  0.00000000000E+00  0.00000000000E+00 -0.11284735936E+04  0.11284735936E+04  0.50400001928E-02 0. -1.
    10030    2    1    2    0    0  0.00000000000E+00  0.00000000000E+00  0.16139338024E+04  0.38708809897E+04  0.35183714013E+04 0.  0.
        1    1    3    3  502    0 -0.10196728741E+04  0.55679130400E+03 -0.64636225606E+03  0.13294861761E+04  0.50400001928E-02 0. -1.
       -1    1    3    3    0  502  0.10196728741E+04 -0.55679130400E+03  0.22602960585E+04  0.25413948136E+04  0.50400001928E-02 0.  1.
</event>
<event>
 5   0  0.1873457E-07  0.3517914E+04  0.7818609E-02  0.8109558E-01
        1   -1    0    0  501    0  0.00000000000E+00  0.00000000000E+00  0.20395448344E+04  0.20395448345E+04  0.50400001928E-02 0.  1.
       -1   -1    0    0    0  501  0.00000000000E+00  0.00000000000E+00 -0.15169704221E+04  0.15169704222E+04  0.50400001928E-02 0. -1.
    10030    2    1    2    0    0  0.00000000000E+00  0.00000000000E+00  0.52257441230E+03  0.35565152566E+04  0.35179136934E+04 0.  0.
        3    1    3    3  502    0 -0.14051026140E+04 -0.39697069303E+03 -0.73030664226E+03  0.16325583876E+04  0.10100000352E+00 0. -1.
       -3    1    3    3    0  502  0.14051026140E+04  0.39697069303E+03  0.12528810546E+04  0.19239568690E+04  0.10100000352E+00 0.  1.
</event>
<event>
 5   0  0.1933647E-07  0.3352612E+04  0.7818609E-02  0.8149636E-01
       -1   -1    0    0    0  501  0.00000000000E+00  0.00000000000E+00  0.14443540715E+04  0.14443540715E+04  0.50400001928E-02 0.  1.
        1   -1    0    0  501    0  0.00000000000E+00  0.00000000000E+00 -0.19455071177E+04  0.19455071177E+04  0.50400001928E-02 0. -1.
    10030    2    1    2    0    0  0.00000000000E+00  0.00000000000E+00 -0.50115304623E+03  0.33898611893E+04  0.33526115950E+04 0.  0.
        4    1    3    3  502    0  0.84428414543E+03  0.12909547476E+04  0.41293059499E+03  0.15968384915E+04  0.12699999809E+01 0.  1.
       -4    1    3    3    0  502 -0.84428414543E+03 -0.12909547476E+04 -0.91408364122E+03  0.17930226978E+04  0.12699999809E+01 0. -1.
</event>
<event>
 5   0  0.1908190E-07  0.3492673E+04  0.7818609E-02  0.8115529E-01
       -1   -1    0    0    0  501  0.00000000000E+00  0.00000000000E+00  0.15376128599E+04  0.15376128599E+04  0.50400001928E-02 0. -1.
        1   -1    0    0  501    0  0.00000000000E+00  0.00000000000E+00 -0.19833932162E+04  0.19833932162E+04  0.50400001928E-02 0.  1.
    10030    2    1    2    0    0  0.00000000000E+00  0.00000000000E+00 -0.44578035628E+03  0.35210060761E+04  0.34926728535E+04 0.  0.
        5    1    3    3  502    0 -0.61834033971E+03 -0.13806360036E+04  0.65663688111E+03  0.16491496699E+04  0.46999998093E+01 0. -1.
       -5    1    3    3    0  502  0.61834033971E+03  0.13806360036E+04 -0.11024172374E+04  0.18718564062E+04  0.46999998093E+01 0.  1.
</event>
<event>
 5   0  0.5677193E-07  0.3414974E+04  0.7818609E-02  0.8134241E-01
       -2   -1    0    0    0  501  0.00000000000E+00  0.00000000000E+00  0.17686904566E+04  0.17686904566E+04  0.25500000920E-02 0.  1.
        2   -1    0    0  501    0  0.00000000000E+00  0.00000000000E+00 -0.16484014926E+04  0.16484014926E+04  0.25500000920E-02 0. -1.
    10030    2    1    2    0    0  0.00000000000E+00  0.00000000000E+00  0.12028896397E+03  0.34170919491E+04  0.34149740781E+04 0.  0.
        3    1    3    3  502    0  0.90795607952E+03 -0.55027109657E+03  0.13982581870E+04  0.17556504463E+04  0.10100000352E+00 0.  1.
       -3    1    3    3    0  502 -0.90795607952E+03  0.55027109657E+03 -0.12779692230E+04  0.16614415028E+04  0.10100000352E+00 0. -1.
</event>
<event>
 5   0  0.1897049E-07  0.3529374E+04  0.7818609E-02  0.8106864E-01
        1   -1    0    0  501    0  0.00000000000E+00  0.00000000000E+00  0.15512305699E+04  0.15512305699E+04  0.50400001928E-02 0.  1.
       -1   -1    0    0    0  501  0.00000000000E+00  0.00000000000E+00 -0.20075154607E+04  0.20075154607E+04  0.50400001928E-02 0. -1.
    10030    2    1    2    0    0  0.00000000000E+00  0.00000000000E+00 -0.45628489080E+03  0.35587460307E+04  0.35293735151E+04 0.  0.
        2    1    3    3  502    0 -0.15185468790E+04  0.44506908129E+03  0.55941358844E+03  0.16783964591E+04  0.25500000920E-02 0.  1.
       -2    1    3    3    0  502  0.15185468790E+04 -0.44506908129E+03 -0.10156984792E+04  0.18803495716E+04  0.25500000920E-02 0. -1.
</event>
<event>
 5   0  0.1933647E-07  0.3512125E+04  0.7818609E-02  0.8110922E-01
        1   -1    0    0  501    0  0.00000000000E+00  0.00000000000E+00  0.20903822135E+04  0.20903822135E+04  0.50400001928E-02 0. -1.
       -1   -1    0    0    0  501  0.00000000000E+00  0.00000000000E+00 -0.14752116698E+04  0.14752116698E+04  0.50400001928E-02 0.  1.
    10030    2    1    2    0    0  0.00000000000E+00  0.00000000000E+00  0.61517054370E+03  0.35655938832E+04  0.35121254167E+04 0.  0.
        4    1    3    3  502    0  0.73346982042E+02 -0.17481287467E+04  0.45960036606E+03  0.18090240475E+04  0.12699999809E+01 0. -1.
       -4    1    3    3    0  502 -0.73346982042E+02  0.17481287467E+04  0.15557017763E+03  0.17565698358E+04  0.12699999809E+01 0.  1.
</event>
<event>
 5   0  0.1873457E-07  0.3511167E+04  0.7818609E-02  0.8111149E-01
       -1   -1    0    0    0  501  0.00000000000E+00  0.00000000000E+00  0.16513535139E+04  0.16513535139E+04  0.50400001928E-02 0.  1.
        1   -1    0    0  501    0  0.00000000000E+00  0.00000000000E+00 -0.18663918965E+04  0.18663918965E+04  0.50400001928E-02 0. -1.
    10030    2    1    2    0    0  0.00000000000E+00  0.00000000000E+00 -0.21503838264E+03  0.35177454105E+04  0.35111666532E+04 0.  0.
        3    1    3    3  502    0  0.49006865644E+03 -0.89625032314E+03  0.13229658670E+04  0.16714277206E+04  0.10100000352E+00 0.  1.
       -3    1    3    3    0  502 -0.49006865644E+03  0.89625032314E+03 -0.15380042496E+04  0.18463176899E+04  0.10100000352E+00 0. -1.
</event>
<event>
 5   0  0.1933647E-07  0.3503307E+04  0.7818609E-02  0.8113007E-01
        1   -1    0    0  501    0  0.00000000000E+00  0.00000000000E+00  0.21850257205E+04  0.21850257205E+04  0.50400001928E-02 0.  1.
       -1   -1    0    0    0  501  0.00000000000E+00  0.00000000000E+00 -0.14042354047E+04  0.14042354047E+04  0.50400001928E-02 0. -1.
    10030    2    1    2    0    0  0.00000000000E+00  0.00000000000E+00  0.78079031584E+03  0.35892611252E+04  0.35033072813E+04 0.  0.
        4    1    3    3  502    0 -0.78326908405E+03  0.13178171531E+04  0.12586161469E+04  0.19834991115E+04  0.12699999809E+01 0. -1.
       -4    1    3    3    0  502  0.78326908405E+03 -0.13178171531E+04 -0.47782583104E+03  0.16057620137E+04  0.12699999809E+01 0.  1.
</event>
<event>
 5   0  0.5740827E-07  0.3499420E+04  0.7818609E-02  0.8113928E-01
        2   -1    0    0  501    0  0.00000000000E+00  0.00000000000E+00  0.21073391388E+04  0.21073391388E+04  0.25500000920E-02 0. -1.
       -2   -1    0    0    0  501  0.00000000000E+00  0.00000000000E+00 -0.14527724641E+04  0.14527724641E+04  0.25500000920E-02 0.  1.
    10030    2    1    2    0    0  0.00000000000E+00  0.00000000000E+00  0.65456667470E+03  0.35601116029E+04  0.34994195367E+04 0.  0.
        2    1    3    3  502    0  0.65238771517E+03  0.14101071946E+04  0.11458954712E+04  0.19305668759E+04  0.25500000920E-02 0. -1.
       -2    1    3    3    0  502 -0.65238771517E+03 -0.14101071946E+04 -0.49132879649E+03  0.16295447271E+04  0.25500000920E-02 0.  1.
</event>
<event>
 5   0  0.5554745E-07  0.3485282E+04  0.7818609E-02  0.8117287E-01
       -2   -1    0    0    0  501  0.00000000000E+00  0.00000000000E+00  0.16829008699E+04  0.16829008699E+04  0.25500000920E-02 0.  1.
        2   -1    0    0  501    0  0.00000000000E+00  0.00000000000E+00 -0.18045019251E+04  0.18045019251E+04  0.25500000920E-02 0. -1.
    10030    2    1    2    0    0  0.00000000000E+00  0.00000000000E+00 -0.12160105525E+03  0.34874027950E+04  0.34852821174E+04 0.  0.
        5    1    3    3  502    0 -0.28093103756E+03  0.71885740407E+03 -0.16241524108E+04  0.17982133796E+04  0.46999998093E+01 0. -1.
       -5    1    3    3    0  502  0.28093103756E+03 -0.71885740407E+03  0.15025513555E+04  0.16891894154E+04  0.46999998093E+01 0.  1.
</event>
<event>
 5   0  0.5677193E-07  0.3495735E+04  0.7818609E-02  0.8114802E-01
        2   -1    0    0  501    0  0.00000000000E+00  0.00000000000E+00  0.20968587429E+04  0.20968587429E+04  0.25500000920E-02 0. -1.
       -2   -1    0    0    0  501  0.00000000000E+00  0.00000000000E+00 -0.14569604551E+04  0.14569604551E+04  0.25500000920E-02 0.  1.
    10030    2    1    2    0    0  0.00000000000E+00  0.00000000000E+00  0.63989828771E+03  0.35538191980E+04  0.34957346972E+04 0.  0.
        3    1    3    3  502    0 -0.23281711935E+03  0.12643698186E+04  0.15237722724E+04  0.19936691795E+04  0.10100000352E+00 0. -1.
       -3    1    3    3    0  502  0.23281711935E+03 -0.12643698186E+04 -0.88387398466E+03  0.15601500185E+04  0.10100000352E+00 0.  1.
</event>
<event>
 5   0  0.5554745E-07  0.3438726E+04  0.7818609E-02  0.8128467E-01
       -2   -1    0    0    0  501  0.00000000000E+00  0.00000000000E+00  0.17224577222E+04  0.17224577222E+04  0.25500000920E-02 0. -1.
        2   -1    0    0  501    0  0.00000000000E+00  0.00000000000E+00 -0.17162735849E+04  0.17162735849E+04  0.25500000920E-02 0.  1.
    10030    2    1    2    0    0  0.00000000000E+00  0.00000000000E+00  0.61841373012E+01  0.34387313071E+04  0.34387257464E+04 0.  0.
        5    1    3    3  502    0 -0.17773093625E+03  0.80168743829E+03  0.15136889525E+04  0.17220822771E+04  0.46999998093E+01 0. -1.
       -5    1    3    3    0  502  0.17773093625E+03 -0.80168743829E+03 -0.15075048152E+04  0.17166490300E+04  0.46999998093E+01 0.  1.
</event>
<event>
 5   0  0.1933647E-07  0.3389751E+04  0.7818609E-02  0.8140426E-01
       -1   -1    0    0    0  501  0.00000000000E+00  0.00000000000E+00  0.27739908596E+04  0.27739908597E+04  0.50400001928E-02 0.  1.
        1   -1    0    0  501    0  0.00000000000E+00  0.00000000000E+00 -0.10355486755E+04  0.10355486755E+04  0.50400001928E-02 0. -1.
    10030    2    1    2    0    0  0.00000000000E+00  0.00000000000E+00  0.17384421842E+04  0.38095395352E+04  0.33897507640E+04 0.  0.
        4    1    3    3  502    0  0.65211443386E+03 -0.11311758283E+04 -0.34524921194E+03  0.13505593733E+04  0.12699999809E+01 0. -1.
       -4    1    3    3    0  502 -0.65211443386E+03  0.11311758283E+04  0.20836913961E+04  0.24589801619E+04  0.12699999809E+01 0.  1.
</event>
<event>
 5   0  0.1908190E-07  0.3533520E+04  0.7818609E-02  0.8105892E-01
       -1   -1    0    0    0  501  0.00000000000E+00  0.00000000000E+00  0.14499832955E+04  0.14499832955E+04  0.50400001928E-02 0. -1.
        1   -1    0    0  501    0  0.00000000000E+00  0.00000000000E+00 -0.21527428248E+04  0.21527428248E+04  0.50400001928E-02 0.  1.
    10030    2    1    2    0    0  0.00000000000E+00  0.00000000000E+00 -0.70275952930E+03  0.36027261202E+04  0.35335201346E+04 0.  0.
        5    1    3    3  502    0 -0.10428375390E+04 -0.52771871199E+03  0.99949295298E+03  0.15378574137E+04  0.46999998093E+01 0. -1.
       -5    1    3    3    0  502  0.10428375390E+04  0.52771871199E+03 -0.17022524823E+04  0.20648687065E+04  0.46999998093E+01 0.  1.
</event>
<event>
 5   0  0.1873457E-07  0.3493906E+04  0.7818609E-02  0.8115236E-01
        1   -1    0    0  501    0  0.00000000000E+00  0.00000000000E+00  0.22989016104E+04  0.22989016104E+04  0.50400001928E-02 0.  1.
       -1   -1    0    0    0  501  0.00000000000E+00  0.00000000000E+00 -0.13275228626E+04  0.13275228626E+04  0.50400001928E-02 0. -1.
    10030    2    1    2    0    0  0.00000000000E+00  0.00000000000E+00  0.97137874774E+03  0.36264244730E+04  0.34939058068E+04 0.  0.
        3    1    3    3  502    0 -0.60601425615E+03  0.54190459025E+03 -0.11192215277E+04  0.13833187275E+04  0.10100000352E+00 0. -1.
       -3    1    3    3    0  502  0.60601425615E+03 -0.54190459025E+03  0.20906002754E+04  0.22431057455E+04  0.10100000352E+00 0.  1.
</event>
<event>
 5   0  0.1908190E-07  0.3506001E+04  0.7818609E-02  0.8112369E-01
       -1   -1    0    0    0  501  0.00000000000E+00  0.00000000000E+00  0.17739828622E+04  0.17739828622E+04  0.50400001928E-02 0.  1.
        1   -1    0    0  501    0  0.00000000000E+00  0.00000000000E+00 -0.17322661841E+04  0.17322661841E+04  0.50400001928E-02 0. -1.
    10030    2    1    2    0    0  0.00000000000E+00  0.00000000000E+00  0.41716678157E+02  0.35062490463E+04  0.35060008690E+04 0.  0.
        5    1    3    3  502    0 -0.92753733867E+03  0.13301663614E+04  0.68672854720E+03  0.17610469191E+04  0.46999998093E+01 0. -1.
       -5    1    3    3    0  502  0.92753733867E+03 -0.13301663614E+04 -0.64501186904E+03  0.17452021272E+04  0.46999998093E+01 0.  1.
</event>
<event>
 5   0  0.5740827E-07  0.3505588E+04  0.7818609E-02  0.8112467E-01
       -2   -1    0    0    0  501  0.00000000000E+00  0.00000000000E+00  0.19865961537E+04  0.19865961537E+04  0.25500000920E-02 0.  1.
        2   -1    0    0  501    0  0.00000000000E+00  0.00000000000E+00 -0.15465078018E+04  0.15465078018E+04  0.25500000920E-02 0. -1.
    10030    2    1    2    0    0  0.00000000000E+00  0.00000000000E+00  0.44008835185E+03  0.35331039555E+04  0.35055877971E+04 0.  0.
        2    1    3    3  502    0  0.16693490528E+04 -0.31605857364E+03  0.65431747178E+03  0.18206456646E+04  0.25500000920E-02 0.  1.
       -2    1    3    3    0  502 -0.16693490528E+04  0.31605857364E+03 -0.21422911993E+03  0.17124582909E+04  0.25500000920E-02 0. -1.
</event>
<event>
 5   0  0.5677193E-07  0.3502817E+04  0.7818609E-02  0.8113123E-01
        2   -1    0    0  501    0  0.00000000000E+00  0.00000000000E+00  0.19080768940E+04  0.19080768940E+04  0.25500000920E-02 0.  1.
       -2   -1    0    0    0  501  0.00000000000E+00  0.00000000000E+00 -0.16076039183E+04  0.16076039183E+04  0.25500000920E-02 0. -1.
    10030    2    1    2    0    0  0.00000000000E+00  0.00000000000E+00  0.30047297570E+03  0.35156808124E+04  0.35028170899E+04 0.  0.
        3    1    3    3  502    0 -0.16521066818E+04  0.42898676070E+03 -0.24356362281E+03  0.17241836844E+04  0.10100000352E+00 0. -1.
       -3    1    3    3    0  502  0.16521066818E+04 -0.42898676070E+03  0.54403659851E+03  0.17914971280E+04  0.10100000352E+00 0.  1.
</event>
<event>
 5   0  0.5677193E-07  0.3506282E+04  0.7818609E-02  0.8112303E-01
        2   -1    0    0  501    0  0.00000000000E+00  0.00000000000E+00  0.26166004507E+04  0.26166004507E+04  0.25500000920E-02 0. -1.
       -2   -1    0    0    0  501  0.00000000000E+00  0.00000000000E+00 -0.11746171911E+04  0.11746171911E+04  0.25500000920E-02 0.  1.
    10030    2    1    2    0    0  0.00000000000E+00  0.00000000000E+00  0.14419832596E+04  0.37912176418E+04  0.35062822885E+04 0.  0.
        3    1    3    3  502    0  0.16772826934E+04 -0.43758367922E+03  0.10044956308E+04  0.20034390913E+04  0.10100000352E+00 0.  1.
       -3    1    3    3    0  502 -0.16772826934E+04  0.43758367922E+03  0.43748762884E+03  0.17877785505E+04  0.10100000352E+00 0. -1.
</event>
<event>
 5   0  0.1897049E-07  0.3562445E+04  0.7818609E-02  0.8099149E-01
        1   -1    0    0  501    0  0.00000000000E+00  0.00000000000E+00  0.24530458037E+04  0.24530458037E+04  0.50400001928E-02 0. -1.
       -1   -1    0    0    0  501  0.00000000000E+00  0.00000000000E+00 -0.12933937296E+04  0.12933937296E+04  0.50400001928E-02 0.  1.
    10030    2    1    2    0    0  0.00000000000E+00  0.00000000000E+00  0.11596520741E+04  0.37464395333E+04  0.35624452618E+04 0.  0.
        2    1    3    3  502    0 -0.69712073193E+03  0.11036252196E+04 -0.69470408287E+03  0.14787087959E+04  0.25500000920E-02 0.  1.
       -2    1    3    3    0  502  0.69712073193E+03 -0.11036252196E+04  0.18543561570E+04  0.22677307374E+04  0.25500000920E-02 0. -1.
</event>
<event>
 5   0  0.5573334E-07  0.3390553E+04  0.7818609E-02  0.8140229E-01
        2   -1    0    0  501    0  0.00000000000E+00  0.00000000000E+00  0.20508281013E+04  0.20508281013E+04  0.25500000920E-02 0. -1.
       -2   -1    0    0    0  501  0.00000000000E+00  0.00000000000E+00 -0.14013666863E+04  0.14013666863E+04  0.25500000920E-02 0.  1.
    10030    2    1    2    0    0  0.00000000000E+00  0.00000000000E+00  0.64946141502E+03  0.34521947876E+04  0.33905528638E+04 0.  0.
        4    1    3    3  502    0 -0.79316529981E+03 -0.14818640512E+04  0.99511786566E+02  0.16837269576E+04  0.12699999809E+01 0. -1.
       -4    1    3    3    0  502  0.79316529981E+03  0.14818640512E+04  0.54994962845E+03  0.17684678300E+04  0.12699999809E+01 0.  1.
</event>
<event>
 5   0  0.5677193E-07  0.3603576E+04  0.7818609E-02  0.8089673E-01
        2   -1    0    0  501    0  0.00000000000E+00  0.00000000000E+00  0.22059027336E+04  0.22059027336E+04  0.25500000920E-02 0.  1.
       -2   -1    0    0    0  501  0.00000000000E+00  0.00000000000E+00 -0.14717057725E+04  0.14717057725E+04  0.25500000920E-02 0. -1.
    10030    2    1    2    0    0  0.00000000000E+00  0.00000000000E+00  0.73419696110E+03  0.36776085061E+04  0.36035758833E+04 0.  0.
        3    1    3    3  502    0 -0.58008800472E+03  0.16402405913E+04  0.84528468924E+03  0.19342692436E+04  0.10100000352E+00 0.  1.
       -3    1    3    3    0  502  0.58008800472E+03 -0.16402405913E+04 -0.11108772815E+03  0.17433392625E+04  0.10100000352E+00 0. -1.
</event>
<event>
 5   0  0.5677193E-07  0.3506258E+04  0.7818609E-02  0.8112308E-01
        2   -1    0    0  501    0  0.00000000000E+00  0.00000000000E+00  0.22098581719E+04  0.22098581719E+04  0.25500000920E-02 0.  1.
       -2   -1    0    0    0  501  0.00000000000E+00  0.00000000000E+00 -0.13907959444E+04  0.13907959445E+04  0.25500000920E-02 0. -1.
    10030    2    1    2    0    0  0.00000000000E+00  0.00000000000E+00  0.81906222743E+03  0.36006541163E+04  0.35062582810E+04 0.  0.
        3    1    3    3  502    0  0.10000506247E+04  0.14394227649E+04  0.37079797325E+03  0.17915162001E+04  0.10100000352E+00 0.  1.
       -3    1    3    3    0  502 -0.10000506247E+04 -0.14394227649E+04  0.44826425418E+03  0.18091379162E+04  0.10100000352E+00 0. -1.
</event>
<event>
 5   0  0.5677193E-07  0.3508942E+04  0.7818609E-02  0.8111674E-01
       -2   -1    0    0    0  501  0.00000000000E+00  0.00000000000E+00  0.14831142314E+04  0.14831142314E+04  0.25500000920E-02 0.  1.
        2   -1    0    0  501    0  0.00000000000E+00  0.00000000000E+00 -0.20754767110E+04  0.20754767110E+04  0.25500000920E-02 0. -1.
    10030    2    1    2    0    0  0.00000000000E+00  0.00000000000E+00 -0.59236247958E+03  0.35585909424E+04  0.35089423176E+04 0.  0.
        3    1    3    3  502    0 -0.89922904490E+03 -0.75150875541E+03  0.10279693564E+04  0.15588775746E+04  0.10100000352E+00 0.  1.
       -3    1    3    3    0  502  0.89922904490E+03  0.75150875541E+03 -0.16203318359E+04  0.19997133678E+04  0.10100000352E+00 0. -1.
</event>
<event>
 5   0  0.5554745E-07  0.3523585E+04  0.7818609E-02  0.8108223E-01
       -2   -1    0    0    0  501  0.00000000000E+00  0.00000000000E+00  0.13057713094E+04  0.13057713094E+04  0.25500000920E-02 0. -1.
        2   -1    0    0  501    0  0.00000000000E+00  0.00000000000E+00 -0.23770717461E+04  0.23770717461E+04  0.25500000920E-02 0.  1.
    10030    2    1    2    0    0  0.00000000000E+00  0.00000000000E+00 -0.10713004367E+04  0.36828430556E+04  0.35235845876E+04 0.  0.
        5    1    3    3  502    0  0.17305910752E+04 -0.20141996965E+03 -0.80895401437E+03  0.19209227369E+04  0.46999998093E+01 0.  1.
       -5    1    3    3    0  502 -0.17305910752E+04  0.20141996965E+03 -0.26234642230E+03  0.17619203186E+04  0.46999998093E+01 0. -1.
</event>
<event>
 5   0  0.1873457E-07  0.3532260E+04  0.7818609E-02  0.8106187E-01
       -1   -1    0    0    0  501  0.00000000000E+00  0.00000000000E+00  0.15335406323E+04  0.15335406323E+04  0.50400001928E-02 0.  1.
        1   -1    0    0  501    0  0.00000000000E+00  0.00000000000E+00 -0.20339952263E+04  0.20339952263E+04  0.50400001928E-02 0. -1.
    10030    2    1    2    0    0  0.00000000000E+00  0.00000000000E+00 -0.50045459396E+03  0.35675358586E+04  0.35322595179E+04 0.  0.
        3    1    3    3  502    0 -0.69028304891E+03  0.10455608784E+03 -0.18887086211E+04  0.20136143943E+04  0.10100000352E+00 0. -1.
       -3    1    3    3    0  502  0.69028304891E+03 -0.10455608784E+03  0.13882540272E+04  0.15539214643E+04  0.10100000352E+00 0.  1.
</event>
<event>
 5   0  0.1897049E-07  0.3447823E+04  0.7818609E-02  0.8126268E-01
       -1   -1    0    0    0  501  0.00000000000E+00  0.00000000000E+00  0.10159787451E+04  0.10159787451E+04  0.50400001928E-02 0. -1.
        1   -1    0    0  501    0  0.00000000000E+00  0.00000000000E+00 -0.29251303981E+04  0.29251303981E+04  0.50400001928E-02 0.  1.
    10030    2    1    2    0    0  0.00000000000E+00  0.00000000000E+00 -0.19091516530E+04  0.39411091433E+04  0.34478226817E+04 0.  0.
        2    1    3    3  502    0 -0.15426563595E+04  0.29887948531E+03 -0.14408005271E+03  0.15779342990E+04  0.25500000920E-02 0. -1.
       -2    1    3    3    0  502  0.15426563595E+04 -0.29887948531E+03 -0.17650716003E+04  0.23631748443E+04  0.25500000920E-02 0.  1.
</event>
<event>
 5   0  0.1933647E-07  0.3518846E+04  0.7818609E-02  0.8109338E-01
       -1   -1    0    0    0  501  0.00000000000E+00  0.00000000000E+00  0.10116886849E+04  0.10116886849E+04  0.50400001928E-02 0. -1.
        1   -1    0    0  501    0  0.00000000000E+00  0.00000000000E+00 -0.30598033707E+04  0.30598033707E+04  0.50400001928E-02 0.  1.
    10030    2    1    2    0    0  0.00000000000E+00  0.00000000000E+00 -0.20481146858E+04  0.40714920557E+04  0.35188455200E+04 0.  0.
        4    1    3    3  502    0 -0.12208807542E+04  0.59651000136E+03  0.26914991424E+03  0.13852138055E+04  0.12699999809E+01 0. -1.
       -4    1    3    3    0  502  0.12208807542E+04 -0.59651000136E+03 -0.23172646000E+04  0.26862782501E+04  0.12699999809E+01 0.  1.
</event>
<event>
 5   0  0.5677193E-07  0.3448256E+04  0.7818609E-02  0.8126163E-01
       -2   -1    0    0    0  501  0.00000000000E+00  0.00000000000E+00  0.16198762005E+04  0.16198762005E+04  0.25500000920E-02 0.  1.
        2   -1    0    0  501    0  0.00000000000E+00  0.00000000000E+00 -0.18350887514E+04  0.18350887514E+04  0.25500000920E-02 0. -1.
    10030    2    1    2    0    0  0.00000000000E+00  0.00000000000E+00 -0.21521255091E+03  0.34549649518E+04  0.34482555555E+04 0.  0.
        3    1    3    3  502    0 -0.12976895515E+04 -0.33804757323E+03 -0.11933855425E+04  0.17951165414E+04  0.10100000352E+00 0. -1.
       -3    1    3    3    0  502  0.12976895515E+04  0.33804757323E+03  0.97817299158E+03  0.16598484104E+04  0.10100000352E+00 0.  1.
</event>
<event>
 5   0  0.5677193E-07  0.3341381E+04  0.7818609E-02  0.8152445E-01
        2   -1    0    0  501    0  0.00000000000E+00  0.00000000000E+00  0.17215363107E+04  0.17215363107E+04  0.25500000920E-02 0.  1.
       -2   -1    0    0    0  501  0.00000000000E+00  0.00000000000E+00 -0.16213465576E+04  0.16213465576E+04  0.25500000920E-02 0. -1.
    10030    2    1    2    0    0  0.00000000000E+00  0.00000000000E+00  0.10018975306E+03  0.33428828684E+04  0.33413811343E+04 0.  0.
        3    1    3    3  502    0 -0.14761332957E+04 -0.66425807860E+03 -0.36361081530E+03  0.16590422348E+04  0.10100000352E+00 0. -1.
       -3    1    3    3    0  502  0.14761332957E+04  0.66425807860E+03  0.46380056836E+03  0.16838406335E+04  0.10100000352E+00 0.  1.
</event>
<event>
 5   0  0.5707187E-07  0.3500921E+04  0.7818609E-02  0.8113572E-01
       -2   -1    0    0    0  501  0.00000000000E+00  0.00000000000E+00  0.14036106092E+04  0.14036106092E+04  0.25500000920E-02 0. -1.
        2   -1    0    0  501    0  0.00000000000E+00  0.00000000000E+00 -0.21830211330E+04  0.21830211330E+04  0.25500000920E-02 0.  1.
    10030    2    1    2    0    0  0.00000000000E+00  0.00000000000E+00 -0.77941052380E+03  0.35866317421E+04  0.35009208059E+04 0.  0.
        1    1    3    3  502    0  0.45250022949E+03 -0.14781747032E+04  0.45159049595E+03  0.16104939885E+04  0.50400001928E-02 0. -1.
       -1    1    3    3    0  502 -0.45250022949E+03  0.14781747032E+04 -0.12310010197E+04  0.19761377537E+04  0.50400001928E-02 0.  1.
</event>
<event>
 5   0  0.1866421E-07  0.3496923E+04  0.7818609E-02  0.8114519E-01
        1   -1    0    0  501    0  0.00000000000E+00  0.00000000000E+00  0.22934392354E+04  0.22934392354E+04  0.50400001928E-02 0. -1.
       -1   -1    0    0    0  501  0.00000000000E+00  0.00000000000E+00 -0.13329842046E+04  0.13329842046E+04  0.50400001928E-02 0.  1.
    10030    2    1    2    0    0  0.00000000000E+00  0.00000000000E+00  0.96045503078E+03  0.36264234401E+04  0.34969233764E+04 0.  0.
        1    1    3    3  502    0 -0.29131526197E+03 -0.15604751821E+04 -0.27983381154E+03  0.16119101519E+04  0.50400001928E-02 0. -1.
       -1    1    3    3    0  502  0.29131526197E+03  0.15604751821E+04  0.12402888423E+04  0.20145132881E+04  0.50400001928E-02 0.  1.
</event>
<event>
 5   0  0.5740827E-07  0.3379273E+04  0.7818609E-02  0.8143012E-01
       -2   -1    0    0    0  501  0.00000000000E+00  0.00000000000E+00  0.17434453762E+04  0.17434453762E+04  0.25500000920E-02 0.  1.
        2   -1    0    0  501    0  0.00000000000E+00  0.00000000000E+00 -0.16374885751E+04  0.16374885751E+04  0.25500000920E-02 0. -1.
    10030    2    1    2    0    0  0.00000000000E+00  0.00000000000E+00  0.10595680113E+03  0.33809339513E+04  0.33792732265E+04 0.  0.
        2    1    3    3  502    0 -0.14605738572E+03  0.10429570311E+03  0.17338819002E+04  0.17431456616E+04  0.25500000920E-02 0.  1.
       -2    1    3    3    0  502  0.14605738572E+03 -0.10429570311E+03 -0.16279250991E+04  0.16377882897E+04  0.25500000920E-02 0. -1.
</event>
<event>
 5   0  0.5677193E-07  0.3192007E+04  0.7818609E-02  0.8190931E-01
       -2   -1    0    0    0  501  0.00000000000E+00  0.00000000000E+00  0.84816465883E+03  0.84816465883E+03  0.25500000920E-02 0.  1.
        2   -1    0    0  501    0  0.00000000000E+00  0.00000000000E+00 -0.30032221110E+04  0.30032221110E+04  0.25500000920E-02 0. -1.
    10030    2    1    2    0    0  0.00000000000E+00  0.00000000000E+00 -0.21550574522E+04  0.38513867698E+04  0.31920068027E+04 0.  0.
        3    1    3    3  502    0 -0.60547934121E+03  0.87009458048E+03 -0.25171251593E+04  0.27312247966E+04  0.10100000352E+00 0. -1.
       -3    1    3    3    0  502  0.60547934121E+03 -0.87009458048E+03  0.36206770712E+03  0.11201619733E+04  0.10100000352E+00 0.  1.
</event>
<event>
 5   0  0.1866421E-07  0.3482186E+04  0.7818609E-02  0.8118025E-01
        1   -1    0    0  501    0  0.00000000000E+00  0.00000000000E+00  0.28482348819E+04  0.28482348819E+04  0.50400001928E-02 0.  1.
       -1   -1    0    0    0  501  0.00000000000E+00  0.00000000000E+00 -0.10643102486E+04  0.10643102486E+04  0.50400001928E-02 0. -1.
    10030    2    1    2    0    0  0.00000000000E+00  0.00000000000E+00  0.17839246333E+04  0.39125451306E+04  0.34821864255E+04 0.  0.
        1    1    3    3  502    0  0.12745188980E+04  0.55022543305E+03 -0.28874659355E+03  0.14179284340E+04  0.50400001928E-02 0.  1.
       -1    1    3    3    0  502 -0.12745188980E+04 -0.55022543305E+03  0.20726712269E+04  0.24946166966E+04  0.50400001928E-02 0. -1.
</event>
<event>
 5   0  0.5573334E-07  0.3291951E+04  0.7818609E-02  0.8164946E-01
       -2   -1    0    0    0  501  0.00000000000E+00  0.00000000000E+00  0.14219579708E+04  0.14219579708E+04  0.25500000920E-02 0. -1.
        2   -1    0    0  501    0  0.00000000000E+00  0.00000000000E+00 -0.19052850978E+04  0.19052850978E+04  0.25500000920E-02 0.  1.
    10030    2    1    2    0    0  0.00000000000E+00  0.00000000000E+00 -0.48332712707E+03  0.33272430686E+04  0.32919509908E+04 0.  0.
        4    1    3    3  502    0 -0.24946338730E+03 -0.12847980192E+04  0.76718345507E+03  0.15170728388E+04  0.12699999809E+01 0. -1.
       -4    1    3    3    0  502  0.24946338730E+03  0.12847980192E+04 -0.12505105821E+04  0.18101702298E+04  0.12699999809E+01 0.  1.
</event>
<event>
 5   0  0.1823000E-07  0.3342172E+04  0.7818609E-02  0.8152247E-01
       -3   -1    0    0    0  501  0.00000000000E+00  0.00000000000E+00  0.91533947915E+03  0.91533948472E+03  0.10100000352E+00 0. -1.
        3   -1    0    0  501    0  0.00000000000E+00  0.00000000000E+00 -0.30508115193E+04  0.30508115210E+04  0.10100000352E+00 0.  1.
    10030    2    1    2    0    0  0.00000000000E+00  0.00000000000E+00 -0.21354720402E+04  0.39661510057E+04  0.33421718935E+04 0.  0.
        1    1    3    3  502    0 -0.11226297426E+04  0.43900349371E+02 -0.25357467945E+04  0.27734881621E+04  0.50400001928E-02 0.  1.
       -1    1    3    3    0  502  0.11226297426E+04 -0.43900349371E+02  0.40027475428E+03  0.11926628436E+04  0.50400001928E-02 0. -1.
</event>
<event>
 5   0  0.5554745E-07  0.3451688E+04  0.7818609E-02  0.8125336E-01
        2   -1    0    0  501    0  0.00000000000E+00  0.00000000000E+00  0.18253119324E+04  0.18253119324E+04  0.25500000920E-02 0. -1.
       -2   -1    0    0    0  501  0.00000000000E+00  0.00000000000E+00 -0.16317963889E+04  0.16317963889E+04  0.25500000920E-02 0.  1.
    10030    2    1    2    0    0  0.00000000000E+00  0.00000000000E+00  0.19351554357E+03  0.34571083213E+04  0.34516879465E+04 0.  0.
        5    1    3    3  502    0 -0.15011933453E+04 -0.81221898574E+03  0.35256870114E+03  0.17428734664E+04  0.46999998093E+01 0. -1.
       -5    1    3    3    0  502  0.15011933453E+04  0.81221898574E+03 -0.15905315757E+03  0.17142348549E+04  0.46999998093E+01 0.  1.
</event>
<event>
 5   0  0.5573334E-07  0.3498203E+04  0.7818609E-02  0.8114216E-01
       -2   -1    0    0    0  501  0.00000000000E+00  0.00000000000E+00  0.10685261873E+04  0.10685261873E+04  0.25500000920E-02 0.  1.
        2   -1    0    0  501    0  0.00000000000E+00  0.00000000000E+00 -0.28631551267E+04  0.28631551267E+04  0.25500000920E-02 0. -1.
    10030    2    1    2    0    0  0.00000000000E+00  0.00000000000E+00 -0.17946289394E+04  0.39316813139E+04  0.34982030993E+04 0.  0.
        4    1    3    3  502    0 -0.67764628429E+03  0.62901455220E+03 -0.25660497044E+04  0.27275403740E+04  0.12699999809E+01 0. -1.
       -4    1    3    3    0  502  0.67764628429E+03 -0.62901455220E+03  0.77142076505E+03  0.12041409399E+04  0.12699999809E+01 0.  1.
</event>
<event>
 5   0  0.5677193E-07  0.3544349E+04  0.7818609E-02  0.8103360E-01
       -2   -1    0    0    0  501  0.00000000000E+00  0.00000000000E+00  0.12140429795E+04  0.12140429795E+04  0.25500000920E-02 0.  1.
        2   -1    0    0  501    0  0.00000000000E+00  0.00000000000E+00 -0.25868954271E+04  0.25868954271E+04  0.25500000920E-02 0. -1.
    10030    2    1    2    0    0  0.00000000000E+00  0.00000000000E+00 -0.13728524476E+04  0.38009384066E+04  0.35443488722E+04 0.  0.
        3    1    3    3  502    0  0.12949201232E+04  0.65683945394E+03 -0.17760260227E+04  0.22940193193E+04  0.10100000352E+00 0. -1.
       -3    1    3    3    0  502 -0.12949201232E+04 -0.65683945394E+03  0.40317357509E+03  0.15069190873E+04  0.10100000352E+00 0.  1.
</event>
<event>
 5   0  0.5677193E-07  0.3500951E+04  0.7818609E-02  0.8113565E-01
        2   -1    0    0  501    0  0.00000000000E+00  0.00000000000E+00  0.16382757465E+04  0.16382757465E+04  0.25500000920E-02 0.  1.
       -2   -1    0    0    0  501  0.00000000000E+00  0.00000000000E+00 -0.18703597041E+04  0.18703597041E+04  0.25500000920E-02 0. -1.
    10030    2    1    2    0    0  0.00000000000E+00  0.00000000000E+00 -0.23208395759E+03  0.35086354506E+04  0.35009512652E+04 0.  0.
        3    1    3    3  502    0 -0.12186314012E+03  0.13834191725E+04  0.95187918017E+03  0.16836784775E+04  0.10100000352E+00 0.  1.
       -3    1    3    3    0  502  0.12186314012E+03 -0.13834191725E+04 -0.11839631378E+04  0.18249569731E+04  0.10100000352E+00 0. -1.
</event>
<event>
 5   0  0.5573334E-07  0.3505407E+04  0.7818609E-02  0.8112510E-01
        2   -1    0    0  501    0  0.00000000000E+00  0.00000000000E+00  0.18769725180E+04  0.18769725180E+04  0.25500000920E-02 0.  1.
       -2   -1    0    0    0  501  0.00000000000E+00  0.00000000000E+00 -0.16366621124E+04  0.16366621124E+04  0.25500000920E-02 0. -1.
    10030    2    1    2    0    0  0.00000000000E+00  0.00000000000E+00  0.24031040560E+03  0.35136346304E+04  0.35054071411E+04 0.  0.
        4    1    3    3  502    0 -0.50431366056E+03 -0.54436652097E+03 -0.14714321564E+04  0.16479627973E+04  0.12699999809E+01 0. -1.
       -4    1    3    3    0  502  0.50431366056E+03  0.54436652097E+03  0.17117425620E+04  0.18656718331E+04  0.12699999809E+01 0.  1.
</event>
<event>
 5   0  0.5677193E-07  0.3485608E+04  0.7818609E-02  0.8117209E-01
        2   -1    0    0  501    0  0.00000000000E+00  0.00000000000E+00  0.24251842889E+04  0.24251842889E+04  0.25500000920E-02 0. -1.
       -2   -1    0    0    0  501  0.00000000000E+00  0.00000000000E+00 -0.12524271370E+04  0.12524271370E+04  0.25500000920E-02 0.  1.
    10030    2    1    2    0    0  0.00000000000E+00  0.00000000000E+00  0.11727571519E+04  0.36776114259E+04  0.34856084781E+04 0.  0.
        3    1    3    3  502    0  0.91646097732E+03 -0.60818182484E+03 -0.83996951207E+03  0.13839561577E+04  0.10100000352E+00 0.  1.
       -3    1    3    3    0  502 -0.91646097732E+03  0.60818182484E+03  0.20127266640E+04  0.22936552682E+04  0.10100000352E+00 0. -1.
</event>
<event>
 5   0  0.1908190E-07  0.3239350E+04  0.7818609E-02  0.8178502E-01
        1   -1    0    0  501    0  0.00000000000E+00  0.00000000000E+00  0.19216598326E+04  0.19216598326E+04  0.50400001928E-02 0. -1.
       -1   -1    0    0    0  501  0.00000000000E+00  0.00000000000E+00 -0.13651465338E+04  0.13651465339E+04  0.50400001928E-02 0.  1.
    10030    2    1    2    0    0  0.00000000000E+00  0.00000000000E+00  0.55651329872E+03  0.32868063664E+04  0.32393500951E+04 0.  0.
        5    1    3    3  502    0  0.15184655332E+04 -0.50390838495E+03  0.53427020852E+03  0.16867507171E+04  0.46999998093E+01 0. -1.
       -5    1    3    3    0  502 -0.15184655332E+04  0.50390838495E+03  0.22243090201E+02  0.16000556493E+04  0.46999998093E+01 0.  1.
</event>
<event>
 5   0  0.5707187E-07  0.3609789E+04  0.7818609E-02  0.8088253E-01
        2   -1    0    0  501    0  0.00000000000E+00  0.00000000000E+00  0.26107160386E+04  0.26107160386E+04  0.25500000920E-02 0. -1.
       -2   -1    0    0    0  501  0.00000000000E+00  0.00000000000E+00 -0.12477971249E+04  0.12477971249E+04  0.25500000920E-02 0.  1.
    10030    2    1    2    0    0  0.00000000000E+00  0.00000000000E+00  0.13629189137E+04  0.38585131635E+04  0.36097888952E+04 0.  0.
        1    1    3    3  502    0  0.10570161245E+04 -0.11145684376E+04  0.16944375771E+04  0.22870646236E+04  0.50400001928E-02 0. -1.
       -1    1    3    3    0  502 -0.10570161245E+04  0.11145684376E+04 -0.33151866344E+03  0.15714485400E+04  0.50400001928E-02 0.  1.
</event>
<event>
 5   0  0.1873457E-07  0.3511882E+04  0.7818609E-02  0.8110980E-01
       -1   -1    0    0    0  501  0.00000000000E+00  0.00000000000E+00  0.18626066617E+04  0.18626066617E+04  0.50400001928E-02 0. -1.
        1   -1    0    0  501    0  0.00000000000E+00  0.00000000000E+00 -0.16553840000E+04  0.16553840000E+04  0.50400001928E-02 0.  1.
    10030    2    1    2    0    0  0.00000000000E+00  0.00000000000E+00  0.20722266166E+03  0.35179906617E+04  0.35118822680E+04 0.  0.
        3    1    3    3  502    0  0.13412901814E+04  0.10206902742E+04 -0.38964869497E+03  0.17299404910E+04  0.10100000352E+00 0.  1.
       -3    1    3    3    0  502 -0.13412901814E+04 -0.10206902742E+04  0.59687135663E+03  0.17880501708E+04  0.10100000352E+00 0. -1.
</event>
<event>
 5   0  0.5573334E-07  0.3505068E+04  0.7818609E-02  0.8112590E-01
       -2   -1    0    0    0  501  0.00000000000E+00  0.00000000000E+00  0.13085481218E+04  0.13085481218E+04  0.25500000920E-02 0.  1.
        2   -1    0    0  501    0  0.00000000000E+00  0.00000000000E+00 -0.23471623169E+04  0.23471623169E+04  0.25500000920E-02 0. -1.
    10030    2    1    2    0    0  0.00000000000E+00  0.00000000000E+00 -0.10386141951E+04  0.36557104387E+04  0.35050676692E+04 0.  0.
        4    1    3    3  502    0 -0.15297200624E+04 -0.79094737153E+03 -0.85844680084E+03  0.19242073008E+04  0.12699999809E+01 0. -1.
       -4    1    3    3    0  502  0.15297200624E+04  0.79094737153E+03 -0.18016739423E+03  0.17315031379E+04  0.12699999809E+01 0.  1.
</event>
<event>
 5   0  0.5573334E-07  0.3549810E+04  0.7818609E-02  0.8102086E-01
       -2   -1    0    0    0  501  0.00000000000E+00  0.00000000000E+00  0.16486134836E+04  0.16486134836E+04  0.25500000920E-02 0. -1.
        2   -1    0    0  501    0  0.00000000000E+00  0.00000000000E+00 -0.19108705378E+04  0.19108705378E+04  0.25500000920E-02 0.  1.
    10030    2    1    2    0    0  0.00000000000E+00  0.00000000000E+00 -0.26225705422E+03  0.35594840214E+04  0.35498095352E+04 0.  0.
        4    1    3    3  502    0  0.11585999831E+04 -0.12594668279E+04 -0.60323512537E+03  0.18145260651E+04  0.12699999809E+01 0.  1.
       -4    1    3    3    0  502 -0.11585999831E+04  0.12594668279E+04  0.34097807114E+03  0.17449579563E+04  0.12699999809E+01 0. -1.
</event>
<event>
 5   0  0.5573334E-07  0.3395115E+04  0.7818609E-02  0.8139106E-01
        2   -1    0    0  501    0  0.00000000000E+00  0.00000000000E+00  0.19705228837E+04  0.19705228837E+04  0.25500000920E-02 0.  1.
       -2   -1    0    0    0  501  0.00000000000E+00  0.00000000000E+00 -0.14624048170E+04  0.14624048170E+04  0.25500000920E-02 0. -1.
    10030    2    1    2    0    0  0.00000000000E+00  0.00000000000E+00  0.50811806668E+03  0.34329277008E+04  0.33951154073E+04 0.  0.
        4    1    3    3  502    0 -0.10896113546E+04 -0.41297463150E+03 -0.99415279078E+03  0.15317122232E+04  0.12699999809E+01 0. -1.
       -4    1    3    3    0  502  0.10896113546E+04  0.41297463150E+03  0.15022708575E+04  0.19012154776E+04  0.12699999809E+01 0.  1.
</event>
<event>
 5   0  0.5707187E-07  0.3482630E+04  0.7818609E-02  0.8117919E-01
       -2   -1    0    0    0  501  0.00000000000E+00  0.00000000000E+00  0.11213052872E+04  0.11213052872E+04  0.25500000920E-02 0.  1.
        2   -1    0    0  501    0  0.00000000000E+00  0.00000000000E+00 -0.27041497928E+04  0.27041497928E+04  0.25500000920E-02 0. -1.
    10030    2    1    2    0    0  0.00000000000E+00  0.00000000000E+00 -0.15828445055E+04  0.38254550800E+04  0.34826297305E+04 0.  0.
        1    1    3    3  502    0  0.17627485985E+03 -0.13123388507E+04  0.45077120246E+03  0.13987497140E+04  0.50400001928E-02 0.  1.
       -1    1    3    3    0  502 -0.17627485985E+03  0.13123388507E+04 -0.20336157080E+04  0.24267053660E+04  0.50400001928E-02 0. -1.
</event>
<event>
 5   0  0.1933647E-07  0.3511651E+04  0.7818609E-02  0.8111034E-01
        1   -1    0    0  501    0  0.00000000000E+00  0.00000000000E+00  0.18878943757E+04  0.18878943757E+04  0.50400001928E-02 0. -1.
       -1   -1    0    0    0  501  0.00000000000E+00  0.00000000000E+00 -0.16329955012E+04  0.16329955012E+04  0.50400001928E-02 0.  1.
    10030    2    1    2    0    0  0.00000000000E+00  0.00000000000E+00  0.25489887443E+03  0.35208898769E+04  0.35116509065E+04 0.  0.
        4    1    3    3  502    0  0.32695675054E+03  0.11021110849E+04  0.14581079946E+04  0.18567794960E+04  0.12699999809E+01 0. -1.
       -4    1    3    3    0  502 -0.32695675054E+03 -0.11021110849E+04 -0.12032091202E+04  0.16641103809E+04  0.12699999809E+01 0.  1.
</event>
<event>
 5   0  0.1908190E-07  0.3500808E+04  0.7818609E-02  0.8113598E-01
       -1   -1    0    0    0  501  0.00000000000E+00  0.00000000000E+00  0.18265113218E+04  0.18265113218E+04  0.50400001928E-02 0. -1.
        1   -1    0    0  501    0  0.00000000000E+00  0.00000000000E+00 -0.16774682931E+04  0.16774682931E+04  0.50400001928E-02 0.  1.
    10030    2    1    2    0    0  0.00000000000E+00  0.00000000000E+00  0.14904302866E+03  0.35039796149E+04  0.35008083805E+04 0.  0.
        5    1    3    3  502    0  0.14291875333E+04  0.71177802686E+03 -0.64354579781E+03  0.17214465570E+04  0.46999998093E+01 0. -1.
       -5    1    3    3    0  502 -0.14291875333E+04 -0.71177802686E+03  0.79258882646E+03  0.17825330579E+04  0.46999998093E+01 0.  1.
</event>
<event>
 5   0  0.5573334E-07  0.3543176E+04  0.7818609E-02  0.8103633E-01
       -2   -1    0    0    0  501  0.00000000000E+00  0.00000000000E+00  0.12398650947E+04  0.12398650947E+04  0.25500000920E-02 0. -1.
        2   -1    0    0  501    0  0.00000000000E+00  0.00000000000E+00 -0.25313434567E+04  0.25313434567E+04  0.25500000920E-02 0.  1.
    10030    2    1    2    0    0  0.00000000000E+00  0.00000000000E+00 -0.12914783620E+04  0.37712085514E+04  0.35431761992E+04 0.  0.
        4    1    3    3  502    0  0.14136201921E+04 -0.14016096861E+03 -0.17724293694E+04  0.22714476941E+04  0.12699999809E+01 0. -1.
       -4    1    3    3    0  502 -0.14136201921E+04  0.14016096861E+03  0.48095100739E+03  0.14997608573E+04  0.12699999809E+01 0.  1.
</event>
<event>
 5   0  0.5707187E-07  0.3492826E+04  0.7818609E-02  0.8115492E-01
        2   -1    0    0  501    0  0.00000000000E+00  0.00000000000E+00  0.18082547952E+04  0.18082547952E+04  0.25500000920E-02 0.  1.
       -2   -1    0    0    0  501  0.00000000000E+00  0.00000000000E+00 -0.16866865825E+04  0.16866865825E+04  0.25500000920E-02 0. -1.
    10030    2    1    2    0    0  0.00000000000E+00  0.00000000000E+00  0.12156821265E+03  0.34949413777E+04  0.34928264204E+04 0.  0.
        1    1    3    3  502    0 -0.14797896328E+04 -0.60852380885E+03 -0.63955435232E+03  0.17231100815E+04  0.50400001928E-02 0. -1.
       -1    1    3    3    0  502  0.14797896328E+04  0.60852380885E+03  0.76112256497E+03  0.17718312962E+04  0.50400001928E-02 0.  1.
</event>
<event>
 5   0  0.5740827E-07  0.3530339E+04  0.7818609E-02  0.8106637E-01
       -2   -1    0    0    0  501  0.00000000000E+00  0.00000000000E+00  0.31882618208E+04  0.31882618208E+04  0.25500000920E-02 0. -1.
        2   -1    0    0  501    0  0.00000000000E+00  0.00000000000E+00 -0.97727945959E+03  0.97727945959E+03  0.25500000920E-02 0.  1.
    10030    2    1    2    0    0  0.00000000000E+00  0.00000000000E+00  0.22109823612E+04  0.41655412804E+04  0.35303386746E+04 0.  0.
        2    1    3    3  502    0 -0.11987689268E+04  0.10878076637E+04  0.19360208203E+04  0.25235984367E+04  0.25500000920E-02 0. -1.
       -2    1    3    3    0  502  0.11987689268E+04 -0.10878076637E+04  0.27496154094E+03  0.16419428437E+04  0.25500000920E-02 0.  1.
</event>
<event>
 5   0  0.5554745E-07  0.3477695E+04  0.7818609E-02  0.8119096E-01
       -2   -1    0    0    0  501  0.00000000000E+00  0.00000000000E+00  0.14246867154E+04  0.14246867154E+04  0.25500000920E-02 0. -1.
        2   -1    0    0  501    0  0.00000000000E+00  0.00000000000E+00 -0.21222840269E+04  0.21222840269E+04  0.25500000920E-02 0.  1.
    10030    2    1    2    0    0  0.00000000000E+00  0.00000000000E+00 -0.69759731147E+03  0.35469707423E+04  0.34776945578E+04 0.  0.
        5    1    3    3  502    0 -0.23821173294E+03  0.50217311053E+01  0.14079520588E+04  0.14279779891E+04  0.46999998093E+01 0. -1.
       -5    1    3    3    0  502  0.23821173294E+03 -0.50217311053E+01 -0.21055493703E+04  0.21189927532E+04  0.46999998093E+01 0.  1.
</event>
<event>
 5   0  0.5740827E-07  0.3512294E+04  0.7818609E-02  0.8110883E-01
       -2   -1    0    0    0  501  0.00000000000E+00  0.00000000000E+00  0.12932982432E+04  0.12932982432E+04  0.25500000920E-02 0. -1.
        2   -1    0    0  501    0  0.00000000000E+00  0.00000000000E+00 -0.23846416950E+04  0.23846416950E+04  0.25500000920E-02 0.  1.
    10030    2    1    2    0    0  0.00000000000E+00  0.00000000000E+00 -0.10913434518E+04  0.36779399382E+04  0.35122943583E+04 0.  0.
        2    1    3    3  502    0 -0.17023726599E+04  0.15814700844E+03 -0.96580384295E+03  0.19636344396E+04  0.25500000920E-02 0.  1.
       -2    1    3    3    0  502  0.17023726599E+04 -0.15814700844E+03 -0.12553960882E+03  0.17143054986E+04  0.25500000920E-02 0. -1.
</event>
<event>
 5   0  0.1873457E-07  0.3415929E+04  0.7818609E-02  0.8134008E-01
       -1   -1    0    0    0  501  0.00000000000E+00  0.00000000000E+00  0.14147191038E+04  0.14147191039E+04  0.50400001928E-02 0.  1.
        1   -1    0    0  501    0  0.00000000000E+00  0.00000000000E+00 -0.20619948205E+04  0.20619948205E+04  0.50400001928E-02 0. -1.
    10030    2    1    2    0    0  0.00000000000E+00  0.00000000000E+00 -0.64727571661E+03  0.34767139243E+04  0.34159294282E+04 0.  0.
        3    1    3    3  502    0  0.11600452626E+04 -0.75739319178E+03 -0.13403090332E+04  0.19276352800E+04  0.10100000352E+00 0. -1.
       -3    1    3    3    0  502 -0.11600452626E+04  0.75739319178E+03  0.69303331657E+03  0.15490786443E+04  0.10100000352E+00 0.  1.
</event>
<event>
 5   0  0.5707187E-07  0.3506153E+04  0.7818609E-02  0.8112333E-01
       -2   -1    0    0    0  501  0.00000000000E+00  0.00000000000E+00  0.96834010509E+03  0.96834010509E+03  0.25500000920E-02 0. -1.
        2   -1    0    0  501    0  0.00000000000E+00  0.00000000000E+00 -0.31737575126E+04  0.31737575126E+04  0.25500000920E-02 0.  1.
    10030    2    1    2    0    0  0.00000000000E+00  0.00000000000E+00 -0.22054174075E+04  0.41420976177E+04  0.35061526968E+04 0.  0.
        1    1    3    3  502    0  0.10917751309E+04  0.10652802398E+04 -0.82006381037E+02  0.15275863224E+04  0.50400001928E-02 0. -1.
       -1    1    3    3    0  502 -0.10917751309E+04 -0.10652802398E+04 -0.21234110265E+04  0.26145112953E+04  0.50400001928E-02 0.  1.
</event>
<event>
 5   0  0.1897049E-07  0.3078813E+04  0.7818609E-02  0.8221577E-01
        1   -1    0    0  501    0  0.00000000000E+00  0.00000000000E+00  0.14469732423E+04  0.14469732423E+04  0.50400001928E-02 0. -1.
       -1   -1    0    0    0  501  0.00000000000E+00  0.00000000000E+00 -0.16377447448E+04  0.16377447448E+04  0.50400001928E-02 0.  1.
    10030    2    1    2    0    0  0.00000000000E+00  0.00000000000E+00 -0.19077150251E+03  0.30847179871E+04  0.30788132931E+04 0.  0.
        2    1    3    3  502    0  0.10702326813E+04 -0.92610216496E+03  0.51134116130E+03  0.15048365344E+04  0.25500000920E-02 0. -1.
       -2    1    3    3    0  502 -0.10702326813E+04  0.92610216496E+03 -0.70211266381E+03  0.15798814527E+04  0.25500000920E-02 0.  1.
</event>
<event>
 5   0  0.1933647E-07  0.3299414E+04  0.7818609E-02  0.8163044E-01
       -1   -1    0    0    0  501  0.00000000000E+00  0.00000000000E+00  0.18606999905E+04  0.18606999905E+04  0.50400001928E-02 0. -1.
        1   -1    0    0  501    0  0.00000000000E+00  0.00000000000E+00 -0.14626398217E+04  0.14626398217E+04  0.50400001928E-02 0.  1.
    10030    2    1    2    0    0  0.00000000000E+00  0.00000000000E+00  0.39806016885E+03  0.33233398122E+04  0.32994144343E+04 0.  0.
        4    1    3    3  502    0 -0.16599809618E+03  0.71023832037E+03 -0.12914087857E+04  0.14831493871E+04  0.12699999809E+01 0.  1.
       -4    1    3    3    0  502  0.16599809618E+03 -0.71023832037E+03  0.16894689545E+04  0.18401904252E+04  0.12699999809E+01 0. -1.
</event>
<event>
 5   0  0.5677193E-07  0.3487117E+04  0.7818609E-02  0.8116850E-01
        2   -1    0    0  501    0  0.00000000000E+00  0.00000000000E+00  0.26186198001E+04  0.26186198001E+04  0.25500000920E-02 0. -1.
       -2   -1    0    0    0  501  0.00000000000E+00  0.00000000000E+00 -0.11609157982E+04  0.11609157982E+04  0.25500000920E-02 0.  1.
    10030    2    1    2    0    0  0.00000000000E+00  0.00000000000E+00  0.14577040019E+04  0.37795355983E+04  0.34871174889E+04 0.  0.
        3    1    3    3  502    0 -0.59735064187E+03 -0.23536452316E+03 -0.10281237587E+04  0.12121314786E+04  0.10100000352E+00 0.  1.
       -3    1    3    3    0  502  0.59735064187E+03  0.23536452316E+03  0.24858277606E+04  0.25674041197E+04  0.10100000352E+00 0. -1.
</event>
<event>
 5   0  0.5554745E-07  0.3506900E+04  0.7818609E-02  0.8112157E-01
       -2   -1    0    0    0  501  0.00000000000E+00  0.00000000000E+00  0.10071694653E+04  0.10071694653E+04  0.25500000920E-02 0. -1.
        2   -1    0    0  501    0  0.00000000000E+00  0.00000000000E+00 -0.30527012271E+04  0.30527012271E+04  0.25500000920E-02 0.  1.
    10030    2    1    2    0    0  0.00000000000E+00  0.00000000000E+00 -0.20455317618E+04  0.40598706924E+04  0.35069003194E+04 0.  0.
        5    1    3    3  502    0  0.11650236272E+04 -0.10525468318E+04 -0.19265212036E+04  0.24852848776E+04  0.46999998093E+01 0.  1.
       -5    1    3    3    0  502 -0.11650236272E+04  0.10525468318E+04 -0.11901055824E+03  0.15745858148E+04  0.46999998093E+01 0. -1.
</event>
<event>
 5   0  0.5554745E-07  0.3498670E+04  0.7818609E-02  0.8114105E-01
        2   -1    0    0  501    0  0.00000000000E+00  0.00000000000E+00  0.18571284704E+04  0.18571284704E+04  0.25500000920E-02 0.  1.
       -2   -1    0    0    0  501  0.00000000000E+00  0.00000000000E+00 -0.16477980162E+04  0.16477980162E+04  0.25500000920E-02 0. -1.
    10030    2    1    2    0    0  0.00000000000E+00  0.00000000000E+00  0.20933045418E+03  0.35049264866E+04  0.34986698097E+04 0.  0.
        5    1    3    3  502    0 -0.96177865302E+02  0.11038424107E+04  0.14607596240E+04  0.18334554858E+04  0.46999998093E+01 0.  1.
       -5    1    3    3    0  502  0.96177865302E+02 -0.11038424107E+04 -0.12514291698E+04  0.16714710008E+04  0.46999998093E+01 0. -1.
</event>
<event>
 5   0  0.5707187E-07  0.3496561E+04  0.7818609E-02  0.8114605E-01
       -2   -1    0    0    0  501  0.00000000000E+00  0.00000000000E+00  0.13100606574E+04  0.13100606574E+04  0.25500000920E-02 0. -1.
        2   -1    0    0  501    0  0.00000000000E+00  0.00000000000E+00 -0.23330867694E+04  0.23330867694E+04  0.25500000920E-02 0.  1.
    10030    2    1    2    0    0  0.00000000000E+00  0.00000000000E+00 -0.10230261121E+04  0.36431474268E+04  0.34965612747E+04 0.  0.
        1    1    3    3  502    0  0.42251106002E+03  0.31461417286E+03 -0.22484293948E+04  0.23093142742E+04  0.50400001928E-02 0.  1.
       -1    1    3    3    0  502 -0.42251106002E+03 -0.31461417286E+03  0.12254032827E+04  0.13338331526E+04  0.50400001928E-02 0. -1.
</event>
<event>
 5   0  0.1933647E-07  0.3484210E+04  0.7818609E-02  0.8117542E-01
        1   -1    0    0  501    0  0.00000000000E+00  0.00000000000E+00  0.18917701778E+04  0.18917701778E+04  0.50400001928E-02 0.  1.
       -1   -1    0    0    0  501  0.00000000000E+00  0.00000000000E+00 -0.16042799495E+04  0.16042799495E+04  0.50400001928E-02 0. -1.
    10030    2    1    2    0    0  0.00000000000E+00  0.00000000000E+00  0.28749022826E+03  0.34960501273E+04  0.34842095031E+04 0.  0.
        4    1    3    3  502    0 -0.11973202603E+04 -0.11688576016E+04 -0.34279804021E+03  0.17080152247E+04  0.12699999809E+01 0.  1.
       -4    1    3    3    0  502  0.11973202603E+04  0.11688576016E+04  0.63028826847E+03  0.17880349026E+04  0.12699999809E+01 0. -1.
</event>
<event>
 5   0  0.1823000E-07  0.3507089E+04  0.7818609E-02  0.8112112E-01
        3   -1    0    0  501    0  0.00000000000E+00  0.00000000000E+00  0.24305897040E+04  0.24305897061E+04  0.10100000352E+00 0. -1.
       -3   -1    0    0    0  501  0.00000000000E+00  0.00000000000E+00 -0.12650914558E+04  0.12650914598E+04  0.10100000352E+00 0.  1.
    10030    2    1    2    0    0  0.00000000000E+00  0.00000000000E+00  0.11654982482E+04  0.36956811659E+04  0.35070889800E+04 0.  0.
        1    1    3    3  502    0  0.34375628404E+02 -0.15372401975E+04 -0.30557044038E+03  0.15676933382E+04  0.50400001928E-02 0. -1.
       -1    1    3    3    0  502 -0.34375628404E+02  0.15372401975E+04  0.14710686886E+04  0.21279878278E+04  0.50400001928E-02 0.  1.
</event>
<event>
 5   0  0.5554745E-07  0.3482084E+04  0.7818609E-02  0.8118049E-01
        2   -1    0    0  501    0  0.00000000000E+00  0.00000000000E+00  0.20472774980E+04  0.20472774980E+04  0.25500000920E-02 0.  1.
       -2   -1    0    0    0  501  0.00000000000E+00  0.00000000000E+00 -0.14806140838E+04  0.14806140839E+04  0.25500000920E-02 0. -1.
    10030    2    1    2    0    0  0.00000000000E+00  0.00000000000E+00  0.56666341413E+03  0.35278915818E+04  0.34820843741E+04 0.  0.
        5    1    3    3  502    0 -0.30420081899E+03  0.13340535697E+04 -0.80738458755E+03  0.15887507757E+04  0.46999998093E+01 0. -1.
       -5    1    3    3    0  502  0.30420081899E+03 -0.13340535697E+04  0.13740480017E+04  0.19391408061E+04  0.46999998093E+01 0.  1.
</event>
<event>
 5   0  0.5740827E-07  0.3517866E+04  0.7818609E-02  0.8109569E-01
       -2   -1    0    0    0  501  0.00000000000E+00  0.00000000000E+00  0.17894476374E+04  0.17894476374E+04  0.25500000920E-02 0. -1.
        2   -1    0    0  501    0  0.00000000000E+00  0.00000000000E+00 -0.17289384848E+04  0.17289384848E+04  0.25500000920E-02 0.  1.
    10030    2    1    2    0    0  0.00000000000E+00  0.00000000000E+00  0.60509152578E+02  0.35183861223E+04  0.35178657660E+04 0.  0.
        2    1    3    3  502    0  0.53124727544E+03  0.12505068534E+04  0.11474935913E+04  0.17784073212E+04  0.25500000920E-02 0. -1.
       -2    1    3    3    0  502 -0.53124727544E+03 -0.12505068534E+04 -0.10869844387E+04  0.17399788011E+04  0.25500000920E-02 0.  1.
</event>
<event>
 5   0  0.5677193E-07  0.3535526E+04  0.7818609E-02  0.8105422E-01
       -2   -1    0    0    0  501  0.00000000000E+00  0.00000000000E+00  0.26954447295E+04  0.26954447295E+04  0.25500000920E-02 0.  1.
        2   -1    0    0  501    0  0.00000000000E+00  0.00000000000E+00 -0.11593579712E+04  0.11593579712E+04  0.25500000920E-02 0. -1.
    10030    2    1    2    0    0  0.00000000000E+00  0.00000000000E+00  0.15360867584E+04  0.38548027007E+04  0.35355256090E+04 0.  0.
        3    1    3    3  502    0 -0.39401732127E+03  0.16340918676E+04  0.17137685216E+03  0.16896378064E+04  0.10100000352E+00 0. -1.
       -3    1    3    3    0  502  0.39401732127E+03 -0.16340918676E+04  0.13647099062E+04  0.21651648943E+04  0.10100000352E+00 0.  1.
</event>
<event>
 5   0  0.1866421E-07  0.3507103E+04  0.7818609E-02  0.8112109E-01
       -1   -1    0    0    0  501  0.00000000000E+00  0.00000000000E+00  0.20340124026E+04  0.20340124026E+04  0.50400001928E-02 0.  1.
        1   -1    0    0  501    0  0.00000000000E+00  0.00000000000E+00 -0.15117619067E+04  0.15117619067E+04  0.50400001928E-02 0. -1.
    10030    2    1    2    0    0  0.00000000000E+00  0.00000000000E+00  0.52225049590E+03  0.35457743093E+04  0.35071027747E+04 0.  0.
        1    1    3    3  502    0  0.12405783828E+04 -0.11047495327E+04 -0.30670480195E+03  0.16892525239E+04  0.50400001928E-02 0. -1.
       -1    1    3    3    0  502 -0.12405783828E+04  0.11047495327E+04  0.82895529786E+03  0.18565217854E+04  0.50400001928E-02 0.  1.
</event>
<event>
 5   0  0.5677193E-07  0.3500803E+04  0.7818609E-02  0.8113600E-01
       -2   -1    0    0    0  501  0.00000000000E+00  0.00000000000E+00  0.17616813369E+04  0.17616813369E+04  0.25500000920E-02 0. -1.
        2   -1    0    0  501    0  0.00000000000E+00  0.00000000000E+00 -0.17391938558E+04  0.17391938558E+04  0.25500000920E-02 0.  1.
    10030    2    1    2    0    0  0.00000000000E+00  0.00000000000E+00  0.22487481137E+02  0.35008751926E+04  0.35008029690E+04 0.  0.
        3    1    3    3  502    0  0.11413300258E+04  0.13210030806E+04  0.13861190565E+03  0.17512557315E+04  0.10100000352E+00 0. -1.
       -3    1    3    3    0  502 -0.11413300258E+04 -0.13210030806E+04 -0.11612442451E+03  0.17496194611E+04  0.10100000352E+00 0.  1.
</event>
<event>
 5   0  0.5554745E-07  0.3493836E+04  0.7818609E-02  0.8115252E-01
       -2   -1    0    0    0  501  0.00000000000E+00  0.00000000000E+00  0.14594489664E+04  0.14594489664E+04  0.25500000920E-02 0. -1.
        2   -1    0    0  501    0  0.00000000000E+00  0.00000000000E+00 -0.20910105376E+04  0.20910105376E+04  0.25500000920E-02 0.  1.
    10030    2    1    2    0    0  0.00000000000E+00  0.00000000000E+00 -0.63156157123E+03  0.35504595039E+04  0.34938363830E+04 0.  0.
        5    1    3    3  502    0  0.94063644657E+03 -0.12024304927E+04  0.54713661674E+03  0.16217325864E+04  0.46999998093E+01 0.  1.
       -5    1    3    3    0  502 -0.94063644657E+03  0.12024304927E+04 -0.11786981880E+04  0.19287269176E+04  0.46999998093E+01 0. -1.
</event>
<event>
 5   0  0.1866421E-07  0.3494939E+04  0.7818609E-02  0.8114990E-01
       -1   -1    0    0    0  501  0.00000000000E+00  0.00000000000E+00  0.18200356081E+04  0.18200356081E+04  0.50400001928E-02 0. -1.
        1   -1    0    0  501    0  0.00000000000E+00  0.00000000000E+00 -0.16777966303E+04  0.16777966303E+04  0.50400001928E-02 0.  1.
    10030    2    1    2    0    0  0.00000000000E+00  0.00000000000E+00  0.14223897782E+03  0.34978322385E+04  0.34949389754E+04 0.  0.
        1    1    3    3  502    0  0.32697933785E+03 -0.69900505415E+03 -0.14980196477E+04  0.16851072423E+04  0.50400001928E-02 0.  1.
       -1    1    3    3    0  502 -0.32697933785E+03  0.69900505415E+03  0.16402586255E+04  0.18127249962E+04  0.50400001928E-02 0. -1.
</event>
<event>
 5   0  0.1897049E-07  0.3522497E+04  0.7818609E-02  0.8108479E-01
       -1   -1    0    0    0  501  0.00000000000E+00  0.00000000000E+00  0.13864744740E+04  0.13864744740E+04  0.50400001928E-02 0. -1.
        1   -1    0    0  501    0  0.00000000000E+00  0.00000000000E+00 -0.22373268006E+04  0.22373268006E+04  0.50400001928E-02 0.  1.
    10030    2    1    2    0    0  0.00000000000E+00  0.00000000000E+00 -0.85085232662E+03  0.36238012747E+04  0.35224971251E+04 0.  0.
        2    1    3    3  502    0 -0.15766664711E+04 -0.60382528251E+02  0.37968769541E+03  0.16228635053E+04  0.25500000920E-02 0. -1.
       -2    1    3    3    0  502  0.15766664711E+04  0.60382528251E+02 -0.12305400220E+04  0.20009377693E+04  0.25500000920E-02 0.  1.
</event>
<event>
 5   0  0.5573334E-07  0.3489053E+04  0.7818609E-02  0.8116389E-01
       -2   -1    0    0    0  501  0.00000000000E+00  0.00000000000E+00  0.14979758222E+04  0.14979758222E+04  0.25500000920E-02 0. -1.
        2   -1    0    0  501    0  0.00000000000E+00  0.00000000000E+00 -0.20316566398E+04  0.20316566398E+04  0.25500000920E-02 0.  1.
    10030    2    1    2    0    0  0.00000000000E+00  0.00000000000E+00 -0.53368081754E+03  0.35296324620E+04  0.34890528947E+04 0.  0.
        4    1    3    3  502    0 -0.86674463620E+03 -0.34549134146E+03  0.12243319622E+04  0.15393508041E+04  0.12699999809E+01 0. -1.
       -4    1    3    3    0  502  0.86674463620E+03  0.34549134146E+03 -0.17580127797E+04  0.19902816579E+04  0.12699999809E+01 0.  1.
</event>
<event>
 5   0  0.5573334E-07  0.3543153E+04  0.7818609E-02  0.8103639E-01
       -2   -1    0    0    0  501  0.00000000000E+00  0.00000000000E+00  0.22822902386E+04  0.22822902387E+04  0.25500000920E-02 0. -1.
        2   -1    0    0  501    0  0.00000000000E+00  0.00000000000E+00 -0.13751464517E+04  0.13751464517E+04  0.25500000920E-02 0.  1.
    10030    2    1    2    0    0  0.00000000000E+00  0.00000000000E+00  0.90714378697E+03  0.36574366903E+04  0.35431530158E+04 0.  0.
        4    1    3    3  502    0 -0.91315895606E+03 -0.13077954305E+04 -0.34219783616E+03  0.16313458061E+04  0.12699999809E+01 0. -1.
       -4    1    3    3    0  502  0.91315895606E+03  0.13077954305E+04  0.12493416231E+04  0.20260908843E+04  0.12699999809E+01 0.  1.
</event>
<event>
 5   0  0.5740827E-07  0.3516078E+04  0.7818609E-02  0.8109990E-01
       -2   -1    0    0    0  501  0.00000000000E+00  0.00000000000E+00  0.18402411586E+04  0.18402411586E+04  0.25500000920E-02 0. -1.
        2   -1    0    0  501    0  0.00000000000E+00  0.00000000000E+00 -0.16795087628E+04  0.16795087628E+04  0.25500000920E-02 0.  1.
    10030    2    1    2    0    0  0.00000000000E+00  0.00000000000E+00  0.16073239578E+03  0.35197499214E+04  0.35160780148E+04 0.  0.
        2    1    3    3  502    0 -0.66008815301E+03 -0.59263041072E+02  0.17104010231E+04  0.18343118976E+04  0.25500000920E-02 0. -1.
       -2    1    3    3    0  502  0.66008815301E+03  0.59263041072E+02 -0.15496686273E+04  0.16854380239E+04  0.25500000920E-02 0.  1.
</event>
<event>
 5   0  0.5707187E-07  0.3261455E+04  0.7818609E-02  0.8172773E-01
        2   -1    0    0  501    0  0.00000000000E+00  0.00000000000E+00  0.22065927112E+04  0.22065927112E+04  0.25500000920E-02 0. -1.
       -2   -1    0    0    0  501  0.00000000000E+00  0.00000000000E+00 -0.12051487051E+04  0.12051487051E+04  0.25500000920E-02 0.  1.
    10030    2    1    2    0    0  0.00000000000E+00  0.00000000000E+00  0.10014440061E+04  0.34117414163E+04  0.32614551038E+04 0.  0.
        1    1    3    3  502    0  0.76877377975E+03  0.45436576401E+03  0.19280786317E+04  0.21248408368E+04  0.50400001928E-02 0. -1.
       -1    1    3    3    0  502 -0.76877377975E+03 -0.45436576401E+03 -0.92663462559E+03  0.12869005794E+04  0.50400001928E-02 0.  1.
</event>
<event>
 5   0  0.5573334E-07  0.3509937E+04  0.7818609E-02  0.8111439E-01
        2   -1    0    0  501    0  0.00000000000E+00  0.00000000000E+00  0.23109444933E+04  0.23109444933E+04  0.25500000920E-02 0.  1.
       -2   -1    0    0    0  501  0.00000000000E+00  0.00000000000E+00 -0.13327513554E+04  0.13327513554E+04  0.25500000920E-02 0. -1.
    10030    2    1    2    0    0  0.00000000000E+00  0.00000000000E+00  0.97819313798E+03  0.36436958487E+04  0.35099369827E+04 0.  0.
        4    1    3    3  502    0 -0.19335997884E+03  0.57670471583E+03  0.21980189846E+04  0.22806283083E+04  0.12699999809E+01 0.  1.
       -4    1    3    3    0  502  0.19335997884E+03 -0.57670471583E+03 -0.12198258467E+04  0.13630675404E+04  0.12699999809E+01 0. -1.
</event>
<event>
 5   0  0.5677193E-07  0.3492307E+04  0.7818609E-02  0.8115615E-01
       -2   -1    0    0    0  501  0.00000000000E+00  0.00000000000E+00  0.24502245416E+04  0.24502245416E+04  0.25500000920E-02 0. -1.
        2   -1    0    0  501    0  0.00000000000E+00  0.00000000000E+00 -0.12443970562E+04  0.12443970562E+04  0.25500000920E-02 0.  1.
    10030    2    1    2    0    0  0.00000000000E+00  0.00000000000E+00  0.12058274853E+04  0.36946215978E+04  0.34923070922E+04 0.  0.
        3    1    3    3  502    0  0.88657662756E+03 -0.13959451808E+04  0.11960833194E+04  0.20409057748E+04  0.10100000352E+00 0. -1.
       -3    1    3    3    0  502 -0.88657662756E+03  0.13959451808E+04  0.97441659071E+01  0.16537158230E+04  0.10100000352E+00 0.  1.
</event>
<event>
 5   0  0.1873457E-07  0.3462620E+04  0.7818609E-02  0.8122706E-01
        1   -1    0    0  501    0  0.00000000000E+00  0.00000000000E+00  0.18132388332E+04  0.18132388332E+04  0.50400001928E-02 0.  1.
       -1   -1    0    0    0  501  0.00000000000E+00  0.00000000000E+00 -0.16530825386E+04  0.16530825386E+04  0.50400001928E-02 0. -1.
    10030    2    1    2    0    0  0.00000000000E+00  0.00000000000E+00  0.16015629453E+03  0.34663213718E+04  0.34626195017E+04 0.  0.
        3    1    3    3  502    0 -0.88468583605E+03  0.17480345857E+03  0.15595648539E+04  0.18015181990E+04  0.10100000352E+00 0.  1.
       -3    1    3    3    0  502  0.88468583605E+03 -0.17480345857E+03 -0.13994085594E+04  0.16648031727E+04  0.10100000352E+00 0. -1.
</event>
<event>
 5   0  0.1873457E-07  0.3509582E+04  0.7818609E-02  0.8111523E-01
        1   -1    0    0  501    0  0.00000000000E+00  0.00000000000E+00  0.19590289442E+04  0.19590289442E+04  0.50400001928E-02 0.  1.
       -1   -1    0    0    0  501  0.00000000000E+00  0.00000000000E+00 -0.15718454737E+04  0.15718454738E+04  0.50400001928E-02 0. -1.
    10030    2    1    2    0    0  0.00000000000E+00  0.00000000000E+00  0.38718347048E+03  0.35308744180E+04  0.35095816155E+04 0.  0.
        3    1    3    3  502    0 -0.56821447065E+03 -0.10717427923E+04 -0.10820879811E+04  0.16255505857E+04  0.10100000352E+00 0. -1.
       -3    1    3    3    0  502  0.56821447065E+03  0.10717427923E+04  0.14692714515E+04  0.19053238323E+04  0.10100000352E+00 0.  1.
</event>
<event>
 5   0  0.1933647E-07  0.3513091E+04  0.7818609E-02  0.8110695E-01
       -1   -1    0    0    0  501  0.00000000000E+00  0.00000000000E+00  0.17983105207E+04  0.17983105207E+04  0.50400001928E-02 0. -1.
        1   -1    0    0  501    0  0.00000000000E+00  0.00000000000E+00 -0.17157505461E+04  0.17157505461E+04  0.50400001928E-02 0.  1.
    10030    2    1    2    0    0  0.00000000000E+00  0.00000000000E+00  0.82559974640E+02  0.35140610668E+04  0.35130910936E+04 0.  0.
        4    1    3    3  502    0  0.39584543862E+02  0.17186039776E+04  0.40232850272E+03  0.17655130713E+04  0.12699999809E+01 0. -1.
       -4    1    3    3    0  502 -0.39584543862E+02 -0.17186039776E+04 -0.31976852808E+03  0.17485479955E+04  0.12699999809E+01 0.  1.
</event>
<event>
 5   0  0.1866421E-07  0.3522805E+04  0.7818609E-02  0.8108407E-01
        1   -1    0    0  501    0  0.00000000000E+00  0.00000000000E+00  0.21109480004E+04  0.21109480004E+04  0.50400001928E-02 0. -1.
       -1   -1    0    0    0  501  0.00000000000E+00  0.00000000000E+00 -0.14697369577E+04  0.14697369577E+04  0.50400001928E-02 0.  1.
    10030    2    1    2    0    0  0.00000000000E+00  0.00000000000E+00  0.64121104275E+03  0.35806849581E+04  0.35228047303E+04 0.  0.
        1    1    3    3  502    0  0.93913307225E+03  0.14241041683E+04 -0.12534523961E+03  0.17104838610E+04  0.50400001928E-02 0.  1.
       -1    1    3    3    0  502 -0.93913307225E+03 -0.14241041683E+04  0.76655628237E+03  0.18702010971E+04  0.50400001928E-02 0. -1.
</event>
<event>
 5   0  0.5707187E-07  0.3522651E+04  0.7818609E-02  0.8108443E-01
       -2   -1    0    0    0  501  0.00000000000E+00  0.00000000000E+00  0.15502309600E+04  0.15502309600E+04  0.25500000920E-02 0.  1.
        2   -1    0    0  501    0  0.00000000000E+00  0.00000000000E+00 -0.20011649792E+04  0.20011649792E+04  0.25500000920E-02 0. -1.
    10030    2    1    2    0    0  0.00000000000E+00  0.00000000000E+00 -0.45093401919E+03  0.35513959392E+04  0.35226512214E+04 0.  0.
        1    1    3    3  502    0 -0.18812752699E+03 -0.21495321875E+03  0.15267228597E+04  0.15532158714E+04  0.50400001928E-02 0.  1.
       -1    1    3    3    0  502  0.18812752699E+03  0.21495321875E+03 -0.19776568789E+04  0.19981800678E+04  0.50400001928E-02 0. -1.
</event>
<event>
 5   0  0.5573334E-07  0.3513367E+04  0.7818609E-02  0.8110630E-01
        2   -1    0    0  501    0  0.00000000000E+00  0.00000000000E+00  0.19873408674E+04  0.19873408674E+04  0.25500000920E-02 0.  1.
       -2   -1    0    0    0  501  0.00000000000E+00  0.00000000000E+00 -0.15527965950E+04  0.15527965950E+04  0.25500000920E-02 0. -1.
    10030    2    1    2    0    0  0.00000000000E+00  0.00000000000E+00  0.43454427238E+03  0.35401374625E+04  0.35133665520E+04 0.  0.
        4    1    3    3  502    0 -0.62944939030E+03  0.14473571404E+04 -0.55989294561E+03  0.16746733861E+04  0.12699999809E+01 0. -1.
       -4    1    3    3    0  502  0.62944939030E+03 -0.14473571404E+04  0.99443721799E+03  0.18654640763E+04  0.12699999809E+01 0.  1.
</event>
<event>
 5   0  0.5740827E-07  0.3527970E+04  0.7818609E-02  0.8107193E-01
        2   -1    0    0  501    0  0.00000000000E+00  0.00000000000E+00  0.28382463108E+04  0.28382463108E+04  0.25500000920E-02 0.  1.
       -2   -1    0    0    0  501  0.00000000000E+00  0.00000000000E+00 -0.10963261627E+04  0.10963261627E+04  0.25500000920E-02 0. -1.
    10030    2    1    2    0    0  0.00000000000E+00  0.00000000000E+00  0.17419201482E+04  0.39345724735E+04  0.35279703438E+04 0.  0.
        2    1    3    3  502    0  0.14573059161E+04  0.84218181413E+03  0.28226709459E+03  0.17066591498E+04  0.25500000920E-02 0. -1.
       -2    1    3    3    0  502 -0.14573059161E+04 -0.84218181413E+03  0.14596530536E+04  0.22279133237E+04  0.25500000920E-02 0.  1.
</event>
<event>
 5   0  0.1823000E-07  0.3508939E+04  0.7818609E-02  0.8111675E-01
        3   -1    0    0  501    0  0.00000000000E+00  0.00000000000E+00  0.20710582307E+04  0.20710582332E+04  0.10100000352E+00 0.  1.
       -3   -1    0    0    0  501  0.00000000000E+00  0.00000000000E+00 -0.14862755317E+04  0.14862755352E+04  0.10100000352E+00 0. -1.
    10030    2    1    2    0    0  0.00000000000E+00  0.00000000000E+00  0.58478269895E+03  0.35573337683E+04  0.35089389756E+04 0.  0.
        2    1    3    3  502    0 -0.17092573004E+03 -0.15981829772E+04  0.10054833119E+04  0.18958905886E+04  0.25500000920E-02 0.  1.
       -2    1    3    3    0  502  0.17092573004E+03  0.15981829772E+04 -0.42070061291E+03  0.16614431797E+04  0.25500000920E-02 0. -1.
</event>
<event>
 5   0  0.1873457E-07  0.3487523E+04  0.7818609E-02  0.8116753E-01
       -1   -1    0    0    0  501  0.00000000000E+00  0.00000000000E+00  0.21271523041E+04  0.21271523041E+04  0.50400001928E-02 0. -1.
        1   -1    0    0  501    0  0.00000000000E+00  0.00000000000E+00 -0.14294715244E+04  0.14294715244E+04  0.50400001928E-02 0.  1.
    10030    2    1    2    0    0  0.00000000000E+00  0.00000000000E+00  0.69768077978E+03  0.35566238285E+04  0.34875227006E+04 0.  0.
        3    1    3    3  502    0  0.13221137570E+04 -0.95707184316E+03  0.97478707026E+03  0.19010999821E+04  0.10100000352E+00 0. -1.
       -3    1    3    3    0  502 -0.13221137570E+04  0.95707184316E+03 -0.27710629048E+03  0.16555238464E+04  0.10100000352E+00 0.  1.
</event>
<event>
 5   0  0.5707187E-07  0.3503269E+04  0.7818609E-02  0.8113016E-01
       -2   -1    0    0    0  501  0.00000000000E+00  0.00000000000E+00  0.13758995500E+04  0.13758995500E+04  0.25500000920E-02 0. -1.
        2   -1    0    0  501    0  0.00000000000E+00  0.00000000000E+00 -0.22299760043E+04  0.22299760043E+04  0.25500000920E-02 0.  1.
    10030    2    1    2    0    0  0.00000000000E+00  0.00000000000E+00 -0.85407645437E+03  0.36058755543E+04  0.35032687484E+04 0.  0.
        1    1    3    3  502    0  0.48941087130E+02  0.12092834956E+04 -0.17304045769E+04  0.21116490718E+04  0.50400001928E-02 0.  1.
       -1    1    3    3    0  502 -0.48941087130E+02 -0.12092834956E+04  0.87632812251E+03  0.14942264825E+04  0.50400001928E-02 0. -1.
</event>
<event>
 5   0  0.1933647E-07  0.3510807E+04  0.7818609E-02  0.8111234E-01
       -1   -1    0    0    0  501  0.00000000000E+00  0.00000000000E+00  0.27634404904E+04  0.27634404904E+04  0.50400001928E-02 0. -1.
        1   -1    0    0  501    0  0.00000000000E+00  0.00000000000E+00 -0.11150741213E+04  0.11150741213E+04  0.50400001928E-02 0.  1.
    10030    2    1    2    0    0  0.00000000000E+00  0.00000000000E+00  0.16483663691E+04  0.38785146116E+04  0.35108067315E+04 0.  0.
        4    1    3    3  502    0  0.18999988953E+03 -0.16992843915E+04  0.38537630970E+03  0.17527646488E+04  0.12699999809E+01 0.  1.
       -4    1    3    3    0  502 -0.18999988953E+03  0.16992843915E+04  0.12629900594E+04  0.21257499628E+04  0.12699999809E+01 0. -1.
</event>
<event>
 5   0  0.1873457E-07  0.3482641E+04  0.7818609E-02  0.8117916E-01
        1   -1    0    0  501    0  0.00000000000E+00  0.00000000000E+00  0.21235410555E+04  0.21235410555E+04  0.50400001928E-02 0. -1.
       -1   -1    0    0    0  501  0.00000000000E+00  0.00000000000E+00 -0.14278968657E+04  0.14278968658E+04  0.50400001928E-02 0.  1.
    10030    2    1    2    0    0  0.00000000000E+00  0.00000000000E+00  0.69564418974E+03  0.35514379212E+04  0.34826413065E+04 0.  0.
        3    1    3    3  502    0 -0.15229841963E+04 -0.14409774704E+03  0.11960911980E+04  0.19418751728E+04  0.10100000352E+00 0. -1.
       -3    1    3    3    0  502  0.15229841963E+04  0.14409774704E+03 -0.50044700821E+03  0.16095627484E+04  0.10100000352E+00 0.  1.
</event>
<event>
 5   0  0.1866421E-07  0.3509483E+04  0.7818609E-02  0.8111546E-01
       -1   -1    0    0    0  501  0.00000000000E+00  0.00000000000E+00  0.11163813101E+04  0.11163813101E+04  0.50400001928E-02 0. -1.
        1   -1    0    0  501    0  0.00000000000E+00  0.00000000000E+00 -0.27581242774E+04  0.27581242775E+04  0.50400001928E-02 0.  1.
    10030    2    1    2    0    0  0.00000000000E+00  0.00000000000E+00 -0.16417429674E+04  0.38745055875E+04  0.35094833775E+04 0.  0.
        1    1    3    3  502    0  0.14522131155E+04 -0.96862703518E+03 -0.10182305011E+04  0.20208796648E+04  0.50400001928E-02 0. -1.
       -1    1    3    3    0  502 -0.14522131155E+04  0.96862703518E+03 -0.62351246626E+03  0.18536259228E+04  0.50400001928E-02 0.  1.
</event>
<event>
 5   0  0.1823000E-07  0.3477855E+04  0.7818609E-02  0.8119058E-01
        3   -1    0    0  501    0  0.00000000000E+00  0.00000000000E+00  0.10831205159E+04  0.10831205206E+04  0.10100000352E+00 0.  1.
       -3   -1    0    0    0  501  0.00000000000E+00  0.00000000000E+00 -0.27918121138E+04  0.27918121156E+04  0.10100000352E+00 0. -1.
    10030    2    1    2    0    0  0.00000000000E+00  0.00000000000E+00 -0.17086915979E+04  0.38749326362E+04  0.34778550801E+04 0.  0.
        2    1    3    3  502    0 -0.36907505724E+03 -0.96017927178E+03 -0.24164579756E+04  0.26262958286E+04  0.25500000920E-02 0. -1.
       -2    1    3    3    0  502  0.36907505724E+03  0.96017927178E+03  0.70776637768E+03  0.12486368076E+04  0.25500000920E-02 0.  1.
</event>
<event>
 5   0  0.1873457E-07  0.3405230E+04  0.7818609E-02  0.8136624E-01
       -1   -1    0    0    0  501  0.00000000000E+00  0.00000000000E+00  0.13833894156E+04  0.13833894156E+04  0.50400001928E-02 0. -1.
        1   -1    0    0  501    0  0.00000000000E+00  0.00000000000E+00 -0.20955038878E+04  0.20955038878E+04  0.50400001928E-02 0.  1.
    10030    2    1    2    0    0  0.00000000000E+00  0.00000000000E+00 -0.71211447216E+03  0.34788933034E+04  0.34052300355E+04 0.  0.
        3    1    3    3  502    0  0.13730714956E+04  0.91245356654E+03 -0.79070274397E+03  0.18284167147E+04  0.10100000352E+00 0.  1.
       -3    1    3    3    0  502 -0.13730714956E+04 -0.91245356654E+03  0.78588271816E+02  0.16504765887E+04  0.10100000352E+00 0. -1.
</event>
<event>
 5   0  0.5573334E-07  0.3528493E+04  0.7818609E-02  0.8107070E-01
       -2   -1    0    0    0  501  0.00000000000E+00  0.00000000000E+00  0.17963241180E+04  0.17963241180E+04  0.25500000920E-02 0. -1.
        2   -1    0    0  501    0  0.00000000000E+00  0.00000000000E+00 -0.17327418304E+04  0.17327418304E+04  0.25500000920E-02 0.  1.
    10030    2    1    2    0    0  0.00000000000E+00  0.00000000000E+00  0.63582287586E+02  0.35290659484E+04  0.35284931290E+04 0.  0.
        4    1    3    3  502    0 -0.85375568220E+03 -0.73894571340E+03  0.13876014136E+04  0.17889602645E+04  0.12699999809E+01 0. -1.
       -4    1    3    3    0  502  0.85375568220E+03  0.73894571340E+03 -0.13240191260E+04  0.17401056839E+04  0.12699999809E+01 0.  1.
</event>
<event>
 5   0  0.5707187E-07  0.3518393E+04  0.7818609E-02  0.8109445E-01
        2   -1    0    0  501    0  0.00000000000E+00  0.00000000000E+00  0.17600956747E+04  0.17600956748E+04  0.25500000920E-02 0.  1.
       -2   -1    0    0    0  501  0.00000000000E+00  0.00000000000E+00 -0.17582977934E+04  0.17582977934E+04  0.25500000920E-02 0. -1.
    10030    2    1    2    0    0  0.00000000000E+00  0.00000000000E+00  0.17978813092E+01  0.35183934682E+04  0.35183930088E+04 0.  0.
        1    1    3    3  502    0 -0.27504748499E+03 -0.16059851229E+04 -0.66237560426E+03  0.17588578042E+04  0.50400001928E-02 0. -1.
       -1    1    3    3    0  502  0.27504748499E+03  0.16059851229E+04  0.66417348557E+03  0.17595356640E+04  0.50400001928E-02 0.  1.
</event>
<event>
 5   0  0.1933647E-07  0.3496819E+04  0.7818609E-02  0.8114544E-01
        1   -1    0    0  501    0  0.00000000000E+00  0.00000000000E+00  0.92243020405E+03  0.92243020407E+03  0.50400001928E-02 0.  1.
       -1   -1    0    0    0  501  0.00000000000E+00  0.00000000000E+00 -0.33140024463E+04  0.33140024463E+04  0.50400001928E-02 0. -1.
    10030    2    1    2    0    0  0.00000000000E+00  0.00000000000E+00 -0.23915722422E+04  0.42364326503E+04  0.34968190990E+04 0.  0.
        4    1    3    3  502    0  0.16880006355E+04 -0.91696055511E+02 -0.17364782348E+04  0.24234505535E+04  0.12699999809E+01 0. -1.
       -4    1    3    3    0  502 -0.16880006355E+04  0.91696055511E+02 -0.65509400741E+03  0.18129820969E+04  0.12699999809E+01 0.  1.
</event>
<event>
 5   0  0.5554745E-07  0.3500068E+04  0.7818609E-02  0.8113774E-01
        2   -1    0    0  501    0  0.00000000000E+00  0.00000000000E+00  0.16905840740E+04  0.16905840740E+04  0.25500000920E-02 0.  1.
       -2   -1    0    0    0  501  0.00000000000E+00  0.00000000000E+00 -0.18115744118E+04  0.18115744118E+04  0.25500000920E-02 0. -1.
    10030    2    1    2    0    0  0.00000000000E+00  0.00000000000E+00 -0.12099033782E+03  0.35021584859E+04  0.35000679134E+04 0.  0.
        5    1    3    3  502    0  0.56506622973E+03  0.16378784368E+04 -0.30691679314E+03  0.17595924601E+04  0.46999998093E+01 0. -1.
       -5    1    3    3    0  502 -0.56506622973E+03 -0.16378784368E+04  0.18592645532E+03  0.17425660258E+04  0.46999998093E+01 0.  1.
</event>
<event>
 5   0  0.1933647E-07  0.3547235E+04  0.7818609E-02  0.8102686E-01
        1   -1    0    0  501    0  0.00000000000E+00  0.00000000000E+00  0.20336560729E+04  0.20336560729E+04  0.50400001928E-02 0. -1.
       -1   -1    0    0    0  501  0.00000000000E+00  0.00000000000E+00 -0.15468293865E+04  0.15468293865E+04  0.50400001928E-02 0.  1.
    10030    2    1    2    0    0  0.00000000000E+00  0.00000000000E+00  0.48682668646E+03  0.35804854594E+04  0.35472349658E+04 0.  0.
        4    1    3    3  502    0  0.95293972400E+03  0.14585905803E+04  0.57839275381E+03  0.18357887648E+04  0.12699999809E+01 0.  1.
       -4    1    3    3    0  502 -0.95293972400E+03 -0.14585905803E+04 -0.91566067342E+02  0.17446966946E+04  0.12699999809E+01 0. -1.
</event>
<event>
 5   0  0.1866421E-07  0.3476780E+04  0.7818609E-02  0.8119315E-01
       -1   -1    0    0    0  501  0.00000000000E+00  0.00000000000E+00  0.18244519860E+04  0.18244519861E+04  0.50400001928E-02 0. -1.
        1   -1    0    0  501    0  0.00000000000E+00  0.00000000000E+00 -0.16563872881E+04  0.16563872881E+04  0.50400001928E-02 0.  1.
    10030    2    1    2    0    0  0.00000000000E+00  0.00000000000E+00  0.16806469790E+03  0.34808392742E+04  0.34767795889E+04 0.  0.
        1    1    3    3  502    0 -0.12916392560E+03 -0.12611696582E+04 -0.11067962299E+04  0.16829230883E+04  0.50400001928E-02 0.  1.
       -1    1    3    3    0  502  0.12916392560E+03  0.12611696582E+04  0.12748609278E+04  0.17979161859E+04  0.50400001928E-02 0. -1.
</event>
<event>
 5   0  0.1866421E-07  0.3488712E+04  0.7818609E-02  0.8116470E-01
       -1   -1    0    0    0  501  0.00000000000E+00  0.00000000000E+00  0.98349498139E+03  0.98349498140E+03  0.50400001928E-02 0. -1.
        1   -1    0    0  501    0  0.00000000000E+00  0.00000000000E+00 -0.30938409071E+04  0.30938409071E+04  0.50400001928E-02 0.  1.
    10030    2    1    2    0    0  0.00000000000E+00  0.00000000000E+00 -0.21103459257E+04  0.40773358885E+04  0.34887115131E+04 0.  0.
        1    1    3    3  502    0  0.14033693037E+04  0.85279019717E+03 -0.17427161534E+04  0.23945262818E+04  0.50400001928E-02 0.  1.
       -1    1    3    3    0  502 -0.14033693037E+04 -0.85279019717E+03 -0.36762977239E+03  0.16828096067E+04  0.50400001928E-02 0. -1.
</event>
<event>
 5   0  0.1873457E-07  0.3525262E+04  0.7818609E-02  0.8107829E-01
        1   -1    0    0  501    0  0.00000000000E+00  0.00000000000E+00  0.16353322681E+04  0.16353322681E+04  0.50400001928E-02 0. -1.
       -1   -1    0    0    0  501  0.00000000000E+00  0.00000000000E+00 -0.18998390789E+04  0.18998390789E+04  0.50400001928E-02 0.  1.
    10030    2    1    2    0    0  0.00000000000E+00  0.00000000000E+00 -0.26450681084E+03  0.35351713470E+04  0.35252620611E+04 0.  0.
        3    1    3    3  502    0  0.35526365263E+03  0.35169229909E+02 -0.18632047206E+04  0.18970980414E+04  0.10100000352E+00 0.  1.
       -3    1    3    3    0  502 -0.35526365263E+03 -0.35169229909E+02  0.15986979098E+04  0.16380733056E+04  0.10100000352E+00 0. -1.
</event>
<event>
 5   0  0.5554745E-07  0.3516331E+04  0.7818609E-02  0.8109931E-01
       -2   -1    0    0    0  501  0.00000000000E+00  0.00000000000E+00  0.16335201633E+04  0.16335201633E+04  0.25500000920E-02 0. -1.
        2   -1    0    0  501    0  0.00000000000E+00  0.00000000000E+00 -0.18923218955E+04  0.18923218955E+04  0.25500000920E-02 0.  1.
    10030    2    1    2    0    0  0.00000000000E+00  0.00000000000E+00 -0.25880173225E+03  0.35258420588E+04  0.35163310264E+04 0.  0.
        5    1    3    3  502    0  0.55154194310E+03 -0.11870986941E+04  0.10475380062E+04  0.16765320722E+04  0.46999998093E+01 0. -1.
       -5    1    3    3    0  502 -0.55154194310E+03  0.11870986941E+04 -0.13063397384E+04  0.18493099867E+04  0.46999998093E+01 0.  1.
</event>
<event>
 5   0  0.5707187E-07  0.3491871E+04  0.7818609E-02  0.8115719E-01
       -2   -1    0    0    0  501  0.00000000000E+00  0.00000000000E+00  0.17833880269E+04  0.17833880269E+04  0.25500000920E-02 0. -1.
        2   -1    0    0  501    0  0.00000000000E+00  0.00000000000E+00 -0.17092690162E+04  0.17092690162E+04  0.25500000920E-02 0.  1.
    10030    2    1    2    0    0  0.00000000000E+00  0.00000000000E+00  0.74119010729E+02  0.34926570431E+04  0.34918705006E+04 0.  0.
        1    1    3    3  502    0  0.97783602645E+03 -0.79102089298E+03  0.12482874949E+04  0.17720324539E+04  0.50400001928E-02 0. -1.
       -1    1    3    3    0  502 -0.97783602645E+03  0.79102089298E+03 -0.11741684842E+04  0.17206245892E+04  0.50400001928E-02 0.  1.
</event>
<event>
 5   0  0.1933647E-07  0.3474300E+04  0.7818609E-02  0.8119908E-01
       -1   -1    0    0    0  501  0.00000000000E+00  0.00000000000E+00  0.13013704795E+04  0.13013704795E+04  0.50400001928E-02 0.  1.
        1   -1    0    0  501    0  0.00000000000E+00  0.00000000000E+00 -0.23188551831E+04  0.23188551831E+04  0.50400001928E-02 0. -1.
    10030    2    1    2    0    0  0.00000000000E+00  0.00000000000E+00 -0.10174847036E+04  0.36202256627E+04  0.34742997462E+04 0.  0.
        4    1    3    3  502    0  0.16664792438E+04  0.48030067123E+03 -0.40534626641E+03  0.17810527823E+04  0.12699999809E+01 0. -1.
       -4    1    3    3    0  502 -0.16664792438E+04 -0.48030067123E+03 -0.61213843721E+03  0.18391728804E+04  0.12699999809E+01 0.  1.
</event>
<event>
 5   0  0.1873457E-07  0.3413143E+04  0.7818609E-02  0.8134688E-01
        1   -1    0    0  501    0  0.00000000000E+00  0.00000000000E+00  0.14727702010E+04  0.14727702010E+04  0.50400001928E-02 0. -1.
       -1   -1    0    0    0  501  0.00000000000E+00  0.00000000000E+00 -0.19774880795E+04  0.19774880795E+04  0.50400001928E-02 0.  1.
    10030    2    1    2    0    0  0.00000000000E+00  0.00000000000E+00 -0.50471787854E+03  0.34502582806E+04  0.34131425499E+04 0.  0.
        3    1    3    3  502    0  0.17453917545E+03  0.70167524760E+03  0.13102754228E+04  0.14965406011E+04  0.10100000352E+00 0. -1.
       -3    1    3    3    0  502 -0.17453917545E+03 -0.70167524760E+03 -0.18149933014E+04  0.19537176795E+04  0.10100000352E+00 0.  1.
</event>
<event>
 5   0  0.5554745E-07  0.3485672E+04  0.7818609E-02  0.8117194E-01
       -2   -1    0    0    0  501  0.00000000000E+00  0.00000000000E+00  0.11377252819E+04  0.11377252819E+04  0.25500000920E-02 0. -1.
        2   -1    0    0  501    0  0.00000000000E+00  0.00000000000E+00 -0.26697805744E+04  0.26697805744E+04  0.25500000920E-02 0.  1.
    10030    2    1    2    0    0  0.00000000000E+00  0.00000000000E+00 -0.15320552926E+04  0.38075058563E+04  0.34856717324E+04 0.  0.
        5    1    3    3  502    0 -0.85749635092E+03 -0.28997586298E+03 -0.23928554995E+04  0.25583521111E+04  0.46999998093E+01 0.  1.
       -5    1    3    3    0  502  0.85749635092E+03  0.28997586298E+03  0.86080020690E+03  0.12491537452E+04  0.46999998093E+01 0. -1.
</event>
<event>
 5   0  0.1873457E-07  0.3493677E+04  0.7818609E-02  0.8115290E-01
       -1   -1    0    0    0  501  0.00000000000E+00  0.00000000000E+00  0.22002211662E+04  0.22002211662E+04  0.50400001928E-02 0. -1.
        1   -1    0    0  501    0  0.00000000000E+00  0.00000000000E+00 -0.13868809748E+04  0.13868809748E+04  0.50400001928E-02 0.  1.
    10030    2    1    2    0    0  0.00000000000E+00  0.00000000000E+00  0.81334019143E+03  0.35871021410E+04  0.34936770748E+04 0.  0.
        3    1    3    3  502    0 -0.16141510960E+04 -0.54940438439E+03  0.16892409391E+02  0.17051728071E+04  0.10100000352E+00 0.  1.
       -3    1    3    3    0  502  0.16141510960E+04  0.54940438439E+03  0.79644778204E+03  0.18819293340E+04  0.10100000352E+00 0. -1.
</event>
<event>
 5   0  0.1873457E-07  0.3529590E+04  0.7818609E-02  0.8106813E-01
       -1   -1    0    0    0  501  0.00000000000E+00  0.00000000000E+00  0.15211077372E+04  0.15211077372E+04  0.50400001928E-02 0. -1.
        1   -1    0    0  501    0  0.00000000000E+00  0.00000000000E+00 -0.20475215013E+04  0.20475215014E+04  0.50400001928E-02 0.  1.
    10030    2    1    2    0    0  0.00000000000E+00  0.00000000000E+00 -0.52641376412E+03  0.35686292386E+04  0.35295896633E+04 0.  0.
        3    1    3    3  502    0 -0.17012023486E+04 -0.21023671316E+03  0.16121210482E+03  0.17217079484E+04  0.10100000352E+00 0. -1.
       -3    1    3    3    0  502  0.17012023486E+04  0.21023671316E+03 -0.68762586894E+03  0.18469212902E+04  0.10100000352E+00 0.  1.
</event>
<event>
 5   0  0.5573334E-07  0.3496313E+04  0.7818609E-02  0.8114664E-01
        2   -1    0    0  501    0  0.00000000000E+00  0.00000000000E+00  0.21345904627E+04  0.21345904627E+04  0.25500000920E-02 0. -1.
       -2   -1    0    0    0  501  0.00000000000E+00  0.00000000000E+00 -0.14316803278E+04  0.14316803278E+04  0.25500000920E-02 0.  1.
    10030    2    1    2    0    0  0.00000000000E+00  0.00000000000E+00  0.70291013491E+03  0.35662707905E+04  0.34963130143E+04 0.  0.
        4    1    3    3  502    0 -0.17849250782E+03  0.85757284514E+03  0.18945904288E+04  0.20872865797E+04  0.12699999809E+01 0. -1.
       -4    1    3    3    0  502  0.17849250782E+03 -0.85757284514E+03 -0.11916802939E+04  0.14789842108E+04  0.12699999809E+01 0.  1.
</event>
<event>
 5   0  0.5740827E-07  0.3506693E+04  0.7818609E-02  0.8112206E-01
        2   -1    0    0  501    0  0.00000000000E+00  0.00000000000E+00  0.19201722338E+04  0.19201722338E+04  0.25500000920E-02 0. -1.
       -2   -1    0    0    0  501  0.00000000000E+00  0.00000000000E+00 -0.16010149328E+04  0.16010149328E+04  0.25500000920E-02 0.  1.
    10030    2    1    2    0    0  0.00000000000E+00  0.00000000000E+00  0.31915730102E+03  0.35211871666E+04  0.35066932685E+04 0.  0.
        2    1    3    3  502    0  0.11424557539E+04  0.49978607885E+03 -0.10780875877E+04  0.16484126064E+04  0.25500000920E-02 0.  1.
       -2    1    3    3    0  502 -0.11424557539E+04 -0.49978607885E+03  0.13972448887E+04  0.18727745602E+04  0.25500000920E-02 0. -1.
</event>
<event>
 5   0  0.1897049E-07  0.3523344E+04  0.7818609E-02  0.8108280E-01
        1   -1    0    0  501    0  0.00000000000E+00  0.00000000000E+00  0.19872255718E+04  0.19872255718E+04  0.50400001928E-02 0. -1.
       -1   -1    0    0    0  501  0.00000000000E+00  0.00000000000E+00 -0.15617191485E+04  0.15617191485E+04  0.50400001928E-02 0.  1.
    10030    2    1    2    0    0  0.00000000000E+00  0.00000000000E+00  0.42550642328E+03  0.35489447202E+04  0.35233439956E+04 0.  0.
        2    1    3    3  502    0 -0.82737176602E+03 -0.45752118490E+03 -0.12845261619E+04  0.15949536465E+04  0.25500000920E-02 0.  1.
       -2    1    3    3    0  502  0.82737176602E+03  0.45752118490E+03  0.17100325852E+04  0.19539910737E+04  0.25500000920E-02 0. -1.
</event>
<event>
 5   0  0.5740827E-07  0.3178966E+04  0.7818609E-02  0.8194394E-01
       -2   -1    0    0    0  501  0.00000000000E+00  0.00000000000E+00  0.13773677989E+04  0.13773677989E+04  0.25500000920E-02 0. -1.
        2   -1    0    0  501    0  0.00000000000E+00  0.00000000000E+00 -0.18342638177E+04  0.18342638177E+04  0.25500000920E-02 0.  1.
    10030    2    1    2    0    0  0.00000000000E+00  0.00000000000E+00 -0.45689601874E+03  0.32116316166E+04  0.31789658175E+04 0.  0.
        2    1    3    3  502    0 -0.84164242410E+03  0.43944456696E+02  0.11330507762E+04  0.14121250465E+04  0.25500000920E-02 0. -1.
       -2    1    3    3    0  502  0.84164242410E+03 -0.43944456696E+02 -0.15899467950E+04  0.17995065702E+04  0.25500000920E-02 0.  1.
</event>
<event>
 5   0  0.1897049E-07  0.3239899E+04  0.7818609E-02  0.8178359E-01
        1   -1    0    0  501    0  0.00000000000E+00  0.00000000000E+00  0.12830299767E+04  0.12830299767E+04  0.50400001928E-02 0.  1.
       -1   -1    0    0    0  501  0.00000000000E+00  0.00000000000E+00 -0.20453428570E+04  0.20453428570E+04  0.50400001928E-02 0. -1.
    10030    2    1    2    0    0  0.00000000000E+00  0.00000000000E+00 -0.76231288028E+03  0.33283728337E+04  0.32398988861E+04 0.  0.
        2    1    3    3  502    0  0.15634014720E+04 -0.25997869512E+03 -0.36704752954E+02  0.15852950273E+04  0.25500000920E-02 0. -1.
       -2    1    3    3    0  502 -0.15634014720E+04  0.25997869512E+03 -0.72560812733E+03  0.17430778064E+04  0.25500000920E-02 0.  1.
</event>
<event>
 5   0  0.1866421E-07  0.3534729E+04  0.7818609E-02  0.8105609E-01
        1   -1    0    0  501    0  0.00000000000E+00  0.00000000000E+00  0.22570825892E+04  0.22570825892E+04  0.50400001928E-02 0.  1.
       -1   -1    0    0    0  501  0.00000000000E+00  0.00000000000E+00 -0.13839002150E+04  0.13839002151E+04  0.50400001928E-02 0. -1.
    10030    2    1    2    0    0  0.00000000000E+00  0.00000000000E+00  0.87318237420E+03  0.36409828043E+04  0.35347288895E+04 0.  0.
        1    1    3    3  502    0 -0.57899301410E+03  0.82278487734E+03 -0.10601427672E+04  0.14615438932E+04  0.50400001928E-02 0. -1.
       -1    1    3    3    0  502  0.57899301410E+03 -0.82278487734E+03  0.19333251414E+04  0.21794389111E+04  0.50400001928E-02 0.  1.
</event>
<event>
 5   0  0.5740827E-07  0.3495028E+04  0.7818609E-02  0.8114969E-01
       -2   -1    0    0    0  501  0.00000000000E+00  0.00000000000E+00  0.13400892645E+04  0.13400892645E+04  0.25500000920E-02 0.  1.
        2   -1    0    0  501    0  0.00000000000E+00  0.00000000000E+00 -0.22788075019E+04  0.22788075019E+04  0.25500000920E-02 0. -1.
    10030    2    1    2    0    0  0.00000000000E+00  0.00000000000E+00 -0.93871823737E+03  0.36188967663E+04  0.34950281653E+04 0.  0.
        2    1    3    3  502    0  0.12954459523E+04 -0.56553160235E+03  0.59457856452E+03  0.15334698817E+04  0.25500000920E-02 0.  1.
       -2    1    3    3    0  502 -0.12954459523E+04  0.56553160235E+03 -0.15332968019E+04  0.20854268847E+04  0.25500000920E-02 0. -1.
</event>
<event>
 5   0  0.5573334E-07  0.3497677E+04  0.7818609E-02  0.8114341E-01
        2   -1    0    0  501    0  0.00000000000E+00  0.00000000000E+00  0.19067155227E+04  0.19067155227E+04  0.25500000920E-02 0. -1.
       -2   -1    0    0    0  501  0.00000000000E+00  0.00000000000E+00 -0.16040341845E+04  0.16040341845E+04  0.25500000920E-02 0.  1.
    10030    2    1    2    0    0  0.00000000000E+00  0.00000000000E+00  0.30268133824E+03  0.35107497072E+04  0.34976774457E+04 0.  0.
        4    1    3    3  502    0 -0.18248066254E+02  0.17148168020E+04 -0.19273139346E+03  0.17257104796E+04  0.12699999809E+01 0. -1.
       -4    1    3    3    0  502  0.18248066254E+02 -0.17148168020E+04  0.49541273170E+03  0.17850392276E+04  0.12699999809E+01 0.  1.
</event>
<event>
 5   0  0.5707187E-07  0.3475885E+04  0.7818609E-02  0.8119529E-01
       -2   -1    0    0    0  501  0.00000000000E+00  0.00000000000E+00  0.14991567073E+04  0.14991567073E+04  0.25500000920E-02 0. -1.
        2   -1    0    0  501    0  0.00000000000E+00  0.00000000000E+00 -0.20147615373E+04  0.20147615373E+04  0.25500000920E-02 0.  1.
    10030    2    1    2    0    0  0.00000000000E+00  0.00000000000E+00 -0.51560483000E+03  0.35139182446E+04  0.34758845045E+04 0.  0.
        1    1    3    3  502    0  0.88232516098E+03 -0.84198131764E+02  0.12534990838E+04  0.15352025821E+04  0.50400001928E-02 0. -1.
       -1    1    3    3    0  502 -0.88232516098E+03  0.84198131764E+02 -0.17691039138E+04  0.19787156624E+04  0.50400001928E-02 0.  1.
</event>
<event>
 5   0  0.5707187E-07  0.3510463E+04  0.7818609E-02  0.8111315E-01
       -2   -1    0    0    0  501  0.00000000000E+00  0.00000000000E+00  0.11732260624E+04  0.11732260624E+04  0.25500000920E-02 0.  1.
        2   -1    0    0  501    0  0.00000000000E+00  0.00000000000E+00 -0.26259546504E+04  0.26259546504E+04  0.25500000920E-02 0. -1.
    10030    2    1    2    0    0  0.00000000000E+00  0.00000000000E+00 -0.14527285881E+04  0.37991807128E+04  0.35104634649E+04 0.  0.
        1    1    3    3  502    0 -0.11199876667E+04 -0.93136505334E+03 -0.17862047750E+04  0.23048515645E+04  0.50400001928E-02 0. -1.
       -1    1    3    3    0  502  0.11199876667E+04  0.93136505334E+03  0.33347618694E+03  0.14943291483E+04  0.50400001928E-02 0.  1.
</event>
<event>
 5   0  0.1897049E-07  0.3490340E+04  0.7818609E-02  0.8116083E-01
        1   -1    0    0  501    0  0.00000000000E+00  0.00000000000E+00  0.21337934292E+04  0.21337934292E+04  0.50400001928E-02 0.  1.
       -1   -1    0    0    0  501  0.00000000000E+00  0.00000000000E+00 -0.14273257192E+04  0.14273257192E+04  0.50400001928E-02 0. -1.
    10030    2    1    2    0    0  0.00000000000E+00  0.00000000000E+00  0.70646770999E+03  0.35611191484E+04  0.34903399496E+04 0.  0.
        2    1    3    3  502    0  0.10339743027E+03  0.46223925695E+03  0.20669563300E+04  0.21205340435E+04  0.25500000920E-02 0.  1.
       -2    1    3    3    0  502 -0.10339743027E+03 -0.46223925695E+03 -0.13604886200E+04  0.14405851049E+04  0.25500000920E-02 0. -1.
</event>
<event>
 5   0  0.5554745E-07  0.3511234E+04  0.7818609E-02  0.8111133E-01
       -2   -1    0    0    0  501  0.00000000000E+00  0.00000000000E+00  0.16698821711E+04  0.16698821711E+04  0.25500000920E-02 0. -1.
        2   -1    0    0  501    0  0.00000000000E+00  0.00000000000E+00 -0.18457539016E+04  0.18457539016E+04  0.25500000920E-02 0.  1.
    10030    2    1    2    0    0  0.00000000000E+00  0.00000000000E+00 -0.17587173052E+03  0.35156360726E+04  0.35112342744E+04 0.  0.
        5    1    3    3  502    0 -0.14408678232E+03  0.29064622152E+03  0.16396062778E+04  0.16713967402E+04  0.46999998093E+01 0. -1.
       -5    1    3    3    0  502  0.14408678232E+03 -0.29064622152E+03 -0.18154780083E+04  0.18442393325E+04  0.46999998093E+01 0.  1.
</event>
<event>
 5   0  0.5707187E-07  0.3508501E+04  0.7818609E-02  0.8111778E-01
        2   -1    0    0  501    0  0.00000000000E+00  0.00000000000E+00  0.19875495603E+04  0.19875495603E+04  0.25500000920E-02 0.  1.
       -2   -1    0    0    0  501  0.00000000000E+00  0.00000000000E+00 -0.15483362346E+04  0.15483362346E+04  0.25500000920E-02 0. -1.
    10030    2    1    2    0    0  0.00000000000E+00  0.00000000000E+00  0.43921332572E+03  0.35358857949E+04  0.35085011058E+04 0.  0.
        1    1    3    3  502    0 -0.10263692459E+04  0.12062873042E+04 -0.54048971810E+03  0.16735268222E+04  0.50400001928E-02 0. -1.
       -1    1    3    3    0  502  0.10263692459E+04 -0.12062873042E+04  0.97970304382E+03  0.18623589727E+04  0.50400001928E-02 0.  1.
</event>
<event>
 5   0  0.5554745E-07  0.3525487E+04  0.7818609E-02  0.8107776E-01
        2   -1    0    0  501    0  0.00000000000E+00  0.00000000000E+00  0.14465870419E+04  0.14465870419E+04  0.25500000920E-02 0.  1.
       -2   -1    0    0    0  501  0.00000000000E+00  0.00000000000E+00 -0.21479970397E+04  0.21479970397E+04  0.25500000920E-02 0. -1.
    10030    2    1    2    0    0  0.00000000000E+00  0.00000000000E+00 -0.70140999785E+03  0.35945840816E+04  0.35254870209E+04 0.  0.
        5    1    3    3  502    0  0.88789347250E+03 -0.72527502694E+03 -0.17159267192E+04  0.20636873016E+04  0.46999998093E+01 0. -1.
       -5    1    3    3    0  502 -0.88789347250E+03  0.72527502694E+03  0.10145167213E+04  0.15308967800E+04  0.46999998093E+01 0.  1.
</event>
<event>
 5   0  0.5573334E-07  0.3498966E+04  0.7818609E-02  0.8114035E-01
        2   -1    0    0  501    0  0.00000000000E+00  0.00000000000E+00  0.17110144355E+04  0.17110144355E+04  0.25500000920E-02 0. -1.
       -2   -1    0    0    0  501  0.00000000000E+00  0.00000000000E+00 -0.17888160942E+04  0.17888160942E+04  0.25500000920E-02 0.  1.
    10030    2    1    2    0    0  0.00000000000E+00  0.00000000000E+00 -0.77801658750E+02  0.34998305297E+04  0.34989656527E+04 0.  0.
        4    1    3    3  502    0  0.13678955261E+04 -0.99254518054E+03  0.41332201741E+03  0.17398622959E+04  0.12699999809E+01 0. -1.
       -4    1    3    3    0  502 -0.13678955261E+04  0.99254518054E+03 -0.49112367616E+03  0.17599682338E+04  0.12699999809E+01 0.  1.
</event>
<event>
 5   0  0.1866421E-07  0.3508526E+04  0.7818609E-02  0.8111772E-01
       -1   -1    0    0    0  501  0.00000000000E+00  0.00000000000E+00  0.15765047999E+04  0.15765047999E+04  0.50400001928E-02 0. -1.
        1   -1    0    0  501    0  0.00000000000E+00  0.00000000000E+00 -0.19520645279E+04  0.19520645279E+04  0.50400001928E-02 0.  1.
    10030    2    1    2    0    0  0.00000000000E+00  0.00000000000E+00 -0.37555972801E+03  0.35285693279E+04  0.35085262422E+04 0.  0.
        1    1    3    3  502    0  0.65903105485E+03 -0.16225036403E+04 -0.29131994495E+03  0.17753048483E+04  0.50400001928E-02 0. -1.
       -1    1    3    3    0  502 -0.65903105485E+03  0.16225036403E+04 -0.84239783053E+02  0.17532644796E+04  0.50400001928E-02 0.  1.
</event>
<event>
 5   0  0.5677193E-07  0.3485807E+04  0.7818609E-02  0.8117162E-01
       -2   -1    0    0    0  501  0.00000000000E+00  0.00000000000E+00  0.15766018442E+04  0.15766018442E+04  0.25500000920E-02 0. -1.
        2   -1    0    0  501    0  0.00000000000E+00  0.00000000000E+00 -0.19267464016E+04  0.19267464016E+04  0.25500000920E-02 0.  1.
    10030    2    1    2    0    0  0.00000000000E+00  0.00000000000E+00 -0.35014455740E+03  0.35033482459E+04  0.34858066098E+04 0.  0.
        3    1    3    3  502    0 -0.90599862742E+03  0.52004135955E+03  0.12270956106E+04  0.16115334859E+04  0.10100000352E+00 0. -1.
       -3    1    3    3    0  502  0.90599862742E+03 -0.52004135955E+03 -0.15772401679E+04  0.18918147600E+04  0.10100000352E+00 0.  1.
</event>
<event>
 5   0  0.5707187E-07  0.3499063E+04  0.7818609E-02  0.8114012E-01
        2   -1    0    0  501    0  0.00000000000E+00  0.00000000000E+00  0.21338230354E+04  0.21338230354E+04  0.25500000920E-02 0. -1.
       -2   -1    0    0    0  501  0.00000000000E+00  0.00000000000E+00 -0.14344489437E+04  0.14344489437E+04  0.25500000920E-02 0.  1.
    10030    2    1    2    0    0  0.00000000000E+00  0.00000000000E+00  0.69937409172E+03  0.35682719791E+04  0.34990628455E+04 0.  0.
        1    1    3    3  502    0 -0.30071254944E+03 -0.11315643113E+04  0.16753979726E+04  0.20439726502E+04  0.50400001928E-02 0. -1.
       -1    1    3    3    0  502  0.30071254944E+03  0.11315643113E+04 -0.97602388092E+03  0.15242993289E+04  0.50400001928E-02 0.  1.
</event>
<event>
 5   0  0.1933647E-07  0.3515356E+04  0.7818609E-02  0.8110160E-01
       -1   -1    0    0    0  501  0.00000000000E+00  0.00000000000E+00  0.23070885105E+04  0.23070885105E+04  0.50400001928E-02 0. -1.
        1   -1    0    0  501    0  0.00000000000E+00  0.00000000000E+00 -0.13391040051E+04  0.13391040051E+04  0.50400001928E-02 0.  1.
    10030    2    1    2    0    0  0.00000000000E+00  0.00000000000E+00  0.96798450535E+03  0.36461925156E+04  0.35153557229E+04 0.  0.
        4    1    3    3  502    0  0.17290292985E+04  0.12584230395E+03  0.18328603490E+03  0.17432653223E+04  0.12699999809E+01 0.  1.
       -4    1    3    3    0  502 -0.17290292985E+04 -0.12584230395E+03  0.78469847044E+03  0.19029271933E+04  0.12699999809E+01 0. -1.
</event>
<event>
 5   0  0.5677193E-07  0.3515499E+04  0.7818609E-02  0.8110127E-01
        2   -1    0    0  501    0  0.00000000000E+00  0.00000000000E+00  0.21545490043E+04  0.21545490043E+04  0.25500000920E-02 0. -1.
       -2   -1    0    0    0  501  0.00000000000E+00  0.00000000000E+00 -0.14340282573E+04  0.14340282573E+04  0.25500000920E-02 0.  1.
    10030    2    1    2    0    0  0.00000000000E+00  0.00000000000E+00  0.72052074704E+03  0.35885772616E+04  0.35154994830E+04 0.  0.
        3    1    3    3  502    0  0.80092979637E+03 -0.77726903462E+03  0.17464461127E+04  0.20726094001E+04  0.10100000352E+00 0. -1.
       -3    1    3    3    0  502 -0.80092979637E+03  0.77726903462E+03 -0.10259253656E+04  0.15159678614E+04  0.10100000352E+00 0.  1.
</event>
<event>
 5   0  0.5707187E-07  0.3480624E+04  0.7818609E-02  0.8118397E-01
        2   -1    0    0  501    0  0.00000000000E+00  0.00000000000E+00  0.26556069219E+04  0.26556069219E+04  0.25500000920E-02 0. -1.
       -2   -1    0    0    0  501  0.00000000000E+00  0.00000000000E+00 -0.11404875841E+04  0.11404875841E+04  0.25500000920E-02 0.  1.
    10030    2    1    2    0    0  0.00000000000E+00  0.00000000000E+00  0.15151193378E+04  0.37960945060E+04  0.34806244972E+04 0.  0.
        1    1    3    3  502    0  0.26231663156E+03 -0.16335115644E+04  0.16870035929E+03  0.16630182974E+04  0.50400001928E-02 0.  1.
       -1    1    3    3    0  502 -0.26231663156E+03  0.16335115644E+04  0.13464189785E+04  0.21330762086E+04  0.50400001928E-02 0. -1.
</event>
<event>
 5   0  0.1897049E-07  0.3448731E+04  0.7818609E-02  0.8126049E-01
        1   -1    0    0  501    0  0.00000000000E+00  0.00000000000E+00  0.18603552693E+04  0.18603552693E+04  0.50400001928E-02 0. -1.
       -1   -1    0    0    0  501  0.00000000000E+00  0.00000000000E+00 -0.15983167309E+04  0.15983167309E+04  0.50400001928E-02 0.  1.
    10030    2    1    2    0    0  0.00000000000E+00  0.00000000000E+00  0.26203853840E+03  0.34586720002E+04  0.34487313333E+04 0.  0.
        2    1    3    3  502    0 -0.16372274862E+04 -0.23915879113E+03 -0.35589659834E+03  0.16924459098E+04  0.25500000920E-02 0.  1.
       -2    1    3    3    0  502  0.16372274862E+04  0.23915879113E+03  0.61793513674E+03  0.17662260903E+04  0.25500000920E-02 0. -1.
</event>
<event>
 5   0  0.5554745E-07  0.3481459E+04  0.7818609E-02  0.8118198E-01
       -2   -1    0    0    0  501  0.00000000000E+00  0.00000000000E+00  0.10418693146E+04  0.10418693146E+04  0.25500000920E-02 0. -1.
        2   -1    0    0  501    0  0.00000000000E+00  0.00000000000E+00 -0.29083676501E+04  0.29083676501E+04  0.25500000920E-02 0.  1.
    10030    2    1    2    0    0  0.00000000000E+00  0.00000000000E+00 -0.18664983354E+04  0.39502369647E+04  0.34814588955E+04 0.  0.
        5    1    3    3  502    0 -0.61586226178E+03  0.12132896651E+04  0.29864769036E+03  0.13930436712E+04  0.46999998093E+01 0. -1.
       -5    1    3    3    0  502  0.61586226178E+03 -0.12132896651E+04 -0.21651460258E+04  0.25571932935E+04  0.46999998093E+01 0.  1.
</event>
<event>
 5   0  0.1866421E-07  0.3375366E+04  0.7818609E-02  0.8143979E-01
        1   -1    0    0  501    0  0.00000000000E+00  0.00000000000E+00  0.18986619073E+04  0.18986619073E+04  0.50400001928E-02 0. -1.
       -1   -1    0    0    0  501  0.00000000000E+00  0.00000000000E+00 -0.15001476296E+04  0.15001476296E+04  0.50400001928E-02 0.  1.
    10030    2    1    2    0    0  0.00000000000E+00  0.00000000000E+00  0.39851427772E+03  0.33988095368E+04  0.33753655562E+04 0.  0.
        1    1    3    3  502    0 -0.53293244523E+03 -0.15296943354E+04 -0.27762640152E+03  0.16434896318E+04  0.50400001928E-02 0.  1.
       -1    1    3    3    0  502  0.53293244523E+03  0.15296943354E+04  0.67614067924E+03  0.17553199051E+04  0.50400001928E-02 0. -1.
</event>
<event>
 5   0  0.5707187E-07  0.3510919E+04  0.7818609E-02  0.8111207E-01
        2   -1    0    0  501    0  0.00000000000E+00  0.00000000000E+00  0.28271118647E+04  0.28271118647E+04  0.25500000920E-02 0. -1.
       -2   -1    0    0    0  501  0.00000000000E+00  0.00000000000E+00 -0.10900306561E+04  0.10900306561E+04  0.25500000920E-02 0.  1.
    10030    2    1    2    0    0  0.00000000000E+00  0.00000000000E+00  0.17370812085E+04  0.39171425208E+04  0.35109193103E+04 0.  0.
        1    1    3    3  502    0  0.11576631461E+04  0.13196273536E+04  0.87544431240E+03  0.19616327527E+04  0.50400001928E-02 0. -1.
       -1    1    3    3    0  502 -0.11576631461E+04 -0.13196273536E+04  0.86163689612E+03  0.19555097681E+04  0.50400001928E-02 0.  1.
</event>
<event>
 5   0  0.5740827E-07  0.3514987E+04  0.7818609E-02  0.8110247E-01
        2   -1    0    0  501    0  0.00000000000E+00  0.00000000000E+00  0.24919332790E+04  0.24919332790E+04  0.25500000920E-02 0. -1.
       -2   -1    0    0    0  501  0.00000000000E+00  0.00000000000E+00 -0.12395125902E+04  0.12395125902E+04  0.25500000920E-02 0.  1.
    10030    2    1    2    0    0  0.00000000000E+00  0.00000000000E+00  0.12524206888E+04  0.37314458692E+04  0.35149865850E+04 0.  0.
        2    1    3    3  502    0  0.16471340522E+04 -0.56694594487E+03  0.87359395014E+03  0.19487546485E+04  0.25500000920E-02 0. -1.
       -2    1    3    3    0  502 -0.16471340522E+04  0.56694594487E+03  0.37882673864E+03  0.17826912207E+04  0.25500000920E-02 0.  1.
</event>
<event>
 5   0  0.1823000E-07  0.3501332E+04  0.7818609E-02  0.8113474E-01
       -3   -1    0    0    0  501  0.00000000000E+00  0.00000000000E+00  0.19017201519E+04  0.19017201546E+04  0.10100000352E+00 0.  1.
        3   -1    0    0  501    0  0.00000000000E+00  0.00000000000E+00 -0.16116103496E+04  0.16116103527E+04  0.10100000352E+00 0. -1.
    10030    2    1    2    0    0  0.00000000000E+00  0.00000000000E+00  0.29010980233E+03  0.35133305073E+04  0.35013322545E+04 0.  0.
        2    1    3    3  502    0  0.12968130350E+04  0.11324149958E+04  0.46354470466E+03  0.17829642351E+04  0.25500000920E-02 0.  1.
       -2    1    3    3    0  502 -0.12968130350E+04 -0.11324149958E+04 -0.17343490233E+03  0.17303662722E+04  0.25500000920E-02 0. -1.
</event>
<event>
 5   0  0.1873457E-07  0.3520584E+04  0.7818609E-02  0.8108929E-01
       -1   -1    0    0    0  501  0.00000000000E+00  0.00000000000E+00  0.21658671697E+04  0.21658671697E+04  0.50400001928E-02 0. -1.
        1   -1    0    0  501    0  0.00000000000E+00  0.00000000000E+00 -0.14306641332E+04  0.14306641332E+04  0.50400001928E-02 0.  1.
    10030    2    1    2    0    0  0.00000000000E+00  0.00000000000E+00  0.73520303645E+03  0.35965313029E+04  0.35205843135E+04 0.  0.
        3    1    3    3  502    0  0.10497086114E+04  0.12182031704E+04 -0.36389083267E+03  0.16487339632E+04  0.10100000352E+00 0.  1.
       -3    1    3    3    0  502 -0.10497086114E+04 -0.12182031704E+04  0.10990938691E+04  0.19477973397E+04  0.10100000352E+00 0. -1.
</event>
<event>
 5   0  0.5677193E-07  0.3499593E+04  0.7818609E-02  0.8113886E-01
       -2   -1    0    0    0  501  0.00000000000E+00  0.00000000000E+00  0.24908341345E+04  0.24908341345E+04  0.25500000920E-02 0.  1.
        2   -1    0    0  501    0  0.00000000000E+00  0.00000000000E+00 -0.12292218083E+04  0.12292218083E+04  0.25500000920E-02 0. -1.
    10030    2    1    2    0    0  0.00000000000E+00  0.00000000000E+00  0.12616123262E+04  0.37200559429E+04  0.34995929129E+04 0.  0.
        3    1    3    3  502    0 -0.94886556951E+03  0.13427430143E+04  0.12672589602E+04  0.20758732991E+04  0.10100000352E+00 0.  1.
       -3    1    3    3    0  502  0.94886556951E+03 -0.13427430143E+04 -0.56466339201E+01  0.16441826438E+04  0.10100000352E+00 0. -1.
</event>
<event>
 5   0  0.5554745E-07  0.3504913E+04  0.7818609E-02  0.8112627E-01
        2   -1    0    0  501    0  0.00000000000E+00  0.00000000000E+00  0.22231093864E+04  0.22231093864E+04  0.25500000920E-02 0. -1.
       -2   -1    0    0    0  501  0.00000000000E+00  0.00000000000E+00 -0.13814449585E+04  0.13814449585E+04  0.25500000920E-02 0.  1.
    10030    2    1    2    0    0  0.00000000000E+00  0.00000000000E+00  0.84166442796E+03  0.36045543449E+04  0.35049126974E+04 0.  0.
        5    1    3    3  502    0 -0.89684997471E+03  0.22241071093E+03 -0.11105518726E+04  0.14446985683E+04  0.46999998093E+01 0.  1.
       -5    1    3    3    0  502  0.89684997471E+03 -0.22241071093E+03  0.19522163006E+04  0.21598557766E+04  0.46999998093E+01 0. -1.
</event>
<event>
 5   0  0.1823000E-07  0.3488142E+04  0.7818609E-02  0.8116606E-01
        3   -1    0    0  501    0  0.00000000000E+00  0.00000000000E+00  0.12841736301E+04  0.12841736340E+04  0.10100000352E+00 0.  1.
       -3   -1    0    0    0  501  0.00000000000E+00  0.00000000000E+00 -0.23686694471E+04  0.23686694492E+04  0.10100000352E+00 0. -1.
    10030    2    1    2    0    0  0.00000000000E+00  0.00000000000E+00 -0.10844958170E+04  0.36528430833E+04  0.34881415415E+04 0.  0.
        2    1    3    3  502    0 -0.69151586807E+03 -0.11556226488E+04 -0.17027827796E+04  0.21709737670E+04  0.25500000920E-02 0. -1.
       -2    1    3    3    0  502  0.69151586807E+03  0.11556226488E+04  0.61828696264E+03  0.14818693163E+04  0.25500000920E-02 0.  1.
</event>
<event>
 5   0  0.5707187E-07  0.3511376E+04  0.7818609E-02  0.8111099E-01
        2   -1    0    0  501    0  0.00000000000E+00  0.00000000000E+00  0.18095594355E+04  0.18095594355E+04  0.25500000920E-02 0.  1.
       -2   -1    0    0    0  501  0.00000000000E+00  0.00000000000E+00 -0.17034201161E+04  0.17034201161E+04  0.25500000920E-02 0. -1.
    10030    2    1    2    0    0  0.00000000000E+00  0.00000000000E+00  0.10613931934E+03  0.35129795516E+04  0.35113757667E+04 0.  0.
        1    1    3    3  502    0 -0.56432861210E+03  0.32367988116E+03  0.16845212156E+04  0.18057815964E+04  0.50400001928E-02 0.  1.
       -1    1    3    3    0  502  0.56432861210E+03 -0.32367988116E+03 -0.15783818963E+04  0.17071979553E+04  0.50400001928E-02 0. -1.
</event>
<event>
 5   0  0.1866421E-07  0.3499319E+04  0.7818609E-02  0.8113951E-01
        1   -1    0    0  501    0  0.00000000000E+00  0.00000000000E+00  0.20814285921E+04  0.20814285921E+04  0.50400001928E-02 0.  1.
       -1   -1    0    0    0  501  0.00000000000E+00  0.00000000000E+00 -0.14707726869E+04  0.14707726869E+04  0.50400001928E-02 0. -1.
    10030    2    1    2    0    0  0.00000000000E+00  0.00000000000E+00  0.61065590514E+03  0.35522012790E+04  0.34993189755E+04 0.  0.
        1    1    3    3  502    0  0.11582606629E+03  0.36862170550E+03 -0.14269218341E+04  0.14783110498E+04  0.50400001928E-02 0. -1.
       -1    1    3    3    0  502 -0.11582606629E+03 -0.36862170550E+03  0.20375777392E+04  0.20738902292E+04  0.50400001928E-02 0.  1.
</event>
<event>
 5   0  0.5677193E-07  0.3490156E+04  0.7818609E-02  0.8116127E-01
       -2   -1    0    0    0  501  0.00000000000E+00  0.00000000000E+00  0.14719372080E+04  0.14719372080E+04  0.25500000920E-02 0.  1.
        2   -1    0    0  501    0  0.00000000000E+00  0.00000000000E+00 -0.20689047285E+04  0.20689047285E+04  0.25500000920E-02 0. -1.
    10030    2    1    2    0    0  0.00000000000E+00  0.00000000000E+00 -0.59696752055E+03  0.35408419365E+04  0.34901563573E+04 0.  0.
        3    1    3    3  502    0  0.15783400353E+04  0.52952447744E+03  0.23232035192E+03  0.16809301577E+04  0.10100000352E+00 0.  1.
       -3    1    3    3    0  502 -0.15783400353E+04 -0.52952447744E+03 -0.82928787247E+03  0.18599117787E+04  0.10100000352E+00 0. -1.
</event>
<event>
 5   0  0.5573334E-07  0.3490982E+04  0.7818609E-02  0.8115930E-01
       -2   -1    0    0    0  501  0.00000000000E+00  0.00000000000E+00  0.16432408995E+04  0.16432408995E+04  0.25500000920E-02 0. -1.
        2   -1    0    0  501    0  0.00000000000E+00  0.00000000000E+00 -0.18541038104E+04  0.18541038104E+04  0.25500000920E-02 0.  1.
    10030    2    1    2    0    0  0.00000000000E+00  0.00000000000E+00 -0.21086291091E+03  0.34973447099E+04  0.34909822189E+04 0.  0.
        4    1    3    3  502    0  0.10218792958E+04 -0.12126415757E+04 -0.83614458472E+03  0.17927287206E+04  0.12699999809E+01 0.  1.
       -4    1    3    3    0  502 -0.10218792958E+04  0.12126415757E+04  0.62528167380E+03  0.17046159892E+04  0.12699999809E+01 0. -1.
</event>
<event>
 5   0  0.5740827E-07  0.3476634E+04  0.7818609E-02  0.8119350E-01
       -2   -1    0    0    0  501  0.00000000000E+00  0.00000000000E+00  0.12439807241E+04  0.12439807241E+04  0.25500000920E-02 0.  1.
        2   -1    0    0  501    0  0.00000000000E+00  0.00000000000E+00 -0.24290932746E+04  0.24290932746E+04  0.25500000920E-02 0. -1.
    10030    2    1    2    0    0  0.00000000000E+00  0.00000000000E+00 -0.11851125504E+04  0.36730739987E+04  0.34766335503E+04 0.  0.
        2    1    3    3  502    0 -0.15332007360E+04  0.28410398485E+03 -0.14042955966E+04  0.20984436361E+04  0.25500000920E-02 0.  1.
       -2    1    3    3    0  502  0.15332007360E+04 -0.28410398485E+03  0.21918304624E+03  0.15746303626E+04  0.25500000920E-02 0. -1.
</event>
<event>
 5   0  0.5740827E-07  0.3504464E+04  0.7818609E-02  0.8112733E-01
       -2   -1    0    0    0  501  0.00000000000E+00  0.00000000000E+00  0.17839885346E+04  0.17839885346E+04  0.25500000920E-02 0. -1.
        2   -1    0    0  501    0  0.00000000000E+00  0.00000000000E+00 -0.17210408808E+04  0.17210408808E+04  0.25500000920E-02 0.  1.
    10030    2    1    2    0    0  0.00000000000E+00  0.00000000000E+00  0.62947653762E+02  0.35050294154E+04  0.35044641239E+04 0.  0.
        2    1    3    3  502    0 -0.10727388555E+04  0.26976679896E+02  0.14169123461E+04  0.17773961263E+04  0.25500000920E-02 0. -1.
       -2    1    3    3    0  502  0.10727388555E+04 -0.26976679896E+02 -0.13539646923E+04  0.17276332891E+04  0.25500000920E-02 0.  1.
</event>
<event>
 5   0  0.5707187E-07  0.3502173E+04  0.7818609E-02  0.8113275E-01
       -2   -1    0    0    0  501  0.00000000000E+00  0.00000000000E+00  0.29103574370E+04  0.29103574370E+04  0.25500000920E-02 0. -1.
        2   -1    0    0  501    0  0.00000000000E+00  0.00000000000E+00 -0.10535835367E+04  0.10535835367E+04  0.25500000920E-02 0.  1.
    10030    2    1    2    0    0  0.00000000000E+00  0.00000000000E+00  0.18567739003E+04  0.39639409737E+04  0.35021734289E+04 0.  0.
        1    1    3    3  502    0  0.27984496319E+03  0.81874486221E+03 -0.79472422630E+03  0.11748374137E+04  0.50400001928E-02 0.  1.
       -1    1    3    3    0  502 -0.27984496319E+03 -0.81874486221E+03  0.26514981266E+04  0.27891035600E+04  0.50400001928E-02 0. -1.
</event>
<event>
 5   0  0.1823000E-07  0.3377664E+04  0.7818609E-02  0.8143410E-01
        3   -1    0    0  501    0  0.00000000000E+00  0.00000000000E+00  0.13840187817E+04  0.13840187853E+04  0.10100000352E+00 0. -1.
       -3   -1    0    0    0  501  0.00000000000E+00  0.00000000000E+00 -0.20607768930E+04  0.20607768955E+04  0.10100000352E+00 0.  1.
    10030    2    1    2    0    0  0.00000000000E+00  0.00000000000E+00 -0.67675811140E+03  0.34447956809E+04  0.33776642435E+04 0.  0.
        2    1    3    3  502    0 -0.13631469987E+04  0.49308934448E+03  0.54535734469E+03  0.15487806414E+04  0.25500000920E-02 0. -1.
       -2    1    3    3    0  502  0.13631469987E+04 -0.49308934448E+03 -0.12221154561E+04  0.18960150394E+04  0.25500000920E-02 0.  1.
</event>
<event>
 5   0  0.1866421E-07  0.3454550E+04  0.7818609E-02  0.8124646E-01
       -1   -1    0    0    0  501  0.00000000000E+00  0.00000000000E+00  0.12200539233E+04  0.12200539233E+04  0.50400001928E-02 0. -1.
        1   -1    0    0  501    0  0.00000000000E+00  0.00000000000E+00 -0.24453659251E+04  0.24453659251E+04  0.50400001928E-02 0.  1.
    10030    2    1    2    0    0  0.00000000000E+00  0.00000000000E+00 -0.12253120019E+04  0.36654198484E+04  0.34545496325E+04 0.  0.
        1    1    3    3  502    0 -0.10682468530E+04 -0.73729889431E+03  0.59652023161E+03  0.14284947970E+04  0.50400001928E-02 0. -1.
       -1    1    3    3    0  502  0.10682468530E+04  0.73729889431E+03 -0.18218322335E+04  0.22369250514E+04  0.50400001928E-02 0.  1.
</event>
<event>
 5   0  0.5707187E-07  0.3508832E+04  0.7818609E-02  0.8111700E-01
       -2   -1    0    0    0  501  0.00000000000E+00  0.00000000000E+00  0.16273131923E+04  0.16273131923E+04  0.25500000920E-02 0.  1.
        2   -1    0    0  501    0  0.00000000000E+00  0.00000000000E+00 -0.18914465430E+04  0.18914465430E+04  0.25500000920E-02 0. -1.
    10030    2    1    2    0    0  0.00000000000E+00  0.00000000000E+00 -0.26413335064E+03  0.35187597353E+04  0.35088322342E+04 0.  0.
        1    1    3    3  502    0 -0.59671424962E+02 -0.17098584130E+04 -0.52149440678E+03  0.17886120004E+04  0.50400001928E-02 0.  1.
       -1    1    3    3    0  502  0.59671424962E+02  0.17098584130E+04  0.25736105614E+03  0.17301477349E+04  0.50400001928E-02 0. -1.
</event>
<event>
 5   0  0.1897049E-07  0.3469888E+04  0.7818609E-02  0.8120963E-01
        1   -1    0    0  501    0  0.00000000000E+00  0.00000000000E+00  0.18035917166E+04  0.18035917166E+04  0.50400001928E-02 0.  1.
       -1   -1    0    0    0  501  0.00000000000E+00  0.00000000000E+00 -0.16689089612E+04  0.16689089612E+04  0.50400001928E-02 0. -1.
    10030    2    1    2    0    0  0.00000000000E+00  0.00000000000E+00  0.13468275541E+03  0.34725006778E+04  0.34698878242E+04 0.  0.
        2    1    3    3  502    0  0.22873088979E+03  0.75595821823E+03 -0.14785676750E+04  0.16762914475E+04  0.25500000920E-02 0. -1.
       -2    1    3    3    0  502 -0.22873088979E+03 -0.75595821823E+03  0.16132504304E+04  0.17962092302E+04  0.25500000920E-02 0.  1.
</event>
<event>
 5   0  0.1873457E-07  0.3496402E+04  0.7818609E-02  0.8114643E-01
       -1   -1    0    0    0  501  0.00000000000E+00  0.00000000000E+00  0.10267672076E+04  0.10267672076E+04  0.50400001928E-02 0.  1.
        1   -1    0    0  501    0  0.00000000000E+00  0.00000000000E+00 -0.29765335993E+04  0.29765335993E+04  0.50400001928E-02 0. -1.
    10030    2    1    2    0    0  0.00000000000E+00  0.00000000000E+00 -0.19497663917E+04  0.40033008070E+04  0.34964022035E+04 0.  0.
        3    1    3    3  502    0  0.42686533819E+03  0.95658456181E+03  0.62765097841E+03  0.12211526529E+04  0.10100000352E+00 0.  1.
       -3    1    3    3    0  502 -0.42686533819E+03 -0.95658456181E+03 -0.25774173701E+04  0.27821481540E+04  0.10100000352E+00 0. -1.
</event>
<event>
 5   0  0.1933647E-07  0.3501143E+04  0.7818609E-02  0.8113519E-01
        1   -1    0    0  501    0  0.00000000000E+00  0.00000000000E+00  0.13570454565E+04  0.13570454565E+04  0.50400001928E-02 0. -1.
       -1   -1    0    0    0  501  0.00000000000E+00  0.00000000000E+00 -0.22582154442E+04  0.22582154442E+04  0.50400001928E-02 0.  1.
    10030    2    1    2    0    0  0.00000000000E+00  0.00000000000E+00 -0.90116998774E+03  0.36152609007E+04  0.35011432466E+04 0.  0.
        4    1    3    3  502    0  0.12811204168E+04  0.11777966948E+04 -0.64657352879E+03  0.18564841819E+04  0.12699999809E+01 0.  1.
       -4    1    3    3    0  502 -0.12811204168E+04 -0.11777966948E+04 -0.25459645896E+03  0.17587767188E+04  0.12699999809E+01 0. -1.
</event>
<event>
 5   0  0.5707187E-07  0.3422932E+04  0.7818609E-02  0.8132301E-01
       -2   -1    0    0    0  501  0.00000000000E+00  0.00000000000E+00  0.15350464245E+04  0.15350464245E+04  0.25500000920E-02 0.  1.
        2   -1    0    0  501    0  0.00000000000E+00  0.00000000000E+00 -0.19081612210E+04  0.19081612210E+04  0.25500000920E-02 0. -1.
    10030    2    1    2    0    0  0.00000000000E+00  0.00000000000E+00 -0.37311479655E+03  0.34432076455E+04  0.34229321113E+04 0.  0.
        1    1    3    3  502    0  0.89342620279E+03  0.13485297311E+04  0.37565684281E+03  0.16606808481E+04  0.50400001928E-02 0.  1.
       -1    1    3    3    0  502 -0.89342620279E+03 -0.13485297311E+04 -0.74877163935E+03  0.17825267974E+04  0.50400001928E-02 0. -1.
</event>
<event>
 5   0  0.1897049E-07  0.3485030E+04  0.7818609E-02  0.8117347E-01
       -1   -1    0    0    0  501  0.00000000000E+00  0.00000000000E+00  0.14234927782E+04  0.14234927782E+04  0.50400001928E-02 0.  1.
        1   -1    0    0  501    0  0.00000000000E+00  0.00000000000E+00 -0.21330339256E+04  0.21330339256E+04  0.50400001928E-02 0. -1.
    10030    2    1    2    0    0  0.00000000000E+00  0.00000000000E+00 -0.70954114745E+03  0.35565267038E+04  0.34850299217E+04 0.  0.
        2    1    3    3  502    0 -0.89972706086E+03 -0.14552475584E+04 -0.69185616944E+03  0.18455132618E+04  0.25500000920E-02 0.  1.
       -2    1    3    3    0  502  0.89972706086E+03  0.14552475584E+04 -0.17684978012E+02  0.17110134420E+04  0.25500000920E-02 0. -1.
</event>
<event>
 5   0  0.1908190E-07  0.3458713E+04  0.7818609E-02  0.8123645E-01
        1   -1    0    0  501    0  0.00000000000E+00  0.00000000000E+00  0.19596501152E+04  0.19596501152E+04  0.50400001928E-02 0. -1.
       -1   -1    0    0    0  501  0.00000000000E+00  0.00000000000E+00 -0.15261262229E+04  0.15261262229E+04  0.50400001928E-02 0.  1.
    10030    2    1    2    0    0  0.00000000000E+00  0.00000000000E+00  0.43352389234E+03  0.34857763382E+04  0.34587127250E+04 0.  0.
        5    1    3    3  502    0 -0.10287434705E+04  0.13426472885E+04  0.57962990586E+03  0.17880178375E+04  0.46999998093E+01 0. -1.
       -5    1    3    3    0  502  0.10287434705E+04 -0.13426472885E+04 -0.14610601352E+03  0.16977585007E+04  0.46999998093E+01 0.  1.
</event>
<event>
 5   0  0.1908190E-07  0.3503880E+04  0.7818609E-02  0.8112871E-01
        1   -1    0    0  501    0  0.00000000000E+00  0.00000000000E+00  0.23557264220E+04  0.23557264220E+04  0.50400001928E-02 0.  1.
       -1   -1    0    0    0  501  0.00000000000E+00  0.00000000000E+00 -0.13029076110E+04  0.13029076110E+04  0.50400001928E-02 0. -1.
    10030    2    1    2    0    0  0.00000000000E+00  0.00000000000E+00  0.10528188109E+04  0.36586340330E+04  0.35038800691E+04 0.  0.
        5    1    3    3  502    0  0.52118016856E+03  0.13655162320E+03  0.22670686111E+04  0.23302140011E+04  0.46999998093E+01 0.  1.
       -5    1    3    3    0  502 -0.52118016856E+03 -0.13655162320E+03 -0.12142498001E+04  0.13284200319E+04  0.46999998093E+01 0. -1.
</event>
<event>
 5   0  0.5707187E-07  0.3486737E+04  0.7818609E-02  0.8116940E-01
        2   -1    0    0  501    0  0.00000000000E+00  0.00000000000E+00  0.19120493477E+04  0.19120493478E+04  0.25500000920E-02 0.  1.
       -2   -1    0    0    0  501  0.00000000000E+00  0.00000000000E+00 -0.15895688491E+04  0.15895688491E+04  0.25500000920E-02 0. -1.
    10030    2    1    2    0    0  0.00000000000E+00  0.00000000000E+00  0.32248049869E+03  0.35016181968E+04  0.34867372032E+04 0.  0.
        1    1    3    3  502    0 -0.47623270322E+03  0.28715956560E+03  0.18205861763E+04  0.19036260739E+04  0.50400001928E-02 0.  1.
       -1    1    3    3    0  502  0.47623270322E+03 -0.28715956560E+03 -0.14981056776E+04  0.15979921230E+04  0.50400001928E-02 0. -1.
</event>
<event>
 5   0  0.1908190E-07  0.3501100E+04  0.7818609E-02  0.8113529E-01
        1   -1    0    0  501    0  0.00000000000E+00  0.00000000000E+00  0.10177267452E+04  0.10177267452E+04  0.50400001928E-02 0.  1.
       -1   -1    0    0    0  501  0.00000000000E+00  0.00000000000E+00 -0.30110494505E+04  0.30110494505E+04  0.50400001928E-02 0. -1.
    10030    2    1    2    0    0  0.00000000000E+00  0.00000000000E+00 -0.19933227053E+04  0.40287761957E+04  0.35011001453E+04 0.  0.
        5    1    3    3  502    0  0.70516267512E+03 -0.14678421430E+04 -0.17358021507E+04  0.23800937275E+04  0.46999998093E+01 0. -1.
       -5    1    3    3    0  502 -0.70516267512E+03  0.14678421430E+04 -0.25752055464E+03  0.16486824683E+04  0.46999998093E+01 0.  1.
</event>
<event>
 5   0  0.5740827E-07  0.3501636E+04  0.7818609E-02  0.8113402E-01
        2   -1    0    0  501    0  0.00000000000E+00  0.00000000000E+00  0.27214063329E+04  0.27214063329E+04  0.25500000920E-02 0. -1.
       -2   -1    0    0    0  501  0.00000000000E+00  0.00000000000E+00 -0.11263895597E+04  0.11263895597E+04  0.25500000920E-02 0.  1.
    10030    2    1    2    0    0  0.00000000000E+00  0.00000000000E+00  0.15950167732E+04  0.38477958926E+04  0.35016360068E+04 0.  0.
        2    1    3    3  502    0  0.16725068110E+04 -0.48152112988E+03  0.58837299331E+03  0.18372055984E+04  0.25500000920E-02 0. -1.
       -2    1    3    3    0  502 -0.16725068110E+04  0.48152112988E+03  0.10066437799E+04  0.20105902942E+04  0.25500000920E-02 0.  1.
</event>
<event>
 5   0  0.1897049E-07  0.3442678E+04  0.7818609E-02  0.8127511E-01
       -1   -1    0    0    0  501  0.00000000000E+00  0.00000000000E+00  0.15943369035E+04  0.15943369035E+04  0.50400001928E-02 0. -1.
        1   -1    0    0  501    0  0.00000000000E+00  0.00000000000E+00 -0.18584574747E+04  0.18584574747E+04  0.50400001928E-02 0.  1.
    10030    2    1    2    0    0  0.00000000000E+00  0.00000000000E+00 -0.26412057122E+03  0.34527943782E+04  0.34426776413E+04 0.  0.
        2    1    3    3  502    0 -0.13767803931E+04 -0.96646031795E+03 -0.49842477120E+03  0.17544221412E+04  0.25500000920E-02 0.  1.
       -2    1    3    3    0  502  0.13767803931E+04  0.96646031795E+03  0.23430419998E+03  0.16983722369E+04  0.25500000920E-02 0. -1.
</event>
<event>
 5   0  0.5554745E-07  0.3493589E+04  0.7818609E-02  0.8115311E-01
        2   -1    0    0  501    0  0.00000000000E+00  0.00000000000E+00  0.21197378842E+04  0.21197378842E+04  0.25500000920E-02 0. -1.
       -2   -1    0    0    0  501  0.00000000000E+00  0.00000000000E+00 -0.14394659326E+04  0.14394659326E+04  0.25500000920E-02 0.  1.
    10030    2    1    2    0    0  0.00000000000E+00  0.00000000000E+00  0.68027195163E+03  0.35592038168E+04  0.34935886823E+04 0.  0.
        5    1    3    3  502    0  0.67887250773E+03 -0.56791224224E+03  0.18743669862E+04  0.20728400530E+04  0.46999998093E+01 0. -1.
       -5    1    3    3    0  502 -0.67887250773E+03  0.56791224224E+03 -0.11940950345E+04  0.14863637637E+04  0.46999998093E+01 0.  1.
</event>
<event>
 5   0  0.5573334E-07  0.3513764E+04  0.7818609E-02  0.8110536E-01
       -2   -1    0    0    0  501  0.00000000000E+00  0.00000000000E+00  0.13178233128E+04  0.13178233128E+04  0.25500000920E-02 0. -1.
        2   -1    0    0  501    0  0.00000000000E+00  0.00000000000E+00 -0.23422222699E+04  0.23422222699E+04  0.25500000920E-02 0.  1.
    10030    2    1    2    0    0  0.00000000000E+00  0.00000000000E+00 -0.10243989571E+04  0.36600455827E+04  0.35137644264E+04 0.  0.
        4    1    3    3  502    0 -0.36980672733E+03  0.91308067986E+03  0.10030638711E+04  0.14059203697E+04  0.12699999809E+01 0. -1.
       -4    1    3    3    0  502  0.36980672733E+03 -0.91308067986E+03 -0.20274628281E+04  0.22541252130E+04  0.12699999809E+01 0.  1.
</event>
<event>
 5   0  0.5573334E-07  0.3525038E+04  0.7818609E-02  0.8107882E-01
       -2   -1    0    0    0  501  0.00000000000E+00  0.00000000000E+00  0.13360291780E+04  0.13360291780E+04  0.25500000920E-02 0.  1.
        2   -1    0    0  501    0  0.00000000000E+00  0.00000000000E+00 -0.23251532821E+04  0.23251532821E+04  0.25500000920E-02 0. -1.
    10030    2    1    2    0    0  0.00000000000E+00  0.00000000000E+00 -0.98912410413E+03  0.36611824601E+04  0.35250376612E+04 0.  0.
        4    1    3    3  502    0 -0.14892691368E+04  0.11510676578E+03 -0.14662700998E+04  0.20931129324E+04  0.12699999809E+01 0. -1.
       -4    1    3    3    0  502  0.14892691368E+04 -0.11510676578E+03  0.47714599568E+03  0.15680695276E+04  0.12699999809E+01 0.  1.
</event>
<event>
 5   0  0.1823000E-07  0.3470928E+04  0.7818609E-02  0.8120714E-01
       -3   -1    0    0    0  501  0.00000000000E+00  0.00000000000E+00  0.23164187073E+04  0.23164187095E+04  0.10100000352E+00 0.  1.
        3   -1    0    0  501    0  0.00000000000E+00  0.00000000000E+00 -0.13002121252E+04  0.13002121291E+04  0.10100000352E+00 0. -1.
    10030    2    1    2    0    0  0.00000000000E+00  0.00000000000E+00  0.10162065821E+04  0.36166308386E+04  0.34709282340E+04 0.  0.
        4    1    3    3  502    0  0.84727338880E+03 -0.87129859931E+02  0.20836519855E+04  0.22510155524E+04  0.12699999809E+01 0.  1.
       -4    1    3    3    0  502 -0.84727338880E+03  0.87129859931E+02 -0.10674454034E+04  0.13656152862E+04  0.12699999809E+01 0. -1.
</event>
<event>
 5   0  0.1823000E-07  0.3461091E+04  0.7818609E-02  0.8123073E-01
       -3   -1    0    0    0  501  0.00000000000E+00  0.00000000000E+00  0.18665762069E+04  0.18665762097E+04  0.10100000352E+00 0.  1.
        3   -1    0    0  501    0  0.00000000000E+00  0.00000000000E+00 -0.16044283908E+04  0.16044283939E+04  0.10100000352E+00 0. -1.
    10030    2    1    2    0    0  0.00000000000E+00  0.00000000000E+00  0.26214781618E+03  0.34710046036E+04  0.34610910824E+04 0.  0.
        5    1    3    3  502    0  0.42300807129E+02  0.65215532981E+03 -0.14759108289E+04  0.16141346900E+04  0.46999998093E+01 0. -1.
       -5    1    3    3    0  502 -0.42300807129E+02 -0.65215532981E+03  0.17380586451E+04  0.18568699137E+04  0.46999998093E+01 0.  1.
</event>
<event>
 5   0  0.1908190E-07  0.3476102E+04  0.7818609E-02  0.8119477E-01
       -1   -1    0    0    0  501  0.00000000000E+00  0.00000000000E+00  0.17148283577E+04  0.17148283577E+04  0.50400001928E-02 0.  1.
        1   -1    0    0  501    0  0.00000000000E+00  0.00000000000E+00 -0.17615882456E+04  0.17615882456E+04  0.50400001928E-02 0. -1.
    10030    2    1    2    0    0  0.00000000000E+00  0.00000000000E+00 -0.46759887880E+02  0.34764166033E+04  0.34761021148E+04 0.  0.
        5    1    3    3  502    0  0.73777927300E+03  0.14017439309E+04  0.69194352038E+03  0.17285867721E+04  0.46999998093E+01 0.  1.
       -5    1    3    3    0  502 -0.73777927300E+03 -0.14017439309E+04 -0.73870340826E+03  0.17478298312E+04  0.46999998093E+01 0. -1.
</event>
<event>
 5   0  0.5573334E-07  0.3516753E+04  0.7818609E-02  0.8109831E-01
       -2   -1    0    0    0  501  0.00000000000E+00  0.00000000000E+00  0.18335267547E+04  0.18335267547E+04  0.25500000920E-02 0. -1.
        2   -1    0    0  501    0  0.00000000000E+00  0.00000000000E+00 -0.16863063458E+04  0.16863063458E+04  0.25500000920E-02 0.  1.
    10030    2    1    2    0    0  0.00000000000E+00  0.00000000000E+00  0.14722040889E+03  0.35198331005E+04  0.35167529351E+04 0.  0.
        4    1    3    3  502    0 -0.31942685289E+03 -0.30697933996E+03  0.17767516725E+04  0.18311520822E+04  0.12699999809E+01 0. -1.
       -4    1    3    3    0  502  0.31942685289E+03  0.30697933996E+03 -0.16295312636E+04  0.16886810183E+04  0.12699999809E+01 0.  1.
</event>
<event>
 5   0  0.5554745E-07  0.3488707E+04  0.7818609E-02  0.8116471E-01
       -2   -1    0    0    0  501  0.00000000000E+00  0.00000000000E+00  0.16884258201E+04  0.16884258201E+04  0.25500000920E-02 0.  1.
        2   -1    0    0  501    0  0.00000000000E+00  0.00000000000E+00 -0.18021341664E+04  0.18021341665E+04  0.25500000920E-02 0. -1.
    10030    2    1    2    0    0  0.00000000000E+00  0.00000000000E+00 -0.11370834638E+03  0.34905599865E+04  0.34887074156E+04 0.  0.
        5    1    3    3  502    0  0.15806442794E+04  0.64805302247E+03  0.29595001840E+03  0.17337870576E+04  0.46999998093E+01 0. -1.
       -5    1    3    3    0  502 -0.15806442794E+04 -0.64805302247E+03 -0.40965836478E+03  0.17567729289E+04  0.46999998093E+01 0.  1.
</event>
<event>
 5   0  0.1908190E-07  0.3511950E+04  0.7818609E-02  0.8110964E-01
        1   -1    0    0  501    0  0.00000000000E+00  0.00000000000E+00  0.21127967998E+04  0.21127967998E+04  0.50400001928E-02 0.  1.
       -1   -1    0    0    0  501  0.00000000000E+00  0.00000000000E+00 -0.14594156235E+04  0.14594156235E+04  0.50400001928E-02 0. -1.
    10030    2    1    2    0    0  0.00000000000E+00  0.00000000000E+00  0.65338117633E+03  0.35722124233E+04  0.35119502610E+04 0.  0.
        5    1    3    3  502    0  0.51766704592E+03 -0.13347181966E+04  0.13609842977E+04  0.19752853423E+04  0.46999998093E+01 0.  1.
       -5    1    3    3    0  502 -0.51766704592E+03  0.13347181966E+04 -0.70760312140E+03  0.15969270810E+04  0.46999998093E+01 0. -1.
</event>
<event>
 5   0  0.5573334E-07  0.3504054E+04  0.7818609E-02  0.8112830E-01
        2   -1    0    0  501    0  0.00000000000E+00  0.00000000000E+00  0.10469988183E+04  0.10469988183E+04  0.25500000920E-02 0.  1.
       -2   -1    0    0    0  501  0.00000000000E+00  0.00000000000E+00 -0.29318071542E+04  0.29318071542E+04  0.25500000920E-02 0. -1.
    10030    2    1    2    0    0  0.00000000000E+00  0.00000000000E+00 -0.18848083359E+04  0.39788059726E+04  0.35040540099E+04 0.  0.
        4    1    3    3  502    0  0.66698837046E+03 -0.16009277274E+04 -0.12245764170E+04  0.21230713810E+04  0.12699999809E+01 0. -1.
       -4    1    3    3    0  502 -0.66698837046E+03  0.16009277274E+04 -0.66023191890E+03  0.18557345916E+04  0.12699999809E+01 0.  1.
</event>
<event>
 5   0  0.5707187E-07  0.3494099E+04  0.7818609E-02  0.8115190E-01
       -2   -1    0    0    0  501  0.00000000000E+00  0.00000000000E+00  0.25678510116E+04  0.25678510116E+04  0.25500000920E-02 0.  1.
        2   -1    0    0  501    0  0.00000000000E+00  0.00000000000E+00 -0.11886136419E+04  0.11886136419E+04  0.25500000920E-02 0. -1.
    10030    2    1    2    0    0  0.00000000000E+00  0.00000000000E+00  0.13792373696E+04  0.37564646535E+04  0.34940994507E+04 0.  0.
        1    1    3    3  502    0  0.10514061981E+04  0.47817746177E+03  0.20987938663E+04  0.23956302660E+04  0.50400001928E-02 0.  1.
       -1    1    3    3    0  502 -0.10514061981E+04 -0.47817746177E+03 -0.71955649665E+03  0.13608343875E+04  0.50400001928E-02 0. -1.
</event>
<event>
 5   0  0.1873457E-07  0.3521867E+04  0.7818609E-02  0.8108627E-01
       -1   -1    0    0    0  501  0.00000000000E+00  0.00000000000E+00  0.33944350453E+04  0.33944350453E+04  0.50400001928E-02 0. -1.
        1   -1    0    0  501    0  0.00000000000E+00  0.00000000000E+00 -0.91352092439E+03  0.91352092440E+03  0.50400001928E-02 0.  1.
    10030    2    1    2    0    0  0.00000000000E+00  0.00000000000E+00  0.24809141209E+04  0.43079559697E+04  0.35218673686E+04 0.  0.
        3    1    3    3  502    0  0.78769817281E+03  0.14888659180E+04  0.18685893200E+04  0.25157138530E+04  0.10100000352E+00 0.  1.
       -3    1    3    3    0  502 -0.78769817281E+03 -0.14888659180E+04  0.61232480099E+03  0.17922421168E+04  0.10100000352E+00 0. -1.
</event>
<event>
 5   0  0.5677193E-07  0.3508509E+04  0.7818609E-02  0.8111776E-01
       -2   -1    0    0    0  501  0.00000000000E+00  0.00000000000E+00  0.20059336398E+04  0.20059336398E+04  0.25500000920E-02 0.  1.
        2   -1    0    0  501    0  0.00000000000E+00  0.00000000000E+00 -0.15341532045E+04  0.15341532045E+04  0.25500000920E-02 0. -1.
    10030    2    1    2    0    0  0.00000000000E+00  0.00000000000E+00  0.47178043532E+03  0.35400868443E+04  0.35085093824E+04 0.  0.
        3    1    3    3  502    0  0.36190782067E+02  0.16421325031E+04 -0.38569044673E+03  0.16872065853E+04  0.10100000352E+00 0. -1.
       -3    1    3    3    0  502 -0.36190782067E+02 -0.16421325031E+04  0.85747088205E+03  0.18528802590E+04  0.10100000352E+00 0.  1.
</event>
<event>
 5   0  0.1873457E-07  0.3509621E+04  0.7818609E-02  0.8111514E-01
        1   -1    0    0  501    0  0.00000000000E+00  0.00000000000E+00  0.24848975740E+04  0.24848975740E+04  0.50400001928E-02 0. -1.
       -1   -1    0    0    0  501  0.00000000000E+00  0.00000000000E+00 -0.12392303552E+04  0.12392303552E+04  0.50400001928E-02 0.  1.
    10030    2    1    2    0    0  0.00000000000E+00  0.00000000000E+00  0.12456672188E+04  0.37241279292E+04  0.35096213490E+04 0.  0.
        3    1    3    3  502    0 -0.66505183634E+03  0.13461146364E+04 -0.34100060590E+03  0.15396752849E+04  0.10100000352E+00 0.  1.
       -3    1    3    3    0  502  0.66505183634E+03 -0.13461146364E+04  0.15866678247E+04  0.21844526444E+04  0.10100000352E+00 0. -1.
</event>
<event>
 5   0  0.1908190E-07  0.3534222E+04  0.7818609E-02  0.8105727E-01
       -1   -1    0    0    0  501  0.00000000000E+00  0.00000000000E+00  0.19522260865E+04  0.19522260865E+04  0.50400001928E-02 0. -1.
        1   -1    0    0  501    0  0.00000000000E+00  0.00000000000E+00 -0.15995492164E+04  0.15995492164E+04  0.50400001928E-02 0.  1.
    10030    2    1    2    0    0  0.00000000000E+00  0.00000000000E+00  0.35267687005E+03  0.35517753029E+04  0.35342222380E+04 0.  0.
        5    1    3    3  502    0 -0.58860837255E+03  0.66228489073E+03  0.17128461038E+04  0.19284566259E+04  0.46999998093E+01 0. -1.
       -5    1    3    3    0  502  0.58860837255E+03 -0.66228489073E+03 -0.13601692337E+04  0.16233186770E+04  0.46999998093E+01 0.  1.
</event>
<event>
 5   0  0.1866421E-07  0.3503693E+04  0.7818609E-02  0.8112915E-01
       -1   -1    0    0    0  501  0.00000000000E+00  0.00000000000E+00  0.11622485215E+04  0.11622485215E+04  0.50400001928E-02 0. -1.
        1   -1    0    0  501    0  0.00000000000E+00  0.00000000000E+00 -0.26405416937E+04  0.26405416937E+04  0.50400001928E-02 0.  1.
    10030    2    1    2    0    0  0.00000000000E+00  0.00000000000E+00 -0.14782931722E+04  0.38027902152E+04  0.35036927260E+04 0.  0.
        1    1    3    3  502    0  0.54029144555E+03  0.96881085458E+03 -0.22107914501E+04  0.24734809791E+04  0.50400001928E-02 0.  1.
       -1    1    3    3    0  502 -0.54029144555E+03 -0.96881085458E+03  0.73249827789E+03  0.13293092361E+04  0.50400001928E-02 0. -1.
</event>
<event>
 5   0  0.1866421E-07  0.3424337E+04  0.7818609E-02  0.8131959E-01
       -1   -1    0    0    0  501  0.00000000000E+00  0.00000000000E+00  0.34373565303E+04  0.34373565303E+04  0.50400001928E-02 0.  1.
        1   -1    0    0  501    0  0.00000000000E+00  0.00000000000E+00 -0.85284194439E+03  0.85284194441E+03  0.50400001928E-02 0. -1.
    10030    2    1    2    0    0  0.00000000000E+00  0.00000000000E+00  0.25845145859E+04  0.42901984747E+04  0.34243374991E+04 0.  0.
        1    1    3    3  502    0  0.79723315679E+03 -0.10897145659E+03 -0.60119854144E+03  0.10044377387E+04  0.50400001928E-02 0. -1.
       -1    1    3    3    0  502 -0.79723315679E+03  0.10897145659E+03  0.31857131274E+04  0.32857607360E+04  0.50400001928E-02 0.  1.
</event>
<event>
 5   0  0.5677193E-07  0.3468255E+04  0.7818609E-02  0.8121354E-01
       -2   -1    0    0    0  501  0.00000000000E+00  0.00000000000E+00  0.18715118078E+04  0.18715118078E+04  0.25500000920E-02 0. -1.
        2   -1    0    0  501    0  0.00000000000E+00  0.00000000000E+00 -0.16068286996E+04  0.16068286996E+04  0.25500000920E-02 0.  1.
    10030    2    1    2    0    0  0.00000000000E+00  0.00000000000E+00  0.26468310821E+03  0.34783405075E+04  0.34682554027E+04 0.  0.
        3    1    3    3  502    0  0.10605486158E+04  0.42396527391E+03 -0.11763240330E+04  0.16395878021E+04  0.10100000352E+00 0.  1.
       -3    1    3    3    0  502 -0.10605486158E+04 -0.42396527391E+03  0.14410071412E+04  0.18387527053E+04  0.10100000352E+00 0. -1.
</event>
<event>
 5   0  0.1866421E-07  0.3413473E+04  0.7818609E-02  0.8134607E-01
        1   -1    0    0  501    0  0.00000000000E+00  0.00000000000E+00  0.20831441365E+04  0.20831441366E+04  0.50400001928E-02 0.  1.
       -1   -1    0    0    0  501  0.00000000000E+00  0.00000000000E+00 -0.13983430674E+04  0.13983430674E+04  0.50400001928E-02 0. -1.
    10030    2    1    2    0    0  0.00000000000E+00  0.00000000000E+00  0.68480106910E+03  0.34814872040E+04  0.34134733992E+04 0.  0.
        1    1    3    3  502    0 -0.95296608441E+03 -0.62704032352E+03 -0.95239276985E+03  0.14860605349E+04  0.50400001928E-02 0. -1.
       -1    1    3    3    0  502  0.95296608441E+03  0.62704032352E+03  0.16371938389E+04  0.19954266691E+04  0.50400001928E-02 0.  1.
</event>
<event>
 5   0  0.1897049E-07  0.3396977E+04  0.7818609E-02  0.8138649E-01
        1   -1    0    0  501    0  0.00000000000E+00  0.00000000000E+00  0.17868172498E+04  0.17868172498E+04  0.50400001928E-02 0. -1.
       -1   -1    0    0    0  501  0.00000000000E+00  0.00000000000E+00 -0.16145262287E+04  0.16145262287E+04  0.50400001928E-02 0.  1.
    10030    2    1    2    0    0  0.00000000000E+00  0.00000000000E+00  0.17229102108E+03  0.34013434785E+04  0.33969770771E+04 0.  0.
        2    1    3    3  502    0  0.14793085395E+04 -0.46892756889E+03 -0.60511605248E+03  0.16656567044E+04  0.25500000920E-02 0.  1.
       -2    1    3    3    0  502 -0.14793085395E+04  0.46892756889E+03  0.77740707356E+03  0.17356867741E+04  0.25500000920E-02 0. -1.
</event>
<event>
 5   0  0.1908190E-07  0.3492644E+04  0.7818609E-02  0.8115536E-01
       -1   -1    0    0    0  501  0.00000000000E+00  0.00000000000E+00  0.11180555268E+04  0.11180555268E+04  0.50400001928E-02 0.  1.
        1   -1    0    0  501    0  0.00000000000E+00  0.00000000000E+00 -0.27276281813E+04  0.27276281813E+04  0.50400001928E-02 0. -1.
    10030    2    1    2    0    0  0.00000000000E+00  0.00000000000E+00 -0.16095726544E+04  0.38456837081E+04  0.34926435622E+04 0.  0.
        5    1    3    3  502    0  0.37351076844E+03  0.14131419391E+04  0.24738708458E+03  0.14824651409E+04  0.46999998093E+01 0.  1.
       -5    1    3    3    0  502 -0.37351076844E+03 -0.14131419391E+04 -0.18569597390E+04  0.23632185672E+04  0.46999998093E+01 0. -1.
</event>
<event>
 5   0  0.5573334E-07  0.3503866E+04  0.7818609E-02  0.8112874E-01
       -2   -1    0    0    0  501  0.00000000000E+00  0.00000000000E+00  0.11856629340E+04  0.11856629340E+04  0.25500000920E-02 0.  1.
        2   -1    0    0  501    0  0.00000000000E+00  0.00000000000E+00 -0.25886531578E+04  0.25886531578E+04  0.25500000920E-02 0. -1.
    10030    2    1    2    0    0  0.00000000000E+00  0.00000000000E+00 -0.14029902238E+04  0.37743160919E+04  0.35038664919E+04 0.  0.
        4    1    3    3  502    0  0.72880048642E+03  0.11349367024E+04  0.50285333221E+03  0.14394771808E+04  0.12699999809E+01 0.  1.
       -4    1    3    3    0  502 -0.72880048642E+03 -0.11349367024E+04 -0.19058435560E+04  0.23348389110E+04  0.12699999809E+01 0. -1.
</event>
<event>
 5   0  0.5677193E-07  0.3511348E+04  0.7818609E-02  0.8111106E-01
        2   -1    0    0  501    0  0.00000000000E+00  0.00000000000E+00  0.20926428424E+04  0.20926428424E+04  0.25500000920E-02 0.  1.
       -2   -1    0    0    0  501  0.00000000000E+00  0.00000000000E+00 -0.14729656810E+04  0.14729656810E+04  0.25500000920E-02 0. -1.
    10030    2    1    2    0    0  0.00000000000E+00  0.00000000000E+00  0.61967716139E+03  0.35656085234E+04  0.35113479403E+04 0.  0.
        3    1    3    3  502    0 -0.12088533722E+03 -0.63221395464E+03 -0.13488295031E+04  0.14945396575E+04  0.10100000352E+00 0. -1.
       -3    1    3    3    0  502  0.12088533722E+03  0.63221395464E+03  0.19685066645E+04  0.20710688659E+04  0.10100000352E+00 0.  1.
</event>
<event>
 5   0  0.1866421E-07  0.3461341E+04  0.7818609E-02  0.8123013E-01
        1   -1    0    0  501    0  0.00000000000E+00  0.00000000000E+00  0.24208918526E+04  0.24208918526E+04  0.50400001928E-02 0. -1.
       -1   -1    0    0    0  501  0.00000000000E+00  0.00000000000E+00 -0.12372380804E+04  0.12372380804E+04  0.50400001928E-02 0.  1.
    10030    2    1    2    0    0  0.00000000000E+00  0.00000000000E+00  0.11836537722E+04  0.36581299330E+04  0.34613405429E+04 0.  0.
        1    1    3    3  502    0  0.34289229098E+02 -0.12110080483E+04  0.18980154668E+04  0.22517057882E+04  0.50400001928E-02 0. -1.
       -1    1    3    3    0  502 -0.34289229098E+02  0.12110080483E+04 -0.71436169467E+03  0.14064241448E+04  0.50400001928E-02 0.  1.
</event>
<event>
 5   0  0.1897049E-07  0.3505101E+04  0.7818609E-02  0.8112582E-01
        1   -1    0    0  501    0  0.00000000000E+00  0.00000000000E+00  0.21432724887E+04  0.21432724887E+04  0.50400001928E-02 0. -1.
       -1   -1    0    0    0  501  0.00000000000E+00  0.00000000000E+00 -0.14330574984E+04  0.14330574984E+04  0.50400001928E-02 0.  1.
    10030    2    1    2    0    0  0.00000000000E+00  0.00000000000E+00  0.71021499036E+03  0.35763299871E+04  0.35051006896E+04 0.  0.
        2    1    3    3  502    0 -0.73047905245E+03  0.73058850327E+03  0.17995288782E+04  0.20750092507E+04  0.25500000920E-02 0. -1.
       -2    1    3    3    0  502  0.73047905245E+03 -0.73058850327E+03 -0.10893138878E+04  0.15013207364E+04  0.25500000920E-02 0.  1.
</event>
<event>
 5   0  0.1933647E-07  0.3502431E+04  0.7818609E-02  0.8113214E-01
       -1   -1    0    0    0  501  0.00000000000E+00  0.00000000000E+00  0.12269772164E+04  0.12269772164E+04  0.50400001928E-02 0. -1.
        1   -1    0    0  501    0  0.00000000000E+00  0.00000000000E+00 -0.24994394902E+04  0.24994394902E+04  0.50400001928E-02 0.  1.
    10030    2    1    2    0    0  0.00000000000E+00  0.00000000000E+00 -0.12724622738E+04  0.37264167066E+04  0.35024307607E+04 0.  0.
        4    1    3    3  502    0  0.12957914820E+04  0.32807851425E+03  0.56751269461E+03  0.14521650553E+04  0.12699999809E+01 0. -1.
       -4    1    3    3    0  502 -0.12957914820E+04 -0.32807851425E+03 -0.18399749684E+04  0.22742516513E+04  0.12699999809E+01 0.  1.
</event>
<event>
 5   0  0.1873457E-07  0.3513701E+04  0.7818609E-02  0.8110551E-01
        1   -1    0    0  501    0  0.00000000000E+00  0.00000000000E+00  0.22535557784E+04  0.22535557784E+04  0.50400001928E-02 0.  1.
       -1   -1    0    0    0  501  0.00000000000E+00  0.00000000000E+00 -0.13696240396E+04  0.13696240397E+04  0.50400001928E-02 0. -1.
    10030    2    1    2    0    0  0.00000000000E+00  0.00000000000E+00  0.88393173875E+03  0.36231798181E+04  0.35137012786E+04 0.  0.
        3    1    3    3  502    0  0.12663839438E+04  0.35021263716E+03 -0.76062519269E+03  0.15181988929E+04  0.10100000352E+00 0. -1.
       -3    1    3    3    0  502 -0.12663839438E+04 -0.35021263716E+03  0.16445569314E+04  0.21049809252E+04  0.10100000352E+00 0.  1.
</event>
<event>
 5   0  0.1866421E-07  0.3498528E+04  0.7818609E-02  0.8114139E-01
       -1   -1    0    0    0  501  0.00000000000E+00  0.00000000000E+00  0.16622974898E+04  0.16622974898E+04  0.50400001928E-02 0.  1.
        1   -1    0    0  501    0  0.00000000000E+00  0.00000000000E+00 -0.18407804773E+04  0.18407804773E+04  0.50400001928E-02 0. -1.
    10030    2    1    2    0    0  0.00000000000E+00  0.00000000000E+00 -0.17848298749E+03  0.35030779672E+04  0.34985281287E+04 0.  0.
        1    1    3    3  502    0 -0.87491287568E+03 -0.15141867785E+04 -0.48070790989E+02  0.17494413226E+04  0.50400001928E-02 0.  1.
       -1    1    3    3    0  502  0.87491287568E+03  0.15141867785E+04 -0.13041219650E+03  0.17536366446E+04  0.50400001928E-02 0. -1.
</event>
<event>
 5   0  0.5573334E-07  0.3493515E+04  0.7818609E-02  0.8115329E-01
        2   -1    0    0  501    0  0.00000000000E+00  0.00000000000E+00  0.12212102272E+04  0.12212102273E+04  0.25500000920E-02 0.  1.
       -2   -1    0    0    0  501  0.00000000000E+00  0.00000000000E+00 -0.24984731812E+04  0.24984731812E+04  0.25500000920E-02 0. -1.
    10030    2    1    2    0    0  0.00000000000E+00  0.00000000000E+00 -0.12772629539E+04  0.37196834084E+04  0.34935145635E+04 0.  0.
        4    1    3    3  502    0  0.63253041937E+03  0.14944344591E+04 -0.13267946232E+04  0.20961428074E+04  0.12699999809E+01 0. -1.
       -4    1    3    3    0  502 -0.63253041937E+03 -0.14944344591E+04  0.49531669239E+02  0.16235406010E+04  0.12699999809E+01 0.  1.
</event>
<event>
 5   0  0.5573334E-07  0.3510504E+04  0.7818609E-02  0.8111305E-01
       -2   -1    0    0    0  501  0.00000000000E+00  0.00000000000E+00  0.18474486561E+04  0.18474486561E+04  0.25500000920E-02 0.  1.
        2   -1    0    0  501    0  0.00000000000E+00  0.00000000000E+00 -0.16676561257E+04  0.16676561257E+04  0.25500000920E-02 0. -1.
    10030    2    1    2    0    0  0.00000000000E+00  0.00000000000E+00  0.17979253035E+03  0.35151047819E+04  0.35105037065E+04 0.  0.
        4    1    3    3  502    0 -0.38281381582E+03  0.87961618254E+03  0.15617331578E+04  0.18328347212E+04  0.12699999809E+01 0.  1.
       -4    1    3    3    0  502  0.38281381582E+03 -0.87961618254E+03 -0.13819406275E+04  0.16822700606E+04  0.12699999809E+01 0. -1.
</event>
<event>
 5   0  0.1866421E-07  0.3524061E+04  0.7818609E-02  0.8108111E-01
       -1   -1    0    0    0  501  0.00000000000E+00  0.00000000000E+00  0.23752953643E+04  0.23752953643E+04  0.50400001928E-02 0. -1.
        1   -1    0    0  501    0  0.00000000000E+00  0.00000000000E+00 -0.13071014890E+04  0.13071014890E+04  0.50400001928E-02 0.  1.
    10030    2    1    2    0    0  0.00000000000E+00  0.00000000000E+00  0.10681938753E+04  0.36823968533E+04  0.35240613544E+04 0.  0.
        1    1    3    3  502    0  0.93440632519E+03 -0.14404090484E+04  0.94794548564E+03  0.19612480850E+04  0.50400001928E-02 0. -1.
       -1    1    3    3    0  502 -0.93440632519E+03  0.14404090484E+04  0.12024838963E+03  0.17211487682E+04  0.50400001928E-02 0.  1.
</event>
<event>
 5   0  0.1933647E-07  0.3130528E+04  0.7818609E-02  0.8207409E-01
        1   -1    0    0  501    0  0.00000000000E+00  0.00000000000E+00  0.15827620577E+04  0.15827620577E+04  0.50400001928E-02 0.  1.
       -1   -1    0    0    0  501  0.00000000000E+00  0.00000000000E+00 -0.15479590018E+04  0.15479590018E+04  0.50400001928E-02 0. -1.
    10030    2    1    2    0    0  0.00000000000E+00  0.00000000000E+00  0.34803055884E+02  0.31307210596E+04  0.31305276073E+04 0.  0.
        4    1    3    3  502    0 -0.20616274462E+03  0.11322727698E+03 -0.15301842189E+04  0.15481565975E+04  0.12699999809E+01 0. -1.
       -4    1    3    3    0  502  0.20616274462E+03 -0.11322727698E+03  0.15649872748E+04  0.15825644621E+04  0.12699999809E+01 0.  1.
</event>
<event>
 5   0  0.5573334E-07  0.3484922E+04  0.7818609E-02  0.8117372E-01
       -2   -1    0    0    0  501  0.00000000000E+00  0.00000000000E+00  0.16048948292E+04  0.16048948292E+04  0.25500000920E-02 0. -1.
        2   -1    0    0  501    0  0.00000000000E+00  0.00000000000E+00 -0.18918192625E+04  0.18918192625E+04  0.25500000920E-02 0.  1.
    10030    2    1    2    0    0  0.00000000000E+00  0.00000000000E+00 -0.28692443327E+03  0.34967140917E+04  0.34849223534E+04 0.  0.
        4    1    3    3  502    0 -0.12169741048E+04 -0.55545345588E+03  0.97683475346E+03  0.16564305787E+04  0.12699999809E+01 0. -1.
       -4    1    3    3    0  502  0.12169741048E+04  0.55545345588E+03 -0.12637591867E+04  0.18402835131E+04  0.12699999809E+01 0.  1.
</event>
<event>
 5   0  0.5573334E-07  0.3518465E+04  0.7818609E-02  0.8109428E-01
        2   -1    0    0  501    0  0.00000000000E+00  0.00000000000E+00  0.15327024530E+04  0.15327024530E+04  0.25500000920E-02 0.  1.
       -2   -1    0    0    0  501  0.00000000000E+00  0.00000000000E+00 -0.20192434653E+04  0.20192434653E+04  0.25500000920E-02 0. -1.
    10030    2    1    2    0    0  0.00000000000E+00  0.00000000000E+00 -0.48654101223E+03  0.35519459183E+04  0.35184652407E+04 0.  0.
        4    1    3    3  502    0  0.11805161849E+04 -0.90600213291E+03  0.70397560728E+03  0.16462203972E+04  0.12699999809E+01 0.  1.
       -4    1    3    3    0  502 -0.11805161849E+04  0.90600213291E+03 -0.11905166195E+04  0.19057255211E+04  0.12699999809E+01 0. -1.
</event>
<event>
 5   0  0.5554745E-07  0.3488302E+04  0.7818609E-02  0.8116568E-01
       -2   -1    0    0    0  501  0.00000000000E+00  0.00000000000E+00  0.19133499683E+04  0.19133499683E+04  0.25500000920E-02 0.  1.
        2   -1    0    0  501    0  0.00000000000E+00  0.00000000000E+00 -0.15899147232E+04  0.15899147232E+04  0.25500000920E-02 0. -1.
    10030    2    1    2    0    0  0.00000000000E+00  0.00000000000E+00  0.32343524511E+03  0.35032646915E+04  0.34883023293E+04 0.  0.
        5    1    3    3  502    0  0.15074993928E+04  0.81607385633E+03  0.48482768681E+03  0.17814631442E+04  0.46999998093E+01 0.  1.
       -5    1    3    3    0  502 -0.15074993928E+04 -0.81607385633E+03 -0.16139244170E+03  0.17218015473E+04  0.46999998093E+01 0. -1.
</event>
<event>
 5   0  0.5707187E-07  0.3514560E+04  0.7818609E-02  0.8110348E-01
        2   -1    0    0  501    0  0.00000000000E+00  0.00000000000E+00  0.21115767648E+04  0.21115767648E+04  0.25500000920E-02 0.  1.
       -2   -1    0    0    0  501  0.00000000000E+00  0.00000000000E+00 -0.14624302196E+04  0.14624302196E+04  0.25500000920E-02 0. -1.
    10030    2    1    2    0    0  0.00000000000E+00  0.00000000000E+00  0.64914654519E+03  0.35740069844E+04  0.35145603832E+04 0.  0.
        1    1    3    3  502    0  0.50294327629E+03 -0.14090384436E+04  0.12619523457E+04  0.19572595632E+04  0.50400001928E-02 0.  1.
       -1    1    3    3    0  502 -0.50294327629E+03  0.14090384436E+04 -0.61280580052E+03  0.16167474212E+04  0.50400001928E-02 0. -1.
</event>
<event>
 5   0  0.1823000E-07  0.3513149E+04  0.7818609E-02  0.8110681E-01
       -3   -1    0    0    0  501  0.00000000000E+00  0.00000000000E+00  0.20143571555E+04  0.20143571580E+04  0.10100000352E+00 0. -1.
        3   -1    0    0  501    0  0.00000000000E+00  0.00000000000E+00 -0.15317813170E+04  0.15317813204E+04  0.10100000352E+00 0.  1.
    10030    2    1    2    0    0  0.00000000000E+00  0.00000000000E+00  0.48257583849E+03  0.35461384784E+04  0.35131493945E+04 0.  0.
        2    1    3    3  502    0  0.19104249705E+03  0.16949819726E+04 -0.18228753933E+03  0.17154270227E+04  0.25500000920E-02 0.  1.
       -2    1    3    3    0  502 -0.19104249705E+03 -0.16949819726E+04  0.66486337782E+03  0.18307114558E+04  0.25500000920E-02 0. -1.
</event>
<event>
 5   0  0.5554745E-07  0.3447820E+04  0.7818609E-02  0.8126268E-01
       -2   -1    0    0    0  501  0.00000000000E+00  0.00000000000E+00  0.13524388860E+04  0.13524388860E+04  0.25500000920E-02 0. -1.
        2   -1    0    0  501    0  0.00000000000E+00  0.00000000000E+00 -0.21974125678E+04  0.21974125678E+04  0.25500000920E-02 0.  1.
    10030    2    1    2    0    0  0.00000000000E+00  0.00000000000E+00 -0.84497368180E+03  0.35498514539E+04  0.34478203001E+04 0.  0.
        5    1    3    3  502    0  0.81503373633E+03  0.10910962075E+04  0.66570727209E+03  0.15159021035E+04  0.46999998093E+01 0. -1.
       -5    1    3    3    0  502 -0.81503373633E+03 -0.10910962075E+04 -0.15106809539E+04  0.20339493504E+04  0.46999998093E+01 0.  1.
</event>
<event>
 5   0  0.1897049E-07  0.3703671E+04  0.7818609E-02  0.8067149E-01
       -1   -1    0    0    0  501  0.00000000000E+00  0.00000000000E+00  0.14928734311E+04  0.14928734311E+04  0.50400001928E-02 0.  1.
        1   -1    0    0  501    0  0.00000000000E+00  0.00000000000E+00 -0.22971103409E+04  0.22971103409E+04  0.50400001928E-02 0. -1.
    10030    2    1    2    0    0  0.00000000000E+00  0.00000000000E+00 -0.80423690983E+03  0.37899837720E+04  0.37036711497E+04 0.  0.
        2    1    3    3  502    0  0.11049814443E+03  0.62685670143E+03 -0.21816495406E+04  0.22726094874E+04  0.25500000920E-02 0. -1.
       -2    1    3    3    0  502 -0.11049814443E+03 -0.62685670143E+03  0.13774126308E+04  0.15173742846E+04  0.25500000920E-02 0.  1.
</event>
<event>
 5   0  0.5554745E-07  0.3442509E+04  0.7818609E-02  0.8127551E-01
        2   -1    0    0  501    0  0.00000000000E+00  0.00000000000E+00  0.25829305356E+04  0.25829305356E+04  0.25500000920E-02 0.  1.
       -2   -1    0    0    0  501  0.00000000000E+00  0.00000000000E+00 -0.11470371654E+04  0.11470371654E+04  0.25500000920E-02 0. -1.
    10030    2    1    2    0    0  0.00000000000E+00  0.00000000000E+00  0.14358933702E+04  0.37299677009E+04  0.34425091546E+04 0.  0.
        5    1    3    3  502    0  0.28244177995E+03  0.16392888338E+04  0.23868322162E+03  0.16804859446E+04  0.46999998093E+01 0. -1.
       -5    1    3    3    0  502 -0.28244177995E+03 -0.16392888338E+04  0.11972101486E+04  0.20494817563E+04  0.46999998093E+01 0.  1.
</event>
<event>
 5   0  0.1873457E-07  0.3519101E+04  0.7818609E-02  0.8109278E-01
        1   -1    0    0  501    0  0.00000000000E+00  0.00000000000E+00  0.14094592253E+04  0.14094592253E+04  0.50400001928E-02 0. -1.
       -1   -1    0    0    0  501  0.00000000000E+00  0.00000000000E+00 -0.21965993093E+04  0.21965993093E+04  0.50400001928E-02 0.  1.
    10030    2    1    2    0    0  0.00000000000E+00  0.00000000000E+00 -0.78714008400E+03  0.36060585346E+04  0.35191005446E+04 0.  0.
        3    1    3    3  502    0  0.12434337704E+04  0.11647720858E+04 -0.84397141895E+03  0.19013440823E+04  0.10100000352E+00 0.  1.
       -3    1    3    3    0  502 -0.12434337704E+04 -0.11647720858E+04  0.56831334954E+02  0.17047144523E+04  0.10100000352E+00 0. -1.
</event>
<event>
 5   0  0.1933647E-07  0.3490939E+04  0.7818609E-02  0.8115941E-01
       -1   -1    0    0    0  501  0.00000000000E+00  0.00000000000E+00  0.17217853510E+04  0.17217853510E+04  0.50400001928E-02 0. -1.
        1   -1    0    0  501    0  0.00000000000E+00  0.00000000000E+00 -0.17694794512E+04  0.17694794512E+04  0.50400001928E-02 0.  1.
    10030    2    1    2    0    0  0.00000000000E+00  0.00000000000E+00 -0.47694100136E+02  0.34912648022E+04  0.34909390129E+04 0.  0.
        4    1    3    3  502    0  0.49400786182E+03  0.12952287641E+04 -0.10846066156E+04  0.17601234168E+04  0.12699999809E+01 0.  1.
       -4    1    3    3    0  502 -0.49400786182E+03 -0.12952287641E+04  0.10369125154E+04  0.17311413854E+04  0.12699999809E+01 0. -1.
</event>
<event>
 5   0  0.1873457E-07  0.3504494E+04  0.7818609E-02  0.8112726E-01
       -1   -1    0    0    0  501  0.00000000000E+00  0.00000000000E+00  0.15690353462E+04  0.15690353462E+04  0.50400001928E-02 0. -1.
        1   -1    0    0  501    0  0.00000000000E+00  0.00000000000E+00 -0.19568520098E+04  0.19568520098E+04  0.50400001928E-02 0.  1.
    10030    2    1    2    0    0  0.00000000000E+00  0.00000000000E+00 -0.38781666360E+03  0.35258873560E+04  0.35044942406E+04 0.  0.
        3    1    3    3  502    0 -0.12496524150E+04 -0.26228410634E+03 -0.14012110074E+04  0.18957363762E+04  0.10100000352E+00 0.  1.
       -3    1    3    3    0  502  0.12496524150E+04  0.26228410634E+03  0.10133943438E+04  0.16301509798E+04  0.10100000352E+00 0. -1.
</event>
<event>
 5   0  0.1873457E-07  0.3465796E+04  0.7818609E-02  0.8121944E-01
       -1   -1    0    0    0  501  0.00000000000E+00  0.00000000000E+00  0.19326009296E+04  0.19326009296E+04  0.50400001928E-02 0.  1.
        1   -1    0    0  501    0  0.00000000000E+00  0.00000000000E+00 -0.15538310927E+04  0.15538310927E+04  0.50400001928E-02 0. -1.
    10030    2    1    2    0    0  0.00000000000E+00  0.00000000000E+00  0.37876983690E+03  0.34864320222E+04  0.34657959629E+04 0.  0.
        3    1    3    3  502    0  0.11818310606E+04 -0.98500272783E+03 -0.61284724017E+03  0.16560606207E+04  0.10100000352E+00 0.  1.
       -3    1    3    3    0  502 -0.11818310606E+04  0.98500272783E+03  0.99161707706E+03  0.18303714015E+04  0.10100000352E+00 0. -1.
</event>
<event>
 5   0  0.5740827E-07  0.3512150E+04  0.7818609E-02  0.8110917E-01
       -2   -1    0    0    0  501  0.00000000000E+00  0.00000000000E+00  0.14918205745E+04  0.14918205745E+04  0.25500000920E-02 0. -1.
        2   -1    0    0  501    0  0.00000000000E+00  0.00000000000E+00 -0.20671377931E+04  0.20671377931E+04  0.25500000920E-02 0.  1.
    10030    2    1    2    0    0  0.00000000000E+00  0.00000000000E+00 -0.57531721860E+03  0.35589583675E+04  0.35121495924E+04 0.  0.
        2    1    3    3  502    0  0.12864406581E+04  0.92708907926E+02 -0.14952944630E+04  0.19746974551E+04  0.25500000920E-02 0.  1.
       -2    1    3    3    0  502 -0.12864406581E+04 -0.92708907926E+02  0.91997724438E+03  0.15842609124E+04  0.25500000920E-02 0. -1.
</event>
<event>
 5   0  0.1908190E-07  0.3497495E+04  0.7818609E-02  0.8114384E-01
       -1   -1    0    0    0  501  0.00000000000E+00  0.00000000000E+00  0.22770539866E+04  0.22770539866E+04  0.50400001928E-02 0.  1.
        1   -1    0    0  501    0  0.00000000000E+00  0.00000000000E+00 -0.13430149761E+04  0.13430149761E+04  0.50400001928E-02 0. -1.
    10030    2    1    2    0    0  0.00000000000E+00  0.00000000000E+00  0.93403901049E+03  0.36200689627E+04  0.34974948780E+04 0.  0.
        5    1    3    3  502    0 -0.72113367974E+03  0.13284368830E+04 -0.44318417238E+03  0.15751865403E+04  0.46999998093E+01 0. -1.
       -5    1    3    3    0  502  0.72113367974E+03 -0.13284368830E+04  0.13772231829E+04  0.20448824224E+04  0.46999998093E+01 0.  1.
</event>
<event>
 5   0  0.1897049E-07  0.3460219E+04  0.7818609E-02  0.8123283E-01
       -1   -1    0    0    0  501  0.00000000000E+00  0.00000000000E+00  0.14251330229E+04  0.14251330229E+04  0.50400001928E-02 0. -1.
        1   -1    0    0  501    0  0.00000000000E+00  0.00000000000E+00 -0.21003508359E+04  0.21003508359E+04  0.50400001928E-02 0.  1.
    10030    2    1    2    0    0  0.00000000000E+00  0.00000000000E+00 -0.67521781295E+03  0.35254838588E+04  0.34602192624E+04 0.  0.
        2    1    3    3  502    0 -0.92036844429E+03 -0.30342869405E+03  0.11226481582E+04  0.14830663952E+04  0.25500000920E-02 0. -1.
       -2    1    3    3    0  502  0.92036844429E+03  0.30342869405E+03 -0.17978659711E+04  0.20424174636E+04  0.25500000920E-02 0.  1.
</event>
<event>
 5   0  0.1873457E-07  0.3502276E+04  0.7818609E-02  0.8113251E-01
        1   -1    0    0  501    0  0.00000000000E+00  0.00000000000E+00  0.14080140605E+04  0.14080140605E+04  0.50400001928E-02 0. -1.
       -1   -1    0    0    0  501  0.00000000000E+00  0.00000000000E+00 -0.21778789024E+04  0.21778789024E+04  0.50400001928E-02 0.  1.
    10030    2    1    2    0    0  0.00000000000E+00  0.00000000000E+00 -0.76986484190E+03  0.35858929629E+04  0.35022758981E+04 0.  0.
        3    1    3    3  502    0 -0.30317260215E+03  0.23842850136E+03 -0.21338484013E+04  0.21684258777E+04  0.10100000352E+00 0.  1.
       -3    1    3    3    0  502  0.30317260215E+03 -0.23842850136E+03  0.13639835594E+04  0.14174670852E+04  0.10100000352E+00 0. -1.
</event>
<event>
 5   0  0.5707187E-07  0.3509899E+04  0.7818609E-02  0.8111448E-01
       -2   -1    0    0    0  501  0.00000000000E+00  0.00000000000E+00  0.12972316794E+04  0.12972316794E+04  0.25500000920E-02 0.  1.
        2   -1    0    0  501    0  0.00000000000E+00  0.00000000000E+00 -0.23741687224E+04  0.23741687224E+04  0.25500000920E-02 0. -1.
    10030    2    1    2    0    0  0.00000000000E+00  0.00000000000E+00 -0.10769370429E+04  0.36714004018E+04  0.35098985050E+04 0.  0.
        1    1    3    3  502    0  0.15856330435E+04  0.44471277100E+03  0.95941139188E+02  0.16496079230E+04  0.50400001928E-02 0.  1.
       -1    1    3    3    0  502 -0.15856330435E+04 -0.44471277100E+03 -0.11728781821E+04  0.20217924788E+04  0.50400001928E-02 0. -1.
</event>
<event>
 5   0  0.5740827E-07  0.3532235E+04  0.7818609E-02  0.8106193E-01
       -2   -1    0    0    0  501  0.00000000000E+00  0.00000000000E+00  0.14387072963E+04  0.14387072963E+04  0.25500000920E-02 0.  1.
        2   -1    0    0  501    0  0.00000000000E+00  0.00000000000E+00 -0.21680368770E+04  0.21680368770E+04  0.25500000920E-02 0. -1.
    10030    2    1    2    0    0  0.00000000000E+00  0.00000000000E+00 -0.72932958067E+03  0.36067441734E+04  0.35322346885E+04 0.  0.
        2    1    3    3  502    0  0.21246785776E+03 -0.16856867684E+04 -0.85700585484E+03  0.19029297167E+04  0.25500000920E-02 0. -1.
       -2    1    3    3    0  502 -0.21246785776E+03  0.16856867684E+04  0.12767627416E+03  0.17038144566E+04  0.25500000920E-02 0.  1.
</event>
<event>
 5   0  0.1873457E-07  0.3548333E+04  0.7818609E-02  0.8102430E-01
        1   -1    0    0  501    0  0.00000000000E+00  0.00000000000E+00  0.23562217813E+04  0.23562217813E+04  0.50400001928E-02 0. -1.
       -1   -1    0    0    0  501  0.00000000000E+00  0.00000000000E+00 -0.13358961022E+04  0.13358961022E+04  0.50400001928E-02 0.  1.
    10030    2    1    2    0    0  0.00000000000E+00  0.00000000000E+00  0.10203256790E+04  0.36921178835E+04  0.35483334080E+04 0.  0.
        3    1    3    3  502    0 -0.80326225085E+03 -0.11781918014E+04  0.16085424465E+04  0.21495987944E+04  0.10100000352E+00 0. -1.
       -3    1    3    3    0  502  0.80326225085E+03  0.11781918014E+04 -0.58821676746E+03  0.15425190891E+04  0.10100000352E+00 0.  1.
</event>
<event>
 5   0  0.5707187E-07  0.3363451E+04  0.7818609E-02  0.8146935E-01
        2   -1    0    0  501    0  0.00000000000E+00  0.00000000000E+00  0.22295233166E+04  0.22295233166E+04  0.25500000920E-02 0. -1.
       -2   -1    0    0    0  501  0.00000000000E+00  0.00000000000E+00 -0.12685223513E+04  0.12685223513E+04  0.25500000920E-02 0.  1.
    10030    2    1    2    0    0  0.00000000000E+00  0.00000000000E+00  0.96100096531E+03  0.34980456678E+04  0.33634507041E+04 0.  0.
        1    1    3    3  502    0  0.15631844673E+04 -0.20867051625E+03 -0.12691846044E+03  0.15821496007E+04  0.50400001928E-02 0.  1.
       -1    1    3    3    0  502 -0.15631844673E+04  0.20867051625E+03  0.10879194258E+04  0.19158960672E+04  0.50400001928E-02 0. -1.
</event>
<event>
 5   0  0.1866421E-07  0.3508547E+04  0.7818609E-02  0.8111767E-01
        1   -1    0    0  501    0  0.00000000000E+00  0.00000000000E+00  0.19228329220E+04  0.19228329220E+04  0.50400001928E-02 0. -1.
       -1   -1    0    0    0  501  0.00000000000E+00  0.00000000000E+00 -0.16004907290E+04  0.16004907290E+04  0.50400001928E-02 0.  1.
    10030    2    1    2    0    0  0.00000000000E+00  0.00000000000E+00  0.32234219296E+03  0.35233236510E+04  0.35085474288E+04 0.  0.
        1    1    3    3  502    0 -0.71194566875E+03  0.13089957774E+04 -0.76854636741E+03  0.16766037395E+04  0.50400001928E-02 0.  1.
       -1    1    3    3    0  502  0.71194566875E+03 -0.13089957774E+04  0.10908885604E+04  0.18467199115E+04  0.50400001928E-02 0. -1.
</event>
<event>
 5   0  0.1873457E-07  0.3521217E+04  0.7818609E-02  0.8108780E-01
       -1   -1    0    0    0  501  0.00000000000E+00  0.00000000000E+00  0.12799436118E+04  0.12799436118E+04  0.50400001928E-02 0. -1.
        1   -1    0    0  501    0  0.00000000000E+00  0.00000000000E+00 -0.24217809249E+04  0.24217809249E+04  0.50400001928E-02 0.  1.
    10030    2    1    2    0    0  0.00000000000E+00  0.00000000000E+00 -0.11418373131E+04  0.37017245367E+04  0.35212174168E+04 0.  0.
        3    1    3    3  502    0  0.17592726757E+04  0.59728574905E+02 -0.53549931475E+03  0.18399367860E+04  0.10100000352E+00 0. -1.
       -3    1    3    3    0  502 -0.17592726757E+04 -0.59728574905E+02 -0.60633799836E+03  0.18617877507E+04  0.10100000352E+00 0.  1.
</event>
<event>
 5   0  0.5573334E-07  0.3480607E+04  0.7818609E-02  0.8118401E-01
       -2   -1    0    0    0  501  0.00000000000E+00  0.00000000000E+00  0.24601109152E+04  0.24601109152E+04  0.25500000920E-02 0.  1.
        2   -1    0    0  501    0  0.00000000000E+00  0.00000000000E+00 -0.12311055413E+04  0.12311055413E+04  0.25500000920E-02 0. -1.
    10030    2    1    2    0    0  0.00000000000E+00  0.00000000000E+00  0.12290053739E+04  0.36912164565E+04  0.34806069470E+04 0.  0.
        4    1    3    3  502    0 -0.16732186908E+04  0.43702778864E+03  0.40777000452E+03  0.17767757497E+04  0.12699999809E+01 0.  1.
       -4    1    3    3    0  502  0.16732186908E+04 -0.43702778864E+03  0.82123536935E+03  0.19144407068E+04  0.12699999809E+01 0. -1.
</event>
<event>
 5   0  0.5554745E-07  0.3506435E+04  0.7818609E-02  0.8112267E-01
        2   -1    0    0  501    0  0.00000000000E+00  0.00000000000E+00  0.15711974534E+04  0.15711974534E+04  0.25500000920E-02 0.  1.
       -2   -1    0    0    0  501  0.00000000000E+00  0.00000000000E+00 -0.19563236853E+04  0.19563236853E+04  0.25500000920E-02 0. -1.
    10030    2    1    2    0    0  0.00000000000E+00  0.00000000000E+00 -0.38512623187E+03  0.35275211388E+04  0.35064345381E+04 0.  0.
        5    1    3    3  502    0 -0.16279908423E+04  0.64773283666E+03 -0.25487664729E+03  0.17705638101E+04  0.46999998093E+01 0. -1.
       -5    1    3    3    0  502  0.16279908423E+04 -0.64773283666E+03 -0.13024958458E+03  0.17569573286E+04  0.46999998093E+01 0.  1.
</event>
<event>
 5   0  0.5707187E-07  0.3504499E+04  0.7818609E-02  0.8112725E-01
        2   -1    0    0  501    0  0.00000000000E+00  0.00000000000E+00  0.17917182188E+04  0.17917182188E+04  0.25500000920E-02 0.  1.
       -2   -1    0    0    0  501  0.00000000000E+00  0.00000000000E+00 -0.17136497736E+04  0.17136497736E+04  0.25500000920E-02 0. -1.
    10030    2    1    2    0    0  0.00000000000E+00  0.00000000000E+00  0.78068445165E+02  0.35053679924E+04  0.35044985490E+04 0.  0.
        1    1    3    3  502    0  0.90581891088E+03 -0.10770603669E+04 -0.10051647066E+04  0.17294285243E+04  0.50400001928E-02 0. -1.
       -1    1    3    3    0  502 -0.90581891088E+03  0.10770603669E+04  0.10832331517E+04  0.17759394681E+04  0.50400001928E-02 0.  1.
</event>
<event>
 5   0  0.5554745E-07  0.3494445E+04  0.7818609E-02  0.8115108E-01
       -2   -1    0    0    0  501  0.00000000000E+00  0.00000000000E+00  0.13738833008E+04  0.13738833008E+04  0.25500000920E-02 0.  1.
        2   -1    0    0  501    0  0.00000000000E+00  0.00000000000E+00 -0.22220123606E+04  0.22220123606E+04  0.25500000920E-02 0. -1.
    10030    2    1    2    0    0  0.00000000000E+00  0.00000000000E+00 -0.84812905983E+03  0.35958956614E+04  0.34944445489E+04 0.  0.
        5    1    3    3  502    0 -0.39768669606E+03 -0.14733533278E+04 -0.12995518747E+04  0.20044405459E+04  0.46999998093E+01 0.  1.
       -5    1    3    3    0  502  0.39768669606E+03  0.14733533278E+04  0.45142281489E+03  0.15914551155E+04  0.46999998093E+01 0. -1.
</event>
<event>
 5   0  0.5573334E-07  0.3526734E+04  0.7818609E-02  0.8107483E-01
       -2   -1    0    0    0  501  0.00000000000E+00  0.00000000000E+00  0.16828993149E+04  0.16828993149E+04  0.25500000920E-02 0. -1.
        2   -1    0    0  501    0  0.00000000000E+00  0.00000000000E+00 -0.18476822964E+04  0.18476822964E+04  0.25500000920E-02 0.  1.
    10030    2    1    2    0    0  0.00000000000E+00  0.00000000000E+00 -0.16478298159E+03  0.35305816113E+04  0.35267340533E+04 0.  0.
        4    1    3    3  502    0 -0.51493488880E+03  0.16831001459E+04 -0.18964201144E+03  0.17702965136E+04  0.12699999809E+01 0. -1.
       -4    1    3    3    0  502  0.51493488880E+03 -0.16831001459E+04  0.24859029859E+02  0.17602850977E+04  0.12699999809E+01 0.  1.
</event>
<event>
 5   0  0.1873457E-07  0.3506669E+04  0.7818609E-02  0.8112211E-01
        1   -1    0    0  501    0  0.00000000000E+00  0.00000000000E+00  0.20779331038E+04  0.20779331038E+04  0.50400001928E-02 0. -1.
       -1   -1    0    0    0  501  0.00000000000E+00  0.00000000000E+00 -0.14794424201E+04  0.14794424201E+04  0.50400001928E-02 0.  1.
    10030    2    1    2    0    0  0.00000000000E+00  0.00000000000E+00  0.59849068373E+03  0.35573755239E+04  0.35066692914E+04 0.  0.
        3    1    3    3  502    0 -0.20980814321E+03 -0.10759439760E+04  0.16874282161E+04  0.20122348002E+04  0.10100000352E+00 0. -1.
       -3    1    3    3    0  502  0.20980814321E+03  0.10759439760E+04 -0.10889375323E+04  0.15451407237E+04  0.10100000352E+00 0.  1.
</event>
<event>
 5   0  0.1873457E-07  0.3524325E+04  0.7818609E-02  0.8108049E-01
        1   -1    0    0  501    0  0.00000000000E+00  0.00000000000E+00  0.98151789500E+03  0.98151789501E+03  0.50400001928E-02 0. -1.
       -1   -1    0    0    0  501  0.00000000000E+00  0.00000000000E+00 -0.31636875977E+04  0.31636875977E+04  0.50400001928E-02 0.  1.
    10030    2    1    2    0    0  0.00000000000E+00  0.00000000000E+00 -0.21821697027E+04  0.41452054927E+04  0.35243246112E+04 0.  0.
        3    1    3    3  502    0  0.47965262621E+03 -0.68523984290E+03 -0.29153227812E+04  0.30329403576E+04  0.10100000352E+00 0.  1.
       -3    1    3    3    0  502 -0.47965262621E+03  0.68523984290E+03  0.73315307847E+03  0.11122651351E+04  0.10100000352E+00 0. -1.
</event>
<event>
 5   0  0.5677193E-07  0.3488595E+04  0.7818609E-02  0.8116498E-01
       -2   -1    0    0    0  501  0.00000000000E+00  0.00000000000E+00  0.17595134499E+04  0.17595134499E+04  0.25500000920E-02 0. -1.
        2   -1    0    0  501    0  0.00000000000E+00  0.00000000000E+00 -0.17292129058E+04  0.17292129058E+04  0.25500000920E-02 0.  1.
    10030    2    1    2    0    0  0.00000000000E+00  0.00000000000E+00  0.30300544116E+02  0.34887263556E+04  0.34885947689E+04 0.  0.
        3    1    3    3  502    0 -0.11823235569E+04  0.47459272005E+03  0.12066003107E+04  0.17547112478E+04  0.10100000352E+00 0. -1.
       -3    1    3    3    0  502  0.11823235569E+04 -0.47459272005E+03 -0.11762997666E+04  0.17340151078E+04  0.10100000352E+00 0.  1.
</event>
<event>
 5   0  0.5573334E-07  0.3481076E+04  0.7818609E-02  0.8118289E-01
        2   -1    0    0  501    0  0.00000000000E+00  0.00000000000E+00  0.19799268947E+04  0.19799268947E+04  0.25500000920E-02 0. -1.
       -2   -1    0    0    0  501  0.00000000000E+00  0.00000000000E+00 -0.15300931552E+04  0.15300931552E+04  0.25500000920E-02 0.  1.
    10030    2    1    2    0    0  0.00000000000E+00  0.00000000000E+00  0.44983373950E+03  0.35100200500E+04  0.34810760345E+04 0.  0.
        4    1    3    3  502    0  0.14408796556E+04 -0.72550112709E+03 -0.43395710127E+03  0.16705706947E+04  0.12699999809E+01 0.  1.
       -4    1    3    3    0  502 -0.14408796556E+04  0.72550112709E+03  0.88379084077E+03  0.18394493553E+04  0.12699999809E+01 0. -1.
</event>
<event>
 5   0  0.1897049E-07  0.3480771E+04  0.7818609E-02  0.8118362E-01
        1   -1    0    0  501    0  0.00000000000E+00  0.00000000000E+00  0.18912843806E+04  0.18912843806E+04  0.50400001928E-02 0.  1.
       -1   -1    0    0    0  501  0.00000000000E+00  0.00000000000E+00 -0.16015266164E+04  0.16015266164E+04  0.50400001928E-02 0. -1.
    10030    2    1    2    0    0  0.00000000000E+00  0.00000000000E+00  0.28975776413E+03  0.34928109970E+04  0.34807713368E+04 0.  0.
        2    1    3    3  502    0 -0.97912588065E+03  0.11082716430E+04 -0.77589445752E+03  0.16700196808E+04  0.25500000920E-02 0. -1.
       -2    1    3    3    0  502  0.97912588065E+03 -0.11082716430E+04  0.10656522217E+04  0.18227913162E+04  0.25500000920E-02 0.  1.
</event>
<event>
 5   0  0.1866421E-07  0.3519746E+04  0.7818609E-02  0.8109126E-01
       -1   -1    0    0    0  501  0.00000000000E+00  0.00000000000E+00  0.26260788844E+04  0.26260788844E+04  0.50400001928E-02 0. -1.
        1   -1    0    0  501    0  0.00000000000E+00  0.00000000000E+00 -0.11793830865E+04  0.11793830865E+04  0.50400001928E-02 0.  1.
    10030    2    1    2    0    0  0.00000000000E+00  0.00000000000E+00  0.14466957979E+04  0.38054619709E+04  0.35197460250E+04 0.  0.
        1    1    3    3  502    0 -0.16490186165E+04 -0.50477263429E+03  0.11026774145E+04  0.20469380280E+04  0.50400001928E-02 0.  1.
       -1    1    3    3    0  502  0.16490186165E+04  0.50477263429E+03  0.34401838339E+03  0.17585239430E+04  0.50400001928E-02 0. -1.
</event>
<event>
 5   0  0.1897049E-07  0.3534832E+04  0.7818609E-02  0.8105584E-01
        1   -1    0    0  501    0  0.00000000000E+00  0.00000000000E+00  0.15169412597E+04  0.15169412597E+04  0.50400001928E-02 0. -1.
       -1   -1    0    0    0  501  0.00000000000E+00  0.00000000000E+00 -0.20592485858E+04  0.20592485858E+04  0.50400001928E-02 0.  1.
    10030    2    1    2    0    0  0.00000000000E+00  0.00000000000E+00 -0.54230732605E+03  0.35761898455E+04  0.35348319020E+04 0.  0.
        2    1    3    3  502    0  0.40428681312E+03  0.10812564949E+03  0.14660919158E+04  0.15246522518E+04  0.25500000920E-02 0. -1.
       -2    1    3    3    0  502 -0.40428681312E+03 -0.10812564949E+03 -0.20083992419E+04  0.20515375937E+04  0.25500000920E-02 0.  1.
</event>
<event>
 5   0  0.5573334E-07  0.3505555E+04  0.7818609E-02  0.8112475E-01
        2   -1    0    0  501    0  0.00000000000E+00  0.00000000000E+00  0.17855357941E+04  0.17855357941E+04  0.25500000920E-02 0.  1.
       -2   -1    0    0    0  501  0.00000000000E+00  0.00000000000E+00 -0.17206201143E+04  0.17206201143E+04  0.25500000920E-02 0. -1.
    10030    2    1    2    0    0  0.00000000000E+00  0.00000000000E+00  0.64915679839E+02  0.35061559084E+04  0.35055549073E+04 0.  0.
        4    1    3    3  502    0  0.39136240991E+03 -0.10084369409E+03 -0.16733823355E+04  0.17214947110E+04  0.12699999809E+01 0. -1.
       -4    1    3    3    0  502 -0.39136240991E+03  0.10084369409E+03  0.17382980153E+04  0.17846611974E+04  0.12699999809E+01 0.  1.
</event>
<event>
 5   0  0.5573334E-07  0.3506584E+04  0.7818609E-02  0.8112231E-01
       -2   -1    0    0    0  501  0.00000000000E+00  0.00000000000E+00  0.13501242037E+04  0.13501242037E+04  0.25500000920E-02 0.  1.
        2   -1    0    0  501    0  0.00000000000E+00  0.00000000000E+00 -0.22768519629E+04  0.22768519629E+04  0.25500000920E-02 0. -1.
    10030    2    1    2    0    0  0.00000000000E+00  0.00000000000E+00 -0.92672775916E+03  0.36269761666E+04  0.35065840605E+04 0.  0.
        4    1    3    3  502    0  0.63521793945E+03  0.12467843438E+04 -0.15560712897E+04  0.20926854761E+04  0.12699999809E+01 0. -1.
       -4    1    3    3    0  502 -0.63521793945E+03 -0.12467843438E+04  0.62934353052E+03  0.15342906905E+04  0.12699999809E+01 0.  1.
</event>
<event>
 5   0  0.5554745E-07  0.3530900E+04  0.7818609E-02  0.8106506E-01
       -2   -1    0    0    0  501  0.00000000000E+00  0.00000000000E+00  0.18169669963E+04  0.18169669963E+04  0.25500000920E-02 0. -1.
        2   -1    0    0  501    0  0.00000000000E+00  0.00000000000E+00 -0.17153937888E+04  0.17153937888E+04  0.25500000920E-02 0.  1.
    10030    2    1    2    0    0  0.00000000000E+00  0.00000000000E+00  0.10157320749E+03  0.35323607851E+04  0.35309001118E+04 0.  0.
        5    1    3    3  502    0  0.15451286719E+03  0.61512466398E+03 -0.15974808544E+04  0.17187843810E+04  0.46999998093E+01 0.  1.
       -5    1    3    3    0  502 -0.15451286719E+03 -0.61512466398E+03  0.16990540619E+04  0.18135764041E+04  0.46999998093E+01 0. -1.
</event>
<event>
 5   0  0.1873457E-07  0.3509908E+04  0.7818609E-02  0.8111446E-01
       -1   -1    0    0    0  501  0.00000000000E+00  0.00000000000E+00  0.14278907690E+04  0.14278907690E+04  0.50400001928E-02 0. -1.
        1   -1    0    0  501    0  0.00000000000E+00  0.00000000000E+00 -0.21569326253E+04  0.21569326253E+04  0.50400001928E-02 0.  1.
    10030    2    1    2    0    0  0.00000000000E+00  0.00000000000E+00 -0.72904185626E+03  0.35848233943E+04  0.35099083664E+04 0.  0.
        3    1    3    3  502    0 -0.11684867315E+04  0.27527381567E+03 -0.16719716395E+04  0.20583066071E+04  0.10100000352E+00 0.  1.
       -3    1    3    3    0  502  0.11684867315E+04 -0.27527381567E+03  0.94292978327E+03  0.15265167872E+04  0.10100000352E+00 0. -1.
</event>
<event>
 5   0  0.1897049E-07  0.3508232E+04  0.7818609E-02  0.8111842E-01
        1   -1    0    0  501    0  0.00000000000E+00  0.00000000000E+00  0.18448155544E+04  0.18448155544E+04  0.50400001928E-02 0.  1.
       -1   -1    0    0    0  501  0.00000000000E+00  0.00000000000E+00 -0.16678754123E+04  0.16678754123E+04  0.50400001928E-02 0. -1.
    10030    2    1    2    0    0  0.00000000000E+00  0.00000000000E+00  0.17694014212E+03  0.35126909668E+04  0.35082317503E+04 0.  0.
        2    1    3    3  502    0  0.11643931508E+04  0.70889398896E+03 -0.10168263520E+04  0.17006698467E+04  0.25500000920E-02 0. -1.
       -2    1    3    3    0  502 -0.11643931508E+04 -0.70889398896E+03  0.11937664941E+04  0.18120211201E+04  0.25500000920E-02 0.  1.
</event>
<event>
 5   0  0.5707187E-07  0.3360342E+04  0.7818609E-02  0.8147709E-01
        2   -1    0    0  501    0  0.00000000000E+00  0.00000000000E+00  0.11402450322E+04  0.11402450322E+04  0.25500000920E-02 0. -1.
       -2   -1    0    0    0  501  0.00000000000E+00  0.00000000000E+00 -0.24757612540E+04  0.24757612540E+04  0.25500000920E-02 0.  1.
    10030    2    1    2    0    0  0.00000000000E+00  0.00000000000E+00 -0.13355162218E+04  0.36160062862E+04  0.33603419295E+04 0.  0.
        1    1    3    3  502    0 -0.99324005803E+03  0.96669340555E+03 -0.16897266899E+04  0.21854514956E+04  0.50400001928E-02 0.  1.
       -1    1    3    3    0  502  0.99324005803E+03 -0.96669340555E+03  0.35421046806E+03  0.14305547906E+04  0.50400001928E-02 0. -1.
</event>
<event>
 5   0  0.1933647E-07  0.3489551E+04  0.7818609E-02  0.8116271E-01
        1   -1    0    0  501    0  0.00000000000E+00  0.00000000000E+00  0.26751247650E+04  0.26751247650E+04  0.50400001928E-02 0.  1.
       -1   -1    0    0    0  501  0.00000000000E+00  0.00000000000E+00 -0.11379811900E+04  0.11379811900E+04  0.50400001928E-02 0. -1.
    10030    2    1    2    0    0  0.00000000000E+00  0.00000000000E+00  0.15371435750E+04  0.38131059551E+04  0.34895510677E+04 0.  0.
        4    1    3    3  502    0  0.12401639148E+04  0.12197601503E+04  0.62027262638E+03  0.18467704524E+04  0.12699999809E+01 0. -1.
       -4    1    3    3    0  502 -0.12401639148E+04 -0.12197601503E+04  0.91687094862E+03  0.19663355027E+04  0.12699999809E+01 0.  1.
</event>
<event>
 5   0  0.5573334E-07  0.3541389E+04  0.7818609E-02  0.8104051E-01
       -2   -1    0    0    0  501  0.00000000000E+00  0.00000000000E+00  0.15826793308E+04  0.15826793308E+04  0.25500000920E-02 0.  1.
        2   -1    0    0  501    0  0.00000000000E+00  0.00000000000E+00 -0.19810445254E+04  0.19810445255E+04  0.25500000920E-02 0. -1.
    10030    2    1    2    0    0  0.00000000000E+00  0.00000000000E+00 -0.39836519465E+03  0.35637238563E+04  0.35413885547E+04 0.  0.
        4    1    3    3  502    0 -0.64231209450E+03  0.15573119433E+04 -0.74812399380E+03  0.18432244677E+04  0.12699999809E+01 0. -1.
       -4    1    3    3    0  502  0.64231209450E+03 -0.15573119433E+04  0.34975879915E+03  0.17204993885E+04  0.12699999809E+01 0.  1.
</event>
<event>
 5   0  0.5740827E-07  0.3489821E+04  0.7818609E-02  0.8116206E-01
       -2   -1    0    0    0  501  0.00000000000E+00  0.00000000000E+00  0.16123805127E+04  0.16123805127E+04  0.25500000920E-02 0. -1.
        2   -1    0    0  501    0  0.00000000000E+00  0.00000000000E+00 -0.18883338369E+04  0.18883338369E+04  0.25500000920E-02 0.  1.
    10030    2    1    2    0    0  0.00000000000E+00  0.00000000000E+00 -0.27595332421E+03  0.35007143495E+04  0.34898210155E+04 0.  0.
        2    1    3    3  502    0  0.57001570300E+03  0.52083397949E+03  0.14316846244E+04  0.16266243572E+04  0.25500000920E-02 0. -1.
       -2    1    3    3    0  502 -0.57001570300E+03 -0.52083397949E+03 -0.17076379486E+04  0.18740899923E+04  0.25500000920E-02 0.  1.
</event>
<event>
 5   0  0.1933647E-07  0.3476584E+04  0.7818609E-02  0.8119362E-01
        1   -1    0    0  501    0  0.00000000000E+00  0.00000000000E+00  0.13899375342E+04  0.13899375342E+04  0.50400001928E-02 0. -1.
       -1   -1    0    0    0  501  0.00000000000E+00  0.00000000000E+00 -0.21739530555E+04  0.21739530555E+04  0.50400001928E-02 0.  1.
    10030    2    1    2    0    0  0.00000000000E+00  0.00000000000E+00 -0.78401552130E+03  0.35638905897E+04  0.34765839265E+04 0.  0.
        4    1    3    3  502    0 -0.91893626729E+03 -0.13456514413E+04 -0.10125488121E+04  0.19184572903E+04  0.12699999809E+01 0.  1.
       -4    1    3    3    0  502  0.91893626729E+03  0.13456514413E+04  0.22853329081E+03  0.16454332994E+04  0.12699999809E+01 0. -1.
</event>
<event>
 5   0  0.5573334E-07  0.3482640E+04  0.7818609E-02  0.8117916E-01
       -2   -1    0    0    0  501  0.00000000000E+00  0.00000000000E+00  0.16418925598E+04  0.16418925598E+04  0.25500000920E-02 0.  1.
        2   -1    0    0  501    0  0.00000000000E+00  0.00000000000E+00 -0.18467687877E+04  0.18467687877E+04  0.25500000920E-02 0. -1.
    10030    2    1    2    0    0  0.00000000000E+00  0.00000000000E+00 -0.20487622783E+03  0.34886613475E+04  0.34826403387E+04 0.  0.
        4    1    3    3  502    0  0.68476931951E+03  0.86664210178E+03 -0.14509514925E+04  0.18235238962E+04  0.12699999809E+01 0. -1.
       -4    1    3    3    0  502 -0.68476931951E+03 -0.86664210178E+03  0.12460752647E+04  0.16651374513E+04  0.12699999809E+01 0.  1.
</event>
<event>
 5   0  0.1873457E-07  0.3500334E+04  0.7818609E-02  0.8113711E-01
        1   -1    0    0  501    0  0.00000000000E+00  0.00000000000E+00  0.20396041890E+04  0.20396041890E+04  0.50400001928E-02 0. -1.
       -1   -1    0    0    0  501  0.00000000000E+00  0.00000000000E+00 -0.15018033811E+04  0.15018033811E+04  0.50400001928E-02 0.  1.
    10030    2    1    2    0    0  0.00000000000E+00  0.00000000000E+00  0.53780080794E+03  0.35414075701E+04  0.35003339653E+04 0.  0.
        3    1    3    3  502    0  0.12624176908E+04 -0.11969583520E+04  0.75141459871E+02  0.17412794066E+04  0.10100000352E+00 0.  1.
       -3    1    3    3    0  502 -0.12624176908E+04  0.11969583520E+04  0.46265934807E+03  0.18001281635E+04  0.10100000352E+00 0. -1.
</event>
<event>
 5   0  0.5554745E-07  0.3490887E+04  0.7818609E-02  0.8115953E-01
       -2   -1    0    0    0  501  0.00000000000E+00  0.00000000000E+00  0.23102459506E+04  0.23102459506E+04  0.25500000920E-02 0. -1.
        2   -1    0    0  501    0  0.00000000000E+00  0.00000000000E+00 -0.13187225312E+04  0.13187225312E+04  0.25500000920E-02 0.  1.
    10030    2    1    2    0    0  0.00000000000E+00  0.00000000000E+00  0.99152341946E+03  0.36289684818E+04  0.34908872154E+04 0.  0.
        5    1    3    3  502    0 -0.34441196461E+03 -0.85527629504E+03 -0.10448971042E+04  0.13935383707E+04  0.46999998093E+01 0.  1.
       -5    1    3    3    0  502  0.34441196461E+03  0.85527629504E+03  0.20364205237E+04  0.22354301111E+04  0.46999998093E+01 0. -1.
</event>
<event>
 5   0  0.5554745E-07  0.3486987E+04  0.7818609E-02  0.8116881E-01
        2   -1    0    0  501    0  0.00000000000E+00  0.00000000000E+00  0.17412899064E+04  0.17412899064E+04  0.25500000920E-02 0.  1.
       -2   -1    0    0    0  501  0.00000000000E+00  0.00000000000E+00 -0.17456998173E+04  0.17456998173E+04  0.25500000920E-02 0. -1.
    10030    2    1    2    0    0  0.00000000000E+00  0.00000000000E+00 -0.44099109600E+01  0.34869897237E+04  0.34869869352E+04 0.  0.
        5    1    3    3  502    0 -0.45271186162E+03 -0.34185727642E+02  0.16811355389E+04  0.17413659822E+04  0.46999998093E+01 0.  1.
       -5    1    3    3    0  502  0.45271186162E+03  0.34185727642E+02 -0.16855454499E+04  0.17456237416E+04  0.46999998093E+01 0. -1.
</event>
<event>
 5   0  0.5707187E-07  0.3506437E+04  0.7818609E-02  0.8112266E-01
        2   -1    0    0  501    0  0.00000000000E+00  0.00000000000E+00  0.20728151343E+04  0.20728151343E+04  0.25500000920E-02 0. -1.
       -2   -1    0    0    0  501  0.00000000000E+00  0.00000000000E+00 -0.14828985505E+04  0.14828985505E+04  0.25500000920E-02 0.  1.
    10030    2    1    2    0    0  0.00000000000E+00  0.00000000000E+00  0.58991658374E+03  0.35557136848E+04  0.35064366859E+04 0.  0.
        1    1    3    3  502    0  0.21521280795E+03  0.66240510720E+03  0.19265059135E+04  0.20485414600E+04  0.50400001928E-02 0. -1.
       -1    1    3    3    0  502 -0.21521280795E+03 -0.66240510720E+03 -0.13365893297E+04  0.15071722248E+04  0.50400001928E-02 0.  1.
</event>
<event>
 5   0  0.1933647E-07  0.3503412E+04  0.7818609E-02  0.8112982E-01
       -1   -1    0    0    0  501  0.00000000000E+00  0.00000000000E+00  0.13606683841E+04  0.13606683841E+04  0.50400001928E-02 0.  1.
        1   -1    0    0  501    0  0.00000000000E+00  0.00000000000E+00 -0.22551220599E+04  0.22551220599E+04  0.50400001928E-02 0. -1.
    10030    2    1    2    0    0  0.00000000000E+00  0.00000000000E+00 -0.89445367583E+03  0.36157904440E+04  0.35034116453E+04 0.  0.
        4    1    3    3  502    0  0.22327851334E+03 -0.12723466998E+03 -0.22355603238E+04  0.22502829889E+04  0.12699999809E+01 0. -1.
       -4    1    3    3    0  502 -0.22327851334E+03  0.12723466998E+03  0.13411066480E+04  0.13655074551E+04  0.12699999809E+01 0.  1.
</event>
<event>
 5   0  0.1873457E-07  0.3501675E+04  0.7818609E-02  0.8113393E-01
       -1   -1    0    0    0  501  0.00000000000E+00  0.00000000000E+00  0.12118960475E+04  0.12118960475E+04  0.50400001928E-02 0. -1.
        1   -1    0    0  501    0  0.00000000000E+00  0.00000000000E+00 -0.25294505175E+04  0.25294505175E+04  0.50400001928E-02 0.  1.
    10030    2    1    2    0    0  0.00000000000E+00  0.00000000000E+00 -0.13175544699E+04  0.37413465650E+04  0.35016745049E+04 0.  0.
        3    1    3    3  502    0  0.10365973007E+03 -0.12633754268E+04 -0.19491510609E+04  0.23250919718E+04  0.10100000352E+00 0.  1.
       -3    1    3    3    0  502 -0.10365973007E+03  0.12633754268E+04  0.63159659100E+03  0.14162545932E+04  0.10100000352E+00 0. -1.
</event>
<event>
 5   0  0.1873457E-07  0.3481610E+04  0.7818609E-02  0.8118162E-01
        1   -1    0    0  501    0  0.00000000000E+00  0.00000000000E+00  0.16606979018E+04  0.16606979018E+04  0.50400001928E-02 0. -1.
       -1   -1    0    0    0  501  0.00000000000E+00  0.00000000000E+00 -0.18247761039E+04  0.18247761039E+04  0.50400001928E-02 0.  1.
    10030    2    1    2    0    0  0.00000000000E+00  0.00000000000E+00 -0.16407820211E+03  0.34854740058E+04  0.34816098846E+04 0.  0.
        3    1    3    3  502    0  0.14097705283E+04  0.87023350611E+03  0.45300943986E+03  0.17175496675E+04  0.10100000352E+00 0. -1.
       -3    1    3    3    0  502 -0.14097705283E+04 -0.87023350611E+03 -0.61708764197E+03  0.17679243382E+04  0.10100000352E+00 0.  1.
</event>
<event>
 5   0  0.5573334E-07  0.3495199E+04  0.7818609E-02  0.8114929E-01
        2   -1    0    0  501    0  0.00000000000E+00  0.00000000000E+00  0.23188376444E+04  0.23188376444E+04  0.25500000920E-02 0.  1.
       -2   -1    0    0    0  501  0.00000000000E+00  0.00000000000E+00 -0.13170841186E+04  0.13170841186E+04  0.25500000920E-02 0. -1.
    10030    2    1    2    0    0  0.00000000000E+00  0.00000000000E+00  0.10017535258E+04  0.36359217629E+04  0.34951991273E+04 0.  0.
        4    1    3    3  502    0 -0.41451821221E+03 -0.15199709679E+04 -0.28585654033E+03  0.16012035056E+04  0.12699999809E+01 0. -1.
       -4    1    3    3    0  502  0.41451821221E+03  0.15199709679E+04  0.12876100661E+04  0.20347182574E+04  0.12699999809E+01 0.  1.
</event>
<event>
 5   0  0.1908190E-07  0.3459507E+04  0.7818609E-02  0.8123454E-01
        1   -1    0    0  501    0  0.00000000000E+00  0.00000000000E+00  0.16744189401E+04  0.16744189401E+04  0.50400001928E-02 0. -1.
       -1   -1    0    0    0  501  0.00000000000E+00  0.00000000000E+00 -0.17869168504E+04  0.17869168504E+04  0.50400001928E-02 0.  1.
    10030    2    1    2    0    0  0.00000000000E+00  0.00000000000E+00 -0.11249791029E+03  0.34613357905E+04  0.34595071434E+04 0.  0.
        5    1    3    3  502    0 -0.96039640944E+03 -0.41018909940E+03 -0.14358936978E+04  0.17755081419E+04  0.46999998093E+01 0.  1.
       -5    1    3    3    0  502  0.96039640944E+03  0.41018909940E+03  0.13233957875E+04  0.16858276486E+04  0.46999998093E+01 0. -1.
</event>
<event>
 5   0  0.1933647E-07  0.3536128E+04  0.7818609E-02  0.8105281E-01
       -1   -1    0    0    0  501  0.00000000000E+00  0.00000000000E+00  0.18095700257E+04  0.18095700257E+04  0.50400001928E-02 0.  1.
        1   -1    0    0  501    0  0.00000000000E+00  0.00000000000E+00 -0.17275102958E+04  0.17275102958E+04  0.50400001928E-02 0. -1.
    10030    2    1    2    0    0  0.00000000000E+00  0.00000000000E+00  0.82059729936E+02  0.35370803215E+04  0.35361283067E+04 0.  0.
        4    1    3    3  502    0 -0.68413392265E+02  0.69952862945E+03  0.16638194229E+04  0.18061886337E+04  0.12699999809E+01 0.  1.
       -4    1    3    3    0  502  0.68413392265E+02 -0.69952862945E+03 -0.15817596929E+04  0.17308916878E+04  0.12699999809E+01 0. -1.
</event>
<event>
 5   0  0.1897049E-07  0.3501692E+04  0.7818609E-02  0.8113389E-01
        1   -1    0    0  501    0  0.00000000000E+00  0.00000000000E+00  0.16194215514E+04  0.16194215514E+04  0.50400001928E-02 0.  1.
       -1   -1    0    0    0  501  0.00000000000E+00  0.00000000000E+00 -0.18929359697E+04  0.18929359697E+04  0.50400001928E-02 0. -1.
    10030    2    1    2    0    0  0.00000000000E+00  0.00000000000E+00 -0.27351441835E+03  0.35123575211E+04  0.35016917652E+04 0.  0.
        2    1    3    3  502    0 -0.15912177935E+04  0.39371075235E+03 -0.75383759449E+03  0.18042320642E+04  0.25500000920E-02 0. -1.
       -2    1    3    3    0  502  0.15912177935E+04 -0.39371075235E+03  0.48032317614E+03  0.17081254568E+04  0.25500000920E-02 0.  1.
</event>
<event>
 5   0  0.5677193E-07  0.3495272E+04  0.7818609E-02  0.8114911E-01
        2   -1    0    0  501    0  0.00000000000E+00  0.00000000000E+00  0.14990696107E+04  0.14990696107E+04  0.25500000920E-02 0. -1.
       -2   -1    0    0    0  501  0.00000000000E+00  0.00000000000E+00 -0.20374185226E+04  0.20374185226E+04  0.25500000920E-02 0.  1.
    10030    2    1    2    0    0  0.00000000000E+00  0.00000000000E+00 -0.53834891191E+03  0.35364881334E+04  0.34952723451E+04 0.  0.
        3    1    3    3  502    0 -0.15932157844E+04 -0.12384141163E+03  0.44667022121E+03  0.16592731926E+04  0.10100000352E+00 0. -1.
       -3    1    3    3    0  502  0.15932157844E+04  0.12384141163E+03 -0.98501913312E+03  0.18772149408E+04  0.10100000352E+00 0.  1.
</event>
<event>
 5   0  0.5573334E-07  0.3477441E+04  0.7818609E-02  0.8119157E-01
        2   -1    0    0  501    0  0.00000000000E+00  0.00000000000E+00  0.13832494419E+04  0.13832494419E+04  0.25500000920E-02 0.  1.
       -2   -1    0    0    0  501  0.00000000000E+00  0.00000000000E+00 -0.21855408652E+04  0.21855408652E+04  0.25500000920E-02 0. -1.
    10030    2    1    2    0    0  0.00000000000E+00  0.00000000000E+00 -0.80229142329E+03  0.35687903071E+04  0.34774405427E+04 0.  0.
        4    1    3    3  502    0  0.56121430753E+03 -0.12880141083E+04 -0.14523604393E+04  0.20207162841E+04  0.12699999809E+01 0. -1.
       -4    1    3    3    0  502 -0.56121430753E+03  0.12880141083E+04  0.65006901604E+03  0.15480740230E+04  0.12699999809E+01 0.  1.
</event>
<event>
 5   0  0.5707187E-07  0.3491674E+04  0.7818609E-02  0.8115766E-01
       -2   -1    0    0    0  501  0.00000000000E+00  0.00000000000E+00  0.17761045791E+04  0.17761045791E+04  0.25500000920E-02 0.  1.
        2   -1    0    0  501    0  0.00000000000E+00  0.00000000000E+00 -0.17160849385E+04  0.17160849385E+04  0.25500000920E-02 0. -1.
    10030    2    1    2    0    0  0.00000000000E+00  0.00000000000E+00  0.60019640523E+02  0.34921895176E+04  0.34916737061E+04 0.  0.
        1    1    3    3  502    0 -0.23647777743E+03 -0.77013496959E+03 -0.15190626521E+04  0.17194711256E+04  0.50400001928E-02 0. -1.
       -1    1    3    3    0  502  0.23647777743E+03  0.77013496959E+03  0.15790822926E+04  0.17727183921E+04  0.50400001928E-02 0.  1.
</event>
<event>
 5   0  0.5677193E-07  0.3362724E+04  0.7818609E-02  0.8147116E-01
        2   -1    0    0  501    0  0.00000000000E+00  0.00000000000E+00  0.16764793455E+04  0.16764793455E+04  0.25500000920E-02 0. -1.
       -2   -1    0    0    0  501  0.00000000000E+00  0.00000000000E+00 -0.16862584414E+04  0.16862584414E+04  0.25500000920E-02 0.  1.
    10030    2    1    2    0    0  0.00000000000E+00  0.00000000000E+00 -0.97790958772E+01  0.33627377869E+04  0.33627235677E+04 0.  0.
        3    1    3    3  502    0  0.74938185044E+03 -0.12156217508E+04  0.88262084662E+03  0.16787879461E+04  0.10100000352E+00 0. -1.
       -3    1    3    3    0  502 -0.74938185044E+03  0.12156217508E+04 -0.89239994250E+03  0.16839498408E+04  0.10100000352E+00 0.  1.
</event>
<event>
 5   0  0.1908190E-07  0.3524597E+04  0.7818609E-02  0.8107985E-01
       -1   -1    0    0    0  501  0.00000000000E+00  0.00000000000E+00  0.93362684378E+03  0.93362684379E+03  0.50400001928E-02 0.  1.
        1   -1    0    0  501    0  0.00000000000E+00  0.00000000000E+00 -0.33264847966E+04  0.33264847966E+04  0.50400001928E-02 0. -1.
    10030    2    1    2    0    0  0.00000000000E+00  0.00000000000E+00 -0.23928579528E+04  0.42601116404E+04  0.35245967154E+04 0.  0.
        5    1    3    3  502    0  0.10542232423E+04  0.13701664469E+04 -0.16097388461E+04  0.23622074379E+04  0.46999998093E+01 0. -1.
       -5    1    3    3    0  502 -0.10542232423E+04 -0.13701664469E+04 -0.78311910671E+03  0.18979042025E+04  0.46999998093E+01 0.  1.
</event>
<event>
 5   0  0.1933647E-07  0.3509663E+04  0.7818609E-02  0.8111504E-01
       -1   -1    0    0    0  501  0.00000000000E+00  0.00000000000E+00  0.17519496784E+04  0.17519496785E+04  0.50400001928E-02 0. -1.
        1   -1    0    0  501    0  0.00000000000E+00  0.00000000000E+00 -0.17577182007E+04  0.17577182007E+04  0.50400001928E-02 0.  1.
    10030    2    1    2    0    0  0.00000000000E+00  0.00000000000E+00 -0.57685222839E+01  0.35096678792E+04  0.35096631386E+04 0.  0.
        4    1    3    3  502    0 -0.16800815962E+04 -0.70652096582E+02  0.49887964257E+03  0.17540092358E+04  0.12699999809E+01 0.  1.
       -4    1    3    3    0  502  0.16800815962E+04  0.70652096582E+02 -0.50464816485E+03  0.17556586433E+04  0.12699999809E+01 0. -1.
</event>
<event>
 5   0  0.1908190E-07  0.3524747E+04  0.7818609E-02  0.8107950E-01
        1   -1    0    0  501    0  0.00000000000E+00  0.00000000000E+00  0.23726591156E+04  0.23726591156E+04  0.50400001928E-02 0.  1.
       -1   -1    0    0    0  501  0.00000000000E+00  0.00000000000E+00 -0.13090631030E+04  0.13090631030E+04  0.50400001928E-02 0. -1.
    10030    2    1    2    0    0  0.00000000000E+00  0.00000000000E+00  0.10635960126E+04  0.36817222186E+04  0.35247470855E+04 0.  0.
        5    1    3    3  502    0  0.39195286768E+03 -0.17142365078E+04  0.40951796041E+03  0.18055361821E+04  0.46999998093E+01 0. -1.
       -5    1    3    3    0  502 -0.39195286768E+03  0.17142365078E+04  0.65407805222E+03  0.18761860365E+04  0.46999998093E+01 0.  1.
</event>
<event>
 5   0  0.1866421E-07  0.3480177E+04  0.7818609E-02  0.8118504E-01
        1   -1    0    0  501    0  0.00000000000E+00  0.00000000000E+00  0.21748347548E+04  0.21748347548E+04  0.50400001928E-02 0.  1.
       -1   -1    0    0    0  501  0.00000000000E+00  0.00000000000E+00 -0.13922477724E+04  0.13922477724E+04  0.50400001928E-02 0. -1.
    10030    2    1    2    0    0  0.00000000000E+00  0.00000000000E+00  0.78258698239E+03  0.35670825271E+04  0.34801774912E+04 0.  0.
        1    1    3    3  502    0 -0.10797936821E+04  0.11101443124E+04 -0.42195146177E+03  0.16051223711E+04  0.50400001928E-02 0. -1.
       -1    1    3    3    0  502  0.10797936821E+04 -0.11101443124E+04  0.12045384442E+04  0.19619601560E+04  0.50400001928E-02 0.  1.
</event>
<event>
 5   0  0.5573334E-07  0.3481856E+04  0.7818609E-02  0.8118103E-01
       -2   -1    0    0    0  501  0.00000000000E+00  0.00000000000E+00  0.16480284878E+04  0.16480284878E+04  0.25500000920E-02 0.  1.
        2   -1    0    0  501    0  0.00000000000E+00  0.00000000000E+00 -0.18390647888E+04  0.18390647888E+04  0.25500000920E-02 0. -1.
    10030    2    1    2    0    0  0.00000000000E+00  0.00000000000E+00 -0.19103630106E+03  0.34870932766E+04  0.34818564949E+04 0.  0.
        4    1    3    3  502    0 -0.47088676888E+03 -0.16692961685E+04  0.54859279169E+02  0.17353083878E+04  0.12699999809E+01 0.  1.
       -4    1    3    3    0  502  0.47088676888E+03  0.16692961685E+04 -0.24589558023E+03  0.17517848888E+04  0.12699999809E+01 0. -1.
</event>
<event>
 5   0  0.5707187E-07  0.3468518E+04  0.7818609E-02  0.8121292E-01
       -2   -1    0    0    0  501  0.00000000000E+00  0.00000000000E+00  0.14983862136E+04  0.14983862136E+04  0.25500000920E-02 0.  1.
        2   -1    0    0  501    0  0.00000000000E+00  0.00000000000E+00 -0.20072623336E+04  0.20072623336E+04  0.25500000920E-02 0. -1.
    10030    2    1    2    0    0  0.00000000000E+00  0.00000000000E+00 -0.50887611992E+03  0.35056485472E+04  0.34685179589E+04 0.  0.
        1    1    3    3  502    0 -0.15054082471E+04 -0.40905304672E+03 -0.10202269392E+04  0.18639853522E+04  0.50400001928E-02 0. -1.
       -1    1    3    3    0  502  0.15054082471E+04  0.40905304672E+03  0.51135081926E+03  0.16416631950E+04  0.50400001928E-02 0.  1.
</event>
<event>
 5   0  0.5740827E-07  0.3483082E+04  0.7818609E-02  0.8117811E-01
       -2   -1    0    0    0  501  0.00000000000E+00  0.00000000000E+00  0.14354964573E+04  0.14354964573E+04  0.25500000920E-02 0.  1.
        2   -1    0    0  501    0  0.00000000000E+00  0.00000000000E+00 -0.21128332138E+04  0.21128332138E+04  0.25500000920E-02 0. -1.
    10030    2    1    2    0    0  0.00000000000E+00  0.00000000000E+00 -0.67733675653E+03  0.35483296712E+04  0.34830817351E+04 0.  0.
        2    1    3    3  502    0  0.11290366395E+04 -0.12759201538E+04  0.29020255854E+02  0.17039771558E+04  0.25500000920E-02 0.  1.
       -2    1    3    3    0  502 -0.11290366395E+04  0.12759201538E+04 -0.70635701238E+03  0.18443525154E+04  0.25500000920E-02 0. -1.
</event>
<event>
 5   0  0.1873457E-07  0.3481379E+04  0.7818609E-02  0.8118217E-01
        1   -1    0    0  501    0  0.00000000000E+00  0.00000000000E+00  0.13879411319E+04  0.13879411319E+04  0.50400001928E-02 0.  1.
       -1   -1    0    0    0  501  0.00000000000E+00  0.00000000000E+00 -0.21830895079E+04  0.21830895079E+04  0.50400001928E-02 0. -1.
    10030    2    1    2    0    0  0.00000000000E+00  0.00000000000E+00 -0.79514837606E+03  0.35710306398E+04  0.34813788778E+04 0.  0.
        3    1    3    3  502    0  0.93404641724E+02  0.14051009608E+04 -0.14471376296E+04  0.20192177858E+04  0.10100000352E+00 0. -1.
       -3    1    3    3    0  502 -0.93404641724E+02 -0.14051009608E+04  0.65198925357E+03  0.15518128541E+04  0.10100000352E+00 0.  1.
</event>
<event>
 5   0  0.5677193E-07  0.3482761E+04  0.7818609E-02  0.8117888E-01
       -2   -1    0    0    0  501  0.00000000000E+00  0.00000000000E+00  0.14817269229E+04  0.14817269229E+04  0.25500000920E-02 0. -1.
        2   -1    0    0  501    0  0.00000000000E+00  0.00000000000E+00 -0.20465348979E+04  0.20465348979E+04  0.25500000920E-02 0.  1.
    10030    2    1    2    0    0  0.00000000000E+00  0.00000000000E+00 -0.56480797496E+03  0.35282618208E+04  0.34827608915E+04 0.  0.
        3    1    3    3  502    0  0.79364321912E+03  0.11449454650E+04 -0.13408680193E+04  0.19335709794E+04  0.10100000352E+00 0.  1.
       -3    1    3    3    0  502 -0.79364321912E+03 -0.11449454650E+04  0.77606004431E+03  0.15946908414E+04  0.10100000352E+00 0. -1.
</event>
<event>
 5   0  0.5554745E-07  0.3500910E+04  0.7818609E-02  0.8113574E-01
        2   -1    0    0  501    0  0.00000000000E+00  0.00000000000E+00  0.31802902624E+04  0.31802902624E+04  0.25500000920E-02 0.  1.
       -2   -1    0    0    0  501  0.00000000000E+00  0.00000000000E+00 -0.96346303694E+03  0.96346303694E+03  0.25500000920E-02 0. -1.
    10030    2    1    2    0    0  0.00000000000E+00  0.00000000000E+00  0.22168272254E+04  0.41437532993E+04  0.35009096615E+04 0.  0.
        5    1    3    3  502    0 -0.17085285158E+04  0.32588721235E+03  0.87527356934E+03  0.19471512719E+04  0.46999998093E+01 0. -1.
       -5    1    3    3    0  502  0.17085285158E+04 -0.32588721235E+03  0.13415536561E+04  0.21966020274E+04  0.46999998093E+01 0.  1.
</event>
<event>
 5   0  0.5707187E-07  0.3533947E+04  0.7818609E-02  0.8105792E-01
        2   -1    0    0  501    0  0.00000000000E+00  0.00000000000E+00  0.25550869913E+04  0.25550869913E+04  0.25500000920E-02 0.  1.
       -2   -1    0    0    0  501  0.00000000000E+00  0.00000000000E+00 -0.12219525031E+04  0.12219525031E+04  0.25500000920E-02 0. -1.
    10030    2    1    2    0    0  0.00000000000E+00  0.00000000000E+00  0.13331344883E+04  0.37770394944E+04  0.35339467707E+04 0.  0.
        1    1    3    3  502    0  0.94908954251E+03  0.10570270858E+04 -0.45648306871E+03  0.14921306953E+04  0.50400001928E-02 0. -1.
       -1    1    3    3    0  502 -0.94908954251E+03 -0.10570270858E+04  0.17896175570E+04  0.22849087991E+04  0.50400001928E-02 0.  1.
</event>
<event>
 5   0  0.1873457E-07  0.3531934E+04  0.7818609E-02  0.8106263E-01
        1   -1    0    0  501    0  0.00000000000E+00  0.00000000000E+00  0.18248418160E+04  0.18248418160E+04  0.50400001928E-02 0. -1.
       -1   -1    0    0    0  501  0.00000000000E+00  0.00000000000E+00 -0.17089915105E+04  0.17089915105E+04  0.50400001928E-02 0.  1.
    10030    2    1    2    0    0  0.00000000000E+00  0.00000000000E+00  0.11585030550E+03  0.35338333265E+04  0.35319338451E+04 0.  0.
        3    1    3    3  502    0 -0.15812738882E+03  0.15876053420E+04  0.81539515893E+03  0.17917489413E+04  0.10100000352E+00 0. -1.
       -3    1    3    3    0  502  0.15812738882E+03 -0.15876053420E+04 -0.69954485344E+03  0.17420843853E+04  0.10100000352E+00 0.  1.
</event>
<event>
 5   0  0.1933647E-07  0.3496519E+04  0.7818609E-02  0.8114615E-01
        1   -1    0    0  501    0  0.00000000000E+00  0.00000000000E+00  0.19101143195E+04  0.19101143195E+04  0.50400001928E-02 0.  1.
       -1   -1    0    0    0  501  0.00000000000E+00  0.00000000000E+00 -0.16001193671E+04  0.16001193671E+04  0.50400001928E-02 0. -1.
    10030    2    1    2    0    0  0.00000000000E+00  0.00000000000E+00  0.30999495246E+03  0.35102336866E+04  0.34965187922E+04 0.  0.
        4    1    3    3  502    0  0.96988032354E+03  0.14415496229E+04  0.34986227682E+03  0.17723256989E+04  0.12699999809E+01 0.  1.
       -4    1    3    3    0  502 -0.96988032354E+03 -0.14415496229E+04 -0.39867324361E+02  0.17379079877E+04  0.12699999809E+01 0. -1.
</event>
<event>
 5   0  0.1873457E-07  0.3501588E+04  0.7818609E-02  0.8113414E-01
       -1   -1    0    0    0  501  0.00000000000E+00  0.00000000000E+00  0.22946315470E+04  0.22946315470E+04  0.50400001928E-02 0.  1.
        1   -1    0    0  501    0  0.00000000000E+00  0.00000000000E+00 -0.13358480718E+04  0.13358480718E+04  0.50400001928E-02 0. -1.
    10030    2    1    2    0    0  0.00000000000E+00  0.00000000000E+00  0.95878347524E+03  0.36304796188E+04  0.35015877127E+04 0.  0.
        3    1    3    3  502    0  0.14747012449E+04  0.88673708251E+03  0.14465684020E+03  0.17268387379E+04  0.10100000352E+00 0. -1.
       -3    1    3    3    0  502 -0.14747012449E+04 -0.88673708251E+03  0.81412663504E+03  0.19036408808E+04  0.10100000352E+00 0.  1.
</event>
<event>
 5   0  0.5573334E-07  0.3509432E+04  0.7818609E-02  0.8111558E-01
        2   -1    0    0  501    0  0.00000000000E+00  0.00000000000E+00  0.16390166961E+04  0.16390166961E+04  0.25500000920E-02 0.  1.
       -2   -1    0    0    0  501  0.00000000000E+00  0.00000000000E+00 -0.18785821267E+04  0.18785821267E+04  0.25500000920E-02 0. -1.
    10030    2    1    2    0    0  0.00000000000E+00  0.00000000000E+00 -0.23956543064E+03  0.35175988228E+04  0.35094315611E+04 0.  0.
        4    1    3    3  502    0  0.14945359595E+04  0.23803832816E+03  0.77038650775E+03  0.16981745977E+04  0.12699999809E+01 0.  1.
       -4    1    3    3    0  502 -0.14945359595E+04 -0.23803832816E+03 -0.10099519384E+04  0.18194242251E+04  0.12699999809E+01 0. -1.
</event>
<event>
 5   0  0.5554745E-07  0.3518693E+04  0.7818609E-02  0.8109374E-01
        2   -1    0    0  501    0  0.00000000000E+00  0.00000000000E+00  0.17768630623E+04  0.17768630623E+04  0.25500000920E-02 0.  1.
       -2   -1    0    0    0  501  0.00000000000E+00  0.00000000000E+00 -0.17420025863E+04  0.17420025863E+04  0.25500000920E-02 0. -1.
    10030    2    1    2    0    0  0.00000000000E+00  0.00000000000E+00  0.34860476039E+02  0.35188656486E+04  0.35186929676E+04 0.  0.
        5    1    3    3  502    0 -0.83761935843E+03  0.20272219312E+03 -0.15164558058E+04  0.17442370189E+04  0.46999998093E+01 0. -1.
       -5    1    3    3    0  502  0.83761935843E+03 -0.20272219312E+03  0.15513162818E+04  0.17746286297E+04  0.46999998093E+01 0.  1.
</event>
<event>
 5   0  0.5740827E-07  0.3477245E+04  0.7818609E-02  0.8119204E-01
        2   -1    0    0  501    0  0.00000000000E+00  0.00000000000E+00  0.21327427839E+04  0.21327427839E+04  0.25500000920E-02 0. -1.
       -2   -1    0    0    0  501  0.00000000000E+00  0.00000000000E+00 -0.14173334718E+04  0.14173334718E+04  0.25500000920E-02 0.  1.
    10030    2    1    2    0    0  0.00000000000E+00  0.00000000000E+00  0.71540931207E+03  0.35500762557E+04  0.34772447337E+04 0.  0.
        2    1    3    3  502    0  0.13898680801E+04 -0.46818621672E+02 -0.70764685698E+03  0.15603491076E+04  0.25500000920E-02 0.  1.
       -2    1    3    3    0  502 -0.13898680801E+04  0.46818621672E+02  0.14230561691E+04  0.19897271481E+04  0.25500000920E-02 0. -1.
</event>
<event>
 5   0  0.5677193E-07  0.3575338E+04  0.7818609E-02  0.8096164E-01
        2   -1    0    0  501    0  0.00000000000E+00  0.00000000000E+00  0.34167512697E+04  0.34167512697E+04  0.25500000920E-02 0.  1.
       -2   -1    0    0    0  501  0.00000000000E+00  0.00000000000E+00 -0.93532121086E+03  0.93532121087E+03  0.25500000920E-02 0. -1.
    10030    2    1    2    0    0  0.00000000000E+00  0.00000000000E+00  0.24814300588E+04  0.43520724806E+04  0.35753377098E+04 0.  0.
        3    1    3    3  502    0  0.16752538537E+04  0.62337240868E+03  0.12727193986E+04  0.21942842368E+04  0.10100000352E+00 0.  1.
       -3    1    3    3    0  502 -0.16752538537E+04 -0.62337240868E+03  0.12087106602E+04  0.21577882437E+04  0.10100000352E+00 0. -1.
</event>
<event>
 5   0  0.5740827E-07  0.3506943E+04  0.7818609E-02  0.8112146E-01
       -2   -1    0    0    0  501  0.00000000000E+00  0.00000000000E+00  0.13078655287E+04  0.13078655287E+04  0.25500000920E-02 0.  1.
        2   -1    0    0  501    0  0.00000000000E+00  0.00000000000E+00 -0.23509010708E+04  0.23509010708E+04  0.25500000920E-02 0. -1.
    10030    2    1    2    0    0  0.00000000000E+00  0.00000000000E+00 -0.10430355421E+04  0.36587665995E+04  0.35069430972E+04 0.  0.
        2    1    3    3  502    0  0.16070740562E+04 -0.68255745990E+03 -0.69003696783E+03  0.18774244926E+04  0.25500000920E-02 0.  1.
       -2    1    3    3    0  502 -0.16070740562E+04  0.68255745990E+03 -0.35299857429E+03  0.17813421069E+04  0.25500000920E-02 0. -1.
</event>
<event>
 5   0  0.5677193E-07  0.3505181E+04  0.7818609E-02  0.8112563E-01
        2   -1    0    0  501    0  0.00000000000E+00  0.00000000000E+00  0.16167728259E+04  0.16167728259E+04  0.25500000920E-02 0. -1.
       -2   -1    0    0    0  501  0.00000000000E+00  0.00000000000E+00 -0.18998174877E+04  0.18998174877E+04  0.25500000920E-02 0.  1.
    10030    2    1    2    0    0  0.00000000000E+00  0.00000000000E+00 -0.28304466178E+03  0.35165903135E+04  0.35051809016E+04 0.  0.
        3    1    3    3  502    0  0.77065966575E+03 -0.63056481622E+03 -0.15884529299E+04  0.18747562584E+04  0.10100000352E+00 0.  1.
       -3    1    3    3    0  502 -0.77065966575E+03  0.63056481622E+03  0.13054082681E+04  0.16418340551E+04  0.10100000352E+00 0. -1.
</event>
<event>
 5   0  0.5677193E-07  0.3507006E+04  0.7818609E-02  0.8112132E-01
       -2   -1    0    0    0  501  0.00000000000E+00  0.00000000000E+00  0.10297306206E+04  0.10297306206E+04  0.25500000920E-02 0.  1.
        2   -1    0    0  501    0  0.00000000000E+00  0.00000000000E+00 -0.29859967175E+04  0.29859967175E+04  0.25500000920E-02 0. -1.
    10030    2    1    2    0    0  0.00000000000E+00  0.00000000000E+00 -0.19562660969E+04  0.40157273380E+04  0.35070057045E+04 0.  0.
        3    1    3    3  502    0  0.12529760917E+04 -0.65997165022E+03  0.20591553453E+03  0.14310530679E+04  0.10100000352E+00 0.  1.
       -3    1    3    3    0  502 -0.12529760917E+04  0.65997165022E+03 -0.21621816314E+04  0.25846742702E+04  0.10100000352E+00 0. -1.
</event>
<event>
 5   0  0.5573334E-07  0.3516561E+04  0.7818609E-02  0.8109876E-01
       -2   -1    0    0    0  501  0.00000000000E+00  0.00000000000E+00  0.16867372437E+04  0.16867372437E+04  0.25500000920E-02 0.  1.
        2   -1    0    0  501    0  0.00000000000E+00  0.00000000000E+00 -0.18328583577E+04  0.18328583577E+04  0.25500000920E-02 0. -1.
    10030    2    1    2    0    0  0.00000000000E+00  0.00000000000E+00 -0.14612111402E+03  0.35195956014E+04  0.35165610783E+04 0.  0.
        4    1    3    3  502    0 -0.10207199434E+04  0.65631031641E+03 -0.13465328375E+04  0.18126678487E+04  0.12699999809E+01 0.  1.
       -4    1    3    3    0  502  0.10207199434E+04 -0.65631031641E+03  0.12004117235E+04  0.17069277527E+04  0.12699999809E+01 0. -1.
</event>
<event>
 5   0  0.1908190E-07  0.3518897E+04  0.7818609E-02  0.8109326E-01
       -1   -1    0    0    0  501  0.00000000000E+00  0.00000000000E+00  0.20925126623E+04  0.20925126623E+04  0.50400001928E-02 0. -1.
        1   -1    0    0  501    0  0.00000000000E+00  0.00000000000E+00 -0.14793981003E+04  0.14793981004E+04  0.50400001928E-02 0.  1.
    10030    2    1    2    0    0  0.00000000000E+00  0.00000000000E+00  0.61311456194E+03  0.35719107626E+04  0.35188971327E+04 0.  0.
        5    1    3    3  502    0  0.90494018662E+03  0.81353867089E+03 -0.98336492497E+03  0.15645416505E+04  0.46999998093E+01 0.  1.
       -5    1    3    3    0  502 -0.90494018662E+03 -0.81353867089E+03  0.15964794869E+04  0.20073691122E+04  0.46999998093E+01 0. -1.
</event>
<event>
 5   0  0.1897049E-07  0.3505101E+04  0.7818609E-02  0.8112582E-01
       -1   -1    0    0    0  501  0.00000000000E+00  0.00000000000E+00  0.17780944734E+04  0.17780944734E+04  0.50400001928E-02 0. -1.
        1   -1    0    0  501    0  0.00000000000E+00  0.00000000000E+00 -0.17273734896E+04  0.17273734896E+04  0.50400001928E-02 0.  1.
    10030    2    1    2    0    0  0.00000000000E+00  0.00000000000E+00  0.50720983759E+02  0.35054679630E+04  0.35051010002E+04 0.  0.
        2    1    3    3  502    0  0.16321594058E+04 -0.26602410653E+03 -0.55497614572E+03  0.17443370298E+04  0.25500000920E-02 0.  1.
       -2    1    3    3    0  502 -0.16321594058E+04  0.26602410653E+03  0.60569712948E+03  0.17611309332E+04  0.25500000920E-02 0. -1.
</event>
<event>
 5   0  0.1897049E-07  0.3575668E+04  0.7818609E-02  0.8096088E-01
       -1   -1    0    0    0  501  0.00000000000E+00  0.00000000000E+00  0.14526127364E+04  0.14526127364E+04  0.50400001928E-02 0.  1.
        1   -1    0    0  501    0  0.00000000000E+00  0.00000000000E+00 -0.22004142749E+04  0.22004142749E+04  0.50400001928E-02 0. -1.
    10030    2    1    2    0    0  0.00000000000E+00  0.00000000000E+00 -0.74780153847E+03  0.36530270114E+04  0.35756676586E+04 0.  0.
        2    1    3    3  502    0 -0.10931783341E+04 -0.17621054875E+02 -0.18190720687E+04  0.21223507162E+04  0.25500000920E-02 0. -1.
       -2    1    3    3    0  502  0.10931783341E+04  0.17621054875E+02  0.10712705302E+04  0.15306762951E+04  0.25500000920E-02 0.  1.
</event>
<event>
 5   0  0.1873457E-07  0.3518165E+04  0.7818609E-02  0.8109498E-01
        1   -1    0    0  501    0  0.00000000000E+00  0.00000000000E+00  0.20942430477E+04  0.20942430477E+04  0.50400001928E-02 0.  1.
       -1   -1    0    0    0  501  0.00000000000E+00  0.00000000000E+00 -0.14775610038E+04  0.14775610038E+04  0.50400001928E-02 0. -1.
    10030    2    1    2    0    0  0.00000000000E+00  0.00000000000E+00  0.61668204394E+03  0.35718040515E+04  0.35181653513E+04 0.  0.
        3    1    3    3  502    0 -0.44901421622E+03 -0.16522742320E+04 -0.10122991885E+03  0.17151884476E+04  0.10100000352E+00 0. -1.
       -3    1    3    3    0  502  0.44901421622E+03  0.16522742320E+04  0.71791196280E+03  0.18566156039E+04  0.10100000352E+00 0.  1.
</event>
<event>
 5   0  0.5707187E-07  0.3489952E+04  0.7818609E-02  0.8116175E-01
       -2   -1    0    0    0  501  0.00000000000E+00  0.00000000000E+00  0.13433921621E+04  0.13433921621E+04  0.25500000920E-02 0. -1.
        2   -1    0    0  501    0  0.00000000000E+00  0.00000000000E+00 -0.22666065275E+04  0.22666065275E+04  0.25500000920E-02 0.  1.
    10030    2    1    2    0    0  0.00000000000E+00  0.00000000000E+00 -0.92321436540E+03  0.36099986897E+04  0.34899521164E+04 0.  0.
        1    1    3    3  502    0  0.16038745618E+04  0.41741514910E+03 -0.10265554616E+04  0.19494781692E+04  0.50400001928E-02 0.  1.
       -1    1    3    3    0  502 -0.16038745618E+04 -0.41741514910E+03  0.10334109620E+03  0.16605205204E+04  0.50400001928E-02 0. -1.
</event>
<event>
 5   0  0.1873457E-07  0.3482026E+04  0.7818609E-02  0.8118063E-01
       -1   -1    0    0    0  501  0.00000000000E+00  0.00000000000E+00  0.16222532720E+04  0.16222532720E+04  0.50400001928E-02 0.  1.
        1   -1    0    0  501    0  0.00000000000E+00  0.00000000000E+00 -0.18684662500E+04  0.18684662500E+04  0.50400001928E-02 0. -1.
    10030    2    1    2    0    0  0.00000000000E+00  0.00000000000E+00 -0.24621297801E+03  0.34907195220E+04  0.34820255529E+04 0.  0.
        3    1    3    3  502    0 -0.11053713772E+04 -0.90955112210E+03  0.87032503755E+03  0.16752894695E+04  0.10100000352E+00 0.  1.
       -3    1    3    3    0  502  0.11053713772E+04  0.90955112210E+03 -0.11165380156E+04  0.18154300525E+04  0.10100000352E+00 0. -1.
</event>
<event>
 5   0  0.5677193E-07  0.3486199E+04  0.7818609E-02  0.8117068E-01
        2   -1    0    0  501    0  0.00000000000E+00  0.00000000000E+00  0.16307023620E+04  0.16307023620E+04  0.25500000920E-02 0.  1.
       -2   -1    0    0    0  501  0.00000000000E+00  0.00000000000E+00 -0.18632434414E+04  0.18632434414E+04  0.25500000920E-02 0. -1.
    10030    2    1    2    0    0  0.00000000000E+00  0.00000000000E+00 -0.23254107945E+03  0.34939458034E+04  0.34861987785E+04 0.  0.
        3    1    3    3  502    0 -0.24067647787E+03  0.50924150540E+03 -0.17695251089E+04  0.18570059771E+04  0.10100000352E+00 0. -1.
       -3    1    3    3    0  502  0.24067647787E+03 -0.50924150540E+03  0.15369840294E+04  0.16369398263E+04  0.10100000352E+00 0.  1.
</event>
<event>
 5   0  0.1866421E-07  0.3501719E+04  0.7818609E-02  0.8113383E-01
        1   -1    0    0  501    0  0.00000000000E+00  0.00000000000E+00  0.23022318967E+04  0.23022318967E+04  0.50400001928E-02 0.  1.
       -1   -1    0    0    0  501  0.00000000000E+00  0.00000000000E+00 -0.13315377146E+04  0.13315377146E+04  0.50400001928E-02 0. -1.
    10030    2    1    2    0    0  0.00000000000E+00  0.00000000000E+00  0.97069418210E+03  0.36337696114E+04  0.35017187770E+04 0.  0.
        1    1    3    3  502    0  0.15632703834E+04  0.41183850729E+03  0.11830738515E+04  0.20032695740E+04  0.50400001928E-02 0.  1.
       -1    1    3    3    0  502 -0.15632703834E+04 -0.41183850729E+03 -0.21237966943E+03  0.16305000374E+04  0.50400001928E-02 0. -1.
</event>
<event>
 5   0  0.5573334E-07  0.3462106E+04  0.7818609E-02  0.8122829E-01
        2   -1    0    0  501    0  0.00000000000E+00  0.00000000000E+00  0.10592386715E+04  0.10592386715E+04  0.25500000920E-02 0. -1.
       -2   -1    0    0    0  501  0.00000000000E+00  0.00000000000E+00 -0.28289606293E+04  0.28289606293E+04  0.25500000920E-02 0.  1.
    10030    2    1    2    0    0  0.00000000000E+00  0.00000000000E+00 -0.17697219578E+04  0.38881993009E+04  0.34621060058E+04 0.  0.
        4    1    3    3  502    0 -0.16862115108E+04 -0.38832979743E+03 -0.94026385778E+03  0.19693163854E+04  0.12699999809E+01 0.  1.
       -4    1    3    3    0  502  0.16862115108E+04  0.38832979743E+03 -0.82945810000E+03  0.19188829155E+04  0.12699999809E+01 0. -1.
</event>
<event>
 5   0  0.5573334E-07  0.3523422E+04  0.7818609E-02  0.8108262E-01
        2   -1    0    0  501    0  0.00000000000E+00  0.00000000000E+00  0.20415275794E+04  0.20415275794E+04  0.25500000920E-02 0. -1.
       -2   -1    0    0    0  501  0.00000000000E+00  0.00000000000E+00 -0.15202469604E+04  0.15202469604E+04  0.25500000920E-02 0.  1.
    10030    2    1    2    0    0  0.00000000000E+00  0.00000000000E+00  0.52128061895E+03  0.35617745398E+04  0.35234222553E+04 0.  0.
        4    1    3    3  502    0  0.98053925074E+03  0.12372998804E+04 -0.52969865715E+03  0.16652178526E+04  0.12699999809E+01 0.  1.
       -4    1    3    3    0  502 -0.98053925074E+03 -0.12372998804E+04  0.10509792761E+04  0.18965566872E+04  0.12699999809E+01 0. -1.
</event>
<event>
 5   0  0.1908190E-07  0.3492263E+04  0.7818609E-02  0.8115626E-01
       -1   -1    0    0    0  501  0.00000000000E+00  0.00000000000E+00  0.12683796016E+04  0.12683796016E+04  0.50400001928E-02 0.  1.
        1   -1    0    0  501    0  0.00000000000E+00  0.00000000000E+00 -0.24038349899E+04  0.24038349899E+04  0.50400001928E-02 0. -1.
    10030    2    1    2    0    0  0.00000000000E+00  0.00000000000E+00 -0.11354553883E+04  0.36722145915E+04  0.34922630295E+04 0.  0.
        5    1    3    3  502    0 -0.77363653744E+03  0.15293897989E+04 -0.91870288967E+03  0.19446294605E+04  0.46999998093E+01 0. -1.
       -5    1    3    3    0  502  0.77363653744E+03 -0.15293897989E+04 -0.21675249867E+03  0.17275851310E+04  0.46999998093E+01 0.  1.
</event>
<event>
 5   0  0.1873457E-07  0.3497783E+04  0.7818609E-02  0.8114316E-01
        1   -1    0    0  501    0  0.00000000000E+00  0.00000000000E+00  0.13427557004E+04  0.13427557004E+04  0.50400001928E-02 0. -1.
       -1   -1    0    0    0  501  0.00000000000E+00  0.00000000000E+00 -0.22778687061E+04  0.22778687062E+04  0.50400001928E-02 0.  1.
    10030    2    1    2    0    0  0.00000000000E+00  0.00000000000E+00 -0.93511300577E+03  0.36206244065E+04  0.34977828348E+04 0.  0.
        3    1    3    3  502    0 -0.13400045128E+04  0.51251055056E+03  0.56774033786E+03  0.15429219877E+04  0.10100000352E+00 0. -1.
       -3    1    3    3    0  502  0.13400045128E+04 -0.51251055056E+03 -0.15028533436E+04  0.20777024189E+04  0.10100000352E+00 0.  1.
</event>
<event>
 5   0  0.1897049E-07  0.3484804E+04  0.7818609E-02  0.8117401E-01
       -1   -1    0    0    0  501  0.00000000000E+00  0.00000000000E+00  0.15894437450E+04  0.15894437450E+04  0.50400001928E-02 0. -1.
        1   -1    0    0  501    0  0.00000000000E+00  0.00000000000E+00 -0.19100802333E+04  0.19100802333E+04  0.50400001928E-02 0.  1.
    10030    2    1    2    0    0  0.00000000000E+00  0.00000000000E+00 -0.32063648831E+03  0.34995239783E+04  0.34848042007E+04 0.  0.
        2    1    3    3  502    0  0.15766413948E+04  0.70250067058E+03  0.78720395065E+02  0.17278605791E+04  0.25500000920E-02 0. -1.
       -2    1    3    3    0  502 -0.15766413948E+04 -0.70250067058E+03 -0.39935688338E+03  0.17716633993E+04  0.25500000920E-02 0.  1.
</event>
<event>
 5   0  0.5573334E-07  0.3486036E+04  0.7818609E-02  0.8117107E-01
       -2   -1    0    0    0  501  0.00000000000E+00  0.00000000000E+00  0.18924622233E+04  0.18924622233E+04  0.25500000920E-02 0.  1.
        2   -1    0    0  501    0  0.00000000000E+00  0.00000000000E+00 -0.16053751098E+04  0.16053751098E+04  0.25500000920E-02 0. -1.
    10030    2    1    2    0    0  0.00000000000E+00  0.00000000000E+00  0.28708711351E+03  0.34978373331E+04  0.34860360007E+04 0.  0.
        4    1    3    3  502    0 -0.56585570998E+02  0.62255647479E+03 -0.14890268373E+04  0.16149244646E+04  0.12699999809E+01 0. -1.
       -4    1    3    3    0  502  0.56585570998E+02 -0.62255647479E+03  0.17761139509E+04  0.18829128685E+04  0.12699999809E+01 0.  1.
</event>
<event>
 5   0  0.1873457E-07  0.3460094E+04  0.7818609E-02  0.8123313E-01
        1   -1    0    0  501    0  0.00000000000E+00  0.00000000000E+00  0.20600652031E+04  0.20600652031E+04  0.50400001928E-02 0.  1.
       -1   -1    0    0    0  501  0.00000000000E+00  0.00000000000E+00 -0.14528969175E+04  0.14528969175E+04  0.50400001928E-02 0. -1.
    10030    2    1    2    0    0  0.00000000000E+00  0.00000000000E+00  0.60716828562E+03  0.35129621206E+04  0.34600938620E+04 0.  0.
        3    1    3    3  502    0  0.72605658981E+03  0.14832280027E+04 -0.21998798093E+03  0.16659886559E+04  0.10100000352E+00 0. -1.
       -3    1    3    3    0  502 -0.72605658981E+03 -0.14832280027E+04  0.82715626655E+03  0.18469734647E+04  0.10100000352E+00 0.  1.
</event>
<event>
 5   0  0.5740827E-07  0.3499032E+04  0.7818609E-02  0.8114019E-01
        2   -1    0    0  501    0  0.00000000000E+00  0.00000000000E+00  0.15022540698E+04  0.15022540698E+04  0.25500000920E-02 0. -1.
       -2   -1    0    0    0  501  0.00000000000E+00  0.00000000000E+00 -0.20374761234E+04  0.20374761234E+04  0.25500000920E-02 0.  1.
    10030    2    1    2    0    0  0.00000000000E+00  0.00000000000E+00 -0.53522205356E+03  0.35397301932E+04  0.34990323225E+04 0.  0.
        2    1    3    3  502    0  0.21643079955E+03 -0.16067271674E+04  0.39760268138E+03  0.16692819935E+04  0.25500000920E-02 0. -1.
       -2    1    3    3    0  502 -0.21643079955E+03  0.16067271674E+04 -0.93282473494E+03  0.18704481997E+04  0.25500000920E-02 0.  1.
</event>
<event>
 5   0  0.5573334E-07  0.3501275E+04  0.7818609E-02  0.8113488E-01
        2   -1    0    0  501    0  0.00000000000E+00  0.00000000000E+00  0.17451178670E+04  0.17451178670E+04  0.25500000920E-02 0.  1.
       -2   -1    0    0    0  501  0.00000000000E+00  0.00000000000E+00 -0.17561747083E+04  0.17561747083E+04  0.25500000920E-02 0. -1.
    10030    2    1    2    0    0  0.00000000000E+00  0.00000000000E+00 -0.11056841236E+02  0.35012925753E+04  0.35012751169E+04 0.  0.
        4    1    3    3  502    0 -0.10192842604E+04  0.49547507470E+03  0.13287549261E+04  0.17464327126E+04  0.12699999809E+01 0.  1.
       -4    1    3    3    0  502  0.10192842604E+04 -0.49547507470E+03 -0.13398117673E+04  0.17548598627E+04  0.12699999809E+01 0. -1.
</event>
<event>
 5   0  0.1908190E-07  0.3485403E+04  0.7818609E-02  0.8117258E-01
        1   -1    0    0  501    0  0.00000000000E+00  0.00000000000E+00  0.25633424773E+04  0.25633424773E+04  0.50400001928E-02 0. -1.
       -1   -1    0    0    0  501  0.00000000000E+00  0.00000000000E+00 -0.11847844113E+04  0.11847844113E+04  0.50400001928E-02 0.  1.
    10030    2    1    2    0    0  0.00000000000E+00  0.00000000000E+00  0.13785580661E+04  0.37481268886E+04  0.34854028220E+04 0.  0.
        5    1    3    3  502    0  0.52154334695E+03  0.44402611751E+03  0.24125102348E+04  0.25078664994E+04  0.46999998093E+01 0. -1.
       -5    1    3    3    0  502 -0.52154334695E+03 -0.44402611751E+03 -0.10339521688E+04  0.12402603892E+04  0.46999998093E+01 0.  1.
</event>
<event>
 5   0  0.1897049E-07  0.3392448E+04  0.7818609E-02  0.8139762E-01
       -1   -1    0    0    0  501  0.00000000000E+00  0.00000000000E+00  0.18713509865E+04  0.18713509865E+04  0.50400001928E-02 0. -1.
        1   -1    0    0  501    0  0.00000000000E+00  0.00000000000E+00 -0.15374857585E+04  0.15374857585E+04  0.50400001928E-02 0.  1.
    10030    2    1    2    0    0  0.00000000000E+00  0.00000000000E+00  0.33386522799E+03  0.34088367450E+04  0.33924477835E+04 0.  0.
        2    1    3    3  502    0  0.34662510343E+03 -0.10695690265E+04  0.14431267969E+04  0.18294102374E+04  0.25500000920E-02 0. -1.
       -2    1    3    3    0  502 -0.34662510343E+03  0.10695690265E+04 -0.11092615689E+04  0.15794265076E+04  0.25500000920E-02 0.  1.
</event>
<event>
 5   0  0.5740827E-07  0.3449263E+04  0.7818609E-02  0.8125920E-01
        2   -1    0    0  501    0  0.00000000000E+00  0.00000000000E+00  0.25236210826E+04  0.25236210826E+04  0.25500000920E-02 0.  1.
       -2   -1    0    0    0  501  0.00000000000E+00  0.00000000000E+00 -0.11786056926E+04  0.11786056926E+04  0.25500000920E-02 0. -1.
    10030    2    1    2    0    0  0.00000000000E+00  0.00000000000E+00  0.13450153900E+04  0.37022267751E+04  0.34492632105E+04 0.  0.
        2    1    3    3  502    0  0.10629840505E+04  0.13445415630E+04  0.46709004503E+03  0.17764853549E+04  0.25500000920E-02 0.  1.
       -2    1    3    3    0  502 -0.10629840505E+04 -0.13445415630E+04  0.87792534496E+03  0.19257414202E+04  0.25500000920E-02 0. -1.
</event>
<event>
 5   0  0.5677193E-07  0.3481096E+04  0.7818609E-02  0.8118285E-01
       -2   -1    0    0    0  501  0.00000000000E+00  0.00000000000E+00  0.13862816219E+04  0.13862816219E+04  0.25500000920E-02 0. -1.
        2   -1    0    0  501    0  0.00000000000E+00  0.00000000000E+00 -0.21853481781E+04  0.21853481781E+04  0.25500000920E-02 0.  1.
    10030    2    1    2    0    0  0.00000000000E+00  0.00000000000E+00 -0.79906655623E+03  0.35716298000E+04  0.34810963887E+04 0.  0.
        3    1    3    3  502    0  0.79159230169E+03 -0.13765125814E+04 -0.11308847855E+04  0.19494372694E+04  0.10100000352E+00 0.  1.
       -3    1    3    3    0  502 -0.79159230169E+03  0.13765125814E+04  0.33181822932E+03  0.16221925306E+04  0.10100000352E+00 0. -1.
</event>
<event>
 5   0  0.5554745E-07  0.3472146E+04  0.7818609E-02  0.8120423E-01
       -2   -1    0    0    0  501  0.00000000000E+00  0.00000000000E+00  0.12581088750E+04  0.12581088750E+04  0.25500000920E-02 0. -1.
        2   -1    0    0  501    0  0.00000000000E+00  0.00000000000E+00 -0.23956190570E+04  0.23956190570E+04  0.25500000920E-02 0.  1.
    10030    2    1    2    0    0  0.00000000000E+00  0.00000000000E+00 -0.11375101820E+04  0.36537279320E+04  0.34721460780E+04 0.  0.
        5    1    3    3  502    0  0.64027997551E+03  0.15978621332E+04 -0.33156623580E+03  0.17530202801E+04  0.46999998093E+01 0. -1.
       -5    1    3    3    0  502 -0.64027997551E+03 -0.15978621332E+04 -0.80594394620E+03  0.19007076519E+04  0.46999998093E+01 0.  1.
</event>
<event>
 5   0  0.1897049E-07  0.3521904E+04  0.7818609E-02  0.8108618E-01
        1   -1    0    0  501    0  0.00000000000E+00  0.00000000000E+00  0.18318825869E+04  0.18318825869E+04  0.50400001928E-02 0.  1.
       -1   -1    0    0    0  501  0.00000000000E+00  0.00000000000E+00 -0.16927681004E+04  0.16927681004E+04  0.50400001928E-02 0. -1.
    10030    2    1    2    0    0  0.00000000000E+00  0.00000000000E+00  0.13911448652E+03  0.35246506872E+04  0.35219042614E+04 0.  0.
        2    1    3    3  502    0  0.50847707160E+03 -0.12251241676E+04 -0.10895662452E+04  0.17165758827E+04  0.25500000920E-02 0. -1.
       -2    1    3    3    0  502 -0.50847707160E+03  0.12251241676E+04  0.12286807317E+04  0.18080748045E+04  0.25500000920E-02 0.  1.
</event>
<event>
 5   0  0.5740827E-07  0.3505273E+04  0.7818609E-02  0.8112541E-01
        2   -1    0    0  501    0  0.00000000000E+00  0.00000000000E+00  0.25571130326E+04  0.25571130326E+04  0.25500000920E-02 0.  1.
       -2   -1    0    0    0  501  0.00000000000E+00  0.00000000000E+00 -0.12012513065E+04  0.12012513065E+04  0.25500000920E-02 0. -1.
    10030    2    1    2    0    0  0.00000000000E+00  0.00000000000E+00  0.13558617261E+04  0.37583643391E+04  0.35052733823E+04 0.  0.
        2    1    3    3  502    0  0.14420049680E+04  0.81939006741E+03  0.70495064127E+02  0.16600445670E+04  0.25500000920E-02 0.  1.
       -2    1    3    3    0  502 -0.14420049680E+04 -0.81939006741E+03  0.12853666620E+04  0.20983197721E+04  0.25500000920E-02 0. -1.
</event>
<event>
 5   0  0.1897049E-07  0.3497618E+04  0.7818609E-02  0.8114355E-01
        1   -1    0    0  501    0  0.00000000000E+00  0.00000000000E+00  0.19656458319E+04  0.19656458319E+04  0.50400001928E-02 0.  1.
       -1   -1    0    0    0  501  0.00000000000E+00  0.00000000000E+00 -0.15558918983E+04  0.15558918983E+04  0.50400001928E-02 0. -1.
    10030    2    1    2    0    0  0.00000000000E+00  0.00000000000E+00  0.40975393359E+03  0.35215377301E+04  0.34976177176E+04 0.  0.
        2    1    3    3  502    0 -0.18275867203E+03 -0.14971343011E+04 -0.68634361767E+03  0.16570695246E+04  0.25500000920E-02 0. -1.
       -2    1    3    3    0  502  0.18275867203E+03  0.14971343011E+04  0.10960975513E+04  0.18644682056E+04  0.25500000920E-02 0.  1.
</event>
<event>
 5   0  0.5554745E-07  0.3481888E+04  0.7818609E-02  0.8118096E-01
        2   -1    0    0  501    0  0.00000000000E+00  0.00000000000E+00  0.21018234690E+04  0.21018234690E+04  0.25500000920E-02 0. -1.
       -2   -1    0    0    0  501  0.00000000000E+00  0.00000000000E+00 -0.14420270396E+04  0.14420270396E+04  0.25500000920E-02 0.  1.
    10030    2    1    2    0    0  0.00000000000E+00  0.00000000000E+00  0.65979642940E+03  0.35438505087E+04  0.34818881515E+04 0.  0.
        5    1    3    3  502    0  0.18076923389E+03 -0.14152877776E+04 -0.68542480979E+03  0.15828917427E+04  0.46999998093E+01 0.  1.
       -5    1    3    3    0  502 -0.18076923389E+03  0.14152877776E+04  0.13452212392E+04  0.19609587659E+04  0.46999998093E+01 0. -1.
</event>
<event>
 5   0  0.1866421E-07  0.3436376E+04  0.7818609E-02  0.8129036E-01
        1   -1    0    0  501    0  0.00000000000E+00  0.00000000000E+00  0.19280466036E+04  0.19280466036E+04  0.50400001928E-02 0. -1.
       -1   -1    0    0    0  501  0.00000000000E+00  0.00000000000E+00 -0.15311713751E+04  0.15311713751E+04  0.50400001928E-02 0.  1.
    10030    2    1    2    0    0  0.00000000000E+00  0.00000000000E+00  0.39687522853E+03  0.34592179787E+04  0.34363758638E+04 0.  0.
        1    1    3    3  502    0  0.15458177417E+04  0.74442849852E+03  0.29093687184E+03  0.17402214064E+04  0.50400001928E-02 0.  1.
       -1    1    3    3    0  502 -0.15458177417E+04 -0.74442849852E+03  0.10593835669E+03  0.17189965723E+04  0.50400001928E-02 0. -1.
</event>
<event>
 5   0  0.1897049E-07  0.3478359E+04  0.7818609E-02  0.8118938E-01
       -1   -1    0    0    0  501  0.00000000000E+00  0.00000000000E+00  0.16310330004E+04  0.16310330004E+04  0.50400001928E-02 0. -1.
        1   -1    0    0  501    0  0.00000000000E+00  0.00000000000E+00 -0.18544972412E+04  0.18544972412E+04  0.50400001928E-02 0.  1.
    10030    2    1    2    0    0  0.00000000000E+00  0.00000000000E+00 -0.22346424079E+03  0.34855302417E+04  0.34783594982E+04 0.  0.
        2    1    3    3  502    0  0.16338227173E+04  0.58928634485E+03 -0.21484633098E+02  0.17369791758E+04  0.25500000920E-02 0. -1.
       -2    1    3    3    0  502 -0.16338227173E+04 -0.58928634485E+03 -0.20197960769E+03  0.17485510658E+04  0.25500000920E-02 0.  1.
</event>
<event>
 5   0  0.1866421E-07  0.3496440E+04  0.7818609E-02  0.8114634E-01
       -1   -1    0    0    0  501  0.00000000000E+00  0.00000000000E+00  0.14201288940E+04  0.14201288940E+04  0.50400001928E-02 0.  1.
        1   -1    0    0  501    0  0.00000000000E+00  0.00000000000E+00 -0.21521096958E+04  0.21521096958E+04  0.50400001928E-02 0. -1.
    10030    2    1    2    0    0  0.00000000000E+00  0.00000000000E+00 -0.73198080173E+03  0.35722385898E+04  0.34964399964E+04 0.  0.
        1    1    3    3  502    0 -0.92552608502E+03  0.13185644588E+04 -0.10597263972E+04  0.19282714547E+04  0.50400001928E-02 0. -1.
       -1    1    3    3    0  502  0.92552608502E+03 -0.13185644588E+04  0.32774559548E+03  0.16439671351E+04  0.50400001928E-02 0.  1.
</event>
<event>
 5   0  0.5554745E-07  0.3487425E+04  0.7818609E-02  0.8116776E-01
        2   -1    0    0  501    0  0.00000000000E+00  0.00000000000E+00  0.23430868150E+04  0.23430868150E+04  0.25500000920E-02 0. -1.
       -2   -1    0    0    0  501  0.00000000000E+00  0.00000000000E+00 -0.12976615714E+04  0.12976615714E+04  0.25500000920E-02 0.  1.
    10030    2    1    2    0    0  0.00000000000E+00  0.00000000000E+00  0.10454252436E+04  0.36407483864E+04  0.34874252498E+04 0.  0.
        5    1    3    3  502    0  0.90030915007E+03  0.84669109726E+03 -0.76143561695E+03  0.14516365484E+04  0.46999998093E+01 0.  1.
       -5    1    3    3    0  502 -0.90030915007E+03 -0.84669109726E+03  0.18068608606E+04  0.21891118380E+04  0.46999998093E+01 0. -1.
</event>
<event>
 5   0  0.1908190E-07  0.3469285E+04  0.7818609E-02  0.8121108E-01
        1   -1    0    0  501    0  0.00000000000E+00  0.00000000000E+00  0.26352452214E+04  0.26352452214E+04  0.50400001928E-02 0.  1.
       -1   -1    0    0    0  501  0.00000000000E+00  0.00000000000E+00 -0.11418232203E+04  0.11418232203E+04  0.50400001928E-02 0. -1.
    10030    2    1    2    0    0  0.00000000000E+00  0.00000000000E+00  0.14934220011E+04  0.37770684418E+04  0.34692847592E+04 0.  0.
        5    1    3    3  502    0 -0.28466292583E+03 -0.28249148447E+03 -0.10906505891E+04  0.11620564606E+04  0.46999998093E+01 0. -1.
       -5    1    3    3    0  502  0.28466292583E+03  0.28249148447E+03  0.25840725902E+04  0.26150119811E+04  0.46999998093E+01 0.  1.
</event>
<event>
 5   0  0.1873457E-07  0.3653254E+04  0.7818609E-02  0.8078401E-01
        1   -1    0    0  501    0  0.00000000000E+00  0.00000000000E+00  0.14997399641E+04  0.14997399641E+04  0.50400001928E-02 0.  1.
       -1   -1    0    0    0  501  0.00000000000E+00  0.00000000000E+00 -0.22247630841E+04  0.22247630841E+04  0.50400001928E-02 0. -1.
    10030    2    1    2    0    0  0.00000000000E+00  0.00000000000E+00 -0.72502311996E+03  0.37245030482E+04  0.36532539511E+04 0.  0.
        3    1    3    3  502    0 -0.72094228082E+03  0.56899343441E+03  0.12472234276E+04  0.15488956031E+04  0.10100000352E+00 0.  1.
       -3    1    3    3    0  502  0.72094228082E+03 -0.56899343441E+03 -0.19722465476E+04  0.21756074451E+04  0.10100000352E+00 0. -1.
</event>
<event>
 5   0  0.5707187E-07  0.3431630E+04  0.7818609E-02  0.8130187E-01
        2   -1    0    0  501    0  0.00000000000E+00  0.00000000000E+00  0.11293606876E+04  0.11293606876E+04  0.25500000920E-02 0. -1.
       -2   -1    0    0    0  501  0.00000000000E+00  0.00000000000E+00 -0.26068037432E+04  0.26068037432E+04  0.25500000920E-02 0.  1.
    10030    2    1    2    0    0  0.00000000000E+00  0.00000000000E+00 -0.14774430555E+04  0.37361644308E+04  0.34316303227E+04 0.  0.
        1    1    3    3  502    0 -0.90962696654E+03  0.13421903500E+04 -0.13498989020E+04  0.21097685180E+04  0.50400001928E-02 0.  1.
       -1    1    3    3    0  502  0.90962696654E+03 -0.13421903500E+04 -0.12754415352E+03  0.16263959128E+04  0.50400001928E-02 0. -1.
</event>
<event>
 5   0  0.1873457E-07  0.3494480E+04  0.7818609E-02  0.8115099E-01
       -1   -1    0    0    0  501  0.00000000000E+00  0.00000000000E+00  0.12576317330E+04  0.12576317330E+04  0.50400001928E-02 0.  1.
        1   -1    0    0  501    0  0.00000000000E+00  0.00000000000E+00 -0.24274581051E+04  0.24274581051E+04  0.50400001928E-02 0. -1.
    10030    2    1    2    0    0  0.00000000000E+00  0.00000000000E+00 -0.11698263721E+04  0.36850898381E+04  0.34944804155E+04 0.  0.
        3    1    3    3  502    0 -0.93350134765E+03 -0.14734827024E+04 -0.47803251561E+03  0.18086158068E+04  0.10100000352E+00 0. -1.
       -3    1    3    3    0  502  0.93350134765E+03  0.14734827024E+04 -0.69179385653E+03  0.18764740314E+04  0.10100000352E+00 0.  1.
</event>
<event>
 5   0  0.5677193E-07  0.3509719E+04  0.7818609E-02  0.8111491E-01
        2   -1    0    0  501    0  0.00000000000E+00  0.00000000000E+00  0.12917495312E+04  0.12917495312E+04  0.25500000920E-02 0.  1.
       -2   -1    0    0    0  501  0.00000000000E+00  0.00000000000E+00 -0.23840004286E+04  0.23840004286E+04  0.25500000920E-02 0. -1.
    10030    2    1    2    0    0  0.00000000000E+00  0.00000000000E+00 -0.10922508974E+04  0.36757499598E+04  0.35097187557E+04 0.  0.
        3    1    3    3  502    0  0.60396810373E+03  0.71457331298E+03  0.10087411270E+04  0.13758456169E+04  0.10100000352E+00 0.  1.
       -3    1    3    3    0  502 -0.60396810373E+03 -0.71457331298E+03 -0.21009920244E+04  0.22999043430E+04  0.10100000352E+00 0. -1.
</event>
<event>
 5   0  0.1866421E-07  0.3447491E+04  0.7818609E-02  0.8126348E-01
        1   -1    0    0  501    0  0.00000000000E+00  0.00000000000E+00  0.18333271889E+04  0.18333271889E+04  0.50400001928E-02 0.  1.
       -1   -1    0    0    0  501  0.00000000000E+00  0.00000000000E+00 -0.16207136904E+04  0.16207136904E+04  0.50400001928E-02 0. -1.
    10030    2    1    2    0    0  0.00000000000E+00  0.00000000000E+00  0.21261349842E+03  0.34540408793E+04  0.34474909567E+04 0.  0.
        1    1    3    3  502    0  0.10632906466E+04 -0.92845564532E+03 -0.88485617190E+03  0.16660094026E+04  0.50400001928E-02 0. -1.
       -1    1    3    3    0  502 -0.10632906466E+04  0.92845564532E+03  0.10974696703E+04  0.17880314767E+04  0.50400001928E-02 0.  1.
</event>
<event>
 5   0  0.1866421E-07  0.3492980E+04  0.7818609E-02  0.8115456E-01
        1   -1    0    0  501    0  0.00000000000E+00  0.00000000000E+00  0.18423151102E+04  0.18423151102E+04  0.50400001928E-02 0. -1.
       -1   -1    0    0    0  501  0.00000000000E+00  0.00000000000E+00 -0.16556486924E+04  0.16556486924E+04  0.50400001928E-02 0.  1.
    10030    2    1    2    0    0  0.00000000000E+00  0.00000000000E+00  0.18666641774E+03  0.34979638026E+04  0.34929795895E+04 0.  0.
        1    1    3    3  502    0 -0.17629702609E+03  0.17365500826E+04  0.15291409230E+03  0.17521613939E+04  0.50400001928E-02 0.  1.
       -1    1    3    3    0  502  0.17629702609E+03 -0.17365500826E+04  0.33752325443E+02  0.17458024087E+04  0.50400001928E-02 0. -1.
</event>
<event>
 5   0  0.5707187E-07  0.3499787E+04  0.7818609E-02  0.8113840E-01
       -2   -1    0    0    0  501  0.00000000000E+00  0.00000000000E+00  0.30548630103E+04  0.30548630103E+04  0.25500000920E-02 0. -1.
        2   -1    0    0  501    0  0.00000000000E+00  0.00000000000E+00 -0.10023780942E+04  0.10023780942E+04  0.25500000920E-02 0.  1.
    10030    2    1    2    0    0  0.00000000000E+00  0.00000000000E+00  0.20524849161E+04  0.40572411045E+04  0.34997872862E+04 0.  0.
        1    1    3    3  502    0 -0.14499946122E+04  0.96718024500E+02  0.21563428383E+04  0.26003179014E+04  0.50400001928E-02 0. -1.
       -1    1    3    3    0  502  0.14499946122E+04 -0.96718024500E+02 -0.10385792223E+03  0.14569232031E+04  0.50400001928E-02 0.  1.
</event>
<event>
 5   0  0.1873457E-07  0.3484402E+04  0.7818609E-02  0.8117496E-01
       -1   -1    0    0    0  501  0.00000000000E+00  0.00000000000E+00  0.17879624669E+04  0.17879624669E+04  0.50400001928E-02 0.  1.
        1   -1    0    0  501    0  0.00000000000E+00  0.00000000000E+00 -0.16976107195E+04  0.16976107195E+04  0.50400001928E-02 0. -1.
    10030    2    1    2    0    0  0.00000000000E+00  0.00000000000E+00  0.90351747398E+02  0.34855731865E+04  0.34844019573E+04 0.  0.
        3    1    3    3  502    0  0.14270236930E+04 -0.62256316416E+03 -0.73693264944E+03  0.17225130635E+04  0.10100000352E+00 0. -1.
       -3    1    3    3    0  502 -0.14270236930E+04  0.62256316416E+03  0.82728439684E+03  0.17630601230E+04  0.10100000352E+00 0.  1.
</event>
<event>
 5   0  0.1866421E-07  0.3500440E+04  0.7818609E-02  0.8113686E-01
        1   -1    0    0  501    0  0.00000000000E+00  0.00000000000E+00  0.20470130503E+04  0.20470130503E+04  0.50400001928E-02 0.  1.
       -1   -1    0    0    0  501  0.00000000000E+00  0.00000000000E+00 -0.14964584832E+04  0.14964584832E+04  0.50400001928E-02 0. -1.
    10030    2    1    2    0    0  0.00000000000E+00  0.00000000000E+00  0.55055456712E+03  0.35434715335E+04  0.35004399977E+04 0.  0.
        1    1    3    3  502    0  0.35828124174E+03  0.14177047023E+03 -0.14529908321E+04  0.15032121183E+04  0.50400001928E-02 0. -1.
       -1    1    3    3    0  502 -0.35828124174E+03 -0.14177047023E+03  0.20035453992E+04  0.20402594152E+04  0.50400001928E-02 0.  1.
</event>
<event>
 5   0  0.5677193E-07  0.3491118E+04  0.7818609E-02  0.8115898E-01
       -2   -1    0    0    0  501  0.00000000000E+00  0.00000000000E+00  0.17469326550E+04  0.17469326550E+04  0.25500000920E-02 0. -1.
        2   -1    0    0  501    0  0.00000000000E+00  0.00000000000E+00 -0.17441860165E+04  0.17441860165E+04  0.25500000920E-02 0.  1.
    10030    2    1    2    0    0  0.00000000000E+00  0.00000000000E+00  0.27466384320E+01  0.34911186715E+04  0.34911175911E+04 0.  0.
        3    1    3    3  502    0  0.97631695566E+02 -0.14784775291E+04 -0.92142041371E+03  0.17448333276E+04  0.10100000352E+00 0.  1.
       -3    1    3    3    0  502 -0.97631695566E+02  0.14784775291E+04  0.92416705214E+03  0.17462853439E+04  0.10100000352E+00 0. -1.
</event>
<event>
 5   0  0.5554745E-07  0.3473626E+04  0.7818609E-02  0.8120069E-01
        2   -1    0    0  501    0  0.00000000000E+00  0.00000000000E+00  0.10160092012E+04  0.10160092012E+04  0.25500000920E-02 0.  1.
       -2   -1    0    0    0  501  0.00000000000E+00  0.00000000000E+00 -0.29689882078E+04  0.29689882078E+04  0.25500000920E-02 0. -1.
    10030    2    1    2    0    0  0.00000000000E+00  0.00000000000E+00 -0.19529790066E+04  0.39849974090E+04  0.34736259657E+04 0.  0.
        5    1    3    3  502    0 -0.10715949031E+04  0.49828010880E+03  0.48363166892E+03  0.12769183154E+04  0.46999998093E+01 0.  1.
       -5    1    3    3    0  502  0.10715949031E+04 -0.49828010880E+03 -0.24366106755E+04  0.27080790936E+04  0.46999998093E+01 0. -1.
</event>
<event>
 5   0  0.5740827E-07  0.3174397E+04  0.7818609E-02  0.8195612E-01
       -2   -1    0    0    0  501  0.00000000000E+00  0.00000000000E+00  0.14822370850E+04  0.14822370850E+04  0.25500000920E-02 0. -1.
        2   -1    0    0  501    0  0.00000000000E+00  0.00000000000E+00 -0.16995926012E+04  0.16995926012E+04  0.25500000920E-02 0.  1.
    10030    2    1    2    0    0  0.00000000000E+00  0.00000000000E+00 -0.21735551612E+03  0.31818296862E+04  0.31743970658E+04 0.  0.
        2    1    3    3  502    0 -0.13609862744E+04 -0.10124151488E+03  0.70356873764E+03  0.15354290775E+04  0.25500000920E-02 0. -1.
       -2    1    3    3    0  502  0.13609862744E+04  0.10124151488E+03 -0.92092425377E+03  0.16464006088E+04  0.25500000920E-02 0.  1.
</event>
<event>
 5   0  0.5740827E-07  0.3265361E+04  0.7818609E-02  0.8171766E-01
       -2   -1    0    0    0  501  0.00000000000E+00  0.00000000000E+00  0.16777291505E+04  0.16777291505E+04  0.25500000920E-02 0.  1.
        2   -1    0    0  501    0  0.00000000000E+00  0.00000000000E+00 -0.15888415740E+04  0.15888415740E+04  0.25500000920E-02 0. -1.
    10030    2    1    2    0    0  0.00000000000E+00  0.00000000000E+00  0.88887576548E+02  0.32665707245E+04  0.32653611281E+04 0.  0.
        2    1    3    3  502    0 -0.70364427412E+03  0.97452879829E+03  0.11497622106E+04  0.16633624933E+04  0.25500000920E-02 0.  1.
       -2    1    3    3    0  502  0.70364427412E+03 -0.97452879829E+03 -0.10608746341E+04  0.16032082311E+04  0.25500000920E-02 0. -1.
</event>
<event>
 5   0  0.5677193E-07  0.3490431E+04  0.7818609E-02  0.8116061E-01
        2   -1    0    0  501    0  0.00000000000E+00  0.00000000000E+00  0.24316136882E+04  0.24316136882E+04  0.25500000920E-02 0.  1.
       -2   -1    0    0    0  501  0.00000000000E+00  0.00000000000E+00 -0.12525744035E+04  0.12525744035E+04  0.25500000920E-02 0. -1.
    10030    2    1    2    0    0  0.00000000000E+00  0.00000000000E+00  0.11790392846E+04  0.36841880917E+04  0.34904309562E+04 0.  0.
        3    1    3    3  502    0  0.16087629200E+04 -0.42832981525E+03  0.11422209877E+04  0.20189733426E+04  0.10100000352E+00 0.  1.
       -3    1    3    3    0  502 -0.16087629200E+04  0.42832981525E+03  0.36818296885E+02  0.16652147491E+04  0.10100000352E+00 0. -1.
</event>
<event>
 5   0  0.1897049E-07  0.3438282E+04  0.7818609E-02  0.8128574E-01
        1   -1    0    0  501    0  0.00000000000E+00  0.00000000000E+00  0.18614998811E+04  0.18614998811E+04  0.50400001928E-02 0. -1.
       -1   -1    0    0    0  501  0.00000000000E+00  0.00000000000E+00 -0.15876694632E+04  0.15876694632E+04  0.50400001928E-02 0.  1.
    10030    2    1    2    0    0  0.00000000000E+00  0.00000000000E+00  0.27383041787E+03  0.34491693443E+04  0.34382824300E+04 0.  0.
        2    1    3    3  502    0 -0.29831910668E+03  0.14367541651E+03  0.18292095016E+04  0.18589363398E+04  0.25500000920E-02 0. -1.
       -2    1    3    3    0  502  0.29831910668E+03 -0.14367541651E+03 -0.15553790837E+04  0.15902330045E+04  0.25500000920E-02 0.  1.
</event>
<event>
 5   0  0.5707187E-07  0.3492532E+04  0.7818609E-02  0.8115562E-01
       -2   -1    0    0    0  501  0.00000000000E+00  0.00000000000E+00  0.17261216852E+04  0.17261216852E+04  0.25500000920E-02 0. -1.
        2   -1    0    0  501    0  0.00000000000E+00  0.00000000000E+00 -0.17666456415E+04  0.17666456415E+04  0.25500000920E-02 0.  1.
    10030    2    1    2    0    0  0.00000000000E+00  0.00000000000E+00 -0.40523956284E+02  0.34927673267E+04  0.34925322343E+04 0.  0.
        1    1    3    3  502    0 -0.31253897931E+03 -0.12067760390E+04  0.12027088571E+04  0.17321944512E+04  0.50400001928E-02 0. -1.
       -1    1    3    3    0  502  0.31253897931E+03  0.12067760390E+04 -0.12432328134E+04  0.17605728755E+04  0.50400001928E-02 0.  1.
</event>
<event>
 5   0  0.1873457E-07  0.3475092E+04  0.7818609E-02  0.8119718E-01
       -1   -1    0    0    0  501  0.00000000000E+00  0.00000000000E+00  0.16391787567E+04  0.16391787567E+04  0.50400001928E-02 0.  1.
        1   -1    0    0  501    0  0.00000000000E+00  0.00000000000E+00 -0.18418167501E+04  0.18418167501E+04  0.50400001928E-02 0. -1.
    10030    2    1    2    0    0  0.00000000000E+00  0.00000000000E+00 -0.20263799340E+03  0.34809955068E+04  0.34750924538E+04 0.  0.
        3    1    3    3  502    0 -0.63096314381E+03 -0.14465576308E+04 -0.82948118773E+03  0.17828860084E+04  0.10100000352E+00 0. -1.
       -3    1    3    3    0  502  0.63096314381E+03  0.14465576308E+04  0.62684319433E+03  0.16981094984E+04  0.10100000352E+00 0.  1.
</event>
<event>
 5   0  0.1873457E-07  0.3625082E+04  0.7818609E-02  0.8084770E-01
        1   -1    0    0  501    0  0.00000000000E+00  0.00000000000E+00  0.23802729411E+04  0.23802729411E+04  0.50400001928E-02 0. -1.
       -1   -1    0    0    0  501  0.00000000000E+00  0.00000000000E+00 -0.13802218832E+04  0.13802218832E+04  0.50400001928E-02 0.  1.
    10030    2    1    2    0    0  0.00000000000E+00  0.00000000000E+00  0.10000510579E+04  0.37604948243E+04  0.36250819584E+04 0.  0.
        3    1    3    3  502    0  0.14166762418E+04 -0.10799495775E+04  0.84725600664E+03  0.19725885063E+04  0.10100000352E+00 0.  1.
       -3    1    3    3    0  502 -0.14166762418E+04  0.10799495775E+04  0.15279505123E+03  0.17879063180E+04  0.10100000352E+00 0. -1.
</event>
<event>
 5   0  0.1933647E-07  0.3493245E+04  0.7818609E-02  0.8115393E-01
        1   -1    0    0  501    0  0.00000000000E+00  0.00000000000E+00  0.12913139848E+04  0.12913139848E+04  0.50400001928E-02 0. -1.
       -1   -1    0    0    0  501  0.00000000000E+00  0.00000000000E+00 -0.23624702712E+04  0.23624702712E+04  0.50400001928E-02 0.  1.
    10030    2    1    2    0    0  0.00000000000E+00  0.00000000000E+00 -0.10711562863E+04  0.36537842560E+04  0.34932454250E+04 0.  0.
        4    1    3    3  502    0  0.34594997253E+03 -0.14236676676E+04  0.45900440696E+03  0.15353167978E+04  0.12699999809E+01 0. -1.
       -4    1    3    3    0  502 -0.34594997253E+03  0.14236676676E+04 -0.15301606933E+04  0.21184674582E+04  0.12699999809E+01 0.  1.
</event>
<event>
 5   0  0.5573334E-07  0.3496388E+04  0.7818609E-02  0.8114647E-01
        2   -1    0    0  501    0  0.00000000000E+00  0.00000000000E+00  0.17145772537E+04  0.17145772537E+04  0.25500000920E-02 0. -1.
       -2   -1    0    0    0  501  0.00000000000E+00  0.00000000000E+00 -0.17824694757E+04  0.17824694757E+04  0.25500000920E-02 0.  1.
    10030    2    1    2    0    0  0.00000000000E+00  0.00000000000E+00 -0.67892221932E+02  0.34970467294E+04  0.34963876321E+04 0.  0.
        4    1    3    3  502    0 -0.10145954845E+04  0.68686529464E+03 -0.12811743931E+04  0.17727372531E+04  0.12699999809E+01 0.  1.
       -4    1    3    3    0  502  0.10145954845E+04 -0.68686529464E+03  0.12132821712E+04  0.17243094763E+04  0.12699999809E+01 0. -1.
</event>
<event>
 5   0  0.1873457E-07  0.3513524E+04  0.7818609E-02  0.8110593E-01
        1   -1    0    0  501    0  0.00000000000E+00  0.00000000000E+00  0.20269564689E+04  0.20269564689E+04  0.50400001928E-02 0.  1.
       -1   -1    0    0    0  501  0.00000000000E+00  0.00000000000E+00 -0.15225841973E+04  0.15225841973E+04  0.50400001928E-02 0. -1.
    10030    2    1    2    0    0  0.00000000000E+00  0.00000000000E+00  0.50437227156E+03  0.35495406662E+04  0.35135235239E+04 0.  0.
        3    1    3    3  502    0 -0.17411902167E+02 -0.76053352164E+03  0.18519266438E+04  0.20020855916E+04  0.10100000352E+00 0.  1.
       -3    1    3    3    0  502  0.17411902167E+02  0.76053352164E+03 -0.13475543722E+04  0.15474550747E+04  0.10100000352E+00 0. -1.
</event>
<event>
 5   0  0.5554745E-07  0.3484677E+04  0.7818609E-02  0.8117431E-01
       -2   -1    0    0    0  501  0.00000000000E+00  0.00000000000E+00  0.15837561119E+04  0.15837561119E+04  0.25500000920E-02 0.  1.
        2   -1    0    0  501    0  0.00000000000E+00  0.00000000000E+00 -0.19167994306E+04  0.19167994306E+04  0.25500000920E-02 0. -1.
    10030    2    1    2    0    0  0.00000000000E+00  0.00000000000E+00 -0.33304331872E+03  0.35005555425E+04  0.34846766355E+04 0.  0.
        5    1    3    3  502    0 -0.50836694643E+03 -0.23707573282E+03  0.14905643638E+04  0.15926223871E+04  0.46999998093E+01 0.  1.
       -5    1    3    3    0  502  0.50836694643E+03  0.23707573282E+03 -0.18236076826E+04  0.19079331553E+04  0.46999998093E+01 0. -1.
</event>
<event>
 5   0  0.1873457E-07  0.3518224E+04  0.7818609E-02  0.8109485E-01
        1   -1    0    0  501    0  0.00000000000E+00  0.00000000000E+00  0.17146702413E+04  0.17146702413E+04  0.50400001928E-02 0.  1.
       -1   -1    0    0    0  501  0.00000000000E+00  0.00000000000E+00 -0.18047052637E+04  0.18047052637E+04  0.50400001928E-02 0. -1.
    10030    2    1    2    0    0  0.00000000000E+00  0.00000000000E+00 -0.90035022393E+02  0.35193755051E+04  0.35182236484E+04 0.  0.
        3    1    3    3  502    0 -0.13123810611E+04  0.98468744131E+03 -0.67967064861E+03  0.17759238744E+04  0.10100000352E+00 0. -1.
       -3    1    3    3    0  502  0.13123810611E+04 -0.98468744131E+03  0.58963562622E+03  0.17434516307E+04  0.10100000352E+00 0.  1.
</event>
<event>
 5   0  0.5707187E-07  0.3455449E+04  0.7818609E-02  0.8124430E-01
       -2   -1    0    0    0  501  0.00000000000E+00  0.00000000000E+00  0.14446465873E+04  0.14446465873E+04  0.25500000920E-02 0.  1.
        2   -1    0    0  501    0  0.00000000000E+00  0.00000000000E+00 -0.20662717388E+04  0.20662717388E+04  0.25500000920E-02 0. -1.
    10030    2    1    2    0    0  0.00000000000E+00  0.00000000000E+00 -0.62162515147E+03  0.35109183261E+04  0.34554492709E+04 0.  0.
        1    1    3    3  502    0 -0.11445726629E+04  0.11156795589E+04  0.35564744057E+03  0.16374591784E+04  0.50400001928E-02 0.  1.
       -1    1    3    3    0  502  0.11445726629E+04 -0.11156795589E+04 -0.97727259203E+03  0.18734591477E+04  0.50400001928E-02 0. -1.
</event>
<event>
 5   0  0.1873457E-07  0.3523183E+04  0.7818609E-02  0.8108318E-01
        1   -1    0    0  501    0  0.00000000000E+00  0.00000000000E+00  0.21858635113E+04  0.21858635113E+04  0.50400001928E-02 0. -1.
       -1   -1    0    0    0  501  0.00000000000E+00  0.00000000000E+00 -0.14196695415E+04  0.14196695415E+04  0.50400001928E-02 0.  1.
    10030    2    1    2    0    0  0.00000000000E+00  0.00000000000E+00  0.76619396981E+03  0.36055330529E+04  0.35231825664E+04 0.  0.
        3    1    3    3  502    0 -0.19320953600E+03 -0.94403099662E+03 -0.11260514315E+04  0.14820648717E+04  0.10100000352E+00 0.  1.
       -3    1    3    3    0  502  0.19320953600E+03  0.94403099662E+03  0.18922454013E+04  0.21234681812E+04  0.10100000352E+00 0. -1.
</event>
<event>
 5   0  0.5554745E-07  0.3506923E+04  0.7818609E-02  0.8112151E-01
       -2   -1    0    0    0  501  0.00000000000E+00  0.00000000000E+00  0.20461310764E+04  0.20461310764E+04  0.25500000920E-02 0. -1.
        2   -1    0    0  501    0  0.00000000000E+00  0.00000000000E+00 -0.15026536971E+04  0.15026536971E+04  0.25500000920E-02 0.  1.
    10030    2    1    2    0    0  0.00000000000E+00  0.00000000000E+00  0.54347737928E+03  0.35487847735E+04  0.35069225408E+04 0.  0.
        5    1    3    3  502    0  0.87446667793E+03  0.12953352078E+04 -0.53274747066E+03  0.16511896405E+04  0.46999998093E+01 0.  1.
       -5    1    3    3    0  502 -0.87446667793E+03 -0.12953352078E+04  0.10762248499E+04  0.18975951330E+04  0.46999998093E+01 0. -1.
</event>
<event>
 5   0  0.5677193E-07  0.3343740E+04  0.7818609E-02  0.8151854E-01
        2   -1    0    0  501    0  0.00000000000E+00  0.00000000000E+00  0.10948818221E+04  0.10948818221E+04  0.25500000920E-02 0.  1.
       -2   -1    0    0    0  501  0.00000000000E+00  0.00000000000E+00 -0.25529225518E+04  0.25529225518E+04  0.25500000920E-02 0. -1.
    10030    2    1    2    0    0  0.00000000000E+00  0.00000000000E+00 -0.14580407297E+04  0.36478043739E+04  0.33437395205E+04 0.  0.
        3    1    3    3  502    0  0.47300142927E+03 -0.97053277411E+03  0.66357256943E+03  0.12672777055E+04  0.10100000352E+00 0.  1.
       -3    1    3    3    0  502 -0.47300142927E+03  0.97053277411E+03 -0.21216132991E+04  0.23805266684E+04  0.10100000352E+00 0. -1.
</event>
<event>
 5   0  0.5677193E-07  0.3537961E+04  0.7818609E-02  0.8104852E-01
        2   -1    0    0  501    0  0.00000000000E+00  0.00000000000E+00  0.10627677191E+04  0.10627677191E+04  0.25500000920E-02 0. -1.
       -2   -1    0    0    0  501  0.00000000000E+00  0.00000000000E+00 -0.29444742996E+04  0.29444742996E+04  0.25500000920E-02 0.  1.
    10030    2    1    2    0    0  0.00000000000E+00  0.00000000000E+00 -0.18817065805E+04  0.40072420187E+04  0.35379611277E+04 0.  0.
        3    1    3    3  502    0 -0.56198017052E+03 -0.66946334784E+03  0.80109256928E+03  0.11856442135E+04  0.10100000352E+00 0. -1.
       -3    1    3    3    0  502  0.56198017052E+03  0.66946334784E+03 -0.26827991498E+04  0.28215978052E+04  0.10100000352E+00 0.  1.
</event>
<event>
 5   0  0.1866421E-07  0.3471221E+04  0.7818609E-02  0.8120644E-01
       -1   -1    0    0    0  501  0.00000000000E+00  0.00000000000E+00  0.15108512596E+04  0.15108512596E+04  0.50400001928E-02 0.  1.
        1   -1    0    0  501    0  0.00000000000E+00  0.00000000000E+00 -0.19938059881E+04  0.19938059881E+04  0.50400001928E-02 0. -1.
    10030    2    1    2    0    0  0.00000000000E+00  0.00000000000E+00 -0.48295472856E+03  0.35046572477E+04  0.34712212771E+04 0.  0.
        1    1    3    3  502    0 -0.62644797986E+03 -0.50271089556E+03  0.13119098139E+04  0.15382661265E+04  0.50400001928E-02 0.  1.
       -1    1    3    3    0  502  0.62644797986E+03  0.50271089556E+03 -0.17948645425E+04  0.19663911213E+04  0.50400001928E-02 0. -1.
</event>
<event>
 5   0  0.1933647E-07  0.3498026E+04  0.7818609E-02  0.8114258E-01
       -1   -1    0    0    0  501  0.00000000000E+00  0.00000000000E+00  0.16260267592E+04  0.16260267592E+04  0.50400001928E-02 0.  1.
        1   -1    0    0  501    0  0.00000000000E+00  0.00000000000E+00 -0.18813014875E+04  0.18813014875E+04  0.50400001928E-02 0. -1.
    10030    2    1    2    0    0  0.00000000000E+00  0.00000000000E+00 -0.25527472829E+03  0.35073282467E+04  0.34980260495E+04 0.  0.
        4    1    3    3  502    0  0.93735213493E+03 -0.60733289348E+03  0.12218849070E+04  0.16554415143E+04  0.12699999809E+01 0.  1.
       -4    1    3    3    0  502 -0.93735213493E+03  0.60733289348E+03 -0.14771596353E+04  0.18518867324E+04  0.12699999809E+01 0. -1.
</event>
<event>
 5   0  0.1866421E-07  0.3482592E+04  0.7818609E-02  0.8117928E-01
       -1   -1    0    0    0  501  0.00000000000E+00  0.00000000000E+00  0.12517131766E+04  0.12517131766E+04  0.50400001928E-02 0. -1.
        1   -1    0    0  501    0  0.00000000000E+00  0.00000000000E+00 -0.24223698770E+04  0.24223698770E+04  0.50400001928E-02 0.  1.
    10030    2    1    2    0    0  0.00000000000E+00  0.00000000000E+00 -0.11706567003E+04  0.36740830536E+04  0.34825923067E+04 0.  0.
        1    1    3    3  502    0 -0.84875196195E+03 -0.57825847929E+03 -0.20688300758E+04  0.23097230666E+04  0.50400001928E-02 0.  1.
       -1    1    3    3    0  502  0.84875196195E+03  0.57825847929E+03  0.89817337545E+03  0.13643599870E+04  0.50400001928E-02 0. -1.
</event>
<event>
 5   0  0.1823000E-07  0.3432971E+04  0.7818609E-02  0.8129861E-01
        3   -1    0    0  501    0  0.00000000000E+00  0.00000000000E+00  0.13731511122E+04  0.13731511159E+04  0.10100000352E+00 0.  1.
       -3   -1    0    0    0  501  0.00000000000E+00  0.00000000000E+00 -0.21456654583E+04  0.21456654607E+04  0.10100000352E+00 0. -1.
    10030    2    1    2    0    0  0.00000000000E+00  0.00000000000E+00 -0.77251434610E+03  0.35188165766E+04  0.34329712618E+04 0.  0.
        5    1    3    3  502    0 -0.16735648112E+04 -0.38119485593E+03 -0.37280904642E+03  0.17564559120E+04  0.46999998093E+01 0.  1.
       -5    1    3    3    0  502  0.16735648112E+04  0.38119485593E+03 -0.39970529969E+03  0.17623606646E+04  0.46999998093E+01 0. -1.
</event>
<event>
 5   0  0.1908190E-07  0.3500370E+04  0.7818609E-02  0.8113702E-01
       -1   -1    0    0    0  501  0.00000000000E+00  0.00000000000E+00  0.14146335556E+04  0.14146335556E+04  0.50400001928E-02 0.  1.
        1   -1    0    0  501    0  0.00000000000E+00  0.00000000000E+00 -0.21653293226E+04  0.21653293226E+04  0.50400001928E-02 0. -1.
    10030    2    1    2    0    0  0.00000000000E+00  0.00000000000E+00 -0.75069576703E+03  0.35799628782E+04  0.35003699911E+04 0.  0.
        5    1    3    3  502    0 -0.35664717707E+02  0.25023886515E+03 -0.21465566144E+04  0.21613928034E+04  0.46999998093E+01 0. -1.
       -5    1    3    3    0  502  0.35664717707E+02 -0.25023886515E+03  0.13958608474E+04  0.14185700748E+04  0.46999998093E+01 0.  1.
</event>
<event>
 5   0  0.1933647E-07  0.3514821E+04  0.7818609E-02  0.8110286E-01
        1   -1    0    0  501    0  0.00000000000E+00  0.00000000000E+00  0.21643441356E+04  0.21643441356E+04  0.50400001928E-02 0.  1.
       -1   -1    0    0    0  501  0.00000000000E+00  0.00000000000E+00 -0.14269874101E+04  0.14269874101E+04  0.50400001928E-02 0. -1.
    10030    2    1    2    0    0  0.00000000000E+00  0.00000000000E+00  0.73735672547E+03  0.35913315457E+04  0.35148210951E+04 0.  0.
        4    1    3    3  502    0 -0.15015586539E+04 -0.85598676678E+02  0.12975799049E+04  0.19863838368E+04  0.12699999809E+01 0.  1.
       -4    1    3    3    0  502  0.15015586539E+04  0.85598676678E+02 -0.56022317940E+03  0.16049477089E+04  0.12699999809E+01 0. -1.
</event>
<event>
 5   0  0.1897049E-07  0.3493950E+04  0.7818609E-02  0.8115225E-01
        1   -1    0    0  501    0  0.00000000000E+00  0.00000000000E+00  0.20461835270E+04  0.20461835271E+04  0.50400001928E-02 0. -1.
       -1   -1    0    0    0  501  0.00000000000E+00  0.00000000000E+00 -0.14915192426E+04  0.14915192426E+04  0.50400001928E-02 0.  1.
    10030    2    1    2    0    0  0.00000000000E+00  0.00000000000E+00  0.55466428443E+03  0.35377027697E+04  0.34939502598E+04 0.  0.
        2    1    3    3  502    0 -0.45662425800E+03 -0.16549418948E+04 -0.50111572655E+02  0.17175126078E+04  0.25500000920E-02 0.  1.
       -2    1    3    3    0  502  0.45662425800E+03  0.16549418948E+04  0.60477585708E+03  0.18201901619E+04  0.25500000920E-02 0. -1.
</event>
<event>
 5   0  0.5740827E-07  0.3519068E+04  0.7818609E-02  0.8109286E-01
       -2   -1    0    0    0  501  0.00000000000E+00  0.00000000000E+00  0.32560411793E+04  0.32560411793E+04  0.25500000920E-02 0.  1.
        2   -1    0    0  501    0  0.00000000000E+00  0.00000000000E+00 -0.95083537454E+03  0.95083537454E+03  0.25500000920E-02 0. -1.
    10030    2    1    2    0    0  0.00000000000E+00  0.00000000000E+00  0.23052058047E+04  0.42068765538E+04  0.35190675664E+04 0.  0.
        2    1    3    3  502    0 -0.58087756157E+03  0.10237931187E+04 -0.41083086882E+03  0.12467369788E+04  0.25500000920E-02 0. -1.
       -2    1    3    3    0  502  0.58087756157E+03 -0.10237931187E+04  0.27160366735E+04  0.29601395750E+04  0.25500000920E-02 0.  1.
</event>
<event>
 5   0  0.1908190E-07  0.3484146E+04  0.7818609E-02  0.8117557E-01
        1   -1    0    0  501    0  0.00000000000E+00  0.00000000000E+00  0.21996237542E+04  0.21996237542E+04  0.50400001928E-02 0.  1.
       -1   -1    0    0    0  501  0.00000000000E+00  0.00000000000E+00 -0.13796986401E+04  0.13796986401E+04  0.50400001928E-02 0. -1.
    10030    2    1    2    0    0  0.00000000000E+00  0.00000000000E+00  0.81992511409E+03  0.35793223943E+04  0.34841457504E+04 0.  0.
        5    1    3    3  502    0 -0.14046035355E+04 -0.84338727770E+03  0.10182371751E+04  0.19290003180E+04  0.46999998093E+01 0.  1.
       -5    1    3    3    0  502  0.14046035355E+04  0.84338727770E+03 -0.19831206104E+03  0.16503220763E+04  0.46999998093E+01 0. -1.
</event>
<event>
 5   0  0.1873457E-07  0.3491420E+04  0.7818609E-02  0.8115826E-01
        1   -1    0    0  501    0  0.00000000000E+00  0.00000000000E+00  0.14733333715E+04  0.14733333715E+04  0.50400001928E-02 0.  1.
       -1   -1    0    0    0  501  0.00000000000E+00  0.00000000000E+00 -0.20684415851E+04  0.20684415851E+04  0.50400001928E-02 0. -1.
    10030    2    1    2    0    0  0.00000000000E+00  0.00000000000E+00 -0.59510821368E+03  0.35417749566E+04  0.34914203496E+04 0.  0.
        3    1    3    3  502    0  0.73216857554E+02  0.41334256658E+03  0.14213729406E+04  0.14820640445E+04  0.10100000352E+00 0.  1.
       -3    1    3    3    0  502 -0.73216857554E+02 -0.41334256658E+03 -0.20164811543E+04  0.20597109121E+04  0.10100000352E+00 0. -1.
</event>
<event>
 5   0  0.5740827E-07  0.3501452E+04  0.7818609E-02  0.8113446E-01
        2   -1    0    0  501    0  0.00000000000E+00  0.00000000000E+00  0.26438924285E+04  0.26438924285E+04  0.25500000920E-02 0.  1.
       -2   -1    0    0    0  501  0.00000000000E+00  0.00000000000E+00 -0.11592911506E+04  0.11592911506E+04  0.25500000920E-02 0. -1.
    10030    2    1    2    0    0  0.00000000000E+00  0.00000000000E+00  0.14846012779E+04  0.38031835791E+04  0.35014517535E+04 0.  0.
        2    1    3    3  502    0 -0.59823330164E+03  0.69761925136E+03 -0.87623811652E+03  0.12697830287E+04  0.25500000920E-02 0. -1.
       -2    1    3    3    0  502  0.59823330164E+03 -0.69761925136E+03  0.23608393944E+04  0.25334005505E+04  0.25500000920E-02 0.  1.
</event>
<event>
 5   0  0.1897049E-07  0.3493067E+04  0.7818609E-02  0.8115435E-01
       -1   -1    0    0    0  501  0.00000000000E+00  0.00000000000E+00  0.13940085405E+04  0.13940085405E+04  0.50400001928E-02 0. -1.
        1   -1    0    0  501    0  0.00000000000E+00  0.00000000000E+00 -0.21882068748E+04  0.21882068748E+04  0.50400001928E-02 0.  1.
    10030    2    1    2    0    0  0.00000000000E+00  0.00000000000E+00 -0.79419833431E+03  0.35822154154E+04  0.34930668886E+04 0.  0.
        2    1    3    3  502    0 -0.12010836191E+04  0.52897807049E+03  0.78468236052E+03  0.15290997567E+04  0.25500000920E-02 0. -1.
       -2    1    3    3    0  502  0.12010836191E+04 -0.52897807049E+03 -0.15788806948E+04  0.20531156586E+04  0.25500000920E-02 0.  1.
</event>
<event>
 5   0  0.1908190E-07  0.3492840E+04  0.7818609E-02  0.8115489E-01
       -1   -1    0    0    0  501  0.00000000000E+00  0.00000000000E+00  0.19747243695E+04  0.19747243695E+04  0.50400001928E-02 0. -1.
        1   -1    0    0  501    0  0.00000000000E+00  0.00000000000E+00 -0.15445105610E+04  0.15445105610E+04  0.50400001928E-02 0.  1.
    10030    2    1    2    0    0  0.00000000000E+00  0.00000000000E+00  0.43021380849E+03  0.35192349305E+04  0.34928399012E+04 0.  0.
        5    1    3    3  502    0  0.62851112742E+03  0.13745302603E+04 -0.66649149302E+03  0.16518452331E+04  0.46999998093E+01 0.  1.
       -5    1    3    3    0  502 -0.62851112742E+03 -0.13745302603E+04  0.10967053015E+04  0.18673896975E+04  0.46999998093E+01 0. -1.
</event>
<event>
 5   0  0.5707187E-07  0.3516135E+04  0.7818609E-02  0.8109977E-01
       -2   -1    0    0    0  501  0.00000000000E+00  0.00000000000E+00  0.14431484517E+04  0.14431484517E+04  0.25500000920E-02 0.  1.
        2   -1    0    0  501    0  0.00000000000E+00  0.00000000000E+00 -0.21417067464E+04  0.21417067464E+04  0.25500000920E-02 0. -1.
    10030    2    1    2    0    0  0.00000000000E+00  0.00000000000E+00 -0.69855829466E+03  0.35848551981E+04  0.35161346818E+04 0.  0.
        1    1    3    3  502    0 -0.11215852223E+04  0.54377084352E+03 -0.16133334844E+04  0.20387459559E+04  0.50400001928E-02 0. -1.
       -1    1    3    3    0  502  0.11215852223E+04 -0.54377084352E+03  0.91477518972E+03  0.15461092422E+04  0.50400001928E-02 0.  1.
</event>
<event>
 5   0  0.5740827E-07  0.3506749E+04  0.7818609E-02  0.8112192E-01
       -2   -1    0    0    0  501  0.00000000000E+00  0.00000000000E+00  0.15885577957E+04  0.15885577957E+04  0.25500000920E-02 0. -1.
        2   -1    0    0  501    0  0.00000000000E+00  0.00000000000E+00 -0.19352912594E+04  0.19352912594E+04  0.25500000920E-02 0.  1.
    10030    2    1    2    0    0  0.00000000000E+00  0.00000000000E+00 -0.34673346372E+03  0.35238490551E+04  0.35067489314E+04 0.  0.
        2    1    3    3  502    0  0.16458180646E+04  0.58068020041E+03 -0.34275747156E+03  0.17785919378E+04  0.25500000920E-02 0.  1.
       -2    1    3    3    0  502 -0.16458180646E+04 -0.58068020041E+03 -0.39759921648E+01  0.17452571173E+04  0.25500000920E-02 0. -1.
</event>
<event>
 5   0  0.5573334E-07  0.3512127E+04  0.7818609E-02  0.8110922E-01
       -2   -1    0    0    0  501  0.00000000000E+00  0.00000000000E+00  0.18070237906E+04  0.18070237906E+04  0.25500000920E-02 0. -1.
        2   -1    0    0  501    0  0.00000000000E+00  0.00000000000E+00 -0.17065401787E+04  0.17065401787E+04  0.25500000920E-02 0.  1.
    10030    2    1    2    0    0  0.00000000000E+00  0.00000000000E+00  0.10048361198E+03  0.35135639693E+04  0.35121268215E+04 0.  0.
        4    1    3    3  502    0  0.90520108915E+03 -0.91073234954E+03  0.12486195613E+04  0.17910541159E+04  0.12699999809E+01 0. -1.
       -4    1    3    3    0  502 -0.90520108915E+03  0.91073234954E+03 -0.11481359493E+04  0.17225098534E+04  0.12699999809E+01 0.  1.
</event>
<event>
 5   0  0.5554745E-07  0.3513274E+04  0.7818609E-02  0.8110651E-01
       -2   -1    0    0    0  501  0.00000000000E+00  0.00000000000E+00  0.18507615425E+04  0.18507615425E+04  0.25500000920E-02 0.  1.
        2   -1    0    0  501    0  0.00000000000E+00  0.00000000000E+00 -0.16672994839E+04  0.16672994839E+04  0.25500000920E-02 0. -1.
    10030    2    1    2    0    0  0.00000000000E+00  0.00000000000E+00  0.18346205860E+03  0.35180610264E+04  0.35132741223E+04 0.  0.
        5    1    3    3  502    0  0.86820287733E+03 -0.15472768988E+03 -0.14295607078E+04  0.16796972351E+04  0.46999998093E+01 0. -1.
       -5    1    3    3    0  502 -0.86820287733E+03  0.15472768988E+03  0.16130227664E+04  0.18383637913E+04  0.46999998093E+01 0.  1.
</event>
<event>
 5   0  0.5573334E-07  0.3513669E+04  0.7818609E-02  0.8110558E-01
        2   -1    0    0  501    0  0.00000000000E+00  0.00000000000E+00  0.16332335518E+04  0.16332335518E+04  0.25500000920E-02 0. -1.
       -2   -1    0    0    0  501  0.00000000000E+00  0.00000000000E+00 -0.18897889818E+04  0.18897889818E+04  0.25500000920E-02 0.  1.
    10030    2    1    2    0    0  0.00000000000E+00  0.00000000000E+00 -0.25655542997E+03  0.35230225336E+04  0.35136686076E+04 0.  0.
        4    1    3    3  502    0  0.86449740162E+03  0.99167751394E+03 -0.12957162792E+04  0.18465271019E+04  0.12699999809E+01 0.  1.
       -4    1    3    3    0  502 -0.86449740162E+03 -0.99167751394E+03  0.10391608492E+04  0.16764954317E+04  0.12699999809E+01 0. -1.
</event>
<event>
 5   0  0.5707187E-07  0.3489350E+04  0.7818609E-02  0.8116319E-01
       -2   -1    0    0    0  501  0.00000000000E+00  0.00000000000E+00  0.13964694727E+04  0.13964694727E+04  0.25500000920E-02 0. -1.
        2   -1    0    0  501    0  0.00000000000E+00  0.00000000000E+00 -0.21797042513E+04  0.21797042513E+04  0.25500000920E-02 0.  1.
    10030    2    1    2    0    0  0.00000000000E+00  0.00000000000E+00 -0.78323477866E+03  0.35761737240E+04  0.34893497655E+04 0.  0.
        1    1    3    3  502    0 -0.15404726295E+04 -0.81903648114E+03 -0.39542008333E+03  0.17889197081E+04  0.50400001928E-02 0.  1.
       -1    1    3    3    0  502  0.15404726295E+04  0.81903648114E+03 -0.38781469533E+03  0.17872540160E+04  0.50400001928E-02 0. -1.
</event>
<event>
 5   0  0.1933647E-07  0.3471250E+04  0.7818609E-02  0.8120637E-01
       -1   -1    0    0    0  501  0.00000000000E+00  0.00000000000E+00  0.98759375295E+03  0.98759375296E+03  0.50400001928E-02 0.  1.
        1   -1    0    0  501    0  0.00000000000E+00  0.00000000000E+00 -0.30502353927E+04  0.30502353927E+04  0.50400001928E-02 0. -1.
    10030    2    1    2    0    0  0.00000000000E+00  0.00000000000E+00 -0.20626416397E+04  0.40378291457E+04  0.34712495842E+04 0.  0.
        4    1    3    3  502    0  0.39727794748E+03 -0.14397662954E+04 -0.29159807660E+01  0.14935751969E+04  0.12699999809E+01 0.  1.
       -4    1    3    3    0  502 -0.39727794748E+03  0.14397662954E+04 -0.20597256590E+04  0.25442539488E+04  0.12699999809E+01 0. -1.
</event>
<event>
 5   0  0.5740827E-07  0.3514844E+04  0.7818609E-02  0.8110281E-01
       -2   -1    0    0    0  501  0.00000000000E+00  0.00000000000E+00  0.26844692334E+04  0.26844692334E+04  0.25500000920E-02 0.  1.
        2   -1    0    0  501    0  0.00000000000E+00  0.00000000000E+00 -0.11505183981E+04  0.11505183981E+04  0.25500000920E-02 0. -1.
    10030    2    1    2    0    0  0.00000000000E+00  0.00000000000E+00  0.15339508353E+04  0.38349876315E+04  0.35148435198E+04 0.  0.
        2    1    3    3  502    0 -0.56976829807E+03 -0.11184727433E+04  0.21090143064E+04  0.24542938976E+04  0.25500000920E-02 0.  1.
       -2    1    3    3    0  502  0.56976829807E+03  0.11184727433E+04 -0.57506347111E+03  0.13806937339E+04  0.25500000920E-02 0. -1.
</event>
<event>
 5   0  0.5677193E-07  0.3507087E+04  0.7818609E-02  0.8112112E-01
       -2   -1    0    0    0  501  0.00000000000E+00  0.00000000000E+00  0.20619879999E+04  0.20619879999E+04  0.25500000920E-02 0. -1.
        2   -1    0    0  501    0  0.00000000000E+00  0.00000000000E+00 -0.14912380389E+04  0.14912380389E+04  0.25500000920E-02 0.  1.
    10030    2    1    2    0    0  0.00000000000E+00  0.00000000000E+00  0.57074996102E+03  0.35532260388E+04  0.35070870768E+04 0.  0.
        3    1    3    3  502    0 -0.10205636626E+04  0.32034242941E+03 -0.11224180124E+04  0.15504811080E+04  0.10100000352E+00 0.  1.
       -3    1    3    3    0  502  0.10205636626E+04 -0.32034242941E+03  0.16931679734E+04  0.20027449308E+04  0.10100000352E+00 0. -1.
</event>
<event>
 5   0  0.5554745E-07  0.3421985E+04  0.7818609E-02  0.8132531E-01
       -2   -1    0    0    0  501  0.00000000000E+00  0.00000000000E+00  0.15349410891E+04  0.15349410891E+04  0.25500000920E-02 0. -1.
        2   -1    0    0  501    0  0.00000000000E+00  0.00000000000E+00 -0.19072365476E+04  0.19072365476E+04  0.25500000920E-02 0.  1.
    10030    2    1    2    0    0  0.00000000000E+00  0.00000000000E+00 -0.37229545859E+03  0.34421776367E+04  0.34219852387E+04 0.  0.
        5    1    3    3  502    0  0.13599734729E+04  0.84437010967E+03  0.42155699159E+03  0.16553613250E+04  0.46999998093E+01 0. -1.
       -5    1    3    3    0  502 -0.13599734729E+04 -0.84437010967E+03 -0.79385245019E+03  0.17868163117E+04  0.46999998093E+01 0.  1.
</event>
<event>
 5   0  0.5707187E-07  0.3489644E+04  0.7818609E-02  0.8116248E-01
       -2   -1    0    0    0  501  0.00000000000E+00  0.00000000000E+00  0.17749386916E+04  0.17749386916E+04  0.25500000920E-02 0. -1.
        2   -1    0    0  501    0  0.00000000000E+00  0.00000000000E+00 -0.17152167106E+04  0.17152167106E+04  0.25500000920E-02 0.  1.
    10030    2    1    2    0    0  0.00000000000E+00  0.00000000000E+00  0.59721980976E+02  0.34901554022E+04  0.34896443969E+04 0.  0.
        1    1    3    3  502    0  0.75806110369E+03  0.10162885181E+04  0.12287464612E+04  0.17655924940E+04  0.50400001928E-02 0. -1.
       -1    1    3    3    0  502 -0.75806110369E+03 -0.10162885181E+04 -0.11690244802E+04  0.17245629082E+04  0.50400001928E-02 0.  1.
</event>
<event>
 5   0  0.1866421E-07  0.3070195E+04  0.7818609E-02  0.8223965E-01
        1   -1    0    0  501    0  0.00000000000E+00  0.00000000000E+00  0.18012527100E+04  0.18012527100E+04  0.50400001928E-02 0. -1.
       -1   -1    0    0    0  501  0.00000000000E+00  0.00000000000E+00 -0.13082698455E+04  0.13082698456E+04  0.50400001928E-02 0.  1.
    10030    2    1    2    0    0  0.00000000000E+00  0.00000000000E+00  0.49298286442E+03  0.31095225555E+04  0.30701951760E+04 0.  0.
        1    1    3    3  502    0 -0.11382009183E+03 -0.15293636310E+04  0.31530641405E+03  0.15656711864E+04  0.50400001928E-02 0.  1.
       -1    1    3    3    0  502  0.11382009183E+03  0.15293636310E+04  0.17767645037E+03  0.15438513692E+04  0.50400001928E-02 0. -1.
</event>
<event>
 5   0  0.5740827E-07  0.3478618E+04  0.7818609E-02  0.8118876E-01
       -2   -1    0    0    0  501  0.00000000000E+00  0.00000000000E+00  0.14541582440E+04  0.14541582440E+04  0.25500000920E-02 0.  1.
        2   -1    0    0  501    0  0.00000000000E+00  0.00000000000E+00 -0.20803755934E+04  0.20803755934E+04  0.25500000920E-02 0. -1.
    10030    2    1    2    0    0  0.00000000000E+00  0.00000000000E+00 -0.62621734944E+03  0.35345338374E+04  0.34786177253E+04 0.  0.
        2    1    3    3  502    0 -0.11349971513E+04 -0.12863481989E+04 -0.60457342011E+03  0.18189060566E+04  0.25500000920E-02 0. -1.
       -2    1    3    3    0  502  0.11349971513E+04  0.12863481989E+04 -0.21643929332E+02  0.17156277808E+04  0.25500000920E-02 0.  1.
</event>
<event>
 5   0  0.1908190E-07  0.3534614E+04  0.7818609E-02  0.8105636E-01
       -1   -1    0    0    0  501  0.00000000000E+00  0.00000000000E+00  0.12824287821E+04  0.12824287821E+04  0.50400001928E-02 0. -1.
        1   -1    0    0  501    0  0.00000000000E+00  0.00000000000E+00 -0.24355146328E+04  0.24355146328E+04  0.50400001928E-02 0.  1.
    10030    2    1    2    0    0  0.00000000000E+00  0.00000000000E+00 -0.11530858506E+04  0.37179434149E+04  0.35346140181E+04 0.  0.
        5    1    3    3  502    0  0.65991215504E+03  0.85928381837E+03  0.89212062140E+03  0.14034792574E+04  0.46999998093E+01 0. -1.
       -5    1    3    3    0  502 -0.65991215504E+03 -0.85928381837E+03 -0.20452064720E+04  0.23144641575E+04  0.46999998093E+01 0.  1.
</event>
<event>
 5   0  0.5554745E-07  0.3472653E+04  0.7818609E-02  0.8120302E-01
       -2   -1    0    0    0  501  0.00000000000E+00  0.00000000000E+00  0.12501824508E+04  0.12501824509E+04  0.25500000920E-02 0.  1.
        2   -1    0    0  501    0  0.00000000000E+00  0.00000000000E+00 -0.24115113577E+04  0.24115113577E+04  0.25500000920E-02 0. -1.
    10030    2    1    2    0    0  0.00000000000E+00  0.00000000000E+00 -0.11613289069E+04  0.36616938086E+04  0.34726526918E+04 0.  0.
        5    1    3    3  502    0 -0.47024215840E+03 -0.32635792464E+03  0.11478309887E+04  0.12826438520E+04  0.46999998093E+01 0.  1.
       -5    1    3    3    0  502  0.47024215840E+03  0.32635792464E+03 -0.23091598956E+04  0.23790499566E+04  0.46999998093E+01 0. -1.
</event>
<event>
 5   0  0.1933647E-07  0.3494113E+04  0.7818609E-02  0.8115187E-01
        1   -1    0    0  501    0  0.00000000000E+00  0.00000000000E+00  0.16901159188E+04  0.16901159188E+04  0.50400001928E-02 0.  1.
       -1   -1    0    0    0  501  0.00000000000E+00  0.00000000000E+00 -0.18059153651E+04  0.18059153651E+04  0.50400001928E-02 0. -1.
    10030    2    1    2    0    0  0.00000000000E+00  0.00000000000E+00 -0.11579944631E+03  0.34960312839E+04  0.34941129384E+04 0.  0.
        4    1    3    3  502    0  0.52939530212E+01 -0.40294026591E+03  0.16429794104E+04  0.16916772268E+04  0.12699999809E+01 0.  1.
       -4    1    3    3    0  502 -0.52939530212E+01  0.40294026591E+03 -0.17587788567E+04  0.18043540571E+04  0.12699999809E+01 0. -1.
</event>
<event>
 5   0  0.5573334E-07  0.3501761E+04  0.7818609E-02  0.8113373E-01
        2   -1    0    0  501    0  0.00000000000E+00  0.00000000000E+00  0.16494958057E+04  0.16494958057E+04  0.25500000920E-02 0. -1.
       -2   -1    0    0    0  501  0.00000000000E+00  0.00000000000E+00 -0.18584970762E+04  0.18584970762E+04  0.25500000920E-02 0.  1.
    10030    2    1    2    0    0  0.00000000000E+00  0.00000000000E+00 -0.20900127055E+03  0.35079928819E+04  0.35017613466E+04 0.  0.
        4    1    3    3  502    0  0.15837001748E+04 -0.49235846255E+03  0.45779887358E+03  0.17204954289E+04  0.12699999809E+01 0. -1.
       -4    1    3    3    0  502 -0.15837001748E+04  0.49235846255E+03 -0.66680014413E+03  0.17874974530E+04  0.12699999809E+01 0.  1.
</event>
<event>
 5   0  0.1866421E-07  0.3474583E+04  0.7818609E-02  0.8119840E-01
        1   -1    0    0  501    0  0.00000000000E+00  0.00000000000E+00  0.18681292022E+04  0.18681292022E+04  0.50400001928E-02 0. -1.
       -1   -1    0    0    0  501  0.00000000000E+00  0.00000000000E+00 -0.16156172469E+04  0.16156172469E+04  0.50400001928E-02 0.  1.
    10030    2    1    2    0    0  0.00000000000E+00  0.00000000000E+00  0.25251195532E+03  0.34837464492E+04  0.34745830015E+04 0.  0.
        1    1    3    3  502    0 -0.10750243152E+04  0.30591418925E+02  0.14942474059E+04  0.18410291751E+04  0.50400001928E-02 0. -1.
       -1    1    3    3    0  502  0.10750243152E+04 -0.30591418925E+02 -0.12417354506E+04  0.16427172741E+04  0.50400001928E-02 0.  1.
</event>
<event>
 5   0  0.5707187E-07  0.3523683E+04  0.7818609E-02  0.8108200E-01
       -2   -1    0    0    0  501  0.00000000000E+00  0.00000000000E+00  0.94414453641E+03  0.94414453641E+03  0.25500000920E-02 0.  1.
        2   -1    0    0  501    0  0.00000000000E+00  0.00000000000E+00 -0.32877227260E+04  0.32877227260E+04  0.25500000920E-02 0. -1.
    10030    2    1    2    0    0  0.00000000000E+00  0.00000000000E+00 -0.23435781895E+04  0.42318672624E+04  0.35236829874E+04 0.  0.
        1    1    3    3  502    0  0.60041253432E+03  0.14685314042E+04 -0.20919343394E+04  0.26255035663E+04  0.50400001928E-02 0.  1.
       -1    1    3    3    0  502 -0.60041253432E+03 -0.14685314042E+04 -0.25164385015E+03  0.16063636960E+04  0.50400001928E-02 0. -1.
</event>
<event>
 5   0  0.1933647E-07  0.3451429E+04  0.7818609E-02  0.8125398E-01
       -1   -1    0    0    0  501  0.00000000000E+00  0.00000000000E+00  0.13823543650E+04  0.13823543650E+04  0.50400001928E-02 0. -1.
        1   -1    0    0  501    0  0.00000000000E+00  0.00000000000E+00 -0.21543605962E+04  0.21543605962E+04  0.50400001928E-02 0.  1.
    10030    2    1    2    0    0  0.00000000000E+00  0.00000000000E+00 -0.77200623126E+03  0.35367149612E+04  0.34514285587E+04 0.  0.
        4    1    3    3  502    0  0.82331193787E+03  0.39900525689E+02  0.11675923047E+04  0.14292333616E+04  0.12699999809E+01 0. -1.
       -4    1    3    3    0  502 -0.82331193787E+03 -0.39900525689E+02 -0.19395985360E+04  0.21074815996E+04  0.12699999809E+01 0.  1.
</event>
<event>
 5   0  0.5677193E-07  0.3523784E+04  0.7818609E-02  0.8108176E-01
        2   -1    0    0  501    0  0.00000000000E+00  0.00000000000E+00  0.26918277595E+04  0.26918277595E+04  0.25500000920E-02 0. -1.
       -2   -1    0    0    0  501  0.00000000000E+00  0.00000000000E+00 -0.11532179639E+04  0.11532179639E+04  0.25500000920E-02 0.  1.
    10030    2    1    2    0    0  0.00000000000E+00  0.00000000000E+00  0.15386097956E+04  0.38450457235E+04  0.35237844021E+04 0.  0.
        3    1    3    3  502    0  0.22990939236E+03  0.24680739915E+02  0.26751991934E+04  0.26851737750E+04  0.10100000352E+00 0. -1.
       -3    1    3    3    0  502 -0.22990939236E+03 -0.24680739915E+02 -0.11365893977E+04  0.11598719485E+04  0.10100000352E+00 0.  1.
</event>
<event>
 5   0  0.1873457E-07  0.3278260E+04  0.7818609E-02  0.8168449E-01
        1   -1    0    0  501    0  0.00000000000E+00  0.00000000000E+00  0.11031971600E+04  0.11031971600E+04  0.50400001928E-02 0.  1.
       -1   -1    0    0    0  501  0.00000000000E+00  0.00000000000E+00 -0.24354191979E+04  0.24354191979E+04  0.50400001928E-02 0. -1.
    10030    2    1    2    0    0  0.00000000000E+00  0.00000000000E+00 -0.13322220379E+04  0.35386163579E+04  0.32782602353E+04 0.  0.
        3    1    3    3  502    0  0.97928870009E+03 -0.58482520369E+03 -0.19367667518E+04  0.22476859964E+04  0.10100000352E+00 0. -1.
       -3    1    3    3    0  502 -0.97928870009E+03  0.58482520369E+03  0.60454471397E+03  0.12909303616E+04  0.10100000352E+00 0.  1.
</event>
<event>
 5   0  0.5707187E-07  0.3483753E+04  0.7818609E-02  0.8117651E-01
        2   -1    0    0  501    0  0.00000000000E+00  0.00000000000E+00  0.25534954285E+04  0.25534954285E+04  0.25500000920E-02 0. -1.
       -2   -1    0    0    0  501  0.00000000000E+00  0.00000000000E+00 -0.11882278484E+04  0.11882278484E+04  0.25500000920E-02 0.  1.
    10030    2    1    2    0    0  0.00000000000E+00  0.00000000000E+00  0.13652675801E+04  0.37417232769E+04  0.34837533660E+04 0.  0.
        1    1    3    3  502    0 -0.14436970958E+04 -0.23744003427E+03  0.16978777200E+04  0.22413004766E+04  0.50400001928E-02 0. -1.
       -1    1    3    3    0  502  0.14436970958E+04  0.23744003427E+03 -0.33261013993E+03  0.15004228003E+04  0.50400001928E-02 0.  1.
</event>
<event>
 5   0  0.1933647E-07  0.3506376E+04  0.7818609E-02  0.8112281E-01
       -1   -1    0    0    0  501  0.00000000000E+00  0.00000000000E+00  0.18181828121E+04  0.18181828121E+04  0.50400001928E-02 0.  1.
        1   -1    0    0  501    0  0.00000000000E+00  0.00000000000E+00 -0.16905164829E+04  0.16905164829E+04  0.50400001928E-02 0. -1.
    10030    2    1    2    0    0  0.00000000000E+00  0.00000000000E+00  0.12766632926E+03  0.35086992950E+04  0.35063759141E+04 0.  0.
        4    1    3    3  502    0  0.12905424618E+04 -0.27516656419E+03 -0.10912496490E+04  0.17123212004E+04  0.12699999809E+01 0. -1.
       -4    1    3    3    0  502 -0.12905424618E+04  0.27516656419E+03  0.12189159783E+04  0.17963780946E+04  0.12699999809E+01 0.  1.
</event>
<event>
 5   0  0.5677193E-07  0.3477991E+04  0.7818609E-02  0.8119026E-01
       -2   -1    0    0    0  501  0.00000000000E+00  0.00000000000E+00  0.11167336783E+04  0.11167336783E+04  0.25500000920E-02 0.  1.
        2   -1    0    0  501    0  0.00000000000E+00  0.00000000000E+00 -0.27079921472E+04  0.27079921472E+04  0.25500000920E-02 0. -1.
    10030    2    1    2    0    0  0.00000000000E+00  0.00000000000E+00 -0.15912584689E+04  0.38247258256E+04  0.34779913924E+04 0.  0.
        3    1    3    3  502    0 -0.80430189232E+03  0.39849331503E+03 -0.24335484361E+04  0.25938111838E+04  0.10100000352E+00 0. -1.
       -3    1    3    3    0  502  0.80430189232E+03 -0.39849331503E+03  0.84228996726E+03  0.12309146417E+04  0.10100000352E+00 0.  1.
</event>
<event>
 5   0  0.1933647E-07  0.3513829E+04  0.7818609E-02  0.8110520E-01
       -1   -1    0    0    0  501  0.00000000000E+00  0.00000000000E+00  0.20021032766E+04  0.20021032766E+04  0.50400001928E-02 0.  1.
        1   -1    0    0  501    0  0.00000000000E+00  0.00000000000E+00 -0.15417531148E+04  0.15417531149E+04  0.50400001928E-02 0. -1.
    10030    2    1    2    0    0  0.00000000000E+00  0.00000000000E+00  0.46035016178E+03  0.35438563915E+04  0.35138292292E+04 0.  0.
        4    1    3    3  502    0  0.17351366348E+04  0.97652666944E+02  0.49027846734E+03  0.18057158617E+04  0.12699999809E+01 0.  1.
       -4    1    3    3    0  502 -0.17351366348E+04 -0.97652666944E+02 -0.29928305559E+02  0.17381405298E+04  0.12699999809E+01 0. -1.
</event>
<event>
 5   0  0.1823000E-07  0.3493852E+04  0.7818609E-02  0.8115249E-01
       -3   -1    0    0    0  501  0.00000000000E+00  0.00000000000E+00  0.20519354031E+04  0.20519354056E+04  0.10100000352E+00 0. -1.
        3   -1    0    0  501    0  0.00000000000E+00  0.00000000000E+00 -0.14872543440E+04  0.14872543475E+04  0.10100000352E+00 0.  1.
    10030    2    1    2    0    0  0.00000000000E+00  0.00000000000E+00  0.56468105911E+03  0.35391897531E+04  0.34938516582E+04 0.  0.
        5    1    3    3  502    0 -0.50262537003E+03 -0.74192496771E+03  0.18013470094E+04  0.20119537913E+04  0.46999998093E+01 0. -1.
       -5    1    3    3    0  502  0.50262537003E+03  0.74192496771E+03 -0.12366659503E+04  0.15272359617E+04  0.46999998093E+01 0.  1.
</event>
<event>
 5   0  0.1933647E-07  0.3484620E+04  0.7818609E-02  0.8117444E-01
        1   -1    0    0  501    0  0.00000000000E+00  0.00000000000E+00  0.10784919886E+04  0.10784919886E+04  0.50400001928E-02 0.  1.
       -1   -1    0    0    0  501  0.00000000000E+00  0.00000000000E+00 -0.28147124389E+04  0.28147124389E+04  0.50400001928E-02 0. -1.
    10030    2    1    2    0    0  0.00000000000E+00  0.00000000000E+00 -0.17362204503E+04  0.38932044275E+04  0.34846203900E+04 0.  0.
        4    1    3    3  502    0  0.68280177895E+03 -0.14539913734E+04 -0.16220155044E+04  0.22828151684E+04  0.12699999809E+01 0. -1.
       -4    1    3    3    0  502 -0.68280177895E+03  0.14539913734E+04 -0.11420494583E+03  0.16103892591E+04  0.12699999809E+01 0.  1.
</event>
<event>
 5   0  0.1908190E-07  0.3137458E+04  0.7818609E-02  0.8205533E-01
       -1   -1    0    0    0  501  0.00000000000E+00  0.00000000000E+00  0.10364529540E+04  0.10364529540E+04  0.50400001928E-02 0. -1.
        1   -1    0    0  501    0  0.00000000000E+00  0.00000000000E+00 -0.23743577492E+04  0.23743577492E+04  0.50400001928E-02 0.  1.
    10030    2    1    2    0    0  0.00000000000E+00  0.00000000000E+00 -0.13379047952E+04  0.34108107032E+04  0.31374576351E+04 0.  0.
        5    1    3    3  502    0  0.68429086683E+03  0.13492150333E+04 -0.21775881626E+03  0.15284227781E+04  0.46999998093E+01 0. -1.
       -5    1    3    3    0  502 -0.68429086683E+03 -0.13492150333E+04 -0.11201459790E+04  0.18823879251E+04  0.46999998093E+01 0.  1.
</event>
<event>
 5   0  0.5740827E-07  0.3469630E+04  0.7818609E-02  0.8121025E-01
       -2   -1    0    0    0  501  0.00000000000E+00  0.00000000000E+00  0.21031759882E+04  0.21031759882E+04  0.25500000920E-02 0. -1.
        2   -1    0    0  501    0  0.00000000000E+00  0.00000000000E+00 -0.14309704981E+04  0.14309704981E+04  0.25500000920E-02 0.  1.
    10030    2    1    2    0    0  0.00000000000E+00  0.00000000000E+00  0.67220549008E+03  0.35341464862E+04  0.34696298312E+04 0.  0.
        2    1    3    3  502    0 -0.11994034974E+04  0.11254534207E+04 -0.22585201587E+03  0.16601877258E+04  0.25500000920E-02 0.  1.
       -2    1    3    3    0  502  0.11994034974E+04 -0.11254534207E+04  0.89805750594E+03  0.18739587604E+04  0.25500000920E-02 0. -1.
</event>
<event>
 5   0  0.5573334E-07  0.3489410E+04  0.7818609E-02  0.8116304E-01
       -2   -1    0    0    0  501  0.00000000000E+00  0.00000000000E+00  0.29003762958E+04  0.29003762958E+04  0.25500000920E-02 0.  1.
        2   -1    0    0  501    0  0.00000000000E+00  0.00000000000E+00 -0.10495177229E+04  0.10495177229E+04  0.25500000920E-02 0. -1.
    10030    2    1    2    0    0  0.00000000000E+00  0.00000000000E+00  0.18508585729E+04  0.39498940187E+04  0.34894104519E+04 0.  0.
        4    1    3    3  502    0  0.10134314809E+04  0.11943981351E+04  0.17951773709E+04  0.23824973615E+04  0.12699999809E+01 0.  1.
       -4    1    3    3    0  502 -0.10134314809E+04 -0.11943981351E+04  0.55681202012E+02  0.15673966571E+04  0.12699999809E+01 0. -1.
</event>
<event>
 5   0  0.5554745E-07  0.3695999E+04  0.7818609E-02  0.8068849E-01
        2   -1    0    0  501    0  0.00000000000E+00  0.00000000000E+00  0.13982663527E+04  0.13982663527E+04  0.25500000920E-02 0. -1.
       -2   -1    0    0    0  501  0.00000000000E+00  0.00000000000E+00 -0.24423837254E+04  0.24423837254E+04  0.25500000920E-02 0.  1.
    10030    2    1    2    0    0  0.00000000000E+00  0.00000000000E+00 -0.10441173727E+04  0.38406500781E+04  0.36959994501E+04 0.  0.
        5    1    3    3  502    0  0.77938163122E+02 -0.18463231443E+04 -0.53231320466E+03  0.19231128277E+04  0.46999998093E+01 0. -1.
       -5    1    3    3    0  502 -0.77938163122E+02  0.18463231443E+04 -0.51180416800E+03  0.19175372504E+04  0.46999998093E+01 0.  1.
</event>
<event>
 5   0  0.5554745E-07  0.3507167E+04  0.7818609E-02  0.8112094E-01
        2   -1    0    0  501    0  0.00000000000E+00  0.00000000000E+00  0.20352858188E+04  0.20352858188E+04  0.25500000920E-02 0. -1.
       -2   -1    0    0    0  501  0.00000000000E+00  0.00000000000E+00 -0.15108712186E+04  0.15108712186E+04  0.25500000920E-02 0.  1.
    10030    2    1    2    0    0  0.00000000000E+00  0.00000000000E+00  0.52441460019E+03  0.35461570374E+04  0.35071668140E+04 0.  0.
        5    1    3    3  502    0 -0.70545158985E+03  0.12837359583E+04  0.12369750985E+04  0.19172296265E+04  0.46999998093E+01 0. -1.
       -5    1    3    3    0  502  0.70545158985E+03 -0.12837359583E+04 -0.71256049831E+03  0.16289274109E+04  0.46999998093E+01 0.  1.
</event>
<event>
 5   0  0.1933647E-07  0.3483044E+04  0.7818609E-02  0.8117820E-01
       -1   -1    0    0    0  501  0.00000000000E+00  0.00000000000E+00  0.17082845265E+04  0.17082845265E+04  0.50400001928E-02 0.  1.
        1   -1    0    0  501    0  0.00000000000E+00  0.00000000000E+00 -0.17754060195E+04  0.17754060195E+04  0.50400001928E-02 0. -1.
    10030    2    1    2    0    0  0.00000000000E+00  0.00000000000E+00 -0.67121493029E+02  0.34836905460E+04  0.34830438593E+04 0.  0.
        4    1    3    3  502    0 -0.17123895123E+04  0.31173927575E+03  0.25082900731E+02  0.17407153652E+04  0.12699999809E+01 0.  1.
       -4    1    3    3    0  502  0.17123895123E+04 -0.31173927575E+03 -0.92204393760E+02  0.17429751808E+04  0.12699999809E+01 0. -1.
</event>
<event>
 5   0  0.1866421E-07  0.3508688E+04  0.7818609E-02  0.8111734E-01
        1   -1    0    0  501    0  0.00000000000E+00  0.00000000000E+00  0.20566874540E+04  0.20566874540E+04  0.50400001928E-02 0.  1.
       -1   -1    0    0    0  501  0.00000000000E+00  0.00000000000E+00 -0.14964467755E+04  0.14964467755E+04  0.50400001928E-02 0. -1.
    10030    2    1    2    0    0  0.00000000000E+00  0.00000000000E+00  0.56024067853E+03  0.35531342296E+04  0.35086882500E+04 0.  0.
        1    1    3    3  502    0  0.13088422743E+04  0.31439509831E+03  0.14194548515E+04  0.19562117606E+04  0.50400001928E-02 0.  1.
       -1    1    3    3    0  502 -0.13088422743E+04 -0.31439509831E+03 -0.85921417295E+03  0.15969224690E+04  0.50400001928E-02 0. -1.
</event>
<event>
 5   0  0.5677193E-07  0.3481941E+04  0.7818609E-02  0.8118083E-01
        2   -1    0    0  501    0  0.00000000000E+00  0.00000000000E+00  0.20036268329E+04  0.20036268329E+04  0.25500000920E-02 0.  1.
       -2   -1    0    0    0  501  0.00000000000E+00  0.00000000000E+00 -0.15127460298E+04  0.15127460298E+04  0.25500000920E-02 0. -1.
    10030    2    1    2    0    0  0.00000000000E+00  0.00000000000E+00  0.49088080311E+03  0.35163728626E+04  0.34819411463E+04 0.  0.
        3    1    3    3  502    0 -0.89518176566E+03  0.36297327487E+03 -0.12172878961E+04  0.15539915778E+04  0.10100000352E+00 0. -1.
       -3    1    3    3    0  502  0.89518176566E+03 -0.36297327487E+03  0.17081686992E+04  0.19623812848E+04  0.10100000352E+00 0.  1.
</event>
<event>
 5   0  0.5707187E-07  0.3501843E+04  0.7818609E-02  0.8113353E-01
       -2   -1    0    0    0  501  0.00000000000E+00  0.00000000000E+00  0.18171843318E+04  0.18171843318E+04  0.25500000920E-02 0.  1.
        2   -1    0    0  501    0  0.00000000000E+00  0.00000000000E+00 -0.16870746495E+04  0.16870746495E+04  0.25500000920E-02 0. -1.
    10030    2    1    2    0    0  0.00000000000E+00  0.00000000000E+00  0.13010968232E+03  0.35042589814E+04  0.35018427262E+04 0.  0.
        1    1    3    3  502    0  0.12368716882E+04 -0.70699215168E+03 -0.95350608367E+03  0.17143113274E+04  0.50400001928E-02 0.  1.
       -1    1    3    3    0  502 -0.12368716882E+04  0.70699215168E+03  0.10836157660E+04  0.17899476540E+04  0.50400001928E-02 0. -1.
</event>
<event>
 5   0  0.5554745E-07  0.3505662E+04  0.7818609E-02  0.8112449E-01
        2   -1    0    0  501    0  0.00000000000E+00  0.00000000000E+00  0.18650587013E+04  0.18650587013E+04  0.25500000920E-02 0.  1.
       -2   -1    0    0    0  501  0.00000000000E+00  0.00000000000E+00 -0.16473564219E+04  0.16473564219E+04  0.25500000920E-02 0. -1.
    10030    2    1    2    0    0  0.00000000000E+00  0.00000000000E+00  0.21770227937E+03  0.35124151233E+04  0.35056619511E+04 0.  0.
        5    1    3    3  502    0 -0.68815483199E+03  0.45357421646E+02 -0.15057058523E+04  0.16561360368E+04  0.46999998093E+01 0. -1.
       -5    1    3    3    0  502  0.68815483199E+03 -0.45357421646E+02  0.17234081317E+04  0.18562790865E+04  0.46999998093E+01 0.  1.
</event>
<event>
 5   0  0.1873457E-07  0.3522163E+04  0.7818609E-02  0.8108558E-01
        1   -1    0    0  501    0  0.00000000000E+00  0.00000000000E+00  0.19023943208E+04  0.19023943208E+04  0.50400001928E-02 0.  1.
       -1   -1    0    0    0  501  0.00000000000E+00  0.00000000000E+00 -0.16302657473E+04  0.16302657473E+04  0.50400001928E-02 0. -1.
    10030    2    1    2    0    0  0.00000000000E+00  0.00000000000E+00  0.27212857351E+03  0.35326600681E+04  0.35221631416E+04 0.  0.
        3    1    3    3  502    0  0.15158541482E+04  0.87382517184E+03  0.33672065482E+03  0.17817870353E+04  0.10100000352E+00 0.  1.
       -3    1    3    3    0  502 -0.15158541482E+04 -0.87382517184E+03 -0.64592081304E+02  0.17508730328E+04  0.10100000352E+00 0. -1.
</event>
<event>
 5   0  0.5740827E-07  0.3500990E+04  0.7818609E-02  0.8113555E-01
        2   -1    0    0  501    0  0.00000000000E+00  0.00000000000E+00  0.24354922955E+04  0.24354922955E+04  0.25500000920E-02 0.  1.
       -2   -1    0    0    0  501  0.00000000000E+00  0.00000000000E+00 -0.12581576047E+04  0.12581576047E+04  0.25500000920E-02 0. -1.
    10030    2    1    2    0    0  0.00000000000E+00  0.00000000000E+00  0.11773346909E+04  0.36936499002E+04  0.35009902329E+04 0.  0.
        2    1    3    3  502    0 -0.11352978775E+03 -0.13167259652E+04  0.17996915158E+04  0.22328335881E+04  0.25500000920E-02 0.  1.
       -2    1    3    3    0  502  0.11352978775E+03  0.13167259652E+04 -0.62235682496E+03  0.14608163121E+04  0.25500000920E-02 0. -1.
</event>
<event>
 5   0  0.1866421E-07  0.3478603E+04  0.7818609E-02  0.8118880E-01
       -1   -1    0    0    0  501  0.00000000000E+00  0.00000000000E+00  0.18312972304E+04  0.18312972304E+04  0.50400001928E-02 0. -1.
        1   -1    0    0  501    0  0.00000000000E+00  0.00000000000E+00 -0.16519270129E+04  0.16519270129E+04  0.50400001928E-02 0.  1.
    10030    2    1    2    0    0  0.00000000000E+00  0.00000000000E+00  0.17937021749E+03  0.34832242434E+04  0.34786028021E+04 0.  0.
        1    1    3    3  502    0  0.54252829807E+03  0.16106333887E+04 -0.28052555992E+03  0.17225479548E+04  0.50400001928E-02 0. -1.
       -1    1    3    3    0  502 -0.54252829807E+03 -0.16106333887E+04  0.45989577741E+03  0.17606762885E+04  0.50400001928E-02 0.  1.
</event>
<event>
 5   0  0.5677193E-07  0.3506638E+04  0.7818609E-02  0.8112219E-01
        2   -1    0    0  501    0  0.00000000000E+00  0.00000000000E+00  0.14454291236E+04  0.14454291237E+04  0.25500000920E-02 0. -1.
       -2   -1    0    0    0  501  0.00000000000E+00  0.00000000000E+00 -0.21267928770E+04  0.21267928771E+04  0.25500000920E-02 0.  1.
    10030    2    1    2    0    0  0.00000000000E+00  0.00000000000E+00 -0.68136375340E+03  0.35722220007E+04  0.35066384841E+04 0.  0.
        3    1    3    3  502    0  0.37521227679E+03 -0.20639188425E+03 -0.20727000709E+04  0.21164752435E+04  0.10100000352E+00 0.  1.
       -3    1    3    3    0  502 -0.37521227679E+03  0.20639188425E+03  0.13913363175E+04  0.14557467572E+04  0.10100000352E+00 0. -1.
</event>
<event>
 5   0  0.5740827E-07  0.3536753E+04  0.7818609E-02  0.8105135E-01
       -2   -1    0    0    0  501  0.00000000000E+00  0.00000000000E+00  0.13805051262E+04  0.13805051262E+04  0.25500000920E-02 0.  1.
        2   -1    0    0  501    0  0.00000000000E+00  0.00000000000E+00 -0.22652250761E+04  0.22652250761E+04  0.25500000920E-02 0. -1.
    10030    2    1    2    0    0  0.00000000000E+00  0.00000000000E+00 -0.88471994993E+03  0.36457302023E+04  0.35367526515E+04 0.  0.
        2    1    3    3  502    0  0.29154489133E+03  0.15557142487E+04 -0.12552718399E+04  0.20201367873E+04  0.25500000920E-02 0. -1.
       -2    1    3    3    0  502 -0.29154489133E+03 -0.15557142487E+04  0.37055189002E+03  0.16255934149E+04  0.25500000920E-02 0.  1.
</event>
<event>
 5   0  0.1866421E-07  0.3523630E+04  0.7818609E-02  0.8108213E-01
       -1   -1    0    0    0  501  0.00000000000E+00  0.00000000000E+00  0.12398808529E+04  0.12398808529E+04  0.50400001928E-02 0. -1.
        1   -1    0    0  501    0  0.00000000000E+00  0.00000000000E+00 -0.25034604544E+04  0.25034604544E+04  0.50400001928E-02 0.  1.
    10030    2    1    2    0    0  0.00000000000E+00  0.00000000000E+00 -0.12635796015E+04  0.37433413074E+04  0.35236303345E+04 0.  0.
        1    1    3    3  502    0 -0.24648051556E+03 -0.17122843011E+04 -0.98624437390E+03  0.19913181909E+04  0.50400001928E-02 0.  1.
       -1    1    3    3    0  502  0.24648051556E+03  0.17122843011E+04 -0.27733522758E+03  0.17520231165E+04  0.50400001928E-02 0. -1.
</event>
<event>
 5   0  0.5554745E-07  0.3468538E+04  0.7818609E-02  0.8121287E-01
        2   -1    0    0  501    0  0.00000000000E+00  0.00000000000E+00  0.18759087301E+04  0.18759087301E+04  0.25500000920E-02 0.  1.
       -2   -1    0    0    0  501  0.00000000000E+00  0.00000000000E+00 -0.16033241022E+04  0.16033241022E+04  0.25500000920E-02 0. -1.
    10030    2    1    2    0    0  0.00000000000E+00  0.00000000000E+00  0.27258462783E+03  0.34792328323E+04  0.34685384130E+04 0.  0.
        5    1    3    3  502    0 -0.65511056956E+03  0.92263154381E+03 -0.11820082263E+04  0.16363325949E+04  0.46999998093E+01 0. -1.
       -5    1    3    3    0  502  0.65511056956E+03 -0.92263154381E+03  0.14545928541E+04  0.18429002375E+04  0.46999998093E+01 0.  1.
</event>
<event>
 5   0  0.5740827E-07  0.3513563E+04  0.7818609E-02  0.8110583E-01
       -2   -1    0    0    0  501  0.00000000000E+00  0.00000000000E+00  0.14420368777E+04  0.14420368777E+04  0.25500000920E-02 0.  1.
        2   -1    0    0  501    0  0.00000000000E+00  0.00000000000E+00 -0.21402230934E+04  0.21402230934E+04  0.25500000920E-02 0. -1.
    10030    2    1    2    0    0  0.00000000000E+00  0.00000000000E+00 -0.69818621573E+03  0.35822599711E+04  0.35135626519E+04 0.  0.
        2    1    3    3  502    0 -0.11164608928E+04 -0.27680677226E+03  0.10047144969E+04  0.15272714672E+04  0.25500000920E-02 0.  1.
       -2    1    3    3    0  502  0.11164608928E+04  0.27680677226E+03 -0.17029007126E+04  0.20549885039E+04  0.25500000920E-02 0. -1.
</event>
<event>
 5   0  0.5554745E-07  0.3477459E+04  0.7818609E-02  0.8119153E-01
        2   -1    0    0  501    0  0.00000000000E+00  0.00000000000E+00  0.21575890957E+04  0.21575890957E+04  0.25500000920E-02 0.  1.
       -2   -1    0    0    0  501  0.00000000000E+00  0.00000000000E+00 -0.14011845399E+04  0.14011845399E+04  0.25500000920E-02 0. -1.
    10030    2    1    2    0    0  0.00000000000E+00  0.00000000000E+00  0.75640455575E+03  0.35587736356E+04  0.34774591209E+04 0.  0.
        5    1    3    3  502    0  0.38343872166E+03 -0.16199547441E+04 -0.13540949937E+03  0.16702204791E+04  0.46999998093E+01 0.  1.
       -5    1    3    3    0  502 -0.38343872166E+03  0.16199547441E+04  0.89181405512E+03  0.18885531566E+04  0.46999998093E+01 0. -1.
</event>
<event>
 5   0  0.1866421E-07  0.3426452E+04  0.7818609E-02  0.8131445E-01
       -1   -1    0    0    0  501  0.00000000000E+00  0.00000000000E+00  0.11091591338E+04  0.11091591338E+04  0.50400001928E-02 0. -1.
        1   -1    0    0  501    0  0.00000000000E+00  0.00000000000E+00 -0.26462773159E+04  0.26462773159E+04  0.50400001928E-02 0.  1.
    10030    2    1    2    0    0  0.00000000000E+00  0.00000000000E+00 -0.15371181821E+04  0.37554364497E+04  0.34264516080E+04 0.  0.
        1    1    3    3  502    0 -0.11538367419E+04 -0.77918098702E+03  0.32563351905E+03  0.14298599324E+04  0.50400001928E-02 0. -1.
       -1    1    3    3    0  502  0.11538367419E+04  0.77918098702E+03 -0.18627517012E+04  0.23255765173E+04  0.50400001928E-02 0.  1.
</event>
<event>
 5   0  0.5573334E-07  0.3555926E+04  0.7818609E-02  0.8100663E-01
        2   -1    0    0  501    0  0.00000000000E+00  0.00000000000E+00  0.16994720342E+04  0.16994720342E+04  0.25500000920E-02 0.  1.
       -2   -1    0    0    0  501  0.00000000000E+00  0.00000000000E+00 -0.18600793773E+04  0.18600793773E+04  0.25500000920E-02 0. -1.
    10030    2    1    2    0    0  0.00000000000E+00  0.00000000000E+00 -0.16060734307E+03  0.35595514115E+04  0.35559262552E+04 0.  0.
        4    1    3    3  502    0  0.38772411118E+03  0.17180599904E+04  0.16303086752E+03  0.17687964252E+04  0.12699999809E+01 0. -1.
       -4    1    3    3    0  502 -0.38772411118E+03 -0.17180599904E+04 -0.32363821058E+03  0.17907549864E+04  0.12699999809E+01 0.  1.
</event>
<event>
 5   0  0.5677193E-07  0.3378851E+04  0.7818609E-02  0.8143117E-01
        2   -1    0    0  501    0  0.00000000000E+00  0.00000000000E+00  0.22011807048E+04  0.22011807048E+04  0.25500000920E-02 0. -1.
       -2   -1    0    0    0  501  0.00000000000E+00  0.00000000000E+00 -0.12966485411E+04  0.12966485411E+04  0.25500000920E-02 0.  1.
    10030    2    1    2    0    0  0.00000000000E+00  0.00000000000E+00  0.90453216369E+03  0.34978292459E+04  0.33788505440E+04 0.  0.
        3    1    3    3  502    0  0.41421623189E+03 -0.76530633947E+02  0.21459468576E+04  0.21868973342E+04  0.10100000352E+00 0. -1.
       -3    1    3    3    0  502 -0.41421623189E+03  0.76530633947E+02 -0.12414146939E+04  0.13109319117E+04  0.10100000352E+00 0.  1.
</event>
<event>
 5   0  0.5554745E-07  0.3505820E+04  0.7818609E-02  0.8112412E-01
       -2   -1    0    0    0  501  0.00000000000E+00  0.00000000000E+00  0.27103340366E+04  0.27103340366E+04  0.25500000920E-02 0. -1.
        2   -1    0    0  501    0  0.00000000000E+00  0.00000000000E+00 -0.11336953765E+04  0.11336953765E+04  0.25500000920E-02 0.  1.
    10030    2    1    2    0    0  0.00000000000E+00  0.00000000000E+00  0.15766386601E+04  0.38440294131E+04  0.35058198277E+04 0.  0.
        5    1    3    3  502    0 -0.19301392424E+03  0.15254722523E+04 -0.13451001900E+03  0.15435138492E+04  0.46999998093E+01 0. -1.
       -5    1    3    3    0  502  0.19301392424E+03 -0.15254722523E+04  0.17111486791E+04  0.23005155638E+04  0.46999998093E+01 0.  1.
</event>
<event>
 5   0  0.5677193E-07  0.3494781E+04  0.7818609E-02  0.8115028E-01
       -2   -1    0    0    0  501  0.00000000000E+00  0.00000000000E+00  0.11889072761E+04  0.11889072761E+04  0.25500000920E-02 0. -1.
        2   -1    0    0  501    0  0.00000000000E+00  0.00000000000E+00 -0.25682184228E+04  0.25682184228E+04  0.25500000920E-02 0.  1.
    10030    2    1    2    0    0  0.00000000000E+00  0.00000000000E+00 -0.13793111466E+04  0.37571256989E+04  0.34947810058E+04 0.  0.
        3    1    3    3  502    0 -0.74894404680E+03 -0.41559559756E+03 -0.23270567671E+04  0.24796834664E+04  0.10100000352E+00 0.  1.
       -3    1    3    3    0  502  0.74894404680E+03  0.41559559756E+03  0.94774562051E+03  0.12774422325E+04  0.10100000352E+00 0. -1.
</event>
<event>
 5   0  0.1873457E-07  0.3505361E+04  0.7818609E-02  0.8112521E-01
       -1   -1    0    0    0  501  0.00000000000E+00  0.00000000000E+00  0.35970403265E+04  0.35970403265E+04  0.50400001928E-02 0.  1.
        1   -1    0    0  501    0  0.00000000000E+00  0.00000000000E+00 -0.85400464059E+03  0.85400464061E+03  0.50400001928E-02 0. -1.
    10030    2    1    2    0    0  0.00000000000E+00  0.00000000000E+00  0.27430356859E+04  0.44510449671E+04  0.35053611119E+04 0.  0.
        3    1    3    3  502    0 -0.14781648850E+04  0.43600456584E+03  0.31155947403E+03  0.15723042723E+04  0.10100000352E+00 0. -1.
       -3    1    3    3    0  502  0.14781648850E+04 -0.43600456584E+03  0.24314762119E+04  0.28787406948E+04  0.10100000352E+00 0.  1.
</event>
<event>
 5   0  0.1873457E-07  0.3501922E+04  0.7818609E-02  0.8113335E-01
       -1   -1    0    0    0  501  0.00000000000E+00  0.00000000000E+00  0.11683238409E+04  0.11683238409E+04  0.50400001928E-02 0. -1.
        1   -1    0    0  501    0  0.00000000000E+00  0.00000000000E+00 -0.26241566311E+04  0.26241566311E+04  0.50400001928E-02 0.  1.
    10030    2    1    2    0    0  0.00000000000E+00  0.00000000000E+00 -0.14558327902E+04  0.37924804719E+04  0.35019221889E+04 0.  0.
        3    1    3    3  502    0 -0.49128056240E+03  0.41441458489E+03  0.10359535242E+04  0.12191372989E+04  0.10100000352E+00 0. -1.
       -3    1    3    3    0  502  0.49128056240E+03 -0.41441458489E+03 -0.24917863144E+04  0.25733431730E+04  0.10100000352E+00 0.  1.
</event>
<event>
 5   0  0.5573334E-07  0.3496450E+04  0.7818609E-02  0.8114632E-01
       -2   -1    0    0    0  501  0.00000000000E+00  0.00000000000E+00  0.25384625412E+04  0.25384625412E+04  0.25500000920E-02 0. -1.
        2   -1    0    0  501    0  0.00000000000E+00  0.00000000000E+00 -0.12039929411E+04  0.12039929411E+04  0.25500000920E-02 0.  1.
    10030    2    1    2    0    0  0.00000000000E+00  0.00000000000E+00  0.13344696001E+04  0.37424554823E+04  0.34964501888E+04 0.  0.
        4    1    3    3  502    0  0.70473868686E+03  0.42604311815E+03  0.23178512966E+04  0.24597978782E+04  0.12699999809E+01 0. -1.
       -4    1    3    3    0  502 -0.70473868686E+03 -0.42604311815E+03 -0.98338169655E+03  0.12826576041E+04  0.12699999809E+01 0.  1.
</event>
<event>
 5   0  0.1908190E-07  0.3434980E+04  0.7818609E-02  0.8129374E-01
       -1   -1    0    0    0  501  0.00000000000E+00  0.00000000000E+00  0.21998769195E+04  0.21998769196E+04  0.50400001928E-02 0. -1.
        1   -1    0    0  501    0  0.00000000000E+00  0.00000000000E+00 -0.13408802851E+04  0.13408802851E+04  0.50400001928E-02 0.  1.
    10030    2    1    2    0    0  0.00000000000E+00  0.00000000000E+00  0.85899663444E+03  0.35407572047E+04  0.34349798201E+04 0.  0.
        5    1    3    3  502    0 -0.24520018282E+03 -0.15347980169E+04  0.11827694000E+04  0.19531240682E+04  0.46999998093E+01 0. -1.
       -5    1    3    3    0  502  0.24520018282E+03  0.15347980169E+04 -0.32377276553E+03  0.15876331365E+04  0.46999998093E+01 0.  1.
</event>
<event>
 5   0  0.1908190E-07  0.3460790E+04  0.7818609E-02  0.8123146E-01
       -1   -1    0    0    0  501  0.00000000000E+00  0.00000000000E+00  0.21506655867E+04  0.21506655868E+04  0.50400001928E-02 0.  1.
        1   -1    0    0  501    0  0.00000000000E+00  0.00000000000E+00 -0.13922513993E+04  0.13922513993E+04  0.50400001928E-02 0. -1.
    10030    2    1    2    0    0  0.00000000000E+00  0.00000000000E+00  0.75841418744E+03  0.35429169861E+04  0.34607901830E+04 0.  0.
        5    1    3    3  502    0  0.23090946288E+03 -0.83787368576E+03  0.19110083902E+04  0.20993633918E+04  0.46999998093E+01 0.  1.
       -5    1    3    3    0  502 -0.23090946288E+03  0.83787368576E+03 -0.11525942028E+04  0.14435535943E+04  0.46999998093E+01 0. -1.
</event>
<event>
 5   0  0.1873457E-07  0.3492374E+04  0.7818609E-02  0.8115600E-01
       -1   -1    0    0    0  501  0.00000000000E+00  0.00000000000E+00  0.14552427530E+04  0.14552427530E+04  0.50400001928E-02 0.  1.
        1   -1    0    0  501    0  0.00000000000E+00  0.00000000000E+00 -0.20952988701E+04  0.20952988701E+04  0.50400001928E-02 0. -1.
    10030    2    1    2    0    0  0.00000000000E+00  0.00000000000E+00 -0.64005611702E+03  0.35505416231E+04  0.34923736891E+04 0.  0.
        3    1    3    3  502    0 -0.10376604080E+04  0.25013700152E+03 -0.17250230079E+04  0.20285492426E+04  0.10100000352E+00 0. -1.
       -3    1    3    3    0  502  0.10376604080E+04 -0.25013700152E+03  0.10849668908E+04  0.15219923805E+04  0.10100000352E+00 0.  1.
</event>
<event>
 5   0  0.5707187E-07  0.3479978E+04  0.7818609E-02  0.8118551E-01
       -2   -1    0    0    0  501  0.00000000000E+00  0.00000000000E+00  0.16695045988E+04  0.16695045988E+04  0.25500000920E-02 0. -1.
        2   -1    0    0  501    0  0.00000000000E+00  0.00000000000E+00 -0.18134496352E+04  0.18134496352E+04  0.25500000920E-02 0.  1.
    10030    2    1    2    0    0  0.00000000000E+00  0.00000000000E+00 -0.14394503648E+03  0.34829542340E+04  0.34799784515E+04 0.  0.
        1    1    3    3  502    0  0.58047860579E+03 -0.52597438912E+03  0.14830478114E+04  0.16772105654E+04  0.50400001928E-02 0. -1.
       -1    1    3    3    0  502 -0.58047860579E+03  0.52597438912E+03 -0.16269928478E+04  0.18057436686E+04  0.50400001928E-02 0.  1.
</event>
<event>
 5   0  0.1897049E-07  0.3723242E+04  0.7818609E-02  0.8062830E-01
        1   -1    0    0  501    0  0.00000000000E+00  0.00000000000E+00  0.12715164352E+04  0.12715164352E+04  0.50400001928E-02 0.  1.
       -1   -1    0    0    0  501  0.00000000000E+00  0.00000000000E+00 -0.27255908236E+04  0.27255908236E+04  0.50400001928E-02 0. -1.
    10030    2    1    2    0    0  0.00000000000E+00  0.00000000000E+00 -0.14540743884E+04  0.39971072588E+04  0.37232424191E+04 0.  0.
        2    1    3    3  502    0  0.22640251787E+02  0.99402054947E+03 -0.24166662030E+04  0.26132097065E+04  0.25500000920E-02 0. -1.
       -2    1    3    3    0  502 -0.22640251787E+02 -0.99402054947E+03  0.96259181458E+03  0.13838975523E+04  0.25500000920E-02 0.  1.
</event>
<event>
 5   0  0.1873457E-07  0.3516449E+04  0.7818609E-02  0.8109903E-01
        1   -1    0    0  501    0  0.00000000000E+00  0.00000000000E+00  0.18220656339E+04  0.18220656339E+04  0.50400001928E-02 0. -1.
       -1   -1    0    0    0  501  0.00000000000E+00  0.00000000000E+00 -0.16966201302E+04  0.16966201302E+04  0.50400001928E-02 0.  1.
    10030    2    1    2    0    0  0.00000000000E+00  0.00000000000E+00  0.12544550372E+03  0.35186857641E+04  0.35164489094E+04 0.  0.
        3    1    3    3  502    0  0.44482428723E+03  0.95852450240E+03  0.14688623016E+04  0.18094734978E+04  0.10100000352E+00 0. -1.
       -3    1    3    3    0  502 -0.44482428723E+03 -0.95852450240E+03 -0.13434167979E+04  0.17092122663E+04  0.10100000352E+00 0.  1.
</event>
<event>
 5   0  0.1897049E-07  0.3378548E+04  0.7818609E-02  0.8143191E-01
       -1   -1    0    0    0  501  0.00000000000E+00  0.00000000000E+00  0.14850809826E+04  0.14850809826E+04  0.50400001928E-02 0. -1.
        1   -1    0    0  501    0  0.00000000000E+00  0.00000000000E+00 -0.19215429756E+04  0.19215429756E+04  0.50400001928E-02 0.  1.
    10030    2    1    2    0    0  0.00000000000E+00  0.00000000000E+00 -0.43646199304E+03  0.34066239582E+04  0.33785481676E+04 0.  0.
        2    1    3    3  502    0 -0.26164336236E+03 -0.82926554220E+03  0.12420819307E+04  0.15162144014E+04  0.25500000920E-02 0. -1.
       -2    1    3    3    0  502  0.26164336236E+03  0.82926554220E+03 -0.16785439237E+04  0.18904095568E+04  0.25500000920E-02 0.  1.
</event>
<event>
 5   0  0.1873457E-07  0.3498157E+04  0.7818609E-02  0.8114227E-01
        1   -1    0    0  501    0  0.00000000000E+00  0.00000000000E+00  0.15460956564E+04  0.15460956564E+04  0.50400001928E-02 0. -1.
       -1   -1    0    0    0  501  0.00000000000E+00  0.00000000000E+00 -0.19787098730E+04  0.19787098730E+04  0.50400001928E-02 0.  1.
    10030    2    1    2    0    0  0.00000000000E+00  0.00000000000E+00 -0.43261421661E+03  0.35248055293E+04  0.34981565087E+04 0.  0.
        3    1    3    3  502    0  0.72851307876E+03  0.25144634033E+03 -0.17984015785E+04  0.19565798772E+04  0.10100000352E+00 0.  1.
       -3    1    3    3    0  502 -0.72851307876E+03 -0.25144634033E+03  0.13657873619E+04  0.15682256522E+04  0.10100000352E+00 0. -1.
</event>
<event>
 5   0  0.5554745E-07  0.3494877E+04  0.7818609E-02  0.8115005E-01
        2   -1    0    0  501    0  0.00000000000E+00  0.00000000000E+00  0.18058788801E+04  0.18058788801E+04  0.25500000920E-02 0.  1.
       -2   -1    0    0    0  501  0.00000000000E+00  0.00000000000E+00 -0.16908897736E+04  0.16908897736E+04  0.25500000920E-02 0. -1.
    10030    2    1    2    0    0  0.00000000000E+00  0.00000000000E+00  0.11498910648E+03  0.34967686536E+04  0.34948774689E+04 0.  0.
        5    1    3    3  502    0  0.12713531188E+04 -0.21547742701E+03  0.12374336741E+04  0.17871859058E+04  0.46999998093E+01 0.  1.
       -5    1    3    3    0  502 -0.12713531188E+04  0.21547742701E+03 -0.11224445676E+04  0.17095827478E+04  0.46999998093E+01 0. -1.
</event>
<event>
 5   0  0.5707187E-07  0.3485657E+04  0.7818609E-02  0.8117197E-01
       -2   -1    0    0    0  501  0.00000000000E+00  0.00000000000E+00  0.15029273150E+04  0.15029273150E+04  0.25500000920E-02 0.  1.
        2   -1    0    0  501    0  0.00000000000E+00  0.00000000000E+00 -0.20210234988E+04  0.20210234988E+04  0.25500000920E-02 0. -1.
    10030    2    1    2    0    0  0.00000000000E+00  0.00000000000E+00 -0.51809618387E+03  0.35239508138E+04  0.34856571378E+04 0.  0.
        1    1    3    3  502    0  0.70387327445E+03  0.15672127264E+04  0.37186533556E+02  0.17184225774E+04  0.50400001928E-02 0.  1.
       -1    1    3    3    0  502 -0.70387327445E+03 -0.15672127264E+04 -0.55528271742E+03  0.18055282364E+04  0.50400001928E-02 0. -1.
</event>
<event>
 5   0  0.1866421E-07  0.3487437E+04  0.7818609E-02  0.8116774E-01
        1   -1    0    0  501    0  0.00000000000E+00  0.00000000000E+00  0.10250349672E+04  0.10250349672E+04  0.50400001928E-02 0. -1.
       -1   -1    0    0    0  501  0.00000000000E+00  0.00000000000E+00 -0.29662925247E+04  0.29662925247E+04  0.50400001928E-02 0.  1.
    10030    2    1    2    0    0  0.00000000000E+00  0.00000000000E+00 -0.19412575575E+04  0.39913274920E+04  0.34874366293E+04 0.  0.
        1    1    3    3  502    0  0.50785485585E+03  0.13529314161E+04 -0.20874360333E+04  0.25388440607E+04  0.50400001928E-02 0.  1.
       -1    1    3    3    0  502 -0.50785485585E+03 -0.13529314161E+04  0.14617847580E+03  0.14524834313E+04  0.50400001928E-02 0. -1.
</event>
<event>
 5   0  0.5740827E-07  0.3558603E+04  0.7818609E-02  0.8100040E-01
        2   -1    0    0  501    0  0.00000000000E+00  0.00000000000E+00  0.18235203731E+04  0.18235203731E+04  0.25500000920E-02 0. -1.
       -2   -1    0    0    0  501  0.00000000000E+00  0.00000000000E+00 -0.17361552016E+04  0.17361552016E+04  0.25500000920E-02 0.  1.
    10030    2    1    2    0    0  0.00000000000E+00  0.00000000000E+00  0.87365171524E+02  0.35596755747E+04  0.35586033109E+04 0.  0.
        2    1    3    3  502    0  0.60143664051E+03  0.72282882898E+03  0.15546697031E+04  0.18169219671E+04  0.25500000920E-02 0. -1.
       -2    1    3    3    0  502 -0.60143664051E+03 -0.72282882898E+03 -0.14673045316E+04  0.17427536077E+04  0.25500000920E-02 0.  1.
</event>
<event>
 5   0  0.5554745E-07  0.3496527E+04  0.7818609E-02  0.8114613E-01
       -2   -1    0    0    0  501  0.00000000000E+00  0.00000000000E+00  0.15621200794E+04  0.15621200794E+04  0.25500000920E-02 0. -1.
        2   -1    0    0  501    0  0.00000000000E+00  0.00000000000E+00 -0.19565880610E+04  0.19565880610E+04  0.25500000920E-02 0.  1.
    10030    2    1    2    0    0  0.00000000000E+00  0.00000000000E+00 -0.39446798160E+03  0.35187081403E+04  0.34965271325E+04 0.  0.
        5    1    3    3  502    0  0.15884883299E+04 -0.72073864206E+03 -0.79685278422E+02  0.17461761647E+04  0.46999998093E+01 0. -1.
       -5    1    3    3    0  502 -0.15884883299E+04  0.72073864206E+03 -0.31478270318E+03  0.17725319757E+04  0.46999998093E+01 0.  1.
</event>
<event>
 5   0  0.1897049E-07  0.3482432E+04  0.7818609E-02  0.8117966E-01
        1   -1    0    0  501    0  0.00000000000E+00  0.00000000000E+00  0.22810162432E+04  0.22810162432E+04  0.50400001928E-02 0.  1.
       -1   -1    0    0    0  501  0.00000000000E+00  0.00000000000E+00 -0.13291593116E+04  0.13291593116E+04  0.50400001928E-02 0. -1.
    10030    2    1    2    0    0  0.00000000000E+00  0.00000000000E+00  0.95185693163E+03  0.36101755548E+04  0.34824324714E+04 0.  0.
        2    1    3    3  502    0  0.53243773300E+03  0.12576727165E+04 -0.64378585397E+03  0.15098645062E+04  0.25500000920E-02 0. -1.
       -2    1    3    3    0  502 -0.53243773300E+03 -0.12576727165E+04  0.15956427856E+04  0.21003110485E+04  0.25500000920E-02 0.  1.
</event>
<event>
 5   0  0.5740827E-07  0.3507706E+04  0.7818609E-02  0.8111966E-01
        2   -1    0    0  501    0  0.00000000000E+00  0.00000000000E+00  0.25622674230E+04  0.25622674230E+04  0.25500000920E-02 0.  1.
       -2   -1    0    0    0  501  0.00000000000E+00  0.00000000000E+00 -0.12004995246E+04  0.12004995246E+04  0.25500000920E-02 0. -1.
    10030    2    1    2    0    0  0.00000000000E+00  0.00000000000E+00  0.13617678984E+04  0.37627669476E+04  0.35077062722E+04 0.  0.
        2    1    3    3  502    0  0.53245856850E+02 -0.46115944354E+03 -0.11333985039E+04  0.12247837859E+04  0.25500000920E-02 0. -1.
       -2    1    3    3    0  502 -0.53245856850E+02  0.46115944354E+03  0.24951664023E+04  0.25379831617E+04  0.25500000920E-02 0.  1.
</event>
<event>
 5   0  0.5677193E-07  0.3480682E+04  0.7818609E-02  0.8118383E-01
       -2   -1    0    0    0  501  0.00000000000E+00  0.00000000000E+00  0.18997226682E+04  0.18997226682E+04  0.25500000920E-02 0. -1.
        2   -1    0    0  501    0  0.00000000000E+00  0.00000000000E+00 -0.15943307396E+04  0.15943307396E+04  0.25500000920E-02 0.  1.
    10030    2    1    2    0    0  0.00000000000E+00  0.00000000000E+00  0.30539192864E+03  0.34940534078E+04  0.34806816842E+04 0.  0.
        3    1    3    3  502    0  0.14336084265E+04 -0.48219553023E+03 -0.71144825386E+03  0.16714976153E+04  0.10100000352E+00 0.  1.
       -3    1    3    3    0  502 -0.14336084265E+04  0.48219553023E+03  0.10168401825E+04  0.18225557925E+04  0.10100000352E+00 0. -1.
</event>
<event>
 5   0  0.1823000E-07  0.3235732E+04  0.7818609E-02  0.8179444E-01
        3   -1    0    0  501    0  0.00000000000E+00  0.00000000000E+00  0.19744650567E+04  0.19744650593E+04  0.10100000352E+00 0.  1.
       -3   -1    0    0    0  501  0.00000000000E+00  0.00000000000E+00 -0.13256706432E+04  0.13256706471E+04  0.10100000352E+00 0. -1.
    10030    2    1    2    0    0  0.00000000000E+00  0.00000000000E+00  0.64879441346E+03  0.33001357063E+04  0.32357319866E+04 0.  0.
        5    1    3    3  502    0 -0.98314483131E+03 -0.16160931200E+03 -0.97564104812E+03  0.13944851644E+04  0.46999998093E+01 0. -1.
       -5    1    3    3    0  502  0.98314483131E+03  0.16160931200E+03  0.16244354616E+04  0.19056505419E+04  0.46999998093E+01 0.  1.
</event>
<event>
 5   0  0.1908190E-07  0.3500646E+04  0.7818609E-02  0.8113637E-01
        1   -1    0    0  501    0  0.00000000000E+00  0.00000000000E+00  0.16955690275E+04  0.16955690275E+04  0.50400001928E-02 0.  1.
       -1   -1    0    0    0  501  0.00000000000E+00  0.00000000000E+00 -0.18068454076E+04  0.18068454076E+04  0.50400001928E-02 0. -1.
    10030    2    1    2    0    0  0.00000000000E+00  0.00000000000E+00 -0.11127638014E+03  0.35024144351E+04  0.35006462893E+04 0.  0.
        5    1    3    3  502    0  0.15314653686E+04  0.80440596023E+03  0.21124341861E+03  0.17427280327E+04  0.46999998093E+01 0. -1.
       -5    1    3    3    0  502 -0.15314653686E+04 -0.80440596023E+03 -0.32251979875E+03  0.17596864024E+04  0.46999998093E+01 0.  1.
</event>
<event>
 5   0  0.5707187E-07  0.3494702E+04  0.7818609E-02  0.8115047E-01
        2   -1    0    0  501    0  0.00000000000E+00  0.00000000000E+00  0.15789042027E+04  0.15789042027E+04  0.25500000920E-02 0.  1.
       -2   -1    0    0    0  501  0.00000000000E+00  0.00000000000E+00 -0.19337686223E+04  0.19337686223E+04  0.25500000920E-02 0. -1.
    10030    2    1    2    0    0  0.00000000000E+00  0.00000000000E+00 -0.35486441957E+03  0.35126728251E+04  0.34947019357E+04 0.  0.
        1    1    3    3  502    0  0.25860853121E+03 -0.69179889345E+03 -0.17691699968E+04  0.19171402033E+04  0.50400001928E-02 0. -1.
       -1    1    3    3    0  502 -0.25860853121E+03  0.69179889345E+03  0.14143055772E+04  0.15955326218E+04  0.50400001928E-02 0.  1.
</event>
<event>
 5   0  0.1933647E-07  0.3391581E+04  0.7818609E-02  0.8139976E-01
        1   -1    0    0  501    0  0.00000000000E+00  0.00000000000E+00  0.25287284966E+04  0.25287284966E+04  0.50400001928E-02 0.  1.
       -1   -1    0    0    0  501  0.00000000000E+00  0.00000000000E+00 -0.11372142437E+04  0.11372142437E+04  0.50400001928E-02 0. -1.
    10030    2    1    2    0    0  0.00000000000E+00  0.00000000000E+00  0.13915142529E+04  0.36659427403E+04  0.33915813803E+04 0.  0.
        4    1    3    3  502    0 -0.89254360965E+03 -0.81941904380E+03  0.19781661917E+04  0.23197467016E+04  0.12699999809E+01 0.  1.
       -4    1    3    3    0  502  0.89254360965E+03  0.81941904380E+03 -0.58665193881E+03  0.13461960387E+04  0.12699999809E+01 0. -1.
</event>
<event>
 5   0  0.1897049E-07  0.3071294E+04  0.7818609E-02  0.8223660E-01
        1   -1    0    0  501    0  0.00000000000E+00  0.00000000000E+00  0.21712784163E+04  0.21712784164E+04  0.50400001928E-02 0. -1.
       -1   -1    0    0    0  501  0.00000000000E+00  0.00000000000E+00 -0.10860936526E+04  0.10860936526E+04  0.50400001928E-02 0.  1.
    10030    2    1    2    0    0  0.00000000000E+00  0.00000000000E+00  0.10851847638E+04  0.32573720689E+04  0.30712939983E+04 0.  0.
        2    1    3    3  502    0  0.49427145685E+03 -0.91763386629E+03  0.17386851559E+04  0.20271611325E+04  0.25500000920E-02 0. -1.
       -2    1    3    3    0  502 -0.49427145685E+03  0.91763386629E+03 -0.65350039213E+03  0.12302109364E+04  0.25500000920E-02 0.  1.
</event>
<event>
 5   0  0.5573334E-07  0.3496540E+04  0.7818609E-02  0.8114610E-01
        2   -1    0    0  501    0  0.00000000000E+00  0.00000000000E+00  0.26756402977E+04  0.26756402977E+04  0.25500000920E-02 0. -1.
       -2   -1    0    0    0  501  0.00000000000E+00  0.00000000000E+00 -0.11423238606E+04  0.11423238606E+04  0.25500000920E-02 0.  1.
    10030    2    1    2    0    0  0.00000000000E+00  0.00000000000E+00  0.15333164370E+04  0.38179641583E+04  0.34965398636E+04 0.  0.
        4    1    3    3  502    0  0.15692793105E+03  0.74892810420E+02 -0.11328577722E+04  0.11461254964E+04  0.12699999809E+01 0.  1.
       -4    1    3    3    0  502 -0.15692793105E+03 -0.74892810420E+02  0.26661742092E+04  0.26718386619E+04  0.12699999809E+01 0. -1.
</event>
<event>
 5   0  0.5740827E-07  0.3519240E+04  0.7818609E-02  0.8109245E-01
       -2   -1    0    0    0  501  0.00000000000E+00  0.00000000000E+00  0.12336828878E+04  0.12336828878E+04  0.25500000920E-02 0.  1.
        2   -1    0    0  501    0  0.00000000000E+00  0.00000000000E+00 -0.25097722826E+04  0.25097722826E+04  0.25500000920E-02 0. -1.
    10030    2    1    2    0    0  0.00000000000E+00  0.00000000000E+00 -0.12760893949E+04  0.37434551704E+04  0.35192403256E+04 0.  0.
        2    1    3    3  502    0  0.32757931962E+03 -0.39505598247E+03 -0.24283959134E+04  0.24820322625E+04  0.25500000920E-02 0. -1.
       -2    1    3    3    0  502 -0.32757931962E+03  0.39505598247E+03  0.11523065185E+04  0.12614229079E+04  0.25500000920E-02 0.  1.
</event>
<event>
 5   0  0.5677193E-07  0.3492625E+04  0.7818609E-02  0.8115540E-01
       -2   -1    0    0    0  501  0.00000000000E+00  0.00000000000E+00  0.16768445442E+04  0.16768445442E+04  0.25500000920E-02 0. -1.
        2   -1    0    0  501    0  0.00000000000E+00  0.00000000000E+00 -0.18186587346E+04  0.18186587346E+04  0.25500000920E-02 0.  1.
    10030    2    1    2    0    0  0.00000000000E+00  0.00000000000E+00 -0.14181419037E+03  0.34955032788E+04  0.34926253603E+04 0.  0.
        3    1    3    3  502    0 -0.84835723986E+03  0.45161496907E+03  0.13883553451E+04  0.16885486849E+04  0.10100000352E+00 0. -1.
       -3    1    3    3    0  502  0.84835723986E+03 -0.45161496907E+03 -0.15301695355E+04  0.18069545939E+04  0.10100000352E+00 0.  1.
</event>
<event>
 5   0  0.1897049E-07  0.3480882E+04  0.7818609E-02  0.8118336E-01
       -1   -1    0    0    0  501  0.00000000000E+00  0.00000000000E+00  0.21492338339E+04  0.21492338339E+04  0.50400001928E-02 0. -1.
        1   -1    0    0  501    0  0.00000000000E+00  0.00000000000E+00 -0.14094024061E+04  0.14094024061E+04  0.50400001928E-02 0.  1.
    10030    2    1    2    0    0  0.00000000000E+00  0.00000000000E+00  0.73983142784E+03  0.35586362401E+04  0.34808822657E+04 0.  0.
        2    1    3    3  502    0 -0.14848224740E+04 -0.47593658444E+03 -0.42061091222E+03  0.16149696441E+04  0.25500000920E-02 0. -1.
       -2    1    3    3    0  502  0.14848224740E+04  0.47593658444E+03  0.11604423401E+04  0.19436665960E+04  0.25500000920E-02 0.  1.
</event>
<event>
 5   0  0.5573334E-07  0.3476590E+04  0.7818609E-02  0.8119360E-01
        2   -1    0    0  501    0  0.00000000000E+00  0.00000000000E+00  0.19561065543E+04  0.19561065543E+04  0.25500000920E-02 0. -1.
       -2   -1    0    0    0  501  0.00000000000E+00  0.00000000000E+00 -0.15447363855E+04  0.15447363855E+04  0.25500000920E-02 0.  1.
    10030    2    1    2    0    0  0.00000000000E+00  0.00000000000E+00  0.41137016879E+03  0.35008429398E+04  0.34765896901E+04 0.  0.
        4    1    3    3  502    0  0.64207513908E+03 -0.56474848867E+03  0.17296715690E+04  0.19294990772E+04  0.12699999809E+01 0. -1.
       -4    1    3    3    0  502 -0.64207513908E+03  0.56474848867E+03 -0.13183014002E+04  0.15713438625E+04  0.12699999809E+01 0.  1.
</event>
<event>
 5   0  0.5677193E-07  0.3481918E+04  0.7818609E-02  0.8118089E-01
        2   -1    0    0  501    0  0.00000000000E+00  0.00000000000E+00  0.21027062875E+04  0.21027062875E+04  0.25500000920E-02 0.  1.
       -2   -1    0    0    0  501  0.00000000000E+00  0.00000000000E+00 -0.14414462860E+04  0.14414462860E+04  0.25500000920E-02 0. -1.
    10030    2    1    2    0    0  0.00000000000E+00  0.00000000000E+00  0.66126000155E+03  0.35441525735E+04  0.34819179592E+04 0.  0.
        3    1    3    3  502    0  0.27998220565E+03 -0.10015730890E+03 -0.14154065834E+04  0.14463047150E+04  0.10100000352E+00 0. -1.
       -3    1    3    3    0  502 -0.27998220565E+03  0.10015730890E+03  0.20766665850E+04  0.20978478585E+04  0.10100000352E+00 0.  1.
</event>
<event>
 5   0  0.1873457E-07  0.3490085E+04  0.7818609E-02  0.8116144E-01
       -1   -1    0    0    0  501  0.00000000000E+00  0.00000000000E+00  0.13740484253E+04  0.13740484254E+04  0.50400001928E-02 0. -1.
        1   -1    0    0  501    0  0.00000000000E+00  0.00000000000E+00 -0.22162057931E+04  0.22162057931E+04  0.50400001928E-02 0.  1.
    10030    2    1    2    0    0  0.00000000000E+00  0.00000000000E+00 -0.84215736779E+03  0.35902542185E+04  0.34900854318E+04 0.  0.
        3    1    3    3  502    0  0.11193432524E+04  0.13368314182E+03 -0.17913661121E+04  0.21165521626E+04  0.10100000352E+00 0.  1.
       -3    1    3    3    0  502 -0.11193432524E+04 -0.13368314182E+03  0.94920874433E+03  0.14737020559E+04  0.10100000352E+00 0. -1.
</event>
<event>
 5   0  0.5677193E-07  0.3510718E+04  0.7818609E-02  0.8111255E-01
       -2   -1    0    0    0  501  0.00000000000E+00  0.00000000000E+00  0.15744103098E+04  0.15744103098E+04  0.25500000920E-02 0.  1.
        2   -1    0    0  501    0  0.00000000000E+00  0.00000000000E+00 -0.19571044041E+04  0.19571044041E+04  0.25500000920E-02 0. -1.
    10030    2    1    2    0    0  0.00000000000E+00  0.00000000000E+00 -0.38269409430E+03  0.35315147140E+04  0.35107180754E+04 0.  0.
        3    1    3    3  502    0  0.24352635134E+03  0.15547435914E+04  0.59091803446E+03  0.16809868686E+04  0.10100000352E+00 0.  1.
       -3    1    3    3    0  502 -0.24352635134E+03 -0.15547435914E+04 -0.97361212876E+03  0.18505278453E+04  0.10100000352E+00 0. -1.
</event>
<event>
 5   0  0.1897049E-07  0.3514708E+04  0.7818609E-02  0.8110313E-01
       -1   -1    0    0    0  501  0.00000000000E+00  0.00000000000E+00  0.16418144705E+04  0.16418144705E+04  0.50400001928E-02 0. -1.
        1   -1    0    0  501    0  0.00000000000E+00  0.00000000000E+00 -0.18810247856E+04  0.18810247856E+04  0.50400001928E-02 0.  1.
    10030    2    1    2    0    0  0.00000000000E+00  0.00000000000E+00 -0.23921031513E+03  0.35228392562E+04  0.35147083591E+04 0.  0.
        2    1    3    3  502    0 -0.28341078721E+03  0.17324018859E+04 -0.37221678835E+02  0.17558255670E+04  0.25500000920E-02 0. -1.
       -2    1    3    3    0  502  0.28341078721E+03 -0.17324018859E+04 -0.20198863629E+03  0.17670136891E+04  0.25500000920E-02 0.  1.
</event>
<event>
 5   0  0.1866421E-07  0.3508282E+04  0.7818609E-02  0.8111830E-01
        1   -1    0    0  501    0  0.00000000000E+00  0.00000000000E+00  0.22935095208E+04  0.22935095208E+04  0.50400001928E-02 0.  1.
       -1   -1    0    0    0  501  0.00000000000E+00  0.00000000000E+00 -0.13416166505E+04  0.13416166505E+04  0.50400001928E-02 0. -1.
    10030    2    1    2    0    0  0.00000000000E+00  0.00000000000E+00  0.95189287023E+03  0.36351261713E+04  0.35082819506E+04 0.  0.
        1    1    3    3  502    0  0.86101807594E+03 -0.13882066150E+04  0.11382281012E+04  0.19909879315E+04  0.50400001928E-02 0.  1.
       -1    1    3    3    0  502 -0.86101807594E+03  0.13882066150E+04 -0.18633523098E+03  0.16441382398E+04  0.50400001928E-02 0. -1.
</event>
<event>
 5   0  0.5573334E-07  0.3502931E+04  0.7818609E-02  0.8113096E-01
        2   -1    0    0  501    0  0.00000000000E+00  0.00000000000E+00  0.22515627595E+04  0.22515627595E+04  0.25500000920E-02 0. -1.
       -2   -1    0    0    0  501  0.00000000000E+00  0.00000000000E+00 -0.13624456560E+04  0.13624456560E+04  0.25500000920E-02 0.  1.
    10030    2    1    2    0    0  0.00000000000E+00  0.00000000000E+00  0.88911710352E+03  0.36140084156E+04  0.35029312874E+04 0.  0.
        4    1    3    3  502    0  0.53922210888E+03 -0.16412848680E+04  0.14722955719E+03  0.17338554311E+04  0.12699999809E+01 0.  1.
       -4    1    3    3    0  502 -0.53922210888E+03  0.16412848680E+04  0.74188754633E+03  0.18801529844E+04  0.12699999809E+01 0. -1.
</event>
<event>
 5   0  0.5573334E-07  0.3377318E+04  0.7818609E-02  0.8143496E-01
        2   -1    0    0  501    0  0.00000000000E+00  0.00000000000E+00  0.16822364118E+04  0.16822364118E+04  0.25500000920E-02 0. -1.
       -2   -1    0    0    0  501  0.00000000000E+00  0.00000000000E+00 -0.16951060703E+04  0.16951060703E+04  0.25500000920E-02 0.  1.
    10030    2    1    2    0    0  0.00000000000E+00  0.00000000000E+00 -0.12869658515E+02  0.33773424821E+04  0.33773179615E+04 0.  0.
        4    1    3    3  502    0 -0.33071734288E+03  0.16416990957E+04 -0.22327196036E+03  0.16894975179E+04  0.12699999809E+01 0.  1.
       -4    1    3    3    0  502  0.33071734288E+03 -0.16416990957E+04  0.21040230184E+03  0.16878449642E+04  0.12699999809E+01 0. -1.
</event>
<event>
 5   0  0.5573334E-07  0.3471794E+04  0.7818609E-02  0.8120507E-01
       -2   -1    0    0    0  501  0.00000000000E+00  0.00000000000E+00  0.20379457563E+04  0.20379457563E+04  0.25500000920E-02 0. -1.
        2   -1    0    0  501    0  0.00000000000E+00  0.00000000000E+00 -0.14786157292E+04  0.14786157292E+04  0.25500000920E-02 0.  1.
    10030    2    1    2    0    0  0.00000000000E+00  0.00000000000E+00  0.55933002712E+03  0.35165614855E+04  0.34717941474E+04 0.  0.
        4    1    3    3  502    0 -0.12879453139E+04 -0.97022704586E+03 -0.37142484212E+03  0.16547210274E+04  0.12699999809E+01 0.  1.
       -4    1    3    3    0  502  0.12879453139E+04  0.97022704586E+03  0.93075486925E+03  0.18618404582E+04  0.12699999809E+01 0. -1.
</event>
<event>
 5   0  0.1866421E-07  0.3501386E+04  0.7818609E-02  0.8113462E-01
        1   -1    0    0  501    0  0.00000000000E+00  0.00000000000E+00  0.11303867078E+04  0.11303867078E+04  0.50400001928E-02 0. -1.
       -1   -1    0    0    0  501  0.00000000000E+00  0.00000000000E+00 -0.27113952838E+04  0.27113952838E+04  0.50400001928E-02 0.  1.
    10030    2    1    2    0    0  0.00000000000E+00  0.00000000000E+00 -0.15810085761E+04  0.38417819916E+04  0.35013855477E+04 0.  0.
        1    1    3    3  502    0 -0.91983681887E+03 -0.12156299868E+04  0.15403961468E+03  0.15321828354E+04  0.50400001928E-02 0. -1.
       -1    1    3    3    0  502  0.91983681887E+03  0.12156299868E+04 -0.17350481907E+04  0.23095991562E+04  0.50400001928E-02 0.  1.
</event>
<event>
 5   0  0.5677193E-07  0.3521923E+04  0.7818609E-02  0.8108614E-01
        2   -1    0    0  501    0  0.00000000000E+00  0.00000000000E+00  0.14910047947E+04  0.14910047947E+04  0.25500000920E-02 0. -1.
       -2   -1    0    0    0  501  0.00000000000E+00  0.00000000000E+00 -0.20797956777E+04  0.20797956777E+04  0.25500000920E-02 0.  1.
    10030    2    1    2    0    0  0.00000000000E+00  0.00000000000E+00 -0.58879088301E+03  0.35708004725E+04  0.35219229563E+04 0.  0.
        3    1    3    3  502    0  0.40485712317E+03  0.12961364394E+04  0.84237230699E+03  0.15979580950E+04  0.10100000352E+00 0. -1.
       -3    1    3    3    0  502 -0.40485712317E+03 -0.12961364394E+04 -0.14311631900E+04  0.19728423774E+04  0.10100000352E+00 0.  1.
</event>
<event>
 5   0  0.5707187E-07  0.3499818E+04  0.7818609E-02  0.8113833E-01
       -2   -1    0    0    0  501  0.00000000000E+00  0.00000000000E+00  0.25856711238E+04  0.25856711238E+04  0.25500000920E-02 0.  1.
        2   -1    0    0  501    0  0.00000000000E+00  0.00000000000E+00 -0.11842887266E+04  0.11842887266E+04  0.25500000920E-02 0. -1.
    10030    2    1    2    0    0  0.00000000000E+00  0.00000000000E+00  0.14013823971E+04  0.37699598504E+04  0.34998178025E+04 0.  0.
        1    1    3    3  502    0 -0.16993024944E+04 -0.23788844390E+03  0.33072586317E+03  0.17474551427E+04  0.50400001928E-02 0. -1.
       -1    1    3    3    0  502  0.16993024944E+04  0.23788844390E+03  0.10706565340E+04  0.20225047077E+04  0.50400001928E-02 0.  1.
</event>
<event>
 5   0  0.1897049E-07  0.3510370E+04  0.7818609E-02  0.8111337E-01
       -1   -1    0    0    0  501  0.00000000000E+00  0.00000000000E+00  0.10482060352E+04  0.10482060353E+04  0.50400001928E-02 0. -1.
        1   -1    0    0  501    0  0.00000000000E+00  0.00000000000E+00 -0.29389963792E+04  0.29389963792E+04  0.50400001928E-02 0.  1.
    10030    2    1    2    0    0  0.00000000000E+00  0.00000000000E+00 -0.18907903439E+04  0.39872024144E+04  0.35103696342E+04 0.  0.
        2    1    3    3  502    0 -0.23385513337E+03 -0.82613799211E+03 -0.26841814437E+04  0.28181593688E+04  0.25500000920E-02 0.  1.
       -2    1    3    3    0  502  0.23385513337E+03  0.82613799211E+03  0.79339109974E+03  0.11690430456E+04  0.25500000920E-02 0. -1.
</event>
<event>
 5   0  0.1866421E-07  0.3582147E+04  0.7818609E-02  0.8094593E-01
       -1   -1    0    0    0  501  0.00000000000E+00  0.00000000000E+00  0.14032803106E+04  0.14032803106E+04  0.50400001928E-02 0.  1.
        1   -1    0    0  501    0  0.00000000000E+00  0.00000000000E+00 -0.22860328746E+04  0.22860328746E+04  0.50400001928E-02 0. -1.
    10030    2    1    2    0    0  0.00000000000E+00  0.00000000000E+00 -0.88275256392E+03  0.36893131852E+04  0.35821473573E+04 0.  0.
        1    1    3    3  502    0 -0.12945657866E+03  0.31342246270E+01  0.13984527245E+04  0.14044354210E+04  0.50400001928E-02 0.  1.
       -1    1    3    3    0  502  0.12945657866E+03 -0.31342246270E+01 -0.22812052884E+04  0.22848777642E+04  0.50400001928E-02 0. -1.
</event>
<event>
 5   0  0.1897049E-07  0.3508602E+04  0.7818609E-02  0.8111754E-01
       -1   -1    0    0    0  501  0.00000000000E+00  0.00000000000E+00  0.13819898922E+04  0.13819898922E+04  0.50400001928E-02 0. -1.
        1   -1    0    0  501    0  0.00000000000E+00  0.00000000000E+00 -0.22269132250E+04  0.22269132250E+04  0.50400001928E-02 0.  1.
    10030    2    1    2    0    0  0.00000000000E+00  0.00000000000E+00 -0.84492333280E+03  0.36089031171E+04  0.35086017544E+04 0.  0.
        2    1    3    3  502    0 -0.11808558860E+04  0.90030021970E+03  0.53837895210E+03  0.15794977066E+04  0.25500000920E-02 0.  1.
       -2    1    3    3    0  502  0.11808558860E+04 -0.90030021970E+03 -0.13833022849E+04  0.20294054106E+04  0.25500000920E-02 0. -1.
</event>
<event>
 5   0  0.5677193E-07  0.3493717E+04  0.7818609E-02  0.8115280E-01
       -2   -1    0    0    0  501  0.00000000000E+00  0.00000000000E+00  0.15621599871E+04  0.15621599871E+04  0.25500000920E-02 0.  1.
        2   -1    0    0  501    0  0.00000000000E+00  0.00000000000E+00 -0.19533947347E+04  0.19533947347E+04  0.25500000920E-02 0. -1.
    10030    2    1    2    0    0  0.00000000000E+00  0.00000000000E+00 -0.39123474760E+03  0.35155547218E+04  0.34937172717E+04 0.  0.
        3    1    3    3  502    0 -0.15616936740E+04  0.70868440550E+03 -0.52995061542E+03  0.17949842292E+04  0.10100000352E+00 0. -1.
       -3    1    3    3    0  502  0.15616936740E+04 -0.70868440550E+03  0.13871586783E+03  0.17205704926E+04  0.10100000352E+00 0.  1.
</event>
<event>
 5   0  0.1897049E-07  0.3506029E+04  0.7818609E-02  0.8112363E-01
       -1   -1    0    0    0  501  0.00000000000E+00  0.00000000000E+00  0.15540212049E+04  0.15540212049E+04  0.50400001928E-02 0.  1.
        1   -1    0    0  501    0  0.00000000000E+00  0.00000000000E+00 -0.19774886192E+04  0.19774886192E+04  0.50400001928E-02 0. -1.
    10030    2    1    2    0    0  0.00000000000E+00  0.00000000000E+00 -0.42346741423E+03  0.35315098241E+04  0.35060286631E+04 0.  0.
        2    1    3    3  502    0  0.17293403093E+04  0.14634944906E+03 -0.46055776848E+03  0.17955916921E+04  0.25500000920E-02 0. -1.
       -2    1    3    3    0  502 -0.17293403093E+04 -0.14634944906E+03  0.37090354251E+02  0.17359181320E+04  0.25500000920E-02 0.  1.
</event>
<event>
 5   0  0.5573334E-07  0.3502478E+04  0.7818609E-02  0.8113203E-01
        2   -1    0    0  501    0  0.00000000000E+00  0.00000000000E+00  0.16444499460E+04  0.16444499460E+04  0.25500000920E-02 0.  1.
       -2   -1    0    0    0  501  0.00000000000E+00  0.00000000000E+00 -0.18649629853E+04  0.18649629853E+04  0.25500000920E-02 0. -1.
    10030    2    1    2    0    0  0.00000000000E+00  0.00000000000E+00 -0.22051303924E+03  0.35094129313E+04  0.35024781401E+04 0.  0.
        4    1    3    3  502    0 -0.92173082025E+03 -0.11971360323E+04  0.77699902280E+03  0.16989559968E+04  0.12699999809E+01 0.  1.
       -4    1    3    3    0  502  0.92173082025E+03  0.11971360323E+04 -0.99751206204E+03  0.18104569345E+04  0.12699999809E+01 0. -1.
</event>
<event>
 5   0  0.1873457E-07  0.3466644E+04  0.7818609E-02  0.8121741E-01
       -1   -1    0    0    0  501  0.00000000000E+00  0.00000000000E+00  0.15714224238E+04  0.15714224238E+04  0.50400001928E-02 0. -1.
        1   -1    0    0  501    0  0.00000000000E+00  0.00000000000E+00 -0.19119017132E+04  0.19119017132E+04  0.50400001928E-02 0.  1.
    10030    2    1    2    0    0  0.00000000000E+00  0.00000000000E+00 -0.34047928936E+03  0.34833241370E+04  0.34666440395E+04 0.  0.
        3    1    3    3  502    0 -0.16351270780E+04  0.40277893694E+03 -0.58274360366E+03  0.17819824778E+04  0.10100000352E+00 0.  1.
       -3    1    3    3    0  502  0.16351270780E+04 -0.40277893694E+03  0.24226431431E+03  0.17013416592E+04  0.10100000352E+00 0. -1.
</event>
<event>
 5   0  0.1866421E-07  0.3498269E+04  0.7818609E-02  0.8114200E-01
       -1   -1    0    0    0  501  0.00000000000E+00  0.00000000000E+00  0.15845220327E+04  0.15845220328E+04  0.50400001928E-02 0.  1.
        1   -1    0    0  501    0  0.00000000000E+00  0.00000000000E+00 -0.19308481386E+04  0.19308481386E+04  0.50400001928E-02 0. -1.
    10030    2    1    2    0    0  0.00000000000E+00  0.00000000000E+00 -0.34632610583E+03  0.35153701713E+04  0.34982689533E+04 0.  0.
        1    1    3    3  502    0  0.78072484534E+03 -0.12899363803E+04  0.71773973845E+03  0.16699154115E+04  0.50400001928E-02 0.  1.
       -1    1    3    3    0  502 -0.78072484534E+03  0.12899363803E+04 -0.10640658443E+04  0.18454547598E+04  0.50400001928E-02 0. -1.
</event>
<event>
 5   0  0.5573334E-07  0.3495319E+04  0.7818609E-02  0.8114900E-01
       -2   -1    0    0    0  501  0.00000000000E+00  0.00000000000E+00  0.13243726997E+04  0.13243726997E+04  0.25500000920E-02 0. -1.
        2   -1    0    0  501    0  0.00000000000E+00  0.00000000000E+00 -0.23062340792E+04  0.23062340792E+04  0.25500000920E-02 0.  1.
    10030    2    1    2    0    0  0.00000000000E+00  0.00000000000E+00 -0.98186137955E+03  0.36306067789E+04  0.34953188430E+04 0.  0.
        4    1    3    3  502    0  0.44804313290E+03 -0.16581540692E+04 -0.15580645340E+03  0.17246723834E+04  0.12699999809E+01 0.  1.
       -4    1    3    3    0  502 -0.44804313290E+03  0.16581540692E+04 -0.82605492615E+03  0.19059343955E+04  0.12699999809E+01 0. -1.
</event>
<event>
 5   0  0.5554745E-07  0.3498189E+04  0.7818609E-02  0.8114219E-01
       -2   -1    0    0    0  501  0.00000000000E+00  0.00000000000E+00  0.28482040415E+04  0.28482040415E+04  0.25500000920E-02 0. -1.
        2   -1    0    0  501    0  0.00000000000E+00  0.00000000000E+00 -0.10741265639E+04  0.10741265639E+04  0.25500000920E-02 0.  1.
    10030    2    1    2    0    0  0.00000000000E+00  0.00000000000E+00  0.17740774776E+04  0.39223306053E+04  0.34981890288E+04 0.  0.
        5    1    3    3  502    0  0.15303957540E+03  0.73349536749E+03 -0.88505257585E+03  0.11596450827E+04  0.46999998093E+01 0.  1.
       -5    1    3    3    0  502 -0.15303957540E+03 -0.73349536749E+03  0.26591300535E+04  0.27626855227E+04  0.46999998093E+01 0. -1.
</event>
<event>
 5   0  0.1897049E-07  0.3534711E+04  0.7818609E-02  0.8105613E-01
       -1   -1    0    0    0  501  0.00000000000E+00  0.00000000000E+00  0.18933564003E+04  0.18933564003E+04  0.50400001928E-02 0.  1.
        1   -1    0    0  501    0  0.00000000000E+00  0.00000000000E+00 -0.16497395517E+04  0.16497395517E+04  0.50400001928E-02 0. -1.
    10030    2    1    2    0    0  0.00000000000E+00  0.00000000000E+00  0.24361684863E+03  0.35430959521E+04  0.35347107034E+04 0.  0.
        2    1    3    3  502    0  0.11569525941E+04 -0.39877032581E+03  0.13999756825E+04  0.18594324374E+04  0.25500000920E-02 0.  1.
       -2    1    3    3    0  502 -0.11569525941E+04  0.39877032581E+03 -0.11563588339E+04  0.16836635146E+04  0.25500000920E-02 0. -1.
</event>
<event>
 5   0  0.1897049E-07  0.3474419E+04  0.7818609E-02  0.8119879E-01
        1   -1    0    0  501    0  0.00000000000E+00  0.00000000000E+00  0.25195533197E+04  0.25195533197E+04  0.50400001928E-02 0. -1.
       -1   -1    0    0    0  501  0.00000000000E+00  0.00000000000E+00 -0.11977906333E+04  0.11977906333E+04  0.50400001928E-02 0.  1.
    10030    2    1    2    0    0  0.00000000000E+00  0.00000000000E+00  0.13217626865E+04  0.37173439530E+04  0.34744192990E+04 0.  0.
        2    1    3    3  502    0  0.41090002625E+03 -0.69922758110E+03 -0.98280648296E+03  0.12742317782E+04  0.25500000920E-02 0.  1.
       -2    1    3    3    0  502 -0.41090002625E+03  0.69922758110E+03  0.23045691694E+04  0.24431121747E+04  0.25500000920E-02 0. -1.
</event>
<event>
 5   0  0.1866421E-07  0.3480102E+04  0.7818609E-02  0.8118522E-01
       -1   -1    0    0    0  501  0.00000000000E+00  0.00000000000E+00  0.24004571428E+04  0.24004571428E+04  0.50400001928E-02 0. -1.
        1   -1    0    0  501    0  0.00000000000E+00  0.00000000000E+00 -0.12613336587E+04  0.12613336587E+04  0.50400001928E-02 0.  1.
    10030    2    1    2    0    0  0.00000000000E+00  0.00000000000E+00  0.11391234841E+04  0.36617908015E+04  0.34801019471E+04 0.  0.
        1    1    3    3  502    0  0.15064168517E+03 -0.54554008520E+03 -0.11617825069E+04  0.12923024008E+04  0.50400001928E-02 0.  1.
       -1    1    3    3    0  502 -0.15064168517E+03  0.54554008520E+03  0.23009059909E+04  0.23694884007E+04  0.50400001928E-02 0. -1.
</event>
<event>
 5   0  0.1908190E-07  0.3504514E+04  0.7818609E-02  0.8112721E-01
       -1   -1    0    0    0  501  0.00000000000E+00  0.00000000000E+00  0.14412868796E+04  0.14412868796E+04  0.50400001928E-02 0.  1.
        1   -1    0    0  501    0  0.00000000000E+00  0.00000000000E+00 -0.21303216036E+04  0.21303216036E+04  0.50400001928E-02 0. -1.
    10030    2    1    2    0    0  0.00000000000E+00  0.00000000000E+00 -0.68903472406E+03  0.35716084832E+04  0.35045139900E+04 0.  0.
        5    1    3    3  502    0 -0.18071261823E+03  0.41710461048E+03 -0.20691775440E+04  0.21185256914E+04  0.46999998093E+01 0. -1.
       -5    1    3    3    0  502  0.18071261823E+03 -0.41710461048E+03  0.13801428199E+04  0.14530827918E+04  0.46999998093E+01 0.  1.
</event>
<event>
 5   0  0.1873457E-07  0.3393885E+04  0.7818609E-02  0.8139409E-01
       -1   -1    0    0    0  501  0.00000000000E+00  0.00000000000E+00  0.18344522236E+04  0.18344522236E+04  0.50400001928E-02 0. -1.
        1   -1    0    0  501    0  0.00000000000E+00  0.00000000000E+00 -0.15697403714E+04  0.15697403714E+04  0.50400001928E-02 0.  1.
    10030    2    1    2    0    0  0.00000000000E+00  0.00000000000E+00  0.26471185214E+03  0.34041925950E+04  0.33938849213E+04 0.  0.
        3    1    3    3  502    0 -0.14959673417E+04 -0.16229564061E+03 -0.65447254903E+03  0.16409120909E+04  0.10100000352E+00 0.  1.
       -3    1    3    3    0  502  0.14959673417E+04  0.16229564061E+03  0.91918440116E+03  0.17632805041E+04  0.10100000352E+00 0. -1.
</event>
<event>
 5   0  0.5707187E-07  0.3481218E+04  0.7818609E-02  0.8118255E-01
       -2   -1    0    0    0  501  0.00000000000E+00  0.00000000000E+00  0.17290610918E+04  0.17290610918E+04  0.25500000920E-02 0. -1.
        2   -1    0    0  501    0  0.00000000000E+00  0.00000000000E+00 -0.17522341060E+04  0.17522341060E+04  0.25500000920E-02 0.  1.
    10030    2    1    2    0    0  0.00000000000E+00  0.00000000000E+00 -0.23173014165E+02  0.34812951978E+04  0.34812180721E+04 0.  0.
        1    1    3    3  502    0 -0.21772546316E+03 -0.13988515865E+04 -0.10242933350E+04  0.17473886158E+04  0.50400001928E-02 0.  1.
       -1    1    3    3    0  502  0.21772546316E+03  0.13988515865E+04  0.10011203209E+04  0.17339065820E+04  0.50400001928E-02 0. -1.
</event>
<event>
 5   0  0.1908190E-07  0.3457956E+04  0.7818609E-02  0.8123827E-01
       -1   -1    0    0    0  501  0.00000000000E+00  0.00000000000E+00  0.23887998911E+04  0.23887998911E+04  0.50400001928E-02 0.  1.
        1   -1    0    0  501    0  0.00000000000E+00  0.00000000000E+00 -0.12514084390E+04  0.12514084390E+04  0.50400001928E-02 0. -1.
    10030    2    1    2    0    0  0.00000000000E+00  0.00000000000E+00  0.11373914521E+04  0.36402083301E+04  0.34579556636E+04 0.  0.
        5    1    3    3  502    0 -0.42884594401E+03  0.16322056868E+04  0.96445973531E+03  0.19437615386E+04  0.46999998093E+01 0.  1.
       -5    1    3    3    0  502  0.42884594401E+03 -0.16322056868E+04  0.17293171677E+03  0.16964467915E+04  0.46999998093E+01 0. -1.
</event>
<event>
 5   0  0.1866421E-07  0.3507240E+04  0.7818609E-02  0.8112076E-01
       -1   -1    0    0    0  501  0.00000000000E+00  0.00000000000E+00  0.17408841397E+04  0.17408841397E+04  0.50400001928E-02 0. -1.
        1   -1    0    0  501    0  0.00000000000E+00  0.00000000000E+00 -0.17664485624E+04  0.17664485624E+04  0.50400001928E-02 0.  1.
    10030    2    1    2    0    0  0.00000000000E+00  0.00000000000E+00 -0.25564422673E+02  0.35073327021E+04  0.35072395332E+04 0.  0.
        1    1    3    3  502    0 -0.10549431578E+03 -0.14947217411E+04  0.89820859126E+03  0.17470262755E+04  0.50400001928E-02 0.  1.
       -1    1    3    3    0  502  0.10549431578E+03  0.14947217411E+04 -0.92377301393E+03  0.17603064265E+04  0.50400001928E-02 0. -1.
</event>
<event>
 5   0  0.1873457E-07  0.3516171E+04  0.7818609E-02  0.8109968E-01
        1   -1    0    0  501    0  0.00000000000E+00  0.00000000000E+00  0.22928079933E+04  0.22928079933E+04  0.50400001928E-02 0.  1.
       -1   -1    0    0    0  501  0.00000000000E+00  0.00000000000E+00 -0.13480696575E+04  0.13480696575E+04  0.50400001928E-02 0. -1.
    10030    2    1    2    0    0  0.00000000000E+00  0.00000000000E+00  0.94473833577E+03  0.36408776509E+04  0.35161711485E+04 0.  0.
        3    1    3    3  502    0 -0.12218580530E+04  0.17841834374E+03 -0.82345204325E+03  0.14841979264E+04  0.10100000352E+00 0. -1.
       -3    1    3    3    0  502  0.12218580530E+04 -0.17841834374E+03  0.17681903790E+04  0.21566797244E+04  0.10100000352E+00 0.  1.
</event>
<event>
 5   0  0.1933647E-07  0.3520539E+04  0.7818609E-02  0.8108940E-01
        1   -1    0    0  501    0  0.00000000000E+00  0.00000000000E+00  0.15165454255E+04  0.15165454255E+04  0.50400001928E-02 0.  1.
       -1   -1    0    0    0  501  0.00000000000E+00  0.00000000000E+00 -0.20431619984E+04  0.20431619984E+04  0.50400001928E-02 0. -1.
    10030    2    1    2    0    0  0.00000000000E+00  0.00000000000E+00 -0.52661657286E+03  0.35597074239E+04  0.35205385851E+04 0.  0.
        4    1    3    3  502    0  0.11374250611E+04 -0.58126318727E+03 -0.14879580978E+04  0.19610261539E+04  0.12699999809E+01 0. -1.
       -4    1    3    3    0  502 -0.11374250611E+04  0.58126318727E+03  0.96134152495E+03  0.15986812700E+04  0.12699999809E+01 0.  1.
</event>
<event>
 5   0  0.1873457E-07  0.3507948E+04  0.7818609E-02  0.8111909E-01
        1   -1    0    0  501    0  0.00000000000E+00  0.00000000000E+00  0.13576258578E+04  0.13576258578E+04  0.50400001928E-02 0.  1.
       -1   -1    0    0    0  501  0.00000000000E+00  0.00000000000E+00 -0.22660332730E+04  0.22660332730E+04  0.50400001928E-02 0. -1.
    10030    2    1    2    0    0  0.00000000000E+00  0.00000000000E+00 -0.90840741520E+03  0.36236591308E+04  0.35079483269E+04 0.  0.
        3    1    3    3  502    0 -0.12910233801E+04 -0.11343201357E+04 -0.81648834257E+03  0.19026499315E+04  0.10100000352E+00 0.  1.
       -3    1    3    3    0  502  0.12910233801E+04  0.11343201357E+04 -0.91919072629E+02  0.17210091993E+04  0.10100000352E+00 0. -1.
</event>
<event>
 5   0  0.5707187E-07  0.3413389E+04  0.7818609E-02  0.8134628E-01
       -2   -1    0    0    0  501  0.00000000000E+00  0.00000000000E+00  0.15288680857E+04  0.15288680857E+04  0.25500000920E-02 0.  1.
        2   -1    0    0  501    0  0.00000000000E+00  0.00000000000E+00 -0.19052040640E+04  0.19052040640E+04  0.25500000920E-02 0. -1.
    10030    2    1    2    0    0  0.00000000000E+00  0.00000000000E+00 -0.37633597830E+03  0.34340721497E+04  0.34133887503E+04 0.  0.
        1    1    3    3  502    0 -0.13038254996E+04  0.46632333309E+03 -0.11919044760E+04  0.18270343906E+04  0.50400001928E-02 0. -1.
       -1    1    3    3    0  502  0.13038254996E+04 -0.46632333309E+03  0.81556849774E+03  0.16070377590E+04  0.50400001928E-02 0.  1.
</event>
<event>
 5   0  0.5677193E-07  0.3466854E+04  0.7818609E-02  0.8121690E-01
       -2   -1    0    0    0  501  0.00000000000E+00  0.00000000000E+00  0.17706911978E+04  0.17706911978E+04  0.25500000920E-02 0. -1.
        2   -1    0    0  501    0  0.00000000000E+00  0.00000000000E+00 -0.16969470434E+04  0.16969470434E+04  0.25500000920E-02 0.  1.
    10030    2    1    2    0    0  0.00000000000E+00  0.00000000000E+00  0.73744154395E+02  0.34676382413E+04  0.34668540165E+04 0.  0.
        3    1    3    3  502    0 -0.14637224114E+04 -0.78326348617E+03 -0.46202346540E+03  0.17232094124E+04  0.10100000352E+00 0. -1.
       -3    1    3    3    0  502  0.14637224114E+04  0.78326348617E+03  0.53576761979E+03  0.17444288288E+04  0.10100000352E+00 0.  1.
</event>
<event>
 5   0  0.1873457E-07  0.3522465E+04  0.7818609E-02  0.8108487E-01
       -1   -1    0    0    0  501  0.00000000000E+00  0.00000000000E+00  0.16458106311E+04  0.16458106312E+04  0.50400001928E-02 0. -1.
        1   -1    0    0  501    0  0.00000000000E+00  0.00000000000E+00 -0.18847485841E+04  0.18847485841E+04  0.50400001928E-02 0.  1.
    10030    2    1    2    0    0  0.00000000000E+00  0.00000000000E+00 -0.23893795296E+03  0.35305592153E+04  0.35224646240E+04 0.  0.
        3    1    3    3  502    0 -0.37695416474E+03 -0.97302309647E+02  0.16021443726E+04  0.16487658362E+04  0.10100000352E+00 0. -1.
       -3    1    3    3    0  502  0.37695416474E+03  0.97302309647E+02 -0.18410823256E+04  0.18817933791E+04  0.10100000352E+00 0.  1.
</event>
<event>
 5   0  0.5554745E-07  0.3504312E+04  0.7818609E-02  0.8112769E-01
        2   -1    0    0  501    0  0.00000000000E+00  0.00000000000E+00  0.11538307745E+04  0.11538307745E+04  0.25500000920E-02 0. -1.
       -2   -1    0    0    0  501  0.00000000000E+00  0.00000000000E+00 -0.26607453281E+04  0.26607453281E+04  0.25500000920E-02 0.  1.
    10030    2    1    2    0    0  0.00000000000E+00  0.00000000000E+00 -0.15069145535E+04  0.38145761026E+04  0.35043115402E+04 0.  0.
        5    1    3    3  502    0  0.13509124074E+03 -0.20351746913E+03 -0.26421125779E+04  0.26533846249E+04  0.46999998093E+01 0.  1.
       -5    1    3    3    0  502 -0.13509124074E+03  0.20351746913E+03  0.11351980243E+04  0.11611914777E+04  0.46999998093E+01 0. -1.
</event>
<event>
 5   0  0.1933647E-07  0.3499999E+04  0.7818609E-02  0.8113790E-01
       -1   -1    0    0    0  501  0.00000000000E+00  0.00000000000E+00  0.10911809327E+04  0.10911809327E+04  0.50400001928E-02 0. -1.
        1   -1    0    0  501    0  0.00000000000E+00  0.00000000000E+00 -0.28065906246E+04  0.28065906246E+04  0.50400001928E-02 0.  1.
    10030    2    1    2    0    0  0.00000000000E+00  0.00000000000E+00 -0.17154096919E+04  0.38977715573E+04  0.34999989574E+04 0.  0.
        4    1    3    3  502    0  0.39447706955E+03  0.64252360556E+03  0.90103197199E+03  0.11748655113E+04  0.12699999809E+01 0. -1.
       -4    1    3    3    0  502 -0.39447706955E+03 -0.64252360556E+03 -0.26164416639E+04  0.27229060460E+04  0.12699999809E+01 0.  1.
</event>
<event>
 5   0  0.1897049E-07  0.3497116E+04  0.7818609E-02  0.8114474E-01
        1   -1    0    0  501    0  0.00000000000E+00  0.00000000000E+00  0.22150953706E+04  0.22150953706E+04  0.50400001928E-02 0. -1.
       -1   -1    0    0    0  501  0.00000000000E+00  0.00000000000E+00 -0.13802810690E+04  0.13802810690E+04  0.50400001928E-02 0.  1.
    10030    2    1    2    0    0  0.00000000000E+00  0.00000000000E+00  0.83481430161E+03  0.35953764396E+04  0.34971155006E+04 0.  0.
        2    1    3    3  502    0 -0.44643377144E+03 -0.74243333220E+03 -0.11441320932E+04  0.14351127523E+04  0.25500000920E-02 0.  1.
       -2    1    3    3    0  502  0.44643377144E+03  0.74243333220E+03  0.19789463948E+04  0.21602636873E+04  0.25500000920E-02 0. -1.
</event>
<event>
 5   0  0.1866421E-07  0.3416396E+04  0.7818609E-02  0.8133894E-01
       -1   -1    0    0    0  501  0.00000000000E+00  0.00000000000E+00  0.10435872325E+04  0.10435872325E+04  0.50400001928E-02 0.  1.
        1   -1    0    0  501    0  0.00000000000E+00  0.00000000000E+00 -0.27960671973E+04  0.27960671973E+04  0.50400001928E-02 0. -1.
    10030    2    1    2    0    0  0.00000000000E+00  0.00000000000E+00 -0.17524799648E+04  0.38396544298E+04  0.34163957782E+04 0.  0.
        1    1    3    3  502    0  0.15283062446E+04 -0.51301326078E+03 -0.24142847238E+03  0.16300890436E+04  0.50400001928E-02 0. -1.
       -1    1    3    3    0  502 -0.15283062446E+04  0.51301326078E+03 -0.15110514924E+04  0.22095653862E+04  0.50400001928E-02 0.  1.
</event>
<event>
 5   0  0.1908190E-07  0.3490924E+04  0.7818609E-02  0.8115944E-01
       -1   -1    0    0    0  501  0.00000000000E+00  0.00000000000E+00  0.13460914740E+04  0.13460914740E+04  0.50400001928E-02 0.  1.
        1   -1    0    0  501    0  0.00000000000E+00  0.00000000000E+00 -0.22633207592E+04  0.22633207592E+04  0.50400001928E-02 0. -1.
    10030    2    1    2    0    0  0.00000000000E+00  0.00000000000E+00 -0.91722928517E+03  0.36094122332E+04  0.34909235322E+04 0.  0.
        5    1    3    3  502    0  0.95346927622E+03  0.58528728135E+03 -0.18438459761E+04  0.21567231941E+04  0.46999998093E+01 0. -1.
       -5    1    3    3    0  502 -0.95346927622E+03 -0.58528728135E+03  0.92661669092E+03  0.14526890391E+04  0.46999998093E+01 0.  1.
</event>
<event>
 5   0  0.5554745E-07  0.3505314E+04  0.7818609E-02  0.8112532E-01
        2   -1    0    0  501    0  0.00000000000E+00  0.00000000000E+00  0.17005088807E+04  0.17005088807E+04  0.25500000920E-02 0. -1.
       -2   -1    0    0    0  501  0.00000000000E+00  0.00000000000E+00 -0.18064044181E+04  0.18064044181E+04  0.25500000920E-02 0.  1.
    10030    2    1    2    0    0  0.00000000000E+00  0.00000000000E+00 -0.10589553739E+03  0.35069132988E+04  0.35053141116E+04 0.  0.
        5    1    3    3  502    0 -0.29116071122E+03  0.14876012858E+04  0.82725615896E+03  0.17268778150E+04  0.46999998093E+01 0. -1.
       -5    1    3    3    0  502  0.29116071122E+03 -0.14876012858E+04 -0.93315169635E+03  0.17800354838E+04  0.46999998093E+01 0.  1.
</event>
<event>
 5   0  0.5573334E-07  0.3509635E+04  0.7818609E-02  0.8111510E-01
       -2   -1    0    0    0  501  0.00000000000E+00  0.00000000000E+00  0.14006304182E+04  0.14006304182E+04  0.25500000920E-02 0. -1.
        2   -1    0    0  501    0  0.00000000000E+00  0.00000000000E+00 -0.21985708068E+04  0.21985708068E+04  0.25500000920E-02 0.  1.
    10030    2    1    2    0    0  0.00000000000E+00  0.00000000000E+00 -0.79794038865E+03  0.35992012250E+04  0.35096353934E+04 0.  0.
        4    1    3    3  502    0  0.88130218400E+03  0.13318192699E+04  0.34687789565E+03  0.16342466138E+04  0.12699999809E+01 0. -1.
       -4    1    3    3    0  502 -0.88130218400E+03 -0.13318192699E+04 -0.11448182843E+04  0.19649546112E+04  0.12699999809E+01 0.  1.
</event>
<event>
 5   0  0.1908190E-07  0.3499020E+04  0.7818609E-02  0.8114022E-01
        1   -1    0    0  501    0  0.00000000000E+00  0.00000000000E+00  0.99740804508E+03  0.99740804509E+03  0.50400001928E-02 0. -1.
       -1   -1    0    0    0  501  0.00000000000E+00  0.00000000000E+00 -0.30687396233E+04  0.30687396233E+04  0.50400001928E-02 0.  1.
    10030    2    1    2    0    0  0.00000000000E+00  0.00000000000E+00 -0.20713315782E+04  0.40661476684E+04  0.34990201992E+04 0.  0.
        5    1    3    3  502    0  0.15085625236E+04 -0.21727285785E+03 -0.20338359548E+04  0.25415505431E+04  0.46999998093E+01 0.  1.
       -5    1    3    3    0  502 -0.15085625236E+04  0.21727285785E+03 -0.37495623412E+02  0.15245971252E+04  0.46999998093E+01 0. -1.
</event>
<event>
 5   0  0.5707187E-07  0.3472660E+04  0.7818609E-02  0.8120300E-01
        2   -1    0    0  501    0  0.00000000000E+00  0.00000000000E+00  0.23616116702E+04  0.23616116702E+04  0.25500000920E-02 0. -1.
       -2   -1    0    0    0  501  0.00000000000E+00  0.00000000000E+00 -0.12766039203E+04  0.12766039203E+04  0.25500000920E-02 0.  1.
    10030    2    1    2    0    0  0.00000000000E+00  0.00000000000E+00  0.10850077498E+04  0.36382155905E+04  0.34726604881E+04 0.  0.
        1    1    3    3  502    0  0.52083721241E+03  0.16134921515E+04  0.15020017767E+03  0.17021129275E+04  0.50400001928E-02 0. -1.
       -1    1    3    3    0  502 -0.52083721241E+03 -0.16134921515E+04  0.93480757217E+03  0.19361026630E+04  0.50400001928E-02 0.  1.
</event>
<event>
 5   0  0.5573334E-07  0.3511414E+04  0.7818609E-02  0.8111090E-01
        2   -1    0    0  501    0  0.00000000000E+00  0.00000000000E+00  0.13870888121E+04  0.13870888121E+04  0.25500000920E-02 0. -1.
       -2   -1    0    0    0  501  0.00000000000E+00  0.00000000000E+00 -0.22222847697E+04  0.22222847698E+04  0.25500000920E-02 0.  1.
    10030    2    1    2    0    0  0.00000000000E+00  0.00000000000E+00 -0.83519595765E+03  0.36093735819E+04  0.35114135851E+04 0.  0.
        4    1    3    3  502    0 -0.16744893621E+04  0.50345781793E+03 -0.58051352249E+03  0.18423848569E+04  0.12699999809E+01 0. -1.
       -4    1    3    3    0  502  0.16744893621E+04 -0.50345781793E+03 -0.25468243516E+03  0.17669887249E+04  0.12699999809E+01 0.  1.
</event>
<event>
 5   0  0.5573334E-07  0.3485181E+04  0.7818609E-02  0.8117311E-01
        2   -1    0    0  501    0  0.00000000000E+00  0.00000000000E+00  0.13870462361E+04  0.13870462361E+04  0.25500000920E-02 0. -1.
       -2   -1    0    0    0  501  0.00000000000E+00  0.00000000000E+00 -0.21892715243E+04  0.21892715243E+04  0.25500000920E-02 0.  1.
    10030    2    1    2    0    0  0.00000000000E+00  0.00000000000E+00 -0.80222528817E+03  0.35763177604E+04  0.34851805277E+04 0.  0.
        4    1    3    3  502    0  0.15779131730E+04 -0.21129547683E+03  0.32605303415E+03  0.16250439853E+04  0.12699999809E+01 0. -1.
       -4    1    3    3    0  502 -0.15779131730E+04  0.21129547683E+03 -0.11282783223E+04  0.19512737752E+04  0.12699999809E+01 0.  1.
</event>
<event>
 5   0  0.1866421E-07  0.3509529E+04  0.7818609E-02  0.8111535E-01
        1   -1    0    0  501    0  0.00000000000E+00  0.00000000000E+00  0.28330221581E+04  0.28330221581E+04  0.50400001928E-02 0.  1.
       -1   -1    0    0    0  501  0.00000000000E+00  0.00000000000E+00 -0.10868951082E+04  0.10868951082E+04  0.50400001928E-02 0. -1.
    10030    2    1    2    0    0  0.00000000000E+00  0.00000000000E+00  0.17461270499E+04  0.39199172663E+04  0.35095287006E+04 0.  0.
        1    1    3    3  502    0 -0.64008498225E+03 -0.13804620249E+04 -0.10309833540E+03  0.15251273565E+04  0.50400001928E-02 0. -1.
       -1    1    3    3    0  502  0.64008498225E+03  0.13804620249E+04  0.18492253853E+04  0.23947899098E+04  0.50400001928E-02 0.  1.
</event>
<event>
 5   0  0.1873457E-07  0.3521020E+04  0.7818609E-02  0.8108826E-01
       -1   -1    0    0    0  501  0.00000000000E+00  0.00000000000E+00  0.11810324708E+04  0.11810324708E+04  0.50400001928E-02 0.  1.
        1   -1    0    0  501    0  0.00000000000E+00  0.00000000000E+00 -0.26243101929E+04  0.26243101929E+04  0.50400001928E-02 0. -1.
    10030    2    1    2    0    0  0.00000000000E+00  0.00000000000E+00 -0.14432777221E+04  0.38053426637E+04  0.35210200517E+04 0.  0.
        3    1    3    3  502    0 -0.16108083186E+04 -0.35266230401E+03 -0.55138093220E+02  0.16498831351E+04  0.10100000352E+00 0.  1.
       -3    1    3    3    0  502  0.16108083186E+04  0.35266230401E+03 -0.13881396289E+04  0.21554595286E+04  0.10100000352E+00 0. -1.
</event>
<event>
 5   0  0.1873457E-07  0.3624565E+04  0.7818609E-02  0.8084888E-01
        1   -1    0    0  501    0  0.00000000000E+00  0.00000000000E+00  0.16328793136E+04  0.16328793136E+04  0.50400001928E-02 0.  1.
       -1   -1    0    0    0  501  0.00000000000E+00  0.00000000000E+00 -0.20113967051E+04  0.20113967052E+04  0.50400001928E-02 0. -1.
    10030    2    1    2    0    0  0.00000000000E+00  0.00000000000E+00 -0.37851739152E+03  0.36442760188E+04  0.36245651167E+04 0.  0.
        3    1    3    3  502    0  0.10511158521E+04  0.11757322285E+04 -0.10869619629E+04  0.19153791078E+04  0.10100000352E+00 0.  1.
       -3    1    3    3    0  502 -0.10511158521E+04 -0.11757322285E+04  0.70844457137E+03  0.17288969109E+04  0.10100000352E+00 0. -1.
</event>
<event>
 5   0  0.5573334E-07  0.3597247E+04  0.7818609E-02  0.8091123E-01
        2   -1    0    0  501    0  0.00000000000E+00  0.00000000000E+00  0.15019304685E+04  0.15019304685E+04  0.25500000920E-02 0. -1.
       -2   -1    0    0    0  501  0.00000000000E+00  0.00000000000E+00 -0.21539258199E+04  0.21539258199E+04  0.25500000920E-02 0.  1.
    10030    2    1    2    0    0  0.00000000000E+00  0.00000000000E+00 -0.65199535138E+03  0.36558562885E+04  0.35972471786E+04 0.  0.
        4    1    3    3  502    0  0.23676965131E+03  0.12719505868E+03  0.14814060090E+04  0.15055908565E+04  0.12699999809E+01 0. -1.
       -4    1    3    3    0  502 -0.23676965131E+03 -0.12719505868E+03 -0.21334013604E+04  0.21502654320E+04  0.12699999809E+01 0.  1.
</event>
<event>
 5   0  0.1933647E-07  0.3499531E+04  0.7818609E-02  0.8113901E-01
       -1   -1    0    0    0  501  0.00000000000E+00  0.00000000000E+00  0.23277240892E+04  0.23277240892E+04  0.50400001928E-02 0.  1.
        1   -1    0    0  501    0  0.00000000000E+00  0.00000000000E+00 -0.13153099375E+04  0.13153099376E+04  0.50400001928E-02 0. -1.
    10030    2    1    2    0    0  0.00000000000E+00  0.00000000000E+00  0.10124141516E+04  0.36430340267E+04  0.34995306122E+04 0.  0.
        4    1    3    3  502    0 -0.55447798502E+03  0.14293862653E+04 -0.37163121376E+03  0.15775621393E+04  0.12699999809E+01 0. -1.
       -4    1    3    3    0  502  0.55447798502E+03 -0.14293862653E+04  0.13840453654E+04  0.20654718874E+04  0.12699999809E+01 0.  1.
</event>
<event>
 5   0  0.5707187E-07  0.3501808E+04  0.7818609E-02  0.8113362E-01
       -2   -1    0    0    0  501  0.00000000000E+00  0.00000000000E+00  0.24013649984E+04  0.24013649984E+04  0.25500000920E-02 0. -1.
        2   -1    0    0  501    0  0.00000000000E+00  0.00000000000E+00 -0.12766344911E+04  0.12766344911E+04  0.25500000920E-02 0.  1.
    10030    2    1    2    0    0  0.00000000000E+00  0.00000000000E+00  0.11247305074E+04  0.36779994895E+04  0.35018083229E+04 0.  0.
        1    1    3    3  502    0  0.36359400368E+03  0.99978132567E+03  0.20229828714E+04  0.22856559226E+04  0.50400001928E-02 0. -1.
       -1    1    3    3    0  502 -0.36359400368E+03 -0.99978132567E+03 -0.89825236402E+03  0.13923435669E+04  0.50400001928E-02 0.  1.
</event>
<event>
 5   0  0.1908190E-07  0.3512852E+04  0.7818609E-02  0.8110751E-01
        1   -1    0    0  501    0  0.00000000000E+00  0.00000000000E+00  0.16411186438E+04  0.16411186438E+04  0.50400001928E-02 0.  1.
       -1   -1    0    0    0  501  0.00000000000E+00  0.00000000000E+00 -0.18798350136E+04  0.18798350137E+04  0.50400001928E-02 0. -1.
    10030    2    1    2    0    0  0.00000000000E+00  0.00000000000E+00 -0.23871636988E+03  0.35209536574E+04  0.35128519970E+04 0.  0.
        5    1    3    3  502    0 -0.32721701266E+03  0.40357099235E+03  0.15623282883E+04  0.16464605339E+04  0.46999998093E+01 0.  1.
       -5    1    3    3    0  502  0.32721701266E+03 -0.40357099235E+03 -0.18010446582E+04  0.18744931235E+04  0.46999998093E+01 0. -1.
</event>
<event>
 5   0  0.5677193E-07  0.3516667E+04  0.7818609E-02  0.8109852E-01
       -2   -1    0    0    0  501  0.00000000000E+00  0.00000000000E+00  0.16666198136E+04  0.16666198136E+04  0.25500000920E-02 0. -1.
        2   -1    0    0  501    0  0.00000000000E+00  0.00000000000E+00 -0.18550937268E+04  0.18550937268E+04  0.25500000920E-02 0.  1.
    10030    2    1    2    0    0  0.00000000000E+00  0.00000000000E+00 -0.18847391317E+03  0.35217135404E+04  0.35166665814E+04 0.  0.
        3    1    3    3  502    0 -0.84188341406E+03 -0.54817754519E+03 -0.15393844461E+04  0.18381977008E+04  0.10100000352E+00 0.  1.
       -3    1    3    3    0  502  0.84188341406E+03  0.54817754519E+03  0.13509105330E+04  0.16835158396E+04  0.10100000352E+00 0. -1.
</event>
<event>
 5   0  0.5707187E-07  0.3418691E+04  0.7818609E-02  0.8133334E-01
       -2   -1    0    0    0  501  0.00000000000E+00  0.00000000000E+00  0.13454208047E+04  0.13454208047E+04  0.25500000920E-02 0. -1.
        2   -1    0    0  501    0  0.00000000000E+00  0.00000000000E+00 -0.21717088558E+04  0.21717088558E+04  0.25500000920E-02 0.  1.
    10030    2    1    2    0    0  0.00000000000E+00  0.00000000000E+00 -0.82628805110E+03  0.35171296606E+04  0.34186911393E+04 0.  0.
        1    1    3    3  502    0 -0.12594599154E+04  0.70847002469E+03 -0.13525031280E+04  0.19792508092E+04  0.50400001928E-02 0.  1.
       -1    1    3    3    0  502  0.12594599154E+04 -0.70847002469E+03  0.52621507689E+03  0.15378788514E+04  0.50400001928E-02 0. -1.
</event>
<event>
 5   0  0.1908190E-07  0.3489580E+04  0.7818609E-02  0.8116264E-01
        1   -1    0    0  501    0  0.00000000000E+00  0.00000000000E+00  0.10085717252E+04  0.10085717252E+04  0.50400001928E-02 0.  1.
       -1   -1    0    0    0  501  0.00000000000E+00  0.00000000000E+00 -0.30184192920E+04  0.30184192920E+04  0.50400001928E-02 0. -1.
    10030    2    1    2    0    0  0.00000000000E+00  0.00000000000E+00 -0.20098475668E+04  0.40269910172E+04  0.34895801196E+04 0.  0.
        5    1    3    3  502    0  0.57919787816E+03  0.11434929733E+04  0.36110941828E+03  0.13317163602E+04  0.46999998093E+01 0.  1.
       -5    1    3    3    0  502 -0.57919787816E+03 -0.11434929733E+04 -0.23709569851E+04  0.26952746571E+04  0.46999998093E+01 0. -1.
</event>
<event>
 5   0  0.1897049E-07  0.3497644E+04  0.7818609E-02  0.8114349E-01
       -1   -1    0    0    0  501  0.00000000000E+00  0.00000000000E+00  0.13388678649E+04  0.13388678649E+04  0.50400001928E-02 0.  1.
        1   -1    0    0  501    0  0.00000000000E+00  0.00000000000E+00 -0.22843014440E+04  0.22843014440E+04  0.50400001928E-02 0. -1.
    10030    2    1    2    0    0  0.00000000000E+00  0.00000000000E+00 -0.94543357910E+03  0.36231693089E+04  0.34976436623E+04 0.  0.
        2    1    3    3  502    0  0.97183005337E+03 -0.13797579364E+04 -0.94763775938E+03  0.19355110278E+04  0.25500000920E-02 0. -1.
       -2    1    3    3    0  502 -0.97183005337E+03  0.13797579364E+04  0.22041802769E+01  0.16876582812E+04  0.25500000920E-02 0.  1.
</event>
<event>
 5   0  0.5740827E-07  0.3500179E+04  0.7818609E-02  0.8113748E-01
        2   -1    0    0  501    0  0.00000000000E+00  0.00000000000E+00  0.22220127350E+04  0.22220127350E+04  0.25500000920E-02 0.  1.
       -2   -1    0    0    0  501  0.00000000000E+00  0.00000000000E+00 -0.13783957359E+04  0.13783957359E+04  0.25500000920E-02 0. -1.
    10030    2    1    2    0    0  0.00000000000E+00  0.00000000000E+00  0.84361699904E+03  0.36004084709E+04  0.35001787835E+04 0.  0.
        2    1    3    3  502    0  0.58387134808E+03 -0.15264649855E+04 -0.22206461225E+03  0.16493373806E+04  0.25500000920E-02 0. -1.
       -2    1    3    3    0  502 -0.58387134808E+03  0.15264649855E+04  0.10656816113E+04  0.19510710903E+04  0.25500000920E-02 0.  1.
</event>
<event>
 5   0  0.5740827E-07  0.3442954E+04  0.7818609E-02  0.8127444E-01
       -2   -1    0    0    0  501  0.00000000000E+00  0.00000000000E+00  0.12445838196E+04  0.12445838196E+04  0.25500000920E-02 0.  1.
        2   -1    0    0  501    0  0.00000000000E+00  0.00000000000E+00 -0.23811034495E+04  0.23811034495E+04  0.25500000920E-02 0. -1.
    10030    2    1    2    0    0  0.00000000000E+00  0.00000000000E+00 -0.11365196300E+04  0.36256872691E+04  0.34429538632E+04 0.  0.
        2    1    3    3  502    0 -0.68903303769E+03 -0.94839357865E+03  0.75931016646E+03  0.13966992647E+04  0.25500000920E-02 0.  1.
       -2    1    3    3    0  502  0.68903303769E+03  0.94839357865E+03 -0.18958297964E+04  0.22289880045E+04  0.25500000920E-02 0. -1.
</event>
<event>
 5   0  0.1873457E-07  0.3526451E+04  0.7818609E-02  0.8107550E-01
       -1   -1    0    0    0  501  0.00000000000E+00  0.00000000000E+00  0.16560469806E+04  0.16560469806E+04  0.50400001928E-02 0. -1.
        1   -1    0    0  501    0  0.00000000000E+00  0.00000000000E+00 -0.18773403586E+04  0.18773403586E+04  0.50400001928E-02 0.  1.
    10030    2    1    2    0    0  0.00000000000E+00  0.00000000000E+00 -0.22129337800E+03  0.35333873392E+04  0.35264508121E+04 0.  0.
        3    1    3    3  502    0 -0.86064561016E+03  0.19098039315E+03 -0.16406668475E+04  0.18625176755E+04  0.10100000352E+00 0.  1.
       -3    1    3    3    0  502  0.86064561016E+03 -0.19098039315E+03  0.14193734695E+04  0.16708696637E+04  0.10100000352E+00 0. -1.
</event>
<event>
 5   0  0.1897049E-07  0.3389256E+04  0.7818609E-02  0.8140548E-01
        1   -1    0    0  501    0  0.00000000000E+00  0.00000000000E+00  0.83537661111E+03  0.83537661113E+03  0.50400001928E-02 0. -1.
       -1   -1    0    0    0  501  0.00000000000E+00  0.00000000000E+00 -0.34376887632E+04  0.34376887632E+04  0.50400001928E-02 0.  1.
    10030    2    1    2    0    0  0.00000000000E+00  0.00000000000E+00 -0.26023121521E+04  0.42730653744E+04  0.33892564312E+04 0.  0.
        2    1    3    3  502    0 -0.13957521695E+04  0.42627930364E+03 -0.23871204722E+04  0.27978889028E+04  0.25500000920E-02 0. -1.
       -2    1    3    3    0  502  0.13957521695E+04 -0.42627930364E+03 -0.21519167988E+03  0.14751764716E+04  0.25500000920E-02 0.  1.
</event>
<event>
 5   0  0.5707187E-07  0.3490243E+04  0.7818609E-02  0.8116106E-01
        2   -1    0    0  501    0  0.00000000000E+00  0.00000000000E+00  0.33419589082E+04  0.33419589082E+04  0.25500000920E-02 0.  1.
       -2   -1    0    0    0  501  0.00000000000E+00  0.00000000000E+00 -0.91127663852E+03  0.91127663852E+03  0.25500000920E-02 0. -1.
    10030    2    1    2    0    0  0.00000000000E+00  0.00000000000E+00  0.24306822697E+04  0.42532355467E+04  0.34902430173E+04 0.  0.
        1    1    3    3  502    0 -0.84910384924E+02 -0.87916505306E+03 -0.61877743694E+03  0.10784370545E+04  0.50400001928E-02 0. -1.
       -1    1    3    3    0  502  0.84910384924E+02  0.87916505306E+03  0.30494597066E+04  0.31747984922E+04  0.50400001928E-02 0.  1.
</event>
<event>
 5   0  0.1933647E-07  0.3488158E+04  0.7818609E-02  0.8116602E-01
       -1   -1    0    0    0  501  0.00000000000E+00  0.00000000000E+00  0.11034023574E+04  0.11034023574E+04  0.50400001928E-02 0.  1.
        1   -1    0    0  501    0  0.00000000000E+00  0.00000000000E+00 -0.27567559502E+04  0.27567559502E+04  0.50400001928E-02 0. -1.
    10030    2    1    2    0    0  0.00000000000E+00  0.00000000000E+00 -0.16533535928E+04  0.38601583076E+04  0.34881576880E+04 0.  0.
        4    1    3    3  502    0 -0.10304162025E+04 -0.95857659410E+03  0.31332123082E+03  0.14418038853E+04  0.12699999809E+01 0.  1.
       -4    1    3    3    0  502  0.10304162025E+04  0.95857659410E+03 -0.19666748236E+04  0.24183544223E+04  0.12699999809E+01 0. -1.
</event>
<event>
 5   0  0.5707187E-07  0.3474005E+04  0.7818609E-02  0.8119978E-01
       -2   -1    0    0    0  501  0.00000000000E+00  0.00000000000E+00  0.18066373840E+04  0.18066373840E+04  0.25500000920E-02 0.  1.
        2   -1    0    0  501    0  0.00000000000E+00  0.00000000000E+00 -0.16700518496E+04  0.16700518496E+04  0.25500000920E-02 0. -1.
    10030    2    1    2    0    0  0.00000000000E+00  0.00000000000E+00  0.13658553447E+03  0.34766892336E+04  0.34740052416E+04 0.  0.
        1    1    3    3  502    0  0.66941026704E+03 -0.15571087003E+04 -0.31210679897E+03  0.17234002043E+04  0.50400001928E-02 0. -1.
       -1    1    3    3    0  502 -0.66941026704E+03  0.15571087003E+04  0.44869233345E+03  0.17532890293E+04  0.50400001928E-02 0.  1.
</event>
<event>
 5   0  0.1866421E-07  0.3454485E+04  0.7818609E-02  0.8124662E-01
        1   -1    0    0  501    0  0.00000000000E+00  0.00000000000E+00  0.16394538502E+04  0.16394538502E+04  0.50400001928E-02 0.  1.
       -1   -1    0    0    0  501  0.00000000000E+00  0.00000000000E+00 -0.18197316114E+04  0.18197316114E+04  0.50400001928E-02 0. -1.
    10030    2    1    2    0    0  0.00000000000E+00  0.00000000000E+00 -0.18027776122E+03  0.34591854616E+04  0.34544846195E+04 0.  0.
        1    1    3    3  502    0 -0.12711126204E+04 -0.71842995266E+03 -0.10141605833E+04  0.17777487391E+04  0.50400001928E-02 0. -1.
       -1    1    3    3    0  502  0.12711126204E+04  0.71842995266E+03  0.83388282208E+03  0.16814367225E+04  0.50400001928E-02 0.  1.
</event>
<event>
 5   0  0.5573334E-07  0.3499364E+04  0.7818609E-02  0.8113941E-01
        2   -1    0    0  501    0  0.00000000000E+00  0.00000000000E+00  0.19665571129E+04  0.19665571129E+04  0.25500000920E-02 0. -1.
       -2   -1    0    0    0  501  0.00000000000E+00  0.00000000000E+00 -0.15567245244E+04  0.15567245244E+04  0.25500000920E-02 0.  1.
    10030    2    1    2    0    0  0.00000000000E+00  0.00000000000E+00  0.40983258854E+03  0.35232816372E+04  0.34993643344E+04 0.  0.
        4    1    3    3  502    0  0.37015806112E+03  0.17030963602E+04  0.36034716058E+03  0.17797207341E+04  0.12699999809E+01 0. -1.
       -4    1    3    3    0  502 -0.37015806112E+03 -0.17030963602E+04  0.49485427958E+02  0.17435609031E+04  0.12699999809E+01 0.  1.
</event>
<event>
 5   0  0.1823000E-07  0.3486137E+04  0.7818609E-02  0.8117083E-01
       -3   -1    0    0    0  501  0.00000000000E+00  0.00000000000E+00  0.24362289811E+04  0.24362289832E+04  0.10100000352E+00 0. -1.
        3   -1    0    0  501    0  0.00000000000E+00  0.00000000000E+00 -0.12471272551E+04  0.12471272592E+04  0.10100000352E+00 0.  1.
    10030    2    1    2    0    0  0.00000000000E+00  0.00000000000E+00  0.11891017260E+04  0.36833562423E+04  0.34861368724E+04 0.  0.
        5    1    3    3  502    0  0.13446154735E+04  0.10521357587E+04  0.96553429134E+03  0.19614430871E+04  0.46999998093E+01 0. -1.
       -5    1    3    3    0  502 -0.13446154735E+04 -0.10521357587E+04  0.22356743468E+03  0.17219131552E+04  0.46999998093E+01 0.  1.
</event>
<event>
 5   0  0.5677193E-07  0.3514493E+04  0.7818609E-02  0.8110364E-01
        2   -1    0    0  501    0  0.00000000000E+00  0.00000000000E+00  0.21882682781E+04  0.21882682781E+04  0.25500000920E-02 0. -1.
       -2   -1    0    0    0  501  0.00000000000E+00  0.00000000000E+00 -0.14111230966E+04  0.14111230966E+04  0.25500000920E-02 0.  1.
    10030    2    1    2    0    0  0.00000000000E+00  0.00000000000E+00  0.77714518156E+03  0.35993913747E+04  0.35144933682E+04 0.  0.
        3    1    3    3  502    0 -0.52235424130E+03  0.61977191189E+03  0.19853849494E+04  0.21444637054E+04  0.10100000352E+00 0. -1.
       -3    1    3    3    0  502  0.52235424130E+03 -0.61977191189E+03 -0.12082397678E+04  0.14549276693E+04  0.10100000352E+00 0.  1.
</event>
<event>
 5   0  0.5740827E-07  0.3495588E+04  0.7818609E-02  0.8114836E-01
       -2   -1    0    0    0  501  0.00000000000E+00  0.00000000000E+00  0.13853656151E+04  0.13853656151E+04  0.25500000920E-02 0.  1.
        2   -1    0    0  501    0  0.00000000000E+00  0.00000000000E+00 -0.22050382403E+04  0.22050382403E+04  0.25500000920E-02 0. -1.
    10030    2    1    2    0    0  0.00000000000E+00  0.00000000000E+00 -0.81967262516E+03  0.35904038554E+04  0.34955881669E+04 0.  0.
        2    1    3    3  502    0  0.63895909875E+02  0.34274572859E+02 -0.22034927597E+04  0.22046854142E+04  0.25500000920E-02 0. -1.
       -2    1    3    3    0  502 -0.63895909875E+02 -0.34274572859E+02  0.13838201345E+04  0.13857184412E+04  0.25500000920E-02 0.  1.
</event>
<event>
 5   0  0.5707187E-07  0.3468244E+04  0.7818609E-02  0.8121357E-01
        2   -1    0    0  501    0  0.00000000000E+00  0.00000000000E+00  0.24183305391E+04  0.24183305391E+04  0.25500000920E-02 0. -1.
       -2   -1    0    0    0  501  0.00000000000E+00  0.00000000000E+00 -0.12434937534E+04  0.12434937534E+04  0.25500000920E-02 0.  1.
    10030    2    1    2    0    0  0.00000000000E+00  0.00000000000E+00  0.11748367857E+04  0.36618242925E+04  0.34682438894E+04 0.  0.
        1    1    3    3  502    0  0.21500325438E+03 -0.16766722046E+04  0.17888092110E+03  0.16998395410E+04  0.50400001928E-02 0.  1.
       -1    1    3    3    0  502 -0.21500325438E+03  0.16766722046E+04  0.99595586465E+03  0.19619847516E+04  0.50400001928E-02 0. -1.
</event>
<event>
 5   0  0.1933647E-07  0.3524856E+04  0.7818609E-02  0.8107924E-01
       -1   -1    0    0    0  501  0.00000000000E+00  0.00000000000E+00  0.24413474477E+04  0.24413474477E+04  0.50400001928E-02 0. -1.
        1   -1    0    0  501    0  0.00000000000E+00  0.00000000000E+00 -0.12723108320E+04  0.12723108320E+04  0.50400001928E-02 0.  1.
    10030    2    1    2    0    0  0.00000000000E+00  0.00000000000E+00  0.11690366156E+04  0.37136582797E+04  0.35248561970E+04 0.  0.
        4    1    3    3  502    0 -0.12897412202E+03  0.59102794738E+02  0.24353211814E+04  0.24394504164E+04  0.12699999809E+01 0. -1.
       -4    1    3    3    0  502  0.12897412202E+03 -0.59102794738E+02 -0.12662845658E+04  0.12742078633E+04  0.12699999809E+01 0.  1.
</event>
<event>
 5   0  0.5740827E-07  0.3500675E+04  0.7818609E-02  0.8113630E-01
        2   -1    0    0  501    0  0.00000000000E+00  0.00000000000E+00  0.20890267995E+04  0.20890267995E+04  0.25500000920E-02 0. -1.
       -2   -1    0    0    0  501  0.00000000000E+00  0.00000000000E+00 -0.14665593228E+04  0.14665593228E+04  0.25500000920E-02 0.  1.
    10030    2    1    2    0    0  0.00000000000E+00  0.00000000000E+00  0.62246747671E+03  0.35555861222E+04  0.35006752082E+04 0.  0.
        2    1    3    3  502    0 -0.64164173428E+03  0.26203819807E+03  0.19437140355E+04  0.20635872611E+04  0.25500000920E-02 0. -1.
       -2    1    3    3    0  502  0.64164173428E+03 -0.26203819807E+03 -0.13212465588E+04  0.14919988611E+04  0.25500000920E-02 0.  1.
</event>
<event>
 5   0  0.1908190E-07  0.3512230E+04  0.7818609E-02  0.8110898E-01
       -1   -1    0    0    0  501  0.00000000000E+00  0.00000000000E+00  0.12757595440E+04  0.12757595441E+04  0.50400001928E-02 0. -1.
        1   -1    0    0  501    0  0.00000000000E+00  0.00000000000E+00 -0.24173365926E+04  0.24173365926E+04  0.50400001928E-02 0.  1.
    10030    2    1    2    0    0  0.00000000000E+00  0.00000000000E+00 -0.11415770485E+04  0.36930961366E+04  0.35122301913E+04 0.  0.
        5    1    3    3  502    0  0.65066690146E+03  0.64303681968E+03 -0.21469998066E+04  0.23337724884E+04  0.46999998093E+01 0.  1.
       -5    1    3    3    0  502 -0.65066690146E+03 -0.64303681968E+03  0.10054227581E+04  0.13593236482E+04  0.46999998093E+01 0. -1.
</event>
<event>
 5   0  0.1933647E-07  0.3408555E+04  0.7818609E-02  0.8135810E-01
        1   -1    0    0  501    0  0.00000000000E+00  0.00000000000E+00  0.15184087753E+04  0.15184087753E+04  0.50400001928E-02 0. -1.
       -1   -1    0    0    0  501  0.00000000000E+00  0.00000000000E+00 -0.19128987526E+04  0.19128987526E+04  0.50400001928E-02 0.  1.
    10030    2    1    2    0    0  0.00000000000E+00  0.00000000000E+00 -0.39448997731E+03  0.34313075280E+04  0.34085552672E+04 0.  0.
        4    1    3    3  502    0  0.48924345558E+03 -0.98750935858E+03 -0.15059329036E+04  0.18661107725E+04  0.12699999809E+01 0.  1.
       -4    1    3    3    0  502 -0.48924345558E+03  0.98750935858E+03  0.11114429263E+04  0.15651967555E+04  0.12699999809E+01 0. -1.
</event>
<event>
 5   0  0.1897049E-07  0.3476556E+04  0.7818609E-02  0.8119368E-01
       -1   -1    0    0    0  501  0.00000000000E+00  0.00000000000E+00  0.12737210636E+04  0.12737210636E+04  0.50400001928E-02 0.  1.
        1   -1    0    0  501    0  0.00000000000E+00  0.00000000000E+00 -0.23722702342E+04  0.23722702342E+04  0.50400001928E-02 0. -1.
    10030    2    1    2    0    0  0.00000000000E+00  0.00000000000E+00 -0.10985491706E+04  0.36459912978E+04  0.34765560923E+04 0.  0.
        2    1    3    3  502    0  0.47595790938E+03 -0.16607069303E+04 -0.75134933671E+03  0.18838814362E+04  0.25500000920E-02 0. -1.
       -2    1    3    3    0  502 -0.47595790938E+03  0.16607069303E+04 -0.34719983388E+03  0.17621098616E+04  0.25500000920E-02 0.  1.
</event>
<event>
 5   0  0.1908190E-07  0.3273371E+04  0.7818609E-02  0.8169704E-01
        1   -1    0    0  501    0  0.00000000000E+00  0.00000000000E+00  0.23752483543E+04  0.23752483543E+04  0.50400001928E-02 0.  1.
       -1   -1    0    0    0  501  0.00000000000E+00  0.00000000000E+00 -0.11277726736E+04  0.11277726736E+04  0.50400001928E-02 0. -1.
    10030    2    1    2    0    0  0.00000000000E+00  0.00000000000E+00  0.12474756807E+04  0.35030210279E+04  0.32733714650E+04 0.  0.
        5    1    3    3  502    0  0.11636387117E+04 -0.76014852862E+03 -0.30108903237E+03  0.14221664925E+04  0.46999998093E+01 0.  1.
       -5    1    3    3    0  502 -0.11636387117E+04  0.76014852862E+03  0.15485647131E+04  0.20808545354E+04  0.46999998093E+01 0. -1.
</event>
<event>
 5   0  0.5707187E-07  0.3493534E+04  0.7818609E-02  0.8115324E-01
       -2   -1    0    0    0  501  0.00000000000E+00  0.00000000000E+00  0.29845796449E+04  0.29845796449E+04  0.25500000920E-02 0.  1.
        2   -1    0    0  501    0  0.00000000000E+00  0.00000000000E+00 -0.10223199910E+04  0.10223199911E+04  0.25500000920E-02 0. -1.
    10030    2    1    2    0    0  0.00000000000E+00  0.00000000000E+00  0.19622596538E+04  0.40068996359E+04  0.34935342768E+04 0.  0.
        1    1    3    3  502    0 -0.27540561166E+03  0.64559313196E+03 -0.85346843631E+03  0.11050100066E+04  0.50400001928E-02 0. -1.
       -1    1    3    3    0  502  0.27540561166E+03 -0.64559313196E+03  0.28157280901E+04  0.29018896293E+04  0.50400001928E-02 0.  1.
</event>
<event>
 5   0  0.5573334E-07  0.3500453E+04  0.7818609E-02  0.8113683E-01
        2   -1    0    0  501    0  0.00000000000E+00  0.00000000000E+00  0.23143370919E+04  0.23143370919E+04  0.25500000920E-02 0. -1.
       -2   -1    0    0    0  501  0.00000000000E+00  0.00000000000E+00 -0.13236157748E+04  0.13236157748E+04  0.25500000920E-02 0.  1.
    10030    2    1    2    0    0  0.00000000000E+00  0.00000000000E+00  0.99072131709E+03  0.36379528668E+04  0.35004531610E+04 0.  0.
        4    1    3    3  502    0  0.60035528616E+03  0.83814871659E+03  0.19652618819E+04  0.22192736690E+04  0.12699999809E+01 0. -1.
       -4    1    3    3    0  502 -0.60035528616E+03 -0.83814871659E+03 -0.97454056480E+03  0.14186791977E+04  0.12699999809E+01 0.  1.
</event>
<event>
 5   0  0.5677193E-07  0.3569416E+04  0.7818609E-02  0.8097534E-01
       -2   -1    0    0    0  501  0.00000000000E+00  0.00000000000E+00  0.12839991307E+04  0.12839991307E+04  0.25500000920E-02 0. -1.
        2   -1    0    0  501    0  0.00000000000E+00  0.00000000000E+00 -0.24806729135E+04  0.24806729135E+04  0.25500000920E-02 0.  1.
    10030    2    1    2    0    0  0.00000000000E+00  0.00000000000E+00 -0.11966737828E+04  0.37646720441E+04  0.35694155624E+04 0.  0.
        3    1    3    3  502    0 -0.54805917997E+03  0.16955783408E+04 -0.70289128170E+03  0.19155706561E+04  0.10100000352E+00 0. -1.
       -3    1    3    3    0  502  0.54805917997E+03 -0.16955783408E+04 -0.49378250111E+03  0.18491013880E+04  0.10100000352E+00 0.  1.
</event>
<event>
 5   0  0.1897049E-07  0.3446501E+04  0.7818609E-02  0.8126587E-01
        1   -1    0    0  501    0  0.00000000000E+00  0.00000000000E+00  0.25976858148E+04  0.25976858148E+04  0.50400001928E-02 0.  1.
       -1   -1    0    0    0  501  0.00000000000E+00  0.00000000000E+00 -0.11431684546E+04  0.11431684546E+04  0.50400001928E-02 0. -1.
    10030    2    1    2    0    0  0.00000000000E+00  0.00000000000E+00  0.14545173602E+04  0.37408542694E+04  0.34465011118E+04 0.  0.
        2    1    3    3  502    0  0.10669091213E+04 -0.86564028134E+03 -0.40175403845E+03  0.14314448914E+04  0.25500000920E-02 0. -1.
       -2    1    3    3    0  502 -0.10669091213E+04  0.86564028134E+03  0.18562713986E+04  0.23094093780E+04  0.25500000920E-02 0.  1.
</event>
<event>
 5   0  0.1897049E-07  0.3541044E+04  0.7818609E-02  0.8104131E-01
       -1   -1    0    0    0  501  0.00000000000E+00  0.00000000000E+00  0.16516713821E+04  0.16516713821E+04  0.50400001928E-02 0.  1.
        1   -1    0    0  501    0  0.00000000000E+00  0.00000000000E+00 -0.18979250932E+04  0.18979250932E+04  0.50400001928E-02 0. -1.
    10030    2    1    2    0    0  0.00000000000E+00  0.00000000000E+00 -0.24625371104E+03  0.35495964753E+04  0.35410442312E+04 0.  0.
        2    1    3    3  502    0  0.57121885906E+03 -0.73264593517E+03 -0.16339788703E+04  0.18796137901E+04  0.25500000920E-02 0. -1.
       -2    1    3    3    0  502 -0.57121885906E+03  0.73264593517E+03  0.13877251593E+04  0.16699826852E+04  0.25500000920E-02 0.  1.
</event>
<event>
 5   0  0.1933647E-07  0.3504304E+04  0.7818609E-02  0.8112771E-01
       -1   -1    0    0    0  501  0.00000000000E+00  0.00000000000E+00  0.14840591847E+04  0.14840591847E+04  0.50400001928E-02 0. -1.
        1   -1    0    0  501    0  0.00000000000E+00  0.00000000000E+00 -0.20686753275E+04  0.20686753276E+04  0.50400001928E-02 0.  1.
    10030    2    1    2    0    0  0.00000000000E+00  0.00000000000E+00 -0.58461614282E+03  0.35527345123E+04  0.35043039937E+04 0.  0.
        4    1    3    3  502    0  0.30451087794E+02  0.24938297059E+03 -0.20503192005E+04  0.20656547562E+04  0.12699999809E+01 0.  1.
       -4    1    3    3    0  502 -0.30451087794E+02 -0.24938297059E+03  0.14657030577E+04  0.14870797561E+04  0.12699999809E+01 0. -1.
</event>
<event>
 5   0  0.1873457E-07  0.3081029E+04  0.7818609E-02  0.8220964E-01
        1   -1    0    0  501    0  0.00000000000E+00  0.00000000000E+00  0.87443447655E+03  0.87443447657E+03  0.50400001928E-02 0.  1.
       -1   -1    0    0    0  501  0.00000000000E+00  0.00000000000E+00 -0.27139653610E+04  0.27139653610E+04  0.50400001928E-02 0. -1.
    10030    2    1    2    0    0  0.00000000000E+00  0.00000000000E+00 -0.18395308844E+04  0.35883998376E+04  0.30810289709E+04 0.  0.
        3    1    3    3  502    0 -0.37736781635E+03 -0.14580541180E+04 -0.12969057150E+04  0.19875343327E+04  0.10100000352E+00 0. -1.
       -3    1    3    3    0  502  0.37736781635E+03  0.14580541180E+04 -0.54262516940E+03  0.16008655048E+04  0.10100000352E+00 0.  1.
</event>
<event>
 5   0  0.5573334E-07  0.3509497E+04  0.7818609E-02  0.8111543E-01
       -2   -1    0    0    0  501  0.00000000000E+00  0.00000000000E+00  0.15198980849E+04  0.15198980849E+04  0.25500000920E-02 0.  1.
        2   -1    0    0  501    0  0.00000000000E+00  0.00000000000E+00 -0.20258872952E+04  0.20258872952E+04  0.25500000920E-02 0. -1.
    10030    2    1    2    0    0  0.00000000000E+00  0.00000000000E+00 -0.50598921033E+03  0.35457853800E+04  0.35094969555E+04 0.  0.
        4    1    3    3  502    0 -0.74884009989E+03 -0.24618732747E+03 -0.18369329588E+04  0.19989232110E+04  0.12699999809E+01 0. -1.
       -4    1    3    3    0  502  0.74884009989E+03  0.24618732747E+03  0.13309437485E+04  0.15468621690E+04  0.12699999809E+01 0.  1.
</event>
<event>
 5   0  0.5554745E-07  0.3251459E+04  0.7818609E-02  0.8175358E-01
        2   -1    0    0  501    0  0.00000000000E+00  0.00000000000E+00  0.90634853083E+03  0.90634853083E+03  0.25500000920E-02 0. -1.
       -2   -1    0    0    0  501  0.00000000000E+00  0.00000000000E+00 -0.29160932336E+04  0.29160932336E+04  0.25500000920E-02 0.  1.
    10030    2    1    2    0    0  0.00000000000E+00  0.00000000000E+00 -0.20097447028E+04  0.38224417645E+04  0.32514592527E+04 0.  0.
        5    1    3    3  502    0  0.12245261665E+04 -0.37789527811E+03 -0.21808950845E+04  0.25295443529E+04  0.46999998093E+01 0.  1.
       -5    1    3    3    0  502 -0.12245261665E+04  0.37789527811E+03  0.17115038166E+03  0.12928974116E+04  0.46999998093E+01 0. -1.
</event>
<event>
 5   0  0.1908190E-07  0.3500982E+04  0.7818609E-02  0.8113557E-01
       -1   -1    0    0    0  501  0.00000000000E+00  0.00000000000E+00  0.17475726034E+04  0.17475726034E+04  0.50400001928E-02 0. -1.
        1   -1    0    0  501    0  0.00000000000E+00  0.00000000000E+00 -0.17534139726E+04  0.17534139726E+04  0.50400001928E-02 0.  1.
    10030    2    1    2    0    0  0.00000000000E+00  0.00000000000E+00 -0.58413692251E+01  0.35009865760E+04  0.35009817028E+04 0.  0.
        5    1    3    3  502    0 -0.12264556692E+04 -0.74902279646E+03 -0.10024056788E+04  0.17521609210E+04  0.46999998093E+01 0.  1.
       -5    1    3    3    0  502  0.12264556692E+04  0.74902279646E+03  0.99656430959E+03  0.17488256549E+04  0.46999998093E+01 0. -1.
</event>
<event>
 5   0  0.5707187E-07  0.3466912E+04  0.7818609E-02  0.8121676E-01
        2   -1    0    0  501    0  0.00000000000E+00  0.00000000000E+00  0.20947515376E+04  0.20947515376E+04  0.25500000920E-02 0.  1.
       -2   -1    0    0    0  501  0.00000000000E+00  0.00000000000E+00 -0.14344752601E+04  0.14344752601E+04  0.25500000920E-02 0. -1.
    10030    2    1    2    0    0  0.00000000000E+00  0.00000000000E+00  0.66027627745E+03  0.35292267977E+04  0.34669117420E+04 0.  0.
        1    1    3    3  502    0  0.13684982785E+04  0.28710593086E+03 -0.71280211761E+03  0.15694917052E+04  0.50400001928E-02 0.  1.
       -1    1    3    3    0  502 -0.13684982785E+04 -0.28710593086E+03  0.13730783951E+04  0.19597350925E+04  0.50400001928E-02 0. -1.
</event>
<event>
 5   0  0.5740827E-07  0.3611868E+04  0.7818609E-02  0.8087779E-01
       -2   -1    0    0    0  501  0.00000000000E+00  0.00000000000E+00  0.12232651466E+04  0.12232651467E+04  0.25500000920E-02 0. -1.
        2   -1    0    0  501    0  0.00000000000E+00  0.00000000000E+00 -0.26661406202E+04  0.26661406202E+04  0.25500000920E-02 0.  1.
    10030    2    1    2    0    0  0.00000000000E+00  0.00000000000E+00 -0.14428754736E+04  0.38894057669E+04  0.36118676038E+04 0.  0.
        2    1    3    3  502    0 -0.74502259175E+00  0.14739467270E+04  0.40223778655E+03  0.15278464406E+04  0.25500000920E-02 0. -1.
       -2    1    3    3    0  502  0.74502259175E+00 -0.14739467270E+04 -0.18451132601E+04  0.23615593263E+04  0.25500000920E-02 0.  1.
</event>
<event>
 5   0  0.5740827E-07  0.3493536E+04  0.7818609E-02  0.8115324E-01
       -2   -1    0    0    0  501  0.00000000000E+00  0.00000000000E+00  0.17926390800E+04  0.17926390800E+04  0.25500000920E-02 0. -1.
        2   -1    0    0  501    0  0.00000000000E+00  0.00000000000E+00 -0.17020704914E+04  0.17020704914E+04  0.25500000920E-02 0.  1.
    10030    2    1    2    0    0  0.00000000000E+00  0.00000000000E+00  0.90568588534E+02  0.34947095714E+04  0.34935357905E+04 0.  0.
        2    1    3    3  502    0 -0.11100482452E+04 -0.56407220106E+02  0.13932566896E+04  0.17822887208E+04  0.25500000920E-02 0. -1.
       -2    1    3    3    0  502  0.11100482452E+04  0.56407220106E+02 -0.13026881010E+04  0.17124208506E+04  0.25500000920E-02 0.  1.
</event>
<event>
 5   0  0.1933647E-07  0.3499274E+04  0.7818609E-02  0.8113962E-01
       -1   -1    0    0    0  501  0.00000000000E+00  0.00000000000E+00  0.12138171383E+04  0.12138171383E+04  0.50400001928E-02 0.  1.
        1   -1    0    0  501    0  0.00000000000E+00  0.00000000000E+00 -0.25219862586E+04  0.25219862586E+04  0.50400001928E-02 0. -1.
    10030    2    1    2    0    0  0.00000000000E+00  0.00000000000E+00 -0.13081691203E+04  0.37358033970E+04  0.34992742924E+04 0.  0.
        4    1    3    3  502    0  0.32649705477E+03  0.72246990245E+03 -0.23192110100E+04  0.24509802954E+04  0.12699999809E+01 0. -1.
       -4    1    3    3    0  502 -0.32649705477E+03 -0.72246990245E+03  0.10110418897E+04  0.12848231016E+04  0.12699999809E+01 0.  1.
</event>
<event>
 5   0  0.1866421E-07  0.3510614E+04  0.7818609E-02  0.8111279E-01
       -1   -1    0    0    0  501  0.00000000000E+00  0.00000000000E+00  0.15038996276E+04  0.15038996276E+04  0.50400001928E-02 0. -1.
        1   -1    0    0  501    0  0.00000000000E+00  0.00000000000E+00 -0.20487417769E+04  0.20487417769E+04  0.50400001928E-02 0.  1.
    10030    2    1    2    0    0  0.00000000000E+00  0.00000000000E+00 -0.54484214931E+03  0.35526414045E+04  0.35106136190E+04 0.  0.
        1    1    3    3  502    0 -0.16078631748E+04 -0.15377144195E+03  0.42299737306E+03  0.16696695550E+04  0.50400001928E-02 0. -1.
       -1    1    3    3    0  502  0.16078631748E+04  0.15377144195E+03 -0.96783952236E+03  0.18829718496E+04  0.50400001928E-02 0.  1.
</event>
<event>
 5   0  0.5554745E-07  0.3494709E+04  0.7818609E-02  0.8115045E-01
        2   -1    0    0  501    0  0.00000000000E+00  0.00000000000E+00  0.19119481676E+04  0.19119481676E+04  0.25500000920E-02 0. -1.
       -2   -1    0    0    0  501  0.00000000000E+00  0.00000000000E+00 -0.15969302010E+04  0.15969302010E+04  0.25500000920E-02 0.  1.
    10030    2    1    2    0    0  0.00000000000E+00  0.00000000000E+00  0.31501796657E+03  0.35088783685E+04  0.34947090131E+04 0.  0.
        5    1    3    3  502    0  0.11877370064E+04 -0.12560053135E+04  0.41340924711E+03  0.17774132439E+04  0.46999998093E+01 0.  1.
       -5    1    3    3    0  502 -0.11877370064E+04  0.12560053135E+04 -0.98391280540E+02  0.17314651247E+04  0.46999998093E+01 0. -1.
</event>
<event>
 5   0  0.1908190E-07  0.3397429E+04  0.7818609E-02  0.8138538E-01
       -1   -1    0    0    0  501  0.00000000000E+00  0.00000000000E+00  0.16789261482E+04  0.16789261482E+04  0.50400001928E-02 0.  1.
        1   -1    0    0  501    0  0.00000000000E+00  0.00000000000E+00 -0.17187360407E+04  0.17187360407E+04  0.50400001928E-02 0. -1.
    10030    2    1    2    0    0  0.00000000000E+00  0.00000000000E+00 -0.39809892529E+02  0.33976621889E+04  0.33974289576E+04 0.  0.
        5    1    3    3  502    0 -0.53722433134E+03 -0.15880472340E+04 -0.29397629293E+03  0.17020423468E+04  0.46999998093E+01 0. -1.
       -5    1    3    3    0  502  0.53722433134E+03  0.15880472340E+04  0.25416640040E+03  0.16956198420E+04  0.46999998093E+01 0.  1.
</event>
<event>
 5   0  0.5740827E-07  0.3491417E+04  0.7818609E-02  0.8115827E-01
       -2   -1    0    0    0  501  0.00000000000E+00  0.00000000000E+00  0.12075150527E+04  0.12075150527E+04  0.25500000920E-02 0.  1.
        2   -1    0    0  501    0  0.00000000000E+00  0.00000000000E+00 -0.25237760565E+04  0.25237760565E+04  0.25500000920E-02 0. -1.
    10030    2    1    2    0    0  0.00000000000E+00  0.00000000000E+00 -0.13162610039E+04  0.37312911092E+04  0.34914166625E+04 0.  0.
        2    1    3    3  502    0  0.12039542467E+03 -0.12835458230E+04 -0.19160785314E+04  0.23094029264E+04  0.25500000920E-02 0. -1.
       -2    1    3    3    0  502 -0.12039542467E+03  0.12835458230E+04  0.59981752750E+03  0.14218881828E+04  0.25500000920E-02 0.  1.
</event>
<event>
 5   0  0.5573334E-07  0.3429841E+04  0.7818609E-02  0.8130621E-01
       -2   -1    0    0    0  501  0.00000000000E+00  0.00000000000E+00  0.11881709009E+04  0.11881709010E+04  0.25500000920E-02 0.  1.
        2   -1    0    0  501    0  0.00000000000E+00  0.00000000000E+00 -0.24751929358E+04  0.24751929358E+04  0.25500000920E-02 0. -1.
    10030    2    1    2    0    0  0.00000000000E+00  0.00000000000E+00 -0.12870220348E+04  0.36633638367E+04  0.34298409412E+04 0.  0.
        4    1    3    3  502    0  0.46430632541E+03  0.14702297427E+04  0.15847461243E+03  0.15499263453E+04  0.12699999809E+01 0.  1.
       -4    1    3    3    0  502 -0.46430632541E+03 -0.14702297427E+04 -0.14454966472E+04  0.21134374914E+04  0.12699999809E+01 0. -1.
</event>
<event>
 5   0  0.1933647E-07  0.3257122E+04  0.7818609E-02  0.8173892E-01
       -1   -1    0    0    0  501  0.00000000000E+00  0.00000000000E+00  0.85473440065E+03  0.85473440067E+03  0.50400001928E-02 0. -1.
        1   -1    0    0  501    0  0.00000000000E+00  0.00000000000E+00 -0.31029643306E+04  0.31029643306E+04  0.50400001928E-02 0.  1.
    10030    2    1    2    0    0  0.00000000000E+00  0.00000000000E+00 -0.22482299299E+04  0.39576987312E+04  0.32571216479E+04 0.  0.
        4    1    3    3  502    0  0.12714837310E+03  0.15519314428E+04 -0.17037411102E+04  0.23081146625E+04  0.12699999809E+01 0.  1.
       -4    1    3    3    0  502 -0.12714837310E+03 -0.15519314428E+04 -0.54448881975E+03  0.16495840687E+04  0.12699999809E+01 0. -1.
</event>
<event>
 5   0  0.5554745E-07  0.3523783E+04  0.7818609E-02  0.8108177E-01
       -2   -1    0    0    0  501  0.00000000000E+00  0.00000000000E+00  0.11596313286E+04  0.11596313286E+04  0.25500000920E-02 0. -1.
        2   -1    0    0  501    0  0.00000000000E+00  0.00000000000E+00 -0.26769381560E+04  0.26769381560E+04  0.25500000920E-02 0.  1.
    10030    2    1    2    0    0  0.00000000000E+00  0.00000000000E+00 -0.15173068274E+04  0.38365694846E+04  0.35237828255E+04 0.  0.
        5    1    3    3  502    0 -0.14703311338E+03 -0.15821170201E+04  0.70186187492E+02  0.15904908653E+04  0.46999998093E+01 0. -1.
       -5    1    3    3    0  502  0.14703311338E+03  0.15821170201E+04 -0.15874930149E+04  0.22460786193E+04  0.46999998093E+01 0.  1.
</event>
<event>
 5   0  0.5677193E-07  0.3492387E+04  0.7818609E-02  0.8115596E-01
       -2   -1    0    0    0  501  0.00000000000E+00  0.00000000000E+00  0.14188620569E+04  0.14188620569E+04  0.25500000920E-02 0. -1.
        2   -1    0    0  501    0  0.00000000000E+00  0.00000000000E+00 -0.21490403670E+04  0.21490403670E+04  0.25500000920E-02 0.  1.
    10030    2    1    2    0    0  0.00000000000E+00  0.00000000000E+00 -0.73017831011E+03  0.35679024239E+04  0.34923870550E+04 0.  0.
        3    1    3    3  502    0  0.11003861624E+04 -0.24764912376E+03  0.99678125182E+03  0.15052417311E+04  0.10100000352E+00 0. -1.
       -3    1    3    3    0  502 -0.11003861624E+04  0.24764912376E+03 -0.17269595619E+04  0.20626606928E+04  0.10100000352E+00 0.  1.
</event>
<event>
 5   0  0.5573334E-07  0.3503570E+04  0.7818609E-02  0.8112944E-01
       -2   -1    0    0    0  501  0.00000000000E+00  0.00000000000E+00  0.13395078446E+04  0.13395078446E+04  0.25500000920E-02 0.  1.
        2   -1    0    0  501    0  0.00000000000E+00  0.00000000000E+00 -0.22909535944E+04  0.22909535944E+04  0.25500000920E-02 0. -1.
    10030    2    1    2    0    0  0.00000000000E+00  0.00000000000E+00 -0.95144574978E+03  0.36304614390E+04  0.35035697860E+04 0.  0.
        4    1    3    3  502    0 -0.64686857176E+01  0.17503254359E+04 -0.54948908757E+03  0.18345628487E+04  0.12699999809E+01 0. -1.
       -4    1    3    3    0  502  0.64686857176E+01 -0.17503254359E+04 -0.40195666220E+03  0.17958985903E+04  0.12699999809E+01 0.  1.
</event>
<event>
 5   0  0.1897049E-07  0.3489177E+04  0.7818609E-02  0.8116360E-01
       -1   -1    0    0    0  501  0.00000000000E+00  0.00000000000E+00  0.16626755656E+04  0.16626755657E+04  0.50400001928E-02 0.  1.
        1   -1    0    0  501    0  0.00000000000E+00  0.00000000000E+00 -0.18305371165E+04  0.18305371165E+04  0.50400001928E-02 0. -1.
    10030    2    1    2    0    0  0.00000000000E+00  0.00000000000E+00 -0.16786155087E+03  0.34932126822E+04  0.34891771727E+04 0.  0.
        2    1    3    3  502    0  0.87847660468E+03 -0.14923233647E+04 -0.29592828970E+03  0.17567935913E+04  0.25500000920E-02 0. -1.
       -2    1    3    3    0  502 -0.87847660468E+03  0.14923233647E+04  0.12806673883E+03  0.17364190909E+04  0.25500000920E-02 0.  1.
</event>
<event>
 5   0  0.5677193E-07  0.3469087E+04  0.7818609E-02  0.8121155E-01
        2   -1    0    0  501    0  0.00000000000E+00  0.00000000000E+00  0.19980586682E+04  0.19980586682E+04  0.25500000920E-02 0. -1.
       -2   -1    0    0    0  501  0.00000000000E+00  0.00000000000E+00 -0.15057822503E+04  0.15057822503E+04  0.25500000920E-02 0.  1.
    10030    2    1    2    0    0  0.00000000000E+00  0.00000000000E+00  0.49227641785E+03  0.35038409185E+04  0.34690870716E+04 0.  0.
        3    1    3    3  502    0  0.53652187070E+03 -0.43873635451E+03  0.18521293121E+04  0.19775561447E+04  0.10100000352E+00 0. -1.
       -3    1    3    3    0  502 -0.53652187070E+03  0.43873635451E+03 -0.13598528943E+04  0.15262847738E+04  0.10100000352E+00 0.  1.
</event>
<event>
 5   0  0.1908190E-07  0.3493704E+04  0.7818609E-02  0.8115284E-01
        1   -1    0    0  501    0  0.00000000000E+00  0.00000000000E+00  0.29544765147E+04  0.29544765147E+04  0.50400001928E-02 0.  1.
       -1   -1    0    0    0  501  0.00000000000E+00  0.00000000000E+00 -0.10328365699E+04  0.10328365699E+04  0.50400001928E-02 0. -1.
    10030    2    1    2    0    0  0.00000000000E+00  0.00000000000E+00  0.19216399449E+04  0.39873130846E+04  0.34937037020E+04 0.  0.
        5    1    3    3  502    0 -0.15736759452E+04  0.75501436299E+03  0.88038865386E+03  0.19548935881E+04  0.46999998093E+01 0.  1.
       -5    1    3    3    0  502  0.15736759452E+04 -0.75501436299E+03  0.10412512910E+04  0.20324194965E+04  0.46999998093E+01 0. -1.
</event>
<event>
 5   0  0.5573334E-07  0.3451608E+04  0.7818609E-02  0.8125355E-01
        2   -1    0    0  501    0  0.00000000000E+00  0.00000000000E+00  0.23396254033E+04  0.23396254033E+04  0.25500000920E-02 0.  1.
       -2   -1    0    0    0  501  0.00000000000E+00  0.00000000000E+00 -0.12730238086E+04  0.12730238086E+04  0.25500000920E-02 0. -1.
    10030    2    1    2    0    0  0.00000000000E+00  0.00000000000E+00  0.10666015947E+04  0.36126492118E+04  0.34516076495E+04 0.  0.
        4    1    3    3  502    0  0.11623885500E+04 -0.12739270766E+04  0.60241100243E+03  0.18267287610E+04  0.12699999809E+01 0. -1.
       -4    1    3    3    0  502 -0.11623885500E+04  0.12739270766E+04  0.46419059231E+03  0.17859204508E+04  0.12699999809E+01 0.  1.
</event>
<event>
 5   0  0.1866421E-07  0.3503540E+04  0.7818609E-02  0.8112952E-01
       -1   -1    0    0    0  501  0.00000000000E+00  0.00000000000E+00  0.12021872044E+04  0.12021872044E+04  0.50400001928E-02 0. -1.
        1   -1    0    0  501    0  0.00000000000E+00  0.00000000000E+00 -0.25525957281E+04  0.25525957281E+04  0.50400001928E-02 0.  1.
    10030    2    1    2    0    0  0.00000000000E+00  0.00000000000E+00 -0.13504085237E+04  0.37547829326E+04  0.35035398798E+04 0.  0.
        1    1    3    3  502    0 -0.10358721135E+04 -0.13911836062E+04 -0.41208866184E+03  0.17827618817E+04  0.50400001928E-02 0. -1.
       -1    1    3    3    0  502  0.10358721135E+04  0.13911836062E+04 -0.93831986189E+03  0.19720210508E+04  0.50400001928E-02 0.  1.
</event>
<event>
 5   0  0.5554745E-07  0.3456639E+04  0.7818609E-02  0.8124143E-01
       -2   -1    0    0    0  501  0.00000000000E+00  0.00000000000E+00  0.25851925996E+04  0.25851925996E+04  0.25500000920E-02 0. -1.
        2   -1    0    0  501    0  0.00000000000E+00  0.00000000000E+00 -0.11554607188E+04  0.11554607188E+04  0.25500000920E-02 0.  1.
    10030    2    1    2    0    0  0.00000000000E+00  0.00000000000E+00  0.14297318808E+04  0.37406533184E+04  0.34566391188E+04 0.  0.
        5    1    3    3  502    0 -0.47923923924E+03 -0.75268867810E+03 -0.88690469467E+03  0.12581067212E+04  0.46999998093E+01 0.  1.
       -5    1    3    3    0  502  0.47923923924E+03  0.75268867810E+03  0.23166365754E+04  0.24825465972E+04  0.46999998093E+01 0. -1.
</event>
<event>
 5   0  0.1908190E-07  0.3499804E+04  0.7818609E-02  0.8113836E-01
       -1   -1    0    0    0  501  0.00000000000E+00  0.00000000000E+00  0.26659105087E+04  0.26659105087E+04  0.50400001928E-02 0.  1.
        1   -1    0    0  501    0  0.00000000000E+00  0.00000000000E+00 -0.11486345025E+04  0.11486345025E+04  0.50400001928E-02 0. -1.
    10030    2    1    2    0    0  0.00000000000E+00  0.00000000000E+00  0.15172760063E+04  0.38145450112E+04  0.34998038750E+04 0.  0.
        5    1    3    3  502    0  0.11802847986E+04  0.91391387321E+03  0.17538972309E+04  0.23031474899E+04  0.46999998093E+01 0.  1.
       -5    1    3    3    0  502 -0.11802847986E+04 -0.91391387321E+03 -0.23662122466E+03  0.15113975213E+04  0.46999998093E+01 0. -1.
</event>
<event>
 5   0  0.1908190E-07  0.3485164E+04  0.7818609E-02  0.8117315E-01
       -1   -1    0    0    0  501  0.00000000000E+00  0.00000000000E+00  0.11964897238E+04  0.11964897238E+04  0.50400001928E-02 0. -1.
        1   -1    0    0  501    0  0.00000000000E+00  0.00000000000E+00 -0.25379171870E+04  0.25379171870E+04  0.50400001928E-02 0.  1.
    10030    2    1    2    0    0  0.00000000000E+00  0.00000000000E+00 -0.13414274632E+04  0.37344069109E+04  0.34851638895E+04 0.  0.
        5    1    3    3  502    0 -0.82585382070E+03  0.13810449061E+04  0.45881136660E+02  0.16097971097E+04  0.46999998093E+01 0. -1.
       -5    1    3    3    0  502  0.82585382070E+03 -0.13810449061E+04 -0.13873085999E+04  0.21246098011E+04  0.46999998093E+01 0.  1.
</event>
<event>
 5   0  0.5554745E-07  0.3505408E+04  0.7818609E-02  0.8112509E-01
       -2   -1    0    0    0  501  0.00000000000E+00  0.00000000000E+00  0.16073941300E+04  0.16073941300E+04  0.25500000920E-02 0.  1.
        2   -1    0    0  501    0  0.00000000000E+00  0.00000000000E+00 -0.19111502530E+04  0.19111502530E+04  0.25500000920E-02 0. -1.
    10030    2    1    2    0    0  0.00000000000E+00  0.00000000000E+00 -0.30375612295E+03  0.35185443830E+04  0.35054082206E+04 0.  0.
        5    1    3    3  502    0 -0.16389677162E+04  0.20158275297E+03 -0.74153060254E+03  0.18101769266E+04  0.46999998093E+01 0. -1.
       -5    1    3    3    0  502  0.16389677162E+04 -0.20158275297E+03  0.43777447959E+03  0.17083674564E+04  0.46999998093E+01 0.  1.
</event>
<event>
 5   0  0.1933647E-07  0.3123641E+04  0.7818609E-02  0.8209280E-01
       -1   -1    0    0    0  501  0.00000000000E+00  0.00000000000E+00  0.12478208096E+04  0.12478208096E+04  0.50400001928E-02 0.  1.
        1   -1    0    0  501    0  0.00000000000E+00  0.00000000000E+00 -0.19548351916E+04  0.19548351916E+04  0.50400001928E-02 0. -1.
    10030    2    1    2    0    0  0.00000000000E+00  0.00000000000E+00 -0.70701438206E+03  0.32026560012E+04  0.31236414848E+04 0.  0.
        4    1    3    3  502    0  0.26777689532E+03 -0.11440968073E+04  0.70141213994E+03  0.13684453124E+04  0.12699999809E+01 0.  1.
       -4    1    3    3    0  502 -0.26777689532E+03  0.11440968073E+04 -0.14084265220E+04  0.18342106888E+04  0.12699999809E+01 0. -1.
</event>
<event>
 5   0  0.1933647E-07  0.3517158E+04  0.7818609E-02  0.8109736E-01
        1   -1    0    0  501    0  0.00000000000E+00  0.00000000000E+00  0.11624011572E+04  0.11624011572E+04  0.50400001928E-02 0. -1.
       -1   -1    0    0    0  501  0.00000000000E+00  0.00000000000E+00 -0.26605269610E+04  0.26605269610E+04  0.50400001928E-02 0.  1.
    10030    2    1    2    0    0  0.00000000000E+00  0.00000000000E+00 -0.14981258038E+04  0.38229281182E+04  0.35171577265E+04 0.  0.
        4    1    3    3  502    0  0.53604570847E+03  0.39804870776E+03 -0.25174025719E+04  0.26044394977E+04  0.12699999809E+01 0.  1.
       -4    1    3    3    0  502 -0.53604570847E+03 -0.39804870776E+03  0.10192767681E+04  0.12184886205E+04  0.12699999809E+01 0. -1.
</event>
<event>
 5   0  0.1908190E-07  0.3487647E+04  0.7818609E-02  0.8116724E-01
        1   -1    0    0  501    0  0.00000000000E+00  0.00000000000E+00  0.23499136391E+04  0.23499136391E+04  0.50400001928E-02 0.  1.
       -1   -1    0    0    0  501  0.00000000000E+00  0.00000000000E+00 -0.12940561142E+04  0.12940561142E+04  0.50400001928E-02 0. -1.
    10030    2    1    2    0    0  0.00000000000E+00  0.00000000000E+00  0.10558575250E+04  0.36439697533E+04  0.34876468357E+04 0.  0.
        5    1    3    3  502    0 -0.16801770924E+04 -0.29096020541E+03  0.14653997787E+03  0.17114756668E+04  0.46999998093E+01 0.  1.
       -5    1    3    3    0  502  0.16801770924E+04  0.29096020541E+03  0.90931754709E+03  0.19324940865E+04  0.46999998093E+01 0. -1.
</event>
<event>
 5   0  0.1933647E-07  0.3539900E+04  0.7818609E-02  0.8104399E-01
        1   -1    0    0  501    0  0.00000000000E+00  0.00000000000E+00  0.21519034093E+04  0.21519034094E+04  0.50400001928E-02 0. -1.
       -1   -1    0    0    0  501  0.00000000000E+00  0.00000000000E+00 -0.14557918111E+04  0.14557918111E+04  0.50400001928E-02 0.  1.
    10030    2    1    2    0    0  0.00000000000E+00  0.00000000000E+00  0.69611159828E+03  0.36076952204E+04  0.35399002029E+04 0.  0.
        4    1    3    3  502    0  0.11287954955E+04  0.11921796918E+04  0.10219686867E+04  0.19338803731E+04  0.12699999809E+01 0.  1.
       -4    1    3    3    0  502 -0.11287954955E+04 -0.11921796918E+04 -0.32585708847E+03  0.16738148473E+04  0.12699999809E+01 0. -1.
</event>
<event>
 5   0  0.1933647E-07  0.3492117E+04  0.7818609E-02  0.8115661E-01
        1   -1    0    0  501    0  0.00000000000E+00  0.00000000000E+00  0.16673655738E+04  0.16673655738E+04  0.50400001928E-02 0.  1.
       -1   -1    0    0    0  501  0.00000000000E+00  0.00000000000E+00 -0.18284659146E+04  0.18284659146E+04  0.50400001928E-02 0. -1.
    10030    2    1    2    0    0  0.00000000000E+00  0.00000000000E+00 -0.16110034075E+03  0.34958314884E+04  0.34921174774E+04 0.  0.
        4    1    3    3  502    0  0.12546036687E+04 -0.11990179296E+04  0.11212568459E+03  0.17390365560E+04  0.12699999809E+01 0.  1.
       -4    1    3    3    0  502 -0.12546036687E+04  0.11990179296E+04 -0.27322602534E+03  0.17567949325E+04  0.12699999809E+01 0. -1.
</event>
<event>
 5   0  0.1933647E-07  0.3496357E+04  0.7818609E-02  0.8114654E-01
        1   -1    0    0  501    0  0.00000000000E+00  0.00000000000E+00  0.19070347207E+04  0.19070347207E+04  0.50400001928E-02 0. -1.
       -1   -1    0    0    0  501  0.00000000000E+00  0.00000000000E+00 -0.16025551750E+04  0.16025551750E+04  0.50400001928E-02 0.  1.
    10030    2    1    2    0    0  0.00000000000E+00  0.00000000000E+00  0.30447954572E+03  0.35095898957E+04  0.34963571674E+04 0.  0.
        4    1    3    3  502    0  0.13657372514E+04  0.10882771340E+04  0.23342471965E+03  0.17618382653E+04  0.12699999809E+01 0. -1.
       -4    1    3    3    0  502 -0.13657372514E+04 -0.10882771340E+04  0.71054826069E+02  0.17477516304E+04  0.12699999809E+01 0.  1.
</event>
<event>
 5   0  0.1866421E-07  0.3368839E+04  0.7818609E-02  0.8145597E-01
       -1   -1    0    0    0  501  0.00000000000E+00  0.00000000000E+00  0.13325002379E+04  0.13325002379E+04  0.50400001928E-02 0. -1.
        1   -1    0    0  501    0  0.00000000000E+00  0.00000000000E+00 -0.21292825685E+04  0.21292825685E+04  0.50400001928E-02 0.  1.
    10030    2    1    2    0    0  0.00000000000E+00  0.00000000000E+00 -0.79678233060E+03  0.34617828063E+04  0.33688392832E+04 0.  0.
        1    1    3    3  502    0  0.37045618252E+03 -0.92545000367E+03 -0.17936340472E+04  0.20520279208E+04  0.50400001928E-02 0.  1.
       -1    1    3    3    0  502 -0.37045618252E+03  0.92545000367E+03  0.99685171658E+03  0.14097548855E+04  0.50400001928E-02 0. -1.
</event>
<event>
 5   0  0.5740827E-07  0.3583358E+04  0.7818609E-02  0.8094314E-01
        2   -1    0    0  501    0  0.00000000000E+00  0.00000000000E+00  0.20399989681E+04  0.20399989681E+04  0.25500000920E-02 0.  1.
       -2   -1    0    0    0  501  0.00000000000E+00  0.00000000000E+00 -0.15735859720E+04  0.15735859720E+04  0.25500000920E-02 0. -1.
    10030    2    1    2    0    0  0.00000000000E+00  0.00000000000E+00  0.46641299609E+03  0.36135849400E+04  0.35833580669E+04 0.  0.
        2    1    3    3  502    0 -0.90895188122E+03  0.12856006306E+03 -0.13184057473E+04  0.16065226194E+04  0.25500000920E-02 0. -1.
       -2    1    3    3    0  502  0.90895188122E+03 -0.12856006306E+03  0.17848187434E+04  0.20070623206E+04  0.25500000920E-02 0.  1.
</event>
<event>
 5   0  0.1866421E-07  0.3498243E+04  0.7818609E-02  0.8114206E-01
       -1   -1    0    0    0  501  0.00000000000E+00  0.00000000000E+00  0.18037029779E+04  0.18037029779E+04  0.50400001928E-02 0.  1.
        1   -1    0    0  501    0  0.00000000000E+00  0.00000000000E+00 -0.16961917752E+04  0.16961917752E+04  0.50400001928E-02 0. -1.
    10030    2    1    2    0    0  0.00000000000E+00  0.00000000000E+00  0.10751120267E+03  0.34998947530E+04  0.34982430767E+04 0.  0.
        1    1    3    3  502    0 -0.14480487807E+04  0.71374636066E+03 -0.61972418307E+03  0.17292591482E+04  0.50400001928E-02 0. -1.
       -1    1    3    3    0  502  0.14480487807E+04 -0.71374636066E+03  0.72723538574E+03  0.17706356048E+04  0.50400001928E-02 0.  1.
</event>
<event>
 5   0  0.1866421E-07  0.3501760E+04  0.7818609E-02  0.8113373E-01
        1   -1    0    0  501    0  0.00000000000E+00  0.00000000000E+00  0.20168253045E+04  0.20168253045E+04  0.50400001928E-02 0.  1.
       -1   -1    0    0    0  501  0.00000000000E+00  0.00000000000E+00 -0.15200030440E+04  0.15200030440E+04  0.50400001928E-02 0. -1.
    10030    2    1    2    0    0  0.00000000000E+00  0.00000000000E+00  0.49682226052E+03  0.35368283485E+04  0.35017599016E+04 0.  0.
        1    1    3    3  502    0  0.80261449480E+03 -0.85103675587E+03 -0.10673734448E+04  0.15835844334E+04  0.50400001928E-02 0. -1.
       -1    1    3    3    0  502 -0.80261449480E+03  0.85103675587E+03  0.15641957053E+04  0.19532439151E+04  0.50400001928E-02 0.  1.
</event>
<event>
 5   0  0.5554745E-07  0.3499748E+04  0.7818609E-02  0.8113850E-01
       -2   -1    0    0    0  501  0.00000000000E+00  0.00000000000E+00  0.15864441890E+04  0.15864441890E+04  0.25500000920E-02 0.  1.
        2   -1    0    0  501    0  0.00000000000E+00  0.00000000000E+00 -0.19301399232E+04  0.19301399232E+04  0.25500000920E-02 0. -1.
    10030    2    1    2    0    0  0.00000000000E+00  0.00000000000E+00 -0.34369573420E+03  0.35165841121E+04  0.34997481424E+04 0.  0.
        5    1    3    3  502    0  0.48341280508E+03  0.15596413576E+04  0.46035935860E+03  0.16965028539E+04  0.46999998093E+01 0.  1.
       -5    1    3    3    0  502 -0.48341280508E+03 -0.15596413576E+04 -0.80405509280E+03  0.18200812582E+04  0.46999998093E+01 0. -1.
</event>
<event>
 5   0  0.5554745E-07  0.3087896E+04  0.7818609E-02  0.8219068E-01
       -2   -1    0    0    0  501  0.00000000000E+00  0.00000000000E+00  0.18264368568E+04  0.18264368568E+04  0.25500000920E-02 0.  1.
        2   -1    0    0  501    0  0.00000000000E+00  0.00000000000E+00 -0.13051504409E+04  0.13051504409E+04  0.25500000920E-02 0. -1.
    10030    2    1    2    0    0  0.00000000000E+00  0.00000000000E+00  0.52128641584E+03  0.31315872977E+04  0.30878956388E+04 0.  0.
        5    1    3    3  502    0  0.72530178871E+03  0.11396018664E+04 -0.49759717654E+03  0.14395763747E+04  0.46999998093E+01 0. -1.
       -5    1    3    3    0  502 -0.72530178871E+03 -0.11396018664E+04  0.10188835924E+04  0.16920109230E+04  0.46999998093E+01 0.  1.
</event>
<event>
 5   0  0.1873457E-07  0.3442021E+04  0.7818609E-02  0.8127669E-01
        1   -1    0    0  501    0  0.00000000000E+00  0.00000000000E+00  0.20151242224E+04  0.20151242224E+04  0.50400001928E-02 0.  1.
       -1   -1    0    0    0  501  0.00000000000E+00  0.00000000000E+00 -0.14698238590E+04  0.14698238590E+04  0.50400001928E-02 0. -1.
    10030    2    1    2    0    0  0.00000000000E+00  0.00000000000E+00  0.54530036337E+03  0.34849480814E+04  0.34420213021E+04 0.  0.
        3    1    3    3  502    0  0.77719190416E+02 -0.86837780934E+03 -0.12296872457E+04  0.15073987610E+04  0.10100000352E+00 0. -1.
       -3    1    3    3    0  502 -0.77719190416E+02  0.86837780934E+03  0.17749876090E+04  0.19775493204E+04  0.10100000352E+00 0.  1.
</event>
<event>
 5   0  0.1933647E-07  0.3456483E+04  0.7818609E-02  0.8124181E-01
       -1   -1    0    0    0  501  0.00000000000E+00  0.00000000000E+00  0.14439749620E+04  0.14439749620E+04  0.50400001928E-02 0.  1.
        1   -1    0    0  501    0  0.00000000000E+00  0.00000000000E+00 -0.20684700412E+04  0.20684700412E+04  0.50400001928E-02 0. -1.
    10030    2    1    2    0    0  0.00000000000E+00  0.00000000000E+00 -0.62449507920E+03  0.35124450033E+04  0.34564831545E+04 0.  0.
        4    1    3    3  502    0 -0.48009995877E+03  0.12734128395E+04 -0.13947365151E+04  0.19486836043E+04  0.12699999809E+01 0. -1.
       -4    1    3    3    0  502  0.48009995877E+03 -0.12734128395E+04  0.77024143595E+03  0.15637613989E+04  0.12699999809E+01 0.  1.
</event>
<event>
 5   0  0.1933647E-07  0.3543438E+04  0.7818609E-02  0.8103572E-01
       -1   -1    0    0    0  501  0.00000000000E+00  0.00000000000E+00  0.13202958268E+04  0.13202958268E+04  0.50400001928E-02 0.  1.
        1   -1    0    0  501    0  0.00000000000E+00  0.00000000000E+00 -0.23774888988E+04  0.23774888988E+04  0.50400001928E-02 0. -1.
    10030    2    1    2    0    0  0.00000000000E+00  0.00000000000E+00 -0.10571930720E+04  0.36977847256E+04  0.35434382576E+04 0.  0.
        4    1    3    3  502    0 -0.27886119838E+03  0.17213189440E+04 -0.85575597518E+03  0.19424269297E+04  0.12699999809E+01 0. -1.
       -4    1    3    3    0  502  0.27886119838E+03 -0.17213189440E+04 -0.20143709682E+03  0.17553577960E+04  0.12699999809E+01 0.  1.
</event>
<event>
 5   0  0.5573334E-07  0.3514677E+04  0.7818609E-02  0.8110320E-01
        2   -1    0    0  501    0  0.00000000000E+00  0.00000000000E+00  0.21391845583E+04  0.21391845583E+04  0.25500000920E-02 0.  1.
       -2   -1    0    0    0  501  0.00000000000E+00  0.00000000000E+00 -0.14436521913E+04  0.14436521913E+04  0.25500000920E-02 0. -1.
    10030    2    1    2    0    0  0.00000000000E+00  0.00000000000E+00  0.69553236700E+03  0.35828367496E+04  0.35146769269E+04 0.  0.
        4    1    3    3  502    0  0.16232642340E+04  0.31983190139E+03 -0.25613928552E+03  0.16741828350E+04  0.12699999809E+01 0. -1.
       -4    1    3    3    0  502 -0.16232642340E+04 -0.31983190139E+03  0.95167165252E+03  0.19086539146E+04  0.12699999809E+01 0.  1.
</event>
<event>
 5   0  0.1873457E-07  0.3498070E+04  0.7818609E-02  0.8114248E-01
       -1   -1    0    0    0  501  0.00000000000E+00  0.00000000000E+00  0.19440552269E+04  0.19440552269E+04  0.50400001928E-02 0.  1.
        1   -1    0    0  501    0  0.00000000000E+00  0.00000000000E+00 -0.15735781278E+04  0.15735781278E+04  0.50400001928E-02 0. -1.
    10030    2    1    2    0    0  0.00000000000E+00  0.00000000000E+00  0.37047709917E+03  0.35176333547E+04  0.34980696301E+04 0.  0.
        3    1    3    3  502    0 -0.93187606833E+03  0.13727715561E+04 -0.37123507578E+03  0.17002088824E+04  0.10100000352E+00 0.  1.
       -3    1    3    3    0  502  0.93187606833E+03 -0.13727715561E+04  0.74171217496E+03  0.18174244723E+04  0.10100000352E+00 0. -1.
</event>
<event>
 5   0  0.5740827E-07  0.3494156E+04  0.7818609E-02  0.8115176E-01
        2   -1    0    0  501    0  0.00000000000E+00  0.00000000000E+00  0.32396309401E+04  0.32396309401E+04  0.25500000920E-02 0.  1.
       -2   -1    0    0    0  501  0.00000000000E+00  0.00000000000E+00 -0.94216974722E+03  0.94216974723E+03  0.25500000920E-02 0. -1.
    10030    2    1    2    0    0  0.00000000000E+00  0.00000000000E+00  0.22974611928E+04  0.41818006873E+04  0.34941564154E+04 0.  0.
        2    1    3    3  502    0 -0.15090914503E+04  0.41790928780E+03  0.22148053644E+03  0.15814736186E+04  0.25500000920E-02 0. -1.
       -2    1    3    3    0  502  0.15090914503E+04 -0.41790928780E+03  0.20759806564E+04  0.26003270687E+04  0.25500000920E-02 0.  1.
</event>
<event>
 5   0  0.5554745E-07  0.3450486E+04  0.7818609E-02  0.8125625E-01
        2   -1    0    0  501    0  0.00000000000E+00  0.00000000000E+00  0.15833145556E+04  0.15833145556E+04  0.25500000920E-02 0. -1.
       -2   -1    0    0    0  501  0.00000000000E+00  0.00000000000E+00 -0.18798941092E+04  0.18798941092E+04  0.25500000920E-02 0.  1.
    10030    2    1    2    0    0  0.00000000000E+00  0.00000000000E+00 -0.29657955360E+03  0.34632086648E+04  0.34504861722E+04 0.  0.
        5    1    3    3  502    0  0.16272828454E+04 -0.53491681758E+03 -0.35461074139E+03  0.17492730857E+04  0.46999998093E+01 0. -1.
       -5    1    3    3    0  502 -0.16272828454E+04  0.53491681758E+03  0.58031187791E+02  0.17139355791E+04  0.46999998093E+01 0.  1.
</event>
<event>
 5   0  0.5677193E-07  0.3492985E+04  0.7818609E-02  0.8115454E-01
        2   -1    0    0  501    0  0.00000000000E+00  0.00000000000E+00  0.14775358727E+04  0.14775358727E+04  0.25500000920E-02 0.  1.
       -2   -1    0    0    0  501  0.00000000000E+00  0.00000000000E+00 -0.20644071250E+04  0.20644071250E+04  0.25500000920E-02 0. -1.
    10030    2    1    2    0    0  0.00000000000E+00  0.00000000000E+00 -0.58687125230E+03  0.35419429977E+04  0.34929847312E+04 0.  0.
        3    1    3    3  502    0 -0.11452121325E+04 -0.12249200685E+04  0.20156171373E+03  0.16889544509E+04  0.10100000352E+00 0.  1.
       -3    1    3    3    0  502  0.11452121325E+04  0.12249200685E+04 -0.78843296602E+03  0.18529885468E+04  0.10100000352E+00 0. -1.
</event>
<event>
 5   0  0.1897049E-07  0.3510869E+04  0.7818609E-02  0.8111219E-01
        1   -1    0    0  501    0  0.00000000000E+00  0.00000000000E+00  0.14667314336E+04  0.14667314336E+04  0.50400001928E-02 0. -1.
       -1   -1    0    0    0  501  0.00000000000E+00  0.00000000000E+00 -0.21009639733E+04  0.21009639733E+04  0.50400001928E-02 0.  1.
    10030    2    1    2    0    0  0.00000000000E+00  0.00000000000E+00 -0.63423253966E+03  0.35676954069E+04  0.35108687816E+04 0.  0.
        2    1    3    3  502    0  0.11117582099E+04  0.33884426566E+03  0.10197488724E+04  0.15461919404E+04  0.25500000920E-02 0. -1.
       -2    1    3    3    0  502 -0.11117582099E+04 -0.33884426566E+03 -0.16539814121E+04  0.20215034665E+04  0.25500000920E-02 0.  1.
</event>
<event>
 5   0  0.5677193E-07  0.3500128E+04  0.7818609E-02  0.8113760E-01
        2   -1    0    0  501    0  0.00000000000E+00  0.00000000000E+00  0.24688470360E+04  0.24688470360E+04  0.25500000920E-02 0. -1.
       -2   -1    0    0    0  501  0.00000000000E+00  0.00000000000E+00 -0.12405486203E+04  0.12405486203E+04  0.25500000920E-02 0.  1.
    10030    2    1    2    0    0  0.00000000000E+00  0.00000000000E+00  0.12282984157E+04  0.37093956563E+04  0.35001284458E+04 0.  0.
        3    1    3    3  502    0  0.80489346990E+03  0.15157433314E+04  0.97726160118E+03  0.19749358450E+04  0.10100000352E+00 0. -1.
       -3    1    3    3    0  502 -0.80489346990E+03 -0.15157433314E+04  0.25103681452E+03  0.17344598113E+04  0.10100000352E+00 0.  1.
</event>
<event>
 5   0  0.1908190E-07  0.3459983E+04  0.7818609E-02  0.8123340E-01
        1   -1    0    0  501    0  0.00000000000E+00  0.00000000000E+00  0.15719216305E+04  0.15719216305E+04  0.50400001928E-02 0.  1.
       -1   -1    0    0    0  501  0.00000000000E+00  0.00000000000E+00 -0.19039563086E+04  0.19039563086E+04  0.50400001928E-02 0. -1.
    10030    2    1    2    0    0  0.00000000000E+00  0.00000000000E+00 -0.33203467814E+03  0.34758779391E+04  0.34599827196E+04 0.  0.
        5    1    3    3  502    0 -0.10858802177E+04  0.12397619964E+04  0.36242428542E+03  0.16874593647E+04  0.46999998093E+01 0.  1.
       -5    1    3    3    0  502  0.10858802177E+04 -0.12397619964E+04 -0.69445896356E+03  0.17884185743E+04  0.46999998093E+01 0. -1.
</event>
<event>
 5   0  0.1873457E-07  0.3465613E+04  0.7818609E-02  0.8121988E-01
        1   -1    0    0  501    0  0.00000000000E+00  0.00000000000E+00  0.25988172026E+04  0.25988172026E+04  0.50400001928E-02 0.  1.
       -1   -1    0    0    0  501  0.00000000000E+00  0.00000000000E+00 -0.11553788946E+04  0.11553788946E+04  0.50400001928E-02 0. -1.
    10030    2    1    2    0    0  0.00000000000E+00  0.00000000000E+00  0.14434383080E+04  0.37541960972E+04  0.34656131040E+04 0.  0.
        3    1    3    3  502    0 -0.53108181546E+03  0.10728356615E+04 -0.63543937767E+03  0.13552887014E+04  0.10100000352E+00 0. -1.
       -3    1    3    3    0  502  0.53108181546E+03 -0.10728356615E+04  0.20788776857E+04  0.23989073958E+04  0.10100000352E+00 0.  1.
</event>
<event>
 5   0  0.1866421E-07  0.3480269E+04  0.7818609E-02  0.8118482E-01
       -1   -1    0    0    0  501  0.00000000000E+00  0.00000000000E+00  0.27181681788E+04  0.27181681788E+04  0.50400001928E-02 0.  1.
        1   -1    0    0  501    0  0.00000000000E+00  0.00000000000E+00 -0.11140108341E+04  0.11140108341E+04  0.50400001928E-02 0. -1.
    10030    2    1    2    0    0  0.00000000000E+00  0.00000000000E+00  0.16041573447E+04  0.38321790129E+04  0.34802694149E+04 0.  0.
        1    1    3    3  502    0 -0.19424445428E+03  0.16740913410E+04  0.12792011981E+04  0.21158138934E+04  0.50400001928E-02 0.  1.
       -1    1    3    3    0  502  0.19424445428E+03 -0.16740913410E+04  0.32495614662E+03  0.17163651195E+04  0.50400001928E-02 0. -1.
</event>
<event>
 5   0  0.5573334E-07  0.3484829E+04  0.7818609E-02  0.8117395E-01
        2   -1    0    0  501    0  0.00000000000E+00  0.00000000000E+00  0.20334804913E+04  0.20334804913E+04  0.25500000920E-02 0.  1.
       -2   -1    0    0    0  501  0.00000000000E+00  0.00000000000E+00 -0.14930106980E+04  0.14930106980E+04  0.25500000920E-02 0. -1.
    10030    2    1    2    0    0  0.00000000000E+00  0.00000000000E+00  0.54046979334E+03  0.35264911893E+04  0.34848289070E+04 0.  0.
        4    1    3    3  502    0 -0.76719071429E+03  0.11106200067E+04 -0.84473054480E+03  0.15923660690E+04  0.12699999809E+01 0. -1.
       -4    1    3    3    0  502  0.76719071429E+03 -0.11106200067E+04  0.13852003381E+04  0.19341251203E+04  0.12699999809E+01 0.  1.
</event>
<event>
 5   0  0.1933647E-07  0.3541728E+04  0.7818609E-02  0.8103972E-01
       -1   -1    0    0    0  501  0.00000000000E+00  0.00000000000E+00  0.97746403579E+03  0.97746403580E+03  0.50400001928E-02 0. -1.
        1   -1    0    0  501    0  0.00000000000E+00  0.00000000000E+00 -0.32082597345E+04  0.32082597345E+04  0.50400001928E-02 0.  1.
    10030    2    1    2    0    0  0.00000000000E+00  0.00000000000E+00 -0.22307956987E+04  0.41857237703E+04  0.35417275491E+04 0.  0.
        4    1    3    3  502    0 -0.15511421144E+04 -0.55309614741E+03 -0.34584547373E+03  0.16827263330E+04  0.12699999809E+01 0. -1.
       -4    1    3    3    0  502  0.15511421144E+04  0.55309614741E+03 -0.18849502250E+04  0.25029974372E+04  0.12699999809E+01 0.  1.
</event>
<event>
 5   0  0.5554745E-07  0.3352987E+04  0.7818609E-02  0.8149542E-01
       -2   -1    0    0    0  501  0.00000000000E+00  0.00000000000E+00  0.10920760222E+04  0.10920760222E+04  0.25500000920E-02 0. -1.
        2   -1    0    0  501    0  0.00000000000E+00  0.00000000000E+00 -0.25736579542E+04  0.25736579542E+04  0.25500000920E-02 0.  1.
    10030    2    1    2    0    0  0.00000000000E+00  0.00000000000E+00 -0.14815819321E+04  0.36657339764E+04  0.33529868124E+04 0.  0.
        5    1    3    3  502    0 -0.79163802001E+03 -0.91958731781E+03 -0.20055331938E+04  0.23440386241E+04  0.46999998093E+01 0.  1.
       -5    1    3    3    0  502  0.79163802001E+03  0.91958731781E+03  0.52395126168E+03  0.13216953523E+04  0.46999998093E+01 0. -1.
</event>
<event>
 5   0  0.1873457E-07  0.3511557E+04  0.7818609E-02  0.8111056E-01
        1   -1    0    0  501    0  0.00000000000E+00  0.00000000000E+00  0.15436379681E+04  0.15436379681E+04  0.50400001928E-02 0. -1.
       -1   -1    0    0    0  501  0.00000000000E+00  0.00000000000E+00 -0.19970735502E+04  0.19970735502E+04  0.50400001928E-02 0.  1.
    10030    2    1    2    0    0  0.00000000000E+00  0.00000000000E+00 -0.45343558211E+03  0.35407115183E+04  0.35115572370E+04 0.  0.
        3    1    3    3  502    0 -0.16935636982E+04 -0.34736391231E+03 -0.53575689330E+03  0.18099323596E+04  0.10100000352E+00 0.  1.
       -3    1    3    3    0  502  0.16935636982E+04  0.34736391231E+03  0.82321311196E+02  0.17307791587E+04  0.10100000352E+00 0. -1.
</event>
<event>
 5   0  0.5740827E-07  0.3501213E+04  0.7818609E-02  0.8113503E-01
       -2   -1    0    0    0  501  0.00000000000E+00  0.00000000000E+00  0.11515095499E+04  0.11515095499E+04  0.25500000920E-02 0. -1.
        2   -1    0    0  501    0  0.00000000000E+00  0.00000000000E+00 -0.26613959654E+04  0.26613959654E+04  0.25500000920E-02 0.  1.
    10030    2    1    2    0    0  0.00000000000E+00  0.00000000000E+00 -0.15098864155E+04  0.38129055153E+04  0.35012128585E+04 0.  0.
        2    1    3    3  502    0 -0.50706461090E+03  0.31367767695E+01 -0.25796676775E+04  0.26290320814E+04  0.25500000920E-02 0.  1.
       -2    1    3    3    0  502  0.50706461090E+03 -0.31367767695E+01  0.10697812619E+04  0.11838734339E+04  0.25500000920E-02 0. -1.
</event>
<event>
 5   0  0.5573334E-07  0.3513004E+04  0.7818609E-02  0.8110715E-01
        2   -1    0    0  501    0  0.00000000000E+00  0.00000000000E+00  0.22214564158E+04  0.22214564158E+04  0.25500000920E-02 0.  1.
       -2   -1    0    0    0  501  0.00000000000E+00  0.00000000000E+00 -0.13888632858E+04  0.13888632858E+04  0.25500000920E-02 0. -1.
    10030    2    1    2    0    0  0.00000000000E+00  0.00000000000E+00  0.83259312993E+03  0.36103197016E+04  0.35130039891E+04 0.  0.
        4    1    3    3  502    0  0.96387569820E+03 -0.10562591658E+04 -0.63203855404E+03  0.15633982645E+04  0.12699999809E+01 0. -1.
       -4    1    3    3    0  502 -0.96387569820E+03  0.10562591658E+04  0.14646316840E+04  0.20469214370E+04  0.12699999809E+01 0.  1.
</event>
<event>
 5   0  0.5740827E-07  0.3485996E+04  0.7818609E-02  0.8117117E-01
       -2   -1    0    0    0  501  0.00000000000E+00  0.00000000000E+00  0.18853166836E+04  0.18853166836E+04  0.25500000920E-02 0. -1.
        2   -1    0    0  501    0  0.00000000000E+00  0.00000000000E+00 -0.16114229153E+04  0.16114229153E+04  0.25500000920E-02 0.  1.
    10030    2    1    2    0    0  0.00000000000E+00  0.00000000000E+00  0.27389376827E+03  0.34967395989E+04  0.34859962745E+04 0.  0.
        2    1    3    3  502    0  0.44229401405E+03 -0.16665734067E+04 -0.11869456597E+03  0.17283458319E+04  0.25500000920E-02 0. -1.
       -2    1    3    3    0  502 -0.44229401405E+03  0.16665734067E+04  0.39258833424E+03  0.17683937669E+04  0.25500000920E-02 0.  1.
</event>
<event>
 5   0  0.1933647E-07  0.3467680E+04  0.7818609E-02  0.8121492E-01
       -1   -1    0    0    0  501  0.00000000000E+00  0.00000000000E+00  0.26832074631E+04  0.26832074631E+04  0.50400001928E-02 0.  1.
        1   -1    0    0  501    0  0.00000000000E+00  0.00000000000E+00 -0.11203762268E+04  0.11203762268E+04  0.50400001928E-02 0. -1.
    10030    2    1    2    0    0  0.00000000000E+00  0.00000000000E+00  0.15628312363E+04  0.38035836899E+04  0.34676804081E+04 0.  0.
        4    1    3    3  502    0  0.30567731880E+03 -0.16087599543E+04  0.15643918708E+03  0.16449991021E+04  0.12699999809E+01 0.  1.
       -4    1    3    3    0  502 -0.30567731880E+03  0.16087599543E+04  0.14063920492E+04  0.21585845878E+04  0.12699999809E+01 0. -1.
</event>
<event>
 5   0  0.5554745E-07  0.3458910E+04  0.7818609E-02  0.8123597E-01
       -2   -1    0    0    0  501  0.00000000000E+00  0.00000000000E+00  0.15807189590E+04  0.15807189590E+04  0.25500000920E-02 0. -1.
        2   -1    0    0  501    0  0.00000000000E+00  0.00000000000E+00 -0.18921862981E+04  0.18921862981E+04  0.25500000920E-02 0.  1.
    10030    2    1    2    0    0  0.00000000000E+00  0.00000000000E+00 -0.31146733904E+03  0.34729052571E+04  0.34589100916E+04 0.  0.
        5    1    3    3  502    0  0.11493981066E+04  0.77114641040E+03 -0.11968524575E+04  0.18298253164E+04  0.46999998093E+01 0.  1.
       -5    1    3    3    0  502 -0.11493981066E+04 -0.77114641040E+03  0.88538511843E+03  0.16430799407E+04  0.46999998093E+01 0. -1.
</event>
<event>
 5   0  0.1897049E-07  0.3466583E+04  0.7818609E-02  0.8121755E-01
       -1   -1    0    0    0  501  0.00000000000E+00  0.00000000000E+00  0.12435466513E+04  0.12435466514E+04  0.50400001928E-02 0.  1.
        1   -1    0    0  501    0  0.00000000000E+00  0.00000000000E+00 -0.24159116797E+04  0.24159116797E+04  0.50400001928E-02 0. -1.
    10030    2    1    2    0    0  0.00000000000E+00  0.00000000000E+00 -0.11723650283E+04  0.36594583310E+04  0.34665826857E+04 0.  0.
        2    1    3    3  502    0  0.11751354666E+03 -0.27960825022E+03 -0.23876811787E+04  0.24068675947E+04  0.25500000920E-02 0. -1.
       -2    1    3    3    0  502 -0.11751354666E+03  0.27960825022E+03  0.12153161504E+04  0.12525907363E+04  0.25500000920E-02 0.  1.
</event>
<event>
 5   0  0.1866421E-07  0.3462817E+04  0.7818609E-02  0.8122659E-01
        1   -1    0    0  501    0  0.00000000000E+00  0.00000000000E+00  0.13026594342E+04  0.13026594342E+04  0.50400001928E-02 0.  1.
       -1   -1    0    0    0  501  0.00000000000E+00  0.00000000000E+00 -0.23012728181E+04  0.23012728181E+04  0.50400001928E-02 0. -1.
    10030    2    1    2    0    0  0.00000000000E+00  0.00000000000E+00 -0.99861338388E+03  0.36039322523E+04  0.34628166265E+04 0.  0.
        1    1    3    3  502    0  0.16162407341E+04 -0.10122525155E+03  0.13827081054E+03  0.16252998121E+04  0.50400001928E-02 0. -1.
       -1    1    3    3    0  502 -0.16162407341E+04  0.10122525155E+03 -0.11368841944E+04  0.19786324403E+04  0.50400001928E-02 0.  1.
</event>
<event>
 5   0  0.1908190E-07  0.3526948E+04  0.7818609E-02  0.8107433E-01
        1   -1    0    0  501    0  0.00000000000E+00  0.00000000000E+00  0.23862714882E+04  0.23862714882E+04  0.50400001928E-02 0.  1.
       -1   -1    0    0    0  501  0.00000000000E+00  0.00000000000E+00 -0.13032215791E+04  0.13032215791E+04  0.50400001928E-02 0. -1.
    10030    2    1    2    0    0  0.00000000000E+00  0.00000000000E+00  0.10830499091E+04  0.36894930673E+04  0.35269479707E+04 0.  0.
        5    1    3    3  502    0 -0.43562279426E+03  0.16753698459E+04  0.89346286418E+03  0.19480578325E+04  0.46999998093E+01 0.  1.
       -5    1    3    3    0  502  0.43562279426E+03 -0.16753698459E+04  0.18958704495E+03  0.17414352348E+04  0.46999998093E+01 0. -1.
</event>
<event>
 5   0  0.1933647E-07  0.3497253E+04  0.7818609E-02  0.8114441E-01
        1   -1    0    0  501    0  0.00000000000E+00  0.00000000000E+00  0.16488857417E+04  0.16488857417E+04  0.50400001928E-02 0.  1.
       -1   -1    0    0    0  501  0.00000000000E+00  0.00000000000E+00 -0.18544008368E+04  0.18544008368E+04  0.50400001928E-02 0. -1.
    10030    2    1    2    0    0  0.00000000000E+00  0.00000000000E+00 -0.20551509509E+03  0.35032865785E+04  0.34972532646E+04 0.  0.
        4    1    3    3  502    0  0.37146679675E+02 -0.23983650552E+03  0.16319319824E+04  0.16498803088E+04  0.12699999809E+01 0.  1.
       -4    1    3    3    0  502 -0.37146679675E+02  0.23983650552E+03 -0.18374470775E+04  0.18534062697E+04  0.12699999809E+01 0. -1.
</event>
<event>
 5   0  0.5707187E-07  0.3471925E+04  0.7818609E-02  0.8120476E-01
        2   -1    0    0  501    0  0.00000000000E+00  0.00000000000E+00  0.18248781021E+04  0.18248781021E+04  0.25500000920E-02 0. -1.
       -2   -1    0    0    0  501  0.00000000000E+00  0.00000000000E+00 -0.16513791172E+04  0.16513791172E+04  0.25500000920E-02 0.  1.
    10030    2    1    2    0    0  0.00000000000E+00  0.00000000000E+00  0.17349898495E+03  0.34762572193E+04  0.34719248778E+04 0.  0.
        1    1    3    3  502    0  0.10873870773E+03 -0.71057300420E+03  0.16688564941E+04  0.18170911091E+04  0.50400001928E-02 0. -1.
       -1    1    3    3    0  502 -0.10873870773E+03  0.71057300420E+03 -0.14953575092E+04  0.16591661102E+04  0.50400001928E-02 0.  1.
</event>
<event>
 5   0  0.1866421E-07  0.3506342E+04  0.7818609E-02  0.8112289E-01
        1   -1    0    0  501    0  0.00000000000E+00  0.00000000000E+00  0.18501197839E+04  0.18501197839E+04  0.50400001928E-02 0. -1.
       -1   -1    0    0    0  501  0.00000000000E+00  0.00000000000E+00 -0.16613025137E+04  0.16613025137E+04  0.50400001928E-02 0.  1.
    10030    2    1    2    0    0  0.00000000000E+00  0.00000000000E+00  0.18881727020E+03  0.35114222976E+04  0.35063420527E+04 0.  0.
        1    1    3    3  502    0  0.15060519195E+04 -0.73780039010E+03 -0.41727867311E+03  0.17281965429E+04  0.50400001928E-02 0. -1.
       -1    1    3    3    0  502 -0.15060519195E+04  0.73780039010E+03  0.60609594331E+03  0.17832257547E+04  0.50400001928E-02 0.  1.
</event>
<event>
 5   0  0.5677193E-07  0.3483382E+04  0.7818609E-02  0.8117740E-01
       -2   -1    0    0    0  501  0.00000000000E+00  0.00000000000E+00  0.31243321358E+04  0.31243321358E+04  0.25500000920E-02 0.  1.
        2   -1    0    0  501    0  0.00000000000E+00  0.00000000000E+00 -0.97092327817E+03  0.97092327817E+03  0.25500000920E-02 0. -1.
    10030    2    1    2    0    0  0.00000000000E+00  0.00000000000E+00  0.21534088576E+04  0.40952554140E+04  0.34833815751E+04 0.  0.
        3    1    3    3  502    0 -0.96638086631E+03 -0.20258545452E+03 -0.61008576984E+03  0.11606625271E+04  0.10100000352E+00 0. -1.
       -3    1    3    3    0  502  0.96638086631E+03  0.20258545452E+03  0.27634946275E+04  0.29345928868E+04  0.10100000352E+00 0.  1.
</event>
<event>
 5   0  0.5707187E-07  0.3395596E+04  0.7818609E-02  0.8138988E-01
        2   -1    0    0  501    0  0.00000000000E+00  0.00000000000E+00  0.21908766938E+04  0.21908766938E+04  0.25500000920E-02 0.  1.
       -2   -1    0    0    0  501  0.00000000000E+00  0.00000000000E+00 -0.13156913011E+04  0.13156913011E+04  0.25500000920E-02 0. -1.
    10030    2    1    2    0    0  0.00000000000E+00  0.00000000000E+00  0.87518539269E+03  0.35065679948E+04  0.33955956224E+04 0.  0.
        1    1    3    3  502    0 -0.16115737532E+03 -0.14701692595E+04 -0.42341088130E+03  0.15383907584E+04  0.50400001928E-02 0. -1.
       -1    1    3    3    0  502  0.16115737532E+03  0.14701692595E+04  0.12985962740E+04  0.19681772364E+04  0.50400001928E-02 0.  1.
</event>
<event>
 5   0  0.5707187E-07  0.3496008E+04  0.7818609E-02  0.8114737E-01
        2   -1    0    0  501    0  0.00000000000E+00  0.00000000000E+00  0.20327185059E+04  0.20327185059E+04  0.25500000920E-02 0.  1.
       -2   -1    0    0    0  501  0.00000000000E+00  0.00000000000E+00 -0.15031678609E+04  0.15031678609E+04  0.25500000920E-02 0. -1.
    10030    2    1    2    0    0  0.00000000000E+00  0.00000000000E+00  0.52955064500E+03  0.35358863668E+04  0.34960075105E+04 0.  0.
        1    1    3    3  502    0 -0.20332336409E+03  0.75851629994E+03  0.18442646132E+04  0.20044947821E+04  0.50400001928E-02 0.  1.
       -1    1    3    3    0  502  0.20332336409E+03 -0.75851629994E+03 -0.13147139682E+04  0.15313915848E+04  0.50400001928E-02 0. -1.
</event>
<event>
 5   0  0.5554745E-07  0.3472491E+04  0.7818609E-02  0.8120340E-01
        2   -1    0    0  501    0  0.00000000000E+00  0.00000000000E+00  0.18483363677E+04  0.18483363677E+04  0.25500000920E-02 0. -1.
       -2   -1    0    0    0  501  0.00000000000E+00  0.00000000000E+00 -0.16309525178E+04  0.16309525178E+04  0.25500000920E-02 0.  1.
    10030    2    1    2    0    0  0.00000000000E+00  0.00000000000E+00  0.21738384989E+03  0.34792888855E+04  0.34724912398E+04 0.  0.
        5    1    3    3  502    0  0.62394534556E+03 -0.12755942988E+04 -0.89230237790E+03  0.16771029286E+04  0.46999998093E+01 0.  1.
       -5    1    3    3    0  502 -0.62394534556E+03  0.12755942988E+04  0.11096862278E+04  0.18021859570E+04  0.46999998093E+01 0. -1.
</event>
<event>
 5   0  0.1908190E-07  0.3493184E+04  0.7818609E-02  0.8115407E-01
        1   -1    0    0  501    0  0.00000000000E+00  0.00000000000E+00  0.20653749083E+04  0.20653749083E+04  0.50400001928E-02 0.  1.
       -1   -1    0    0    0  501  0.00000000000E+00  0.00000000000E+00 -0.14770120813E+04  0.14770120813E+04  0.50400001928E-02 0. -1.
    10030    2    1    2    0    0  0.00000000000E+00  0.00000000000E+00  0.58836282695E+03  0.35423869896E+04  0.34931840444E+04 0.  0.
        5    1    3    3  502    0  0.16869693527E+04  0.41624071387E+01  0.75296813475E+03  0.18473943879E+04  0.46999998093E+01 0.  1.
       -5    1    3    3    0  502 -0.16869693527E+04 -0.41624071387E+01 -0.16460530780E+03  0.16949926017E+04  0.46999998093E+01 0. -1.
</event>
<event>
 5   0  0.5677193E-07  0.3529414E+04  0.7818609E-02  0.8106854E-01
       -2   -1    0    0    0  501  0.00000000000E+00  0.00000000000E+00  0.21015477571E+04  0.21015477571E+04  0.25500000920E-02 0.  1.
        2   -1    0    0  501    0  0.00000000000E+00  0.00000000000E+00 -0.14818554409E+04  0.14818554409E+04  0.25500000920E-02 0. -1.
    10030    2    1    2    0    0  0.00000000000E+00  0.00000000000E+00  0.61969231616E+03  0.35834031980E+04  0.35294135367E+04 0.  0.
        3    1    3    3  502    0  0.13673962889E+04  0.78229136172E+03 -0.49757841931E+03  0.16520704219E+04  0.10100000352E+00 0. -1.
       -3    1    3    3    0  502 -0.13673962889E+04 -0.78229136172E+03  0.11172707355E+04  0.19313327761E+04  0.10100000352E+00 0.  1.
</event>
<event>
 5   0  0.1897049E-07  0.3478574E+04  0.7818609E-02  0.8118886E-01
        1   -1    0    0  501    0  0.00000000000E+00  0.00000000000E+00  0.23708821082E+04  0.23708821082E+04  0.50400001928E-02 0.  1.
       -1   -1    0    0    0  501  0.00000000000E+00  0.00000000000E+00 -0.12759466962E+04  0.12759466963E+04  0.50400001928E-02 0. -1.
    10030    2    1    2    0    0  0.00000000000E+00  0.00000000000E+00  0.10949354119E+04  0.36468288044E+04  0.34785739567E+04 0.  0.
        2    1    3    3  502    0 -0.68748389304E+03  0.89772637438E+03  0.19329706008E+04  0.22394021725E+04  0.25500000920E-02 0.  1.
       -2    1    3    3    0  502  0.68748389304E+03 -0.89772637438E+03 -0.83803518891E+03  0.14074266319E+04  0.25500000920E-02 0. -1.
</event>
<event>
 5   0  0.1866421E-07  0.3476296E+04  0.7818609E-02  0.8119431E-01
       -1   -1    0    0    0  501  0.00000000000E+00  0.00000000000E+00  0.11371885948E+04  0.11371885949E+04  0.50400001928E-02 0.  1.
        1   -1    0    0  501    0  0.00000000000E+00  0.00000000000E+00 -0.26566900356E+04  0.26566900356E+04  0.50400001928E-02 0. -1.
    10030    2    1    2    0    0  0.00000000000E+00  0.00000000000E+00 -0.15195014408E+04  0.37938786305E+04  0.34762955045E+04 0.  0.
        1    1    3    3  502    0  0.88089574849E+03  0.14912237619E+04 -0.91952170142E+03  0.19609298272E+04  0.50400001928E-02 0. -1.
       -1    1    3    3    0  502 -0.88089574849E+03 -0.14912237619E+04 -0.59997973936E+03  0.18329488033E+04  0.50400001928E-02 0.  1.
</event>
<event>
 5   0  0.1873457E-07  0.3483375E+04  0.7818609E-02  0.8117741E-01
       -1   -1    0    0    0  501  0.00000000000E+00  0.00000000000E+00  0.12556100415E+04  0.12556100415E+04  0.50400001928E-02 0.  1.
        1   -1    0    0  501    0  0.00000000000E+00  0.00000000000E+00 -0.24159369401E+04  0.24159369401E+04  0.50400001928E-02 0. -1.
    10030    2    1    2    0    0  0.00000000000E+00  0.00000000000E+00 -0.11603268986E+04  0.36715469816E+04  0.34833746176E+04 0.  0.
        3    1    3    3  502    0 -0.76584283194E+03  0.23437754478E+02  0.10684298771E+04  0.13147649919E+04  0.10100000352E+00 0.  1.
       -3    1    3    3    0  502  0.76584283194E+03 -0.23437754478E+02 -0.22287567757E+04  0.23567819897E+04  0.10100000352E+00 0. -1.
</event>
<event>
 5   0  0.1873457E-07  0.3537969E+04  0.7818609E-02  0.8104850E-01
        1   -1    0    0  501    0  0.00000000000E+00  0.00000000000E+00  0.22580843433E+04  0.22580843433E+04  0.50400001928E-02 0.  1.
       -1   -1    0    0    0  501  0.00000000000E+00  0.00000000000E+00 -0.13858232171E+04  0.13858232171E+04  0.50400001928E-02 0. -1.
    10030    2    1    2    0    0  0.00000000000E+00  0.00000000000E+00  0.87226112617E+03  0.36439075604E+04  0.35379687444E+04 0.  0.
        3    1    3    3  502    0 -0.38852709407E+03 -0.16220164045E+04 -0.17093801504E+03  0.16766366137E+04  0.10100000352E+00 0. -1.
       -3    1    3    3    0  502  0.38852709407E+03  0.16220164045E+04  0.10431991412E+04  0.19672709467E+04  0.10100000352E+00 0.  1.
</event>
<event>
 5   0  0.5740827E-07  0.3503684E+04  0.7818609E-02  0.8112917E-01
       -2   -1    0    0    0  501  0.00000000000E+00  0.00000000000E+00  0.14964152251E+04  0.14964152251E+04  0.25500000920E-02 0. -1.
        2   -1    0    0  501    0  0.00000000000E+00  0.00000000000E+00 -0.20508687483E+04  0.20508687483E+04  0.25500000920E-02 0.  1.
    10030    2    1    2    0    0  0.00000000000E+00  0.00000000000E+00 -0.55445352324E+03  0.35472839734E+04  0.35036844719E+04 0.  0.
        2    1    3    3  502    0  0.10156960880E+04  0.62369709469E+03 -0.15770701290E+04  0.19768122827E+04  0.25500000920E-02 0.  1.
       -2    1    3    3    0  502 -0.10156960880E+04 -0.62369709469E+03  0.10226166058E+04  0.15704716907E+04  0.25500000920E-02 0. -1.
</event>
<event>
 5   0  0.1908190E-07  0.3513099E+04  0.7818609E-02  0.8110693E-01
       -1   -1    0    0    0  501  0.00000000000E+00  0.00000000000E+00  0.20529164674E+04  0.20529164674E+04  0.50400001928E-02 0.  1.
        1   -1    0    0  501    0  0.00000000000E+00  0.00000000000E+00 -0.15029669853E+04  0.15029669853E+04  0.50400001928E-02 0. -1.
    10030    2    1    2    0    0  0.00000000000E+00  0.00000000000E+00  0.54994948207E+03  0.35558834527E+04  0.35130987314E+04 0.  0.
        5    1    3    3  502    0 -0.73010224766E+03 -0.66583000945E+03 -0.11949737383E+04  0.15506009219E+04  0.46999998093E+01 0. -1.
       -5    1    3    3    0  502  0.73010224766E+03  0.66583000945E+03  0.17449232204E+04  0.20052825309E+04  0.46999998093E+01 0.  1.
</event>
<event>
 5   0  0.5554745E-07  0.3497841E+04  0.7818609E-02  0.8114302E-01
       -2   -1    0    0    0  501  0.00000000000E+00  0.00000000000E+00  0.23648350526E+04  0.23648350527E+04  0.25500000920E-02 0. -1.
        2   -1    0    0  501    0  0.00000000000E+00  0.00000000000E+00 -0.12934194223E+04  0.12934194223E+04  0.25500000920E-02 0.  1.
    10030    2    1    2    0    0  0.00000000000E+00  0.00000000000E+00  0.10714156303E+04  0.36582544750E+04  0.34978413844E+04 0.  0.
        5    1    3    3  502    0  0.93367477075E+03 -0.14390746176E+04  0.17947417761E+03  0.17247948872E+04  0.46999998093E+01 0. -1.
       -5    1    3    3    0  502 -0.93367477075E+03  0.14390746176E+04  0.89194145274E+03  0.19334595878E+04  0.46999998093E+01 0.  1.
</event>
<event>
 5   0  0.1897049E-07  0.3452304E+04  0.7818609E-02  0.8125187E-01
       -1   -1    0    0    0  501  0.00000000000E+00  0.00000000000E+00  0.20923251013E+04  0.20923251013E+04  0.50400001928E-02 0.  1.
        1   -1    0    0  501    0  0.00000000000E+00  0.00000000000E+00 -0.14240622384E+04  0.14240622384E+04  0.50400001928E-02 0. -1.
    10030    2    1    2    0    0  0.00000000000E+00  0.00000000000E+00  0.66826286291E+03  0.35163873397E+04  0.34523042550E+04 0.  0.
        2    1    3    3  502    0  0.90525620849E+03  0.98165566684E+03  0.14482657598E+04  0.19699264865E+04  0.25500000920E-02 0.  1.
       -2    1    3    3    0  502 -0.90525620849E+03 -0.98165566684E+03 -0.78000289690E+03  0.15464608532E+04  0.25500000920E-02 0. -1.
</event>
<event>
 5   0  0.5554745E-07  0.3508125E+04  0.7818609E-02  0.8111867E-01
       -2   -1    0    0    0  501  0.00000000000E+00  0.00000000000E+00  0.12668320196E+04  0.12668320196E+04  0.25500000920E-02 0.  1.
        2   -1    0    0  501    0  0.00000000000E+00  0.00000000000E+00 -0.24286842024E+04  0.24286842024E+04  0.25500000920E-02 0. -1.
    10030    2    1    2    0    0  0.00000000000E+00  0.00000000000E+00 -0.11618521828E+04  0.36955162220E+04  0.35081248057E+04 0.  0.
        5    1    3    3  502    0  0.25231830623E+03  0.11480607235E+04 -0.19523936934E+04  0.22789408014E+04  0.46999998093E+01 0. -1.
       -5    1    3    3    0  502 -0.25231830623E+03 -0.11480607235E+04  0.79054151058E+03  0.14165754206E+04  0.46999998093E+01 0.  1.
</event>
<event>
 5   0  0.1866421E-07  0.3278749E+04  0.7818609E-02  0.8168324E-01
        1   -1    0    0  501    0  0.00000000000E+00  0.00000000000E+00  0.13087919362E+04  0.13087919362E+04  0.50400001928E-02 0. -1.
       -1   -1    0    0    0  501  0.00000000000E+00  0.00000000000E+00 -0.20534574193E+04  0.20534574193E+04  0.50400001928E-02 0.  1.
    10030    2    1    2    0    0  0.00000000000E+00  0.00000000000E+00 -0.74466548316E+03  0.33622493555E+04  0.32787488539E+04 0.  0.
        1    1    3    3  502    0  0.81851261972E+03 -0.67262223012E+03  0.91059389602E+03  0.13969841862E+04  0.50400001928E-02 0. -1.
       -1    1    3    3    0  502 -0.81851261972E+03  0.67262223012E+03 -0.16552593792E+04  0.19652651693E+04  0.50400001928E-02 0.  1.
</event>
<event>
 5   0  0.1897049E-07  0.3513450E+04  0.7818609E-02  0.8110610E-01
        1   -1    0    0  501    0  0.00000000000E+00  0.00000000000E+00  0.16780404604E+04  0.16780404604E+04  0.50400001928E-02 0.  1.
       -1   -1    0    0    0  501  0.00000000000E+00  0.00000000000E+00 -0.18390993564E+04  0.18390993564E+04  0.50400001928E-02 0. -1.
    10030    2    1    2    0    0  0.00000000000E+00  0.00000000000E+00 -0.16105889594E+03  0.35171398168E+04  0.35134502306E+04 0.  0.
        2    1    3    3  502    0  0.89020553352E+03  0.35019134338E+03 -0.15555024286E+04  0.18261127222E+04  0.25500000920E-02 0. -1.
       -2    1    3    3    0  502 -0.89020553352E+03 -0.35019134338E+03  0.13944435327E+04  0.16910270946E+04  0.25500000920E-02 0.  1.
</event>
<event>
 5   0  0.5707187E-07  0.3470212E+04  0.7818609E-02  0.8120886E-01
       -2   -1    0    0    0  501  0.00000000000E+00  0.00000000000E+00  0.12709865820E+04  0.12709865821E+04  0.25500000920E-02 0. -1.
        2   -1    0    0  501    0  0.00000000000E+00  0.00000000000E+00 -0.23687049131E+04  0.23687049131E+04  0.25500000920E-02 0.  1.
    10030    2    1    2    0    0  0.00000000000E+00  0.00000000000E+00 -0.10977183311E+04  0.36396914952E+04  0.34702116140E+04 0.  0.
        1    1    3    3  502    0 -0.62690352196E+01  0.14131952827E+04  0.50699979929E+03  0.15014023459E+04  0.50400001928E-02 0. -1.
       -1    1    3    3    0  502  0.62690352196E+01 -0.14131952827E+04 -0.16047181304E+04  0.21382891493E+04  0.50400001928E-02 0.  1.
</event>
<event>
 5   0  0.5707187E-07  0.3493216E+04  0.7818609E-02  0.8115400E-01
       -2   -1    0    0    0  501  0.00000000000E+00  0.00000000000E+00  0.12553664609E+04  0.12553664609E+04  0.25500000920E-02 0. -1.
        2   -1    0    0  501    0  0.00000000000E+00  0.00000000000E+00 -0.24300781794E+04  0.24300781794E+04  0.25500000920E-02 0.  1.
    10030    2    1    2    0    0  0.00000000000E+00  0.00000000000E+00 -0.11747117184E+04  0.36854446403E+04  0.34932155066E+04 0.  0.
        1    1    3    3  502    0  0.11532002926E+04  0.12740935338E+04 -0.91670990428E+03  0.19477017986E+04  0.50400001928E-02 0.  1.
       -1    1    3    3    0  502 -0.11532002926E+04 -0.12740935338E+04 -0.25800181416E+03  0.17377428417E+04  0.50400001928E-02 0. -1.
</event>
<event>
 5   0  0.1933647E-07  0.3775169E+04  0.7818609E-02  0.8051505E-01
        1   -1    0    0  501    0  0.00000000000E+00  0.00000000000E+00  0.20862120982E+04  0.20862120982E+04  0.50400001928E-02 0. -1.
       -1   -1    0    0    0  501  0.00000000000E+00  0.00000000000E+00 -0.17078681982E+04  0.17078681982E+04  0.50400001928E-02 0.  1.
    10030    2    1    2    0    0  0.00000000000E+00  0.00000000000E+00  0.37834390007E+03  0.37940802964E+04  0.37751690279E+04 0.  0.
        4    1    3    3  502    0 -0.17190803751E+04 -0.37250198316E+03  0.87742261427E+03  0.19656721803E+04  0.12699999809E+01 0. -1.
       -4    1    3    3    0  502  0.17190803751E+04  0.37250198316E+03 -0.49907871421E+03  0.18284081162E+04  0.12699999809E+01 0.  1.
</event>
<event>
 5   0  0.5554745E-07  0.3480825E+04  0.7818609E-02  0.8118349E-01
        2   -1    0    0  501    0  0.00000000000E+00  0.00000000000E+00  0.23825599285E+04  0.23825599285E+04  0.25500000920E-02 0.  1.
       -2   -1    0    0    0  501  0.00000000000E+00  0.00000000000E+00 -0.12713366318E+04  0.12713366318E+04  0.25500000920E-02 0. -1.
    10030    2    1    2    0    0  0.00000000000E+00  0.00000000000E+00  0.11112232967E+04  0.36538965603E+04  0.34808250256E+04 0.  0.
        5    1    3    3  502    0  0.99562316893E+03  0.73213138828E+02 -0.94089056434E+03  0.13718319147E+04  0.46999998093E+01 0. -1.
       -5    1    3    3    0  502 -0.99562316893E+03 -0.73213138828E+02  0.20521138610E+04  0.22820646456E+04  0.46999998093E+01 0.  1.
</event>
<event>
 5   0  0.1908190E-07  0.3414288E+04  0.7818609E-02  0.8134408E-01
        1   -1    0    0  501    0  0.00000000000E+00  0.00000000000E+00  0.18133311342E+04  0.18133311342E+04  0.50400001928E-02 0.  1.
       -1   -1    0    0    0  501  0.00000000000E+00  0.00000000000E+00 -0.16071754951E+04  0.16071754951E+04  0.50400001928E-02 0. -1.
    10030    2    1    2    0    0  0.00000000000E+00  0.00000000000E+00  0.20615563903E+03  0.34205066293E+04  0.34142884256E+04 0.  0.
        5    1    3    3  502    0  0.20502010660E+03  0.14346317964E+04  0.10070057640E+04  0.17647335023E+04  0.46999998093E+01 0.  1.
       -5    1    3    3    0  502 -0.20502010660E+03 -0.14346317964E+04 -0.80085012494E+03  0.16557731270E+04  0.46999998093E+01 0. -1.
</event>
<event>
 5   0  0.1897049E-07  0.3482327E+04  0.7818609E-02  0.8117991E-01
       -1   -1    0    0    0  501  0.00000000000E+00  0.00000000000E+00  0.14768181448E+04  0.14768181448E+04  0.50400001928E-02 0.  1.
        1   -1    0    0  501    0  0.00000000000E+00  0.00000000000E+00 -0.20528253713E+04  0.20528253713E+04  0.50400001928E-02 0. -1.
    10030    2    1    2    0    0  0.00000000000E+00  0.00000000000E+00 -0.57600722652E+03  0.35296435161E+04  0.34823266684E+04 0.  0.
        2    1    3    3  502    0  0.87303762112E+02 -0.68763909781E+03  0.13309407015E+04  0.15006240790E+04  0.25500000920E-02 0.  1.
       -2    1    3    3    0  502 -0.87303762112E+02  0.68763909781E+03 -0.19069479280E+04  0.20290194370E+04  0.25500000920E-02 0. -1.
</event>
<event>
 5   0  0.5554745E-07  0.3493894E+04  0.7818609E-02  0.8115239E-01
        2   -1    0    0  501    0  0.00000000000E+00  0.00000000000E+00  0.22325733612E+04  0.22325733612E+04  0.25500000920E-02 0. -1.
       -2   -1    0    0    0  501  0.00000000000E+00  0.00000000000E+00 -0.13669531404E+04  0.13669531404E+04  0.25500000920E-02 0.  1.
    10030    2    1    2    0    0  0.00000000000E+00  0.00000000000E+00  0.86562022075E+03  0.35995265016E+04  0.34938936259E+04 0.  0.
        5    1    3    3  502    0  0.12281282749E+04 -0.12423652438E+04  0.42710939266E+03  0.17983923326E+04  0.46999998093E+01 0. -1.
       -5    1    3    3    0  502 -0.12281282749E+04  0.12423652438E+04  0.43851082809E+03  0.18011341690E+04  0.46999998093E+01 0.  1.
</event>
<event>
 5   0  0.5707187E-07  0.3382344E+04  0.7818609E-02  0.8142253E-01
        2   -1    0    0  501    0  0.00000000000E+00  0.00000000000E+00  0.12273236491E+04  0.12273236491E+04  0.25500000920E-02 0.  1.
       -2   -1    0    0    0  501  0.00000000000E+00  0.00000000000E+00 -0.23303252440E+04  0.23303252440E+04  0.25500000920E-02 0. -1.
    10030    2    1    2    0    0  0.00000000000E+00  0.00000000000E+00 -0.11030015949E+04  0.35576488931E+04  0.33823443243E+04 0.  0.
        1    1    3    3  502    0 -0.13179059067E+04 -0.42612393406E+03 -0.15721577696E+04  0.20952655294E+04  0.50400001928E-02 0. -1.
       -1    1    3    3    0  502  0.13179059067E+04  0.42612393406E+03  0.46915617476E+03  0.14623833637E+04  0.50400001928E-02 0.  1.
</event>
<event>
 5   0  0.1897049E-07  0.3374438E+04  0.7818609E-02  0.8144209E-01
        1   -1    0    0  501    0  0.00000000000E+00  0.00000000000E+00  0.10900532001E+04  0.10900532001E+04  0.50400001928E-02 0. -1.
       -1   -1    0    0    0  501  0.00000000000E+00  0.00000000000E+00 -0.26115308804E+04  0.26115308804E+04  0.50400001928E-02 0.  1.
    10030    2    1    2    0    0  0.00000000000E+00  0.00000000000E+00 -0.15214776803E+04  0.37015840805E+04  0.33744377863E+04 0.  0.
        2    1    3    3  502    0  0.52211542725E+03  0.15807244909E+04 -0.10619768410E+04  0.19746111633E+04  0.25500000920E-02 0.  1.
       -2    1    3    3    0  502 -0.52211542725E+03 -0.15807244909E+04 -0.45950083934E+03  0.17269729172E+04  0.25500000920E-02 0. -1.
</event>
<event>
 5   0  0.1823000E-07  0.3507997E+04  0.7818609E-02  0.8111897E-01
        3   -1    0    0  501    0  0.00000000000E+00  0.00000000000E+00  0.12319891489E+04  0.12319891530E+04  0.10100000352E+00 0. -1.
       -3   -1    0    0    0  501  0.00000000000E+00  0.00000000000E+00 -0.24971899005E+04  0.24971899025E+04  0.10100000352E+00 0.  1.
    10030    2    1    2    0    0  0.00000000000E+00  0.00000000000E+00 -0.12652007516E+04  0.37291790556E+04  0.35079970762E+04 0.  0.
        4    1    3    3  502    0 -0.12182644878E+04  0.90206360177E+02  0.70541013960E+03  0.14106419204E+04  0.12699999809E+01 0. -1.
       -4    1    3    3    0  502  0.12182644878E+04 -0.90206360177E+02 -0.19706108912E+04  0.23185371352E+04  0.12699999809E+01 0.  1.
</event>
<event>
 5   0  0.1873457E-07  0.3514967E+04  0.7818609E-02  0.8110252E-01
        1   -1    0    0  501    0  0.00000000000E+00  0.00000000000E+00  0.31385302160E+04  0.31385302160E+04  0.50400001928E-02 0.  1.
       -1   -1    0    0    0  501  0.00000000000E+00  0.00000000000E+00 -0.98413823896E+03  0.98413823897E+03  0.50400001928E-02 0. -1.
    10030    2    1    2    0    0  0.00000000000E+00  0.00000000000E+00  0.21543919770E+04  0.41226684550E+04  0.35149666284E+04 0.  0.
        3    1    3    3  502    0 -0.97833479053E+03 -0.38838708252E+03  0.27279166313E+04  0.29239549665E+04  0.10100000352E+00 0.  1.
       -3    1    3    3    0  502  0.97833479053E+03  0.38838708252E+03 -0.57352465429E+03  0.11987134885E+04  0.10100000352E+00 0. -1.
</event>
<event>
 5   0  0.1873457E-07  0.3458110E+04  0.7818609E-02  0.8123790E-01
       -1   -1    0    0    0  501  0.00000000000E+00  0.00000000000E+00  0.12153578536E+04  0.12153578537E+04  0.50400001928E-02 0. -1.
        1   -1    0    0  501    0  0.00000000000E+00  0.00000000000E+00 -0.24598770995E+04  0.24598770995E+04  0.50400001928E-02 0.  1.
    10030    2    1    2    0    0  0.00000000000E+00  0.00000000000E+00 -0.12445192459E+04  0.36752349532E+04  0.34581098606E+04 0.  0.
        3    1    3    3  502    0 -0.16106802513E+04 -0.37749855904E+03 -0.87861604343E+02  0.16566579930E+04  0.10100000352E+00 0. -1.
       -3    1    3    3    0  502  0.16106802513E+04  0.37749855904E+03 -0.11566576415E+04  0.20185769602E+04  0.10100000352E+00 0.  1.
</event>
<event>
 5   0  0.1908190E-07  0.3481402E+04  0.7818609E-02  0.8118212E-01
       -1   -1    0    0    0  501  0.00000000000E+00  0.00000000000E+00  0.15533114813E+04  0.15533114813E+04  0.50400001928E-02 0.  1.
        1   -1    0    0  501    0  0.00000000000E+00  0.00000000000E+00 -0.19506969725E+04  0.19506969725E+04  0.50400001928E-02 0. -1.
    10030    2    1    2    0    0  0.00000000000E+00  0.00000000000E+00 -0.39738549121E+03  0.35040084538E+04  0.34814020186E+04 0.  0.
        5    1    3    3  502    0  0.12450215513E+04  0.11810947612E+04 -0.49205480613E+03  0.17852740743E+04  0.46999998093E+01 0.  1.
       -5    1    3    3    0  502 -0.12450215513E+04 -0.11810947612E+04  0.94669314925E+02  0.17187343795E+04  0.46999998093E+01 0. -1.
</event>
<event>
 5   0  0.1933647E-07  0.3484474E+04  0.7818609E-02  0.8117479E-01
        1   -1    0    0  501    0  0.00000000000E+00  0.00000000000E+00  0.21481844035E+04  0.21481844035E+04  0.50400001928E-02 0. -1.
       -1   -1    0    0    0  501  0.00000000000E+00  0.00000000000E+00 -0.14130021857E+04  0.14130021857E+04  0.50400001928E-02 0.  1.
    10030    2    1    2    0    0  0.00000000000E+00  0.00000000000E+00  0.73518221786E+03  0.35611865892E+04  0.34844737091E+04 0.  0.
        4    1    3    3  502    0 -0.80315439467E+02  0.16037272834E+04  0.10584886981E+04  0.19232242995E+04  0.12699999809E+01 0. -1.
       -4    1    3    3    0  502  0.80315439467E+02 -0.16037272834E+04 -0.32330648027E+03  0.16379622897E+04  0.12699999809E+01 0.  1.
</event>
<event>
 5   0  0.1908190E-07  0.3485401E+04  0.7818609E-02  0.8117258E-01
       -1   -1    0    0    0  501  0.00000000000E+00  0.00000000000E+00  0.17274845838E+04  0.17274845838E+04  0.50400001928E-02 0.  1.
        1   -1    0    0  501    0  0.00000000000E+00  0.00000000000E+00 -0.17580508600E+04  0.17580508600E+04  0.50400001928E-02 0. -1.
    10030    2    1    2    0    0  0.00000000000E+00  0.00000000000E+00 -0.30566276182E+02  0.34855354437E+04  0.34854014162E+04 0.  0.
        5    1    3    3  502    0  0.92798381861E+03  0.14661871870E+04  0.14635486018E+03  0.17413502433E+04  0.46999998093E+01 0. -1.
       -5    1    3    3    0  502 -0.92798381861E+03 -0.14661871870E+04 -0.17692113636E+03  0.17441852004E+04  0.46999998093E+01 0.  1.
</event>
<event>
 5   0  0.5573334E-07  0.3505174E+04  0.7818609E-02  0.8112565E-01
        2   -1    0    0  501    0  0.00000000000E+00  0.00000000000E+00  0.23482642655E+04  0.23482642655E+04  0.25500000920E-02 0.  1.
       -2   -1    0    0    0  501  0.00000000000E+00  0.00000000000E+00 -0.13080135630E+04  0.13080135630E+04  0.25500000920E-02 0. -1.
    10030    2    1    2    0    0  0.00000000000E+00  0.00000000000E+00  0.10402507025E+04  0.36562778285E+04  0.35051741804E+04 0.  0.
        4    1    3    3  502    0 -0.83878698812E+03  0.11592073300E+04 -0.53554741274E+03  0.15277885618E+04  0.12699999809E+01 0. -1.
       -4    1    3    3    0  502  0.83878698812E+03 -0.11592073300E+04  0.15757981153E+04  0.21284892667E+04  0.12699999809E+01 0.  1.
</event>
<event>
 5   0  0.1908190E-07  0.3504431E+04  0.7818609E-02  0.8112741E-01
       -1   -1    0    0    0  501  0.00000000000E+00  0.00000000000E+00  0.11327707935E+04  0.11327707935E+04  0.50400001928E-02 0. -1.
        1   -1    0    0  501    0  0.00000000000E+00  0.00000000000E+00 -0.27103967869E+04  0.27103967869E+04  0.50400001928E-02 0.  1.
    10030    2    1    2    0    0  0.00000000000E+00  0.00000000000E+00 -0.15776259935E+04  0.38431675804E+04  0.35044305209E+04 0.  0.
        5    1    3    3  502    0 -0.89746153162E+03  0.12098793397E+04  0.19267657476E+03  0.15186808650E+04  0.46999998093E+01 0. -1.
       -5    1    3    3    0  502  0.89746153162E+03 -0.12098793397E+04 -0.17703025682E+04  0.23244867154E+04  0.46999998093E+01 0.  1.
</event>
<event>
 5   0  0.5677193E-07  0.3473790E+04  0.7818609E-02  0.8120030E-01
       -2   -1    0    0    0  501  0.00000000000E+00  0.00000000000E+00  0.24999119303E+04  0.24999119303E+04  0.25500000920E-02 0.  1.
        2   -1    0    0  501    0  0.00000000000E+00  0.00000000000E+00 -0.12067639595E+04  0.12067639595E+04  0.25500000920E-02 0. -1.
    10030    2    1    2    0    0  0.00000000000E+00  0.00000000000E+00  0.12931479708E+04  0.37066758898E+04  0.34737896422E+04 0.  0.
        3    1    3    3  502    0  0.35074824279E+03 -0.15109547124E+04 -0.18735464149E+03  0.15624052754E+04  0.10100000352E+00 0.  1.
       -3    1    3    3    0  502 -0.35074824279E+03  0.15109547124E+04  0.14805026123E+04  0.21442706144E+04  0.10100000352E+00 0. -1.
</event>
<event>
 5   0  0.5677193E-07  0.3429884E+04  0.7818609E-02  0.8130611E-01
        2   -1    0    0  501    0  0.00000000000E+00  0.00000000000E+00  0.19944717001E+04  0.19944717001E+04  0.25500000920E-02 0. -1.
       -2   -1    0    0    0  501  0.00000000000E+00  0.00000000000E+00 -0.14745886208E+04  0.14745886208E+04  0.25500000920E-02 0.  1.
    10030    2    1    2    0    0  0.00000000000E+00  0.00000000000E+00  0.51988307930E+03  0.34690603208E+04  0.34298835394E+04 0.  0.
        3    1    3    3  502    0  0.24296166962E+03  0.27539428117E+03 -0.14343499972E+04  0.14806188934E+04  0.10100000352E+00 0.  1.
       -3    1    3    3    0  502 -0.24296166962E+03 -0.27539428117E+03  0.19542330765E+04  0.19884414274E+04  0.10100000352E+00 0. -1.
</event>
<event>
 5   0  0.1823000E-07  0.3490963E+04  0.7818609E-02  0.8115935E-01
        4   -1    0    0  501    0  0.00000000000E+00  0.00000000000E+00  0.12850976357E+04  0.12850982632E+04  0.12699999809E+01 0. -1.
       -4   -1    0    0    0  501  0.00000000000E+00  0.00000000000E+00 -0.23707959221E+04  0.23707962622E+04  0.12699999809E+01 0.  1.
    10030    2    1    2    0    0  0.00000000000E+00  0.00000000000E+00 -0.10856982864E+04  0.36558945255E+04  0.34909631926E+04 0.  0.
        3    1    3    3  502    0 -0.21301847395E+03 -0.30288404039E+03 -0.23291899280E+04  0.23584404472E+04  0.10100000352E+00 0.  1.
       -3    1    3    3    0  502  0.21301847395E+03  0.30288404039E+03  0.12434916416E+04  0.12974540783E+04  0.10100000352E+00 0. -1.
</event>
<event>
 5   0  0.5554745E-07  0.3497695E+04  0.7818609E-02  0.8114336E-01
        2   -1    0    0  501    0  0.00000000000E+00  0.00000000000E+00  0.16729717027E+04  0.16729717027E+04  0.25500000920E-02 0.  1.
       -2   -1    0    0    0  501  0.00000000000E+00  0.00000000000E+00 -0.18281649483E+04  0.18281649483E+04  0.25500000920E-02 0. -1.
    10030    2    1    2    0    0  0.00000000000E+00  0.00000000000E+00 -0.15519324563E+03  0.35011366510E+04  0.34976953706E+04 0.  0.
        5    1    3    3  502    0 -0.10234969609E+04  0.14039519335E+04  0.12214688238E+03  0.17417143886E+04  0.46999998093E+01 0. -1.
       -5    1    3    3    0  502  0.10234969609E+04 -0.14039519335E+04 -0.27734012801E+03  0.17594222624E+04  0.46999998093E+01 0.  1.
</event>
<event>
 5   0  0.1908190E-07  0.3325862E+04  0.7818609E-02  0.8156346E-01
        1   -1    0    0  501    0  0.00000000000E+00  0.00000000000E+00  0.18037482782E+04  0.18037482782E+04  0.50400001928E-02 0.  1.
       -1   -1    0    0    0  501  0.00000000000E+00  0.00000000000E+00 -0.15331070779E+04  0.15331070779E+04  0.50400001928E-02 0. -1.
    10030    2    1    2    0    0  0.00000000000E+00  0.00000000000E+00  0.27064120025E+03  0.33368553561E+04  0.33258618444E+04 0.  0.
        5    1    3    3  502    0  0.81280028255E+02  0.16058385537E+04  0.56097908635E+03  0.17029514171E+04  0.46999998093E+01 0.  1.
       -5    1    3    3    0  502 -0.81280028255E+02 -0.16058385537E+04 -0.29033788610E+03  0.16339039390E+04  0.46999998093E+01 0. -1.
</event>
<event>
 5   0  0.1897049E-07  0.3482874E+04  0.7818609E-02  0.8117861E-01
        1   -1    0    0  501    0  0.00000000000E+00  0.00000000000E+00  0.13651263263E+04  0.13651263263E+04  0.50400001928E-02 0.  1.
       -1   -1    0    0    0  501  0.00000000000E+00  0.00000000000E+00 -0.22214818946E+04  0.22214818946E+04  0.50400001928E-02 0. -1.
    10030    2    1    2    0    0  0.00000000000E+00  0.00000000000E+00 -0.85635556828E+03  0.35866082210E+04  0.34828743405E+04 0.  0.
        2    1    3    3  502    0 -0.11521931993E+04 -0.23101524178E+03  0.89527942809E+03  0.14773091974E+04  0.25500000920E-02 0.  1.
       -2    1    3    3    0  502  0.11521931993E+04  0.23101524178E+03 -0.17516349964E+04  0.21092990236E+04  0.25500000920E-02 0. -1.
</event>
<event>
 5   0  0.5554745E-07  0.3425255E+04  0.7818609E-02  0.8131736E-01
        2   -1    0    0  501    0  0.00000000000E+00  0.00000000000E+00  0.15846887014E+04  0.15846887014E+04  0.25500000920E-02 0. -1.
       -2   -1    0    0    0  501  0.00000000000E+00  0.00000000000E+00 -0.18508957576E+04  0.18508957576E+04  0.25500000920E-02 0.  1.
    10030    2    1    2    0    0  0.00000000000E+00  0.00000000000E+00 -0.26620705619E+03  0.34355844591E+04  0.34252553742E+04 0.  0.
        5    1    3    3  502    0  0.82858365856E+03  0.78492267080E+03 -0.14138318811E+04  0.18170297621E+04  0.46999998093E+01 0.  1.
       -5    1    3    3    0  502 -0.82858365856E+03 -0.78492267080E+03  0.11476248249E+04  0.16185546970E+04  0.46999998093E+01 0. -1.
</event>
<event>
 5   0  0.5707187E-07  0.3498951E+04  0.7818609E-02  0.8114039E-01
        2   -1    0    0  501    0  0.00000000000E+00  0.00000000000E+00  0.29728713818E+04  0.29728713818E+04  0.25500000920E-02 0.  1.
       -2   -1    0    0    0  501  0.00000000000E+00  0.00000000000E+00 -0.10295315411E+04  0.10295315411E+04  0.25500000920E-02 0. -1.
    10030    2    1    2    0    0  0.00000000000E+00  0.00000000000E+00  0.19433398407E+04  0.40024029229E+04  0.34989511887E+04 0.  0.
        1    1    3    3  502    0 -0.37547476451E+03  0.10834303822E+03  0.29223050562E+04  0.29483192422E+04  0.50400001928E-02 0.  1.
       -1    1    3    3    0  502  0.37547476451E+03 -0.10834303822E+03 -0.97896521547E+03  0.10540836807E+04  0.50400001928E-02 0. -1.
</event>
<event>
 5   0  0.1897049E-07  0.3502040E+04  0.7818609E-02  0.8113307E-01
       -1   -1    0    0    0  501  0.00000000000E+00  0.00000000000E+00  0.21433240491E+04  0.21433240491E+04  0.50400001928E-02 0. -1.
        1   -1    0    0  501    0  0.00000000000E+00  0.00000000000E+00 -0.14305215758E+04  0.14305215758E+04  0.50400001928E-02 0.  1.
    10030    2    1    2    0    0  0.00000000000E+00  0.00000000000E+00  0.71280247333E+03  0.35738456250E+04  0.35020401461E+04 0.  0.
        2    1    3    3  502    0  0.21407225621E+03 -0.12683475185E+04 -0.85604111960E+03  0.15451015362E+04  0.25500000920E-02 0.  1.
       -2    1    3    3    0  502 -0.21407225621E+03  0.12683475185E+04  0.15688435929E+04  0.20287440888E+04  0.25500000920E-02 0. -1.
</event>
<event>
 5   0  0.5707187E-07  0.3477570E+04  0.7818609E-02  0.8119126E-01
        2   -1    0    0  501    0  0.00000000000E+00  0.00000000000E+00  0.25687497316E+04  0.25687497316E+04  0.25500000920E-02 0.  1.
       -2   -1    0    0    0  501  0.00000000000E+00  0.00000000000E+00 -0.11769821236E+04  0.11769821236E+04  0.25500000920E-02 0. -1.
    10030    2    1    2    0    0  0.00000000000E+00  0.00000000000E+00  0.13917676080E+04  0.37457318552E+04  0.34775695617E+04 0.  0.
        1    1    3    3  502    0  0.30350703254E+02 -0.10324838790E+04 -0.81069841147E+03  0.13130788400E+04  0.50400001928E-02 0. -1.
       -1    1    3    3    0  502 -0.30350703254E+02  0.10324838790E+04  0.22024660195E+04  0.24326530152E+04  0.50400001928E-02 0.  1.
</event>
<event>
 5   0  0.1933647E-07  0.3524062E+04  0.7818609E-02  0.8108111E-01
        1   -1    0    0  501    0  0.00000000000E+00  0.00000000000E+00  0.18775535822E+04  0.18775535823E+04  0.50400001928E-02 0.  1.
       -1   -1    0    0    0  501  0.00000000000E+00  0.00000000000E+00 -0.16536164402E+04  0.16536164402E+04  0.50400001928E-02 0. -1.
    10030    2    1    2    0    0  0.00000000000E+00  0.00000000000E+00  0.22393714202E+03  0.35311700225E+04  0.35240621283E+04 0.  0.
        4    1    3    3  502    0  0.71735346762E+03  0.10652206550E+04  0.13208266900E+04  0.18422474859E+04  0.12699999809E+01 0.  1.
       -4    1    3    3    0  502 -0.71735346762E+03 -0.10652206550E+04 -0.10968895480E+04  0.16889225366E+04  0.12699999809E+01 0. -1.
</event>
<event>
 5   0  0.5677193E-07  0.3433386E+04  0.7818609E-02  0.8129761E-01
        2   -1    0    0  501    0  0.00000000000E+00  0.00000000000E+00  0.21983930179E+04  0.21983930179E+04  0.25500000920E-02 0. -1.
       -2   -1    0    0    0  501  0.00000000000E+00  0.00000000000E+00 -0.13405406152E+04  0.13405406152E+04  0.25500000920E-02 0.  1.
    10030    2    1    2    0    0  0.00000000000E+00  0.00000000000E+00  0.85785240272E+03  0.35389336331E+04  0.34333861587E+04 0.  0.
        3    1    3    3  502    0 -0.65413525126E+02 -0.14242472644E+03 -0.13331508702E+04  0.13423319205E+04  0.10100000352E+00 0.  1.
       -3    1    3    3    0  502  0.65413525126E+02  0.14242472644E+03  0.21910032729E+04  0.21966017126E+04  0.10100000352E+00 0. -1.
</event>
<event>
 5   0  0.1933647E-07  0.3491277E+04  0.7818609E-02  0.8115860E-01
       -1   -1    0    0    0  501  0.00000000000E+00  0.00000000000E+00  0.24271481773E+04  0.24271481773E+04  0.50400001928E-02 0.  1.
        1   -1    0    0  501    0  0.00000000000E+00  0.00000000000E+00 -0.12554873986E+04  0.12554873986E+04  0.50400001928E-02 0. -1.
    10030    2    1    2    0    0  0.00000000000E+00  0.00000000000E+00  0.11716607788E+04  0.36826355759E+04  0.34912771022E+04 0.  0.
        4    1    3    3  502    0  0.55658840063E+03 -0.64748307774E+03 -0.10201951132E+04  0.13303475732E+04  0.12699999809E+01 0. -1.
       -4    1    3    3    0  502 -0.55658840063E+03  0.64748307774E+03  0.21918558920E+04  0.23522880027E+04  0.12699999809E+01 0.  1.
</event>
<event>
 5   0  0.5677193E-07  0.3496797E+04  0.7818609E-02  0.8114550E-01
       -2   -1    0    0    0  501  0.00000000000E+00  0.00000000000E+00  0.19367662063E+04  0.19367662063E+04  0.25500000920E-02 0.  1.
        2   -1    0    0  501    0  0.00000000000E+00  0.00000000000E+00 -0.15783507770E+04  0.15783507770E+04  0.25500000920E-02 0. -1.
    10030    2    1    2    0    0  0.00000000000E+00  0.00000000000E+00  0.35841542932E+03  0.35151169832E+04  0.34967965033E+04 0.  0.
        3    1    3    3  502    0  0.14005413638E+04 -0.73543051600E+03 -0.56935626291E+03  0.16812319054E+04  0.10100000352E+00 0. -1.
       -3    1    3    3    0  502 -0.14005413638E+04  0.73543051600E+03  0.92777169224E+03  0.18338850778E+04  0.10100000352E+00 0.  1.
</event>
<event>
 5   0  0.5573334E-07  0.3550175E+04  0.7818609E-02  0.8102001E-01
        2   -1    0    0  501    0  0.00000000000E+00  0.00000000000E+00  0.24757606601E+04  0.24757606601E+04  0.25500000920E-02 0.  1.
       -2   -1    0    0    0  501  0.00000000000E+00  0.00000000000E+00 -0.12727140172E+04  0.12727140172E+04  0.25500000920E-02 0. -1.
    10030    2    1    2    0    0  0.00000000000E+00  0.00000000000E+00  0.12030466429E+04  0.37484746773E+04  0.35501748099E+04 0.  0.
        4    1    3    3  502    0 -0.41505088387E+03 -0.16086003684E+04  0.12618104270E+04  0.20861518516E+04  0.12699999809E+01 0.  1.
       -4    1    3    3    0  502  0.41505088387E+03  0.16086003684E+04 -0.58763784084E+02  0.16623228257E+04  0.12699999809E+01 0. -1.
</event>
<event>
 5   0  0.5740827E-07  0.3456311E+04  0.7818609E-02  0.8124222E-01
        2   -1    0    0  501    0  0.00000000000E+00  0.00000000000E+00  0.26355589536E+04  0.26355589536E+04  0.25500000920E-02 0.  1.
       -2   -1    0    0    0  501  0.00000000000E+00  0.00000000000E+00 -0.11331646283E+04  0.11331646283E+04  0.25500000920E-02 0. -1.
    10030    2    1    2    0    0  0.00000000000E+00  0.00000000000E+00  0.15023943253E+04  0.37687235819E+04  0.34563114339E+04 0.  0.
        2    1    3    3  502    0  0.16420352922E+04 -0.50827606537E+03  0.94593989327E+03  0.19619956017E+04  0.25500000920E-02 0.  1.
       -2    1    3    3    0  502 -0.16420352922E+04  0.50827606537E+03  0.55645443200E+03  0.18067279802E+04  0.25500000920E-02 0. -1.
</event>
<event>
 5   0  0.5740827E-07  0.3474169E+04  0.7818609E-02  0.8119939E-01
       -2   -1    0    0    0  501  0.00000000000E+00  0.00000000000E+00  0.17218367831E+04  0.17218367831E+04  0.25500000920E-02 0. -1.
        2   -1    0    0  501    0  0.00000000000E+00  0.00000000000E+00 -0.17524674293E+04  0.17524674293E+04  0.25500000920E-02 0.  1.
    10030    2    1    2    0    0  0.00000000000E+00  0.00000000000E+00 -0.30630646194E+02  0.34743042125E+04  0.34741691848E+04 0.  0.
        2    1    3    3  502    0  0.44238359948E+03  0.63091295840E+03  0.15415715948E+04  0.17234260623E+04  0.25500000920E-02 0. -1.
       -2    1    3    3    0  502 -0.44238359948E+03 -0.63091295840E+03 -0.15722022410E+04  0.17508781502E+04  0.25500000920E-02 0.  1.
</event>
<event>
 5   0  0.1933647E-07  0.3530053E+04  0.7818609E-02  0.8106704E-01
        1   -1    0    0  501    0  0.00000000000E+00  0.00000000000E+00  0.26401990323E+04  0.26401990323E+04  0.50400001928E-02 0. -1.
       -1   -1    0    0    0  501  0.00000000000E+00  0.00000000000E+00 -0.11799559825E+04  0.11799559825E+04  0.50400001928E-02 0.  1.
    10030    2    1    2    0    0  0.00000000000E+00  0.00000000000E+00  0.14602430497E+04  0.38201550148E+04  0.35300530552E+04 0.  0.
        4    1    3    3  502    0 -0.12940366589E+04 -0.11229301101E+04  0.11890147583E+04  0.20854880999E+04  0.12699999809E+01 0. -1.
       -4    1    3    3    0  502  0.12940366589E+04  0.11229301101E+04  0.27122829147E+03  0.17346669149E+04  0.12699999809E+01 0.  1.
</event>
<event>
 5   0  0.5740827E-07  0.3446163E+04  0.7818609E-02  0.8126668E-01
       -2   -1    0    0    0  501  0.00000000000E+00  0.00000000000E+00  0.93910188504E+03  0.93910188504E+03  0.25500000920E-02 0. -1.
        2   -1    0    0  501    0  0.00000000000E+00  0.00000000000E+00 -0.31615424253E+04  0.31615424253E+04  0.25500000920E-02 0.  1.
    10030    2    1    2    0    0  0.00000000000E+00  0.00000000000E+00 -0.22224405403E+04  0.41006443104E+04  0.34461633457E+04 0.  0.
        2    1    3    3  502    0 -0.86446483766E+03 -0.10421866966E+04 -0.23792250191E+04  0.27375471243E+04  0.25500000920E-02 0.  1.
       -2    1    3    3    0  502  0.86446483766E+03  0.10421866966E+04  0.15678447880E+03  0.13630971861E+04  0.25500000920E-02 0. -1.
</event>
<event>
 5   0  0.5554745E-07  0.3504632E+04  0.7818609E-02  0.8112693E-01
        2   -1    0    0  501    0  0.00000000000E+00  0.00000000000E+00  0.30204534761E+04  0.30204534761E+04  0.25500000920E-02 0. -1.
       -2   -1    0    0    0  501  0.00000000000E+00  0.00000000000E+00 -0.10166062655E+04  0.10166062655E+04  0.25500000920E-02 0.  1.
    10030    2    1    2    0    0  0.00000000000E+00  0.00000000000E+00  0.20038472106E+04  0.40370597416E+04  0.35046323222E+04 0.  0.
        5    1    3    3  502    0 -0.53437492615E+03 -0.10035324844E+04  0.25378952487E+04  0.27809294116E+04  0.46999998093E+01 0. -1.
       -5    1    3    3    0  502  0.53437492615E+03  0.10035324844E+04 -0.53404803813E+03  0.12561303300E+04  0.46999998093E+01 0.  1.
</event>
<event>
 5   0  0.5554745E-07  0.3517003E+04  0.7818609E-02  0.8109772E-01
       -2   -1    0    0    0  501  0.00000000000E+00  0.00000000000E+00  0.94728433492E+03  0.94728433492E+03  0.25500000920E-02 0.  1.
        2   -1    0    0  501    0  0.00000000000E+00  0.00000000000E+00 -0.32644124411E+04  0.32644124411E+04  0.25500000920E-02 0. -1.
    10030    2    1    2    0    0  0.00000000000E+00  0.00000000000E+00 -0.23171281062E+04  0.42116967761E+04  0.35170025694E+04 0.  0.
        5    1    3    3  502    0 -0.12917605491E+04 -0.11457927097E+04 -0.15572128006E+04  0.23251709714E+04  0.46999998093E+01 0.  1.
       -5    1    3    3    0  502  0.12917605491E+04  0.11457927097E+04 -0.75991530562E+03  0.18865258047E+04  0.46999998093E+01 0. -1.
</event>
<event>
 5   0  0.5677193E-07  0.3465357E+04  0.7818609E-02  0.8122049E-01
       -2   -1    0    0    0  501  0.00000000000E+00  0.00000000000E+00  0.13290623743E+04  0.13290623743E+04  0.25500000920E-02 0. -1.
        2   -1    0    0  501    0  0.00000000000E+00  0.00000000000E+00 -0.22588664335E+04  0.22588664335E+04  0.25500000920E-02 0.  1.
    10030    2    1    2    0    0  0.00000000000E+00  0.00000000000E+00 -0.92980405916E+03  0.35879288078E+04  0.34653567698E+04 0.  0.
        3    1    3    3  502    0  0.57026733669E+03  0.92946248142E+03 -0.18590312640E+04  0.21552500064E+04  0.10100000352E+00 0.  1.
       -3    1    3    3    0  502 -0.57026733669E+03 -0.92946248142E+03  0.92922720480E+03  0.14326788014E+04  0.10100000352E+00 0. -1.
</event>
<event>
 5   0  0.1908190E-07  0.3526418E+04  0.7818609E-02  0.8107558E-01
        1   -1    0    0  501    0  0.00000000000E+00  0.00000000000E+00  0.22540615674E+04  0.22540615674E+04  0.50400001928E-02 0. -1.
       -1   -1    0    0    0  501  0.00000000000E+00  0.00000000000E+00 -0.13792465443E+04  0.13792465443E+04  0.50400001928E-02 0.  1.
    10030    2    1    2    0    0  0.00000000000E+00  0.00000000000E+00  0.87481502308E+03  0.36333081117E+04  0.35264183685E+04 0.  0.
        5    1    3    3  502    0 -0.48314154198E+02 -0.17529255943E+04  0.24798111578E+03  0.17710446410E+04  0.46999998093E+01 0. -1.
       -5    1    3    3    0  502  0.48314154198E+02  0.17529255943E+04  0.62683390730E+03  0.18622634706E+04  0.46999998093E+01 0.  1.
</event>
<event>
 5   0  0.1866421E-07  0.3488430E+04  0.7818609E-02  0.8116537E-01
        1   -1    0    0  501    0  0.00000000000E+00  0.00000000000E+00  0.90964241257E+03  0.90964241259E+03  0.50400001928E-02 0. -1.
       -1   -1    0    0    0  501  0.00000000000E+00  0.00000000000E+00 -0.33444864087E+04  0.33444864087E+04  0.50400001928E-02 0.  1.
    10030    2    1    2    0    0  0.00000000000E+00  0.00000000000E+00 -0.24348439962E+04  0.42541288213E+04  0.34884304125E+04 0.  0.
        1    1    3    3  502    0  0.44007753924E+03 -0.12104401716E+04 -0.26517972490E+04  0.29480268485E+04  0.50400001928E-02 0.  1.
       -1    1    3    3    0  502 -0.44007753924E+03  0.12104401716E+04  0.21695325282E+03  0.13061019729E+04  0.50400001928E-02 0. -1.
</event>
<event>
 5   0  0.5677193E-07  0.3438820E+04  0.7818609E-02  0.8128444E-01
       -2   -1    0    0    0  501  0.00000000000E+00  0.00000000000E+00  0.13993067666E+04  0.13993067667E+04  0.25500000920E-02 0.  1.
        2   -1    0    0  501    0  0.00000000000E+00  0.00000000000E+00 -0.21127395894E+04  0.21127395894E+04  0.25500000920E-02 0. -1.
    10030    2    1    2    0    0  0.00000000000E+00  0.00000000000E+00 -0.71343282272E+03  0.35120463560E+04  0.34388200323E+04 0.  0.
        3    1    3    3  502    0 -0.10682511280E+04 -0.11668860255E+04  0.33111379857E+03  0.16162981862E+04  0.10100000352E+00 0.  1.
       -3    1    3    3    0  502  0.10682511280E+04  0.11668860255E+04 -0.10445466213E+04  0.18957481698E+04  0.10100000352E+00 0. -1.
</event>
<event>
 5   0  0.1897049E-07  0.3441417E+04  0.7818609E-02  0.8127815E-01
        1   -1    0    0  501    0  0.00000000000E+00  0.00000000000E+00  0.19916210753E+04  0.19916210754E+04  0.50400001928E-02 0.  1.
       -1   -1    0    0    0  501  0.00000000000E+00  0.00000000000E+00 -0.14866472729E+04  0.14866472729E+04  0.50400001928E-02 0. -1.
    10030    2    1    2    0    0  0.00000000000E+00  0.00000000000E+00  0.50497380241E+03  0.34782683483E+04  0.34414171734E+04 0.  0.
        2    1    3    3  502    0  0.95443627704E+03 -0.13653822169E+04 -0.18296393060E+03  0.16759155722E+04  0.25500000920E-02 0. -1.
       -2    1    3    3    0  502 -0.95443627704E+03  0.13653822169E+04  0.68793773302E+03  0.18023527761E+04  0.25500000920E-02 0.  1.
</event>
<event>
 5   0  0.5573334E-07  0.3458931E+04  0.7818609E-02  0.8123592E-01
       -2   -1    0    0    0  501  0.00000000000E+00  0.00000000000E+00  0.12950053080E+04  0.12950053080E+04  0.25500000920E-02 0. -1.
        2   -1    0    0  501    0  0.00000000000E+00  0.00000000000E+00 -0.23096819155E+04  0.23096819155E+04  0.25500000920E-02 0.  1.
    10030    2    1    2    0    0  0.00000000000E+00  0.00000000000E+00 -0.10146766075E+04  0.36046872236E+04  0.34589306674E+04 0.  0.
        4    1    3    3  502    0  0.16119633795E+04 -0.40064028288E+03 -0.52584437757E+01  0.16610140990E+04  0.12699999809E+01 0. -1.
       -4    1    3    3    0  502 -0.16119633795E+04  0.40064028288E+03 -0.10094181637E+04  0.19436731246E+04  0.12699999809E+01 0.  1.
</event>
<event>
 5   0  0.1933647E-07  0.3493982E+04  0.7818609E-02  0.8115218E-01
       -1   -1    0    0    0  501  0.00000000000E+00  0.00000000000E+00  0.13946703261E+04  0.13946703261E+04  0.50400001928E-02 0.  1.
        1   -1    0    0  501    0  0.00000000000E+00  0.00000000000E+00 -0.21883146663E+04  0.21883146663E+04  0.50400001928E-02 0. -1.
    10030    2    1    2    0    0  0.00000000000E+00  0.00000000000E+00 -0.79364434029E+03  0.35829849924E+04  0.34939819858E+04 0.  0.
        4    1    3    3  502    0  0.84199266778E+03  0.17026952746E+03 -0.19567663552E+04  0.21370258647E+04  0.12699999809E+01 0. -1.
       -4    1    3    3    0  502 -0.84199266778E+03 -0.17026952746E+03  0.11631220149E+04  0.14459591277E+04  0.12699999809E+01 0.  1.
</event>
<event>
 5   0  0.5573334E-07  0.3499764E+04  0.7818609E-02  0.8113846E-01
       -2   -1    0    0    0  501  0.00000000000E+00  0.00000000000E+00  0.15897445147E+04  0.15897445148E+04  0.25500000920E-02 0. -1.
        2   -1    0    0  501    0  0.00000000000E+00  0.00000000000E+00 -0.19261505922E+04  0.19261505922E+04  0.25500000920E-02 0.  1.
    10030    2    1    2    0    0  0.00000000000E+00  0.00000000000E+00 -0.33640607740E+03  0.35158951069E+04  0.34997641855E+04 0.  0.
        4    1    3    3  502    0 -0.14142706727E+04  0.71217494728E+03  0.58003254655E+03  0.16863552589E+04  0.12699999809E+01 0. -1.
       -4    1    3    3    0  502  0.14142706727E+04 -0.71217494728E+03 -0.91643862395E+03  0.18295398480E+04  0.12699999809E+01 0.  1.
</event>
<event>
 5   0  0.5707187E-07  0.3483219E+04  0.7818609E-02  0.8117778E-01
        2   -1    0    0  501    0  0.00000000000E+00  0.00000000000E+00  0.18211817717E+04  0.18211817717E+04  0.25500000920E-02 0.  1.
       -2   -1    0    0    0  501  0.00000000000E+00  0.00000000000E+00 -0.16655138518E+04  0.16655138518E+04  0.25500000920E-02 0. -1.
    10030    2    1    2    0    0  0.00000000000E+00  0.00000000000E+00  0.15566791990E+03  0.34866956235E+04  0.34832188949E+04 0.  0.
        1    1    3    3  502    0  0.71029175920E+03 -0.61710596320E+03  0.15448578823E+04  0.18088449434E+04  0.50400001928E-02 0.  1.
       -1    1    3    3    0  502 -0.71029175920E+03  0.61710596320E+03 -0.13891899624E+04  0.16778506801E+04  0.50400001928E-02 0. -1.
</event>
<event>
 5   0  0.5740827E-07  0.3491720E+04  0.7818609E-02  0.8115755E-01
        2   -1    0    0  501    0  0.00000000000E+00  0.00000000000E+00  0.20863906681E+04  0.20863906681E+04  0.25500000920E-02 0. -1.
       -2   -1    0    0    0  501  0.00000000000E+00  0.00000000000E+00 -0.14609092387E+04  0.14609092387E+04  0.25500000920E-02 0.  1.
    10030    2    1    2    0    0  0.00000000000E+00  0.00000000000E+00  0.62548142937E+03  0.35472999068E+04  0.34917201506E+04 0.  0.
        2    1    3    3  502    0 -0.84634222412E+03 -0.13177802899E+04  0.10965047377E+04  0.19118479785E+04  0.25500000920E-02 0.  1.
       -2    1    3    3    0  502  0.84634222412E+03  0.13177802899E+04 -0.47102330837E+03  0.16354519283E+04  0.25500000920E-02 0. -1.
</event>
<event>
 5   0  0.1873457E-07  0.3521709E+04  0.7818609E-02  0.8108664E-01
       -1   -1    0    0    0  501  0.00000000000E+00  0.00000000000E+00  0.12412047173E+04  0.12412047173E+04  0.50400001928E-02 0.  1.
        1   -1    0    0  501    0  0.00000000000E+00  0.00000000000E+00 -0.24980639362E+04  0.24980639362E+04  0.50400001928E-02 0. -1.
    10030    2    1    2    0    0  0.00000000000E+00  0.00000000000E+00 -0.12568592189E+04  0.37392686536E+04  0.35217090975E+04 0.  0.
        3    1    3    3  502    0  0.96889631295E+03  0.94699493903E+03  0.56579744788E+03  0.14682255419E+04  0.10100000352E+00 0.  1.
       -3    1    3    3    0  502 -0.96889631295E+03 -0.94699493903E+03 -0.18226566668E+04  0.22710431117E+04  0.10100000352E+00 0. -1.
</event>
<event>
 5   0  0.1866421E-07  0.3532310E+04  0.7818609E-02  0.8106175E-01
        1   -1    0    0  501    0  0.00000000000E+00  0.00000000000E+00  0.22466343532E+04  0.22466343532E+04  0.50400001928E-02 0. -1.
       -1   -1    0    0    0  501  0.00000000000E+00  0.00000000000E+00 -0.13884342605E+04  0.13884342605E+04  0.50400001928E-02 0.  1.
    10030    2    1    2    0    0  0.00000000000E+00  0.00000000000E+00  0.85820009275E+03  0.36350686137E+04  0.35323103526E+04 0.  0.
        1    1    3    3  502    0  0.12694026963E+04 -0.12143122595E+04  0.61707932660E+03  0.18619141667E+04  0.50400001928E-02 0.  1.
       -1    1    3    3    0  502 -0.12694026963E+04  0.12143122595E+04  0.24112076615E+03  0.17731544470E+04  0.50400001928E-02 0. -1.
</event>
<event>
 5   0  0.1897049E-07  0.3488425E+04  0.7818609E-02  0.8116538E-01
        1   -1    0    0  501    0  0.00000000000E+00  0.00000000000E+00  0.14493926207E+04  0.14493926207E+04  0.50400001928E-02 0.  1.
       -1   -1    0    0    0  501  0.00000000000E+00  0.00000000000E+00 -0.20990019246E+04  0.20990019246E+04  0.50400001928E-02 0. -1.
    10030    2    1    2    0    0  0.00000000000E+00  0.00000000000E+00 -0.64960930387E+03  0.35483945453E+04  0.34884253757E+04 0.  0.
        2    1    3    3  502    0 -0.92589461577E+03  0.11023003577E+04  0.67697655921E+03  0.15907998554E+04  0.25500000920E-02 0.  1.
       -2    1    3    3    0  502  0.92589461577E+03 -0.11023003577E+04 -0.13265858631E+04  0.19575946900E+04  0.25500000920E-02 0. -1.
</event>
<event>
 5   0  0.5740827E-07  0.3504323E+04  0.7818609E-02  0.8112766E-01
       -2   -1    0    0    0  501  0.00000000000E+00  0.00000000000E+00  0.15401955015E+04  0.15401955015E+04  0.25500000920E-02 0.  1.
        2   -1    0    0  501    0  0.00000000000E+00  0.00000000000E+00 -0.19932985643E+04  0.19932985643E+04  0.25500000920E-02 0. -1.
    10030    2    1    2    0    0  0.00000000000E+00  0.00000000000E+00 -0.45310306278E+03  0.35334940658E+04  0.35043227488E+04 0.  0.
        2    1    3    3  502    0 -0.36366332929E+03 -0.13169320157E+04 -0.13327291189E+04  0.19085931613E+04  0.25500000920E-02 0. -1.
       -2    1    3    3    0  502  0.36366332929E+03  0.13169320157E+04  0.87962605610E+03  0.16249009045E+04  0.25500000920E-02 0.  1.
</event>
<event>
 5   0  0.5554745E-07  0.3497602E+04  0.7818609E-02  0.8114358E-01
       -2   -1    0    0    0  501  0.00000000000E+00  0.00000000000E+00  0.18409240645E+04  0.18409240645E+04  0.25500000920E-02 0.  1.
        2   -1    0    0  501    0  0.00000000000E+00  0.00000000000E+00 -0.16612881322E+04  0.16612881322E+04  0.25500000920E-02 0. -1.
    10030    2    1    2    0    0  0.00000000000E+00  0.00000000000E+00  0.17963593236E+03  0.35022121967E+04  0.34976022076E+04 0.  0.
        5    1    3    3  502    0 -0.27738754430E+03 -0.39179165628E+02  0.18183041678E+04  0.18397638418E+04  0.46999998093E+01 0.  1.
       -5    1    3    3    0  502  0.27738754430E+03  0.39179165628E+02 -0.16386682355E+04  0.16624483549E+04  0.46999998093E+01 0. -1.
</event>
<event>
 5   0  0.1866421E-07  0.3496951E+04  0.7818609E-02  0.8114513E-01
       -1   -1    0    0    0  501  0.00000000000E+00  0.00000000000E+00  0.19291010161E+04  0.19291010161E+04  0.50400001928E-02 0. -1.
        1   -1    0    0  501    0  0.00000000000E+00  0.00000000000E+00 -0.15847624242E+04  0.15847624242E+04  0.50400001928E-02 0.  1.
    10030    2    1    2    0    0  0.00000000000E+00  0.00000000000E+00  0.34433859192E+03  0.35138634403E+04  0.34969511308E+04 0.  0.
        1    1    3    3  502    0 -0.79895733259E+03 -0.15316501333E+04  0.44344132628E+03  0.17835148331E+04  0.50400001928E-02 0. -1.
       -1    1    3    3    0  502  0.79895733259E+03  0.15316501333E+04 -0.99102734362E+02  0.17303486071E+04  0.50400001928E-02 0.  1.
</event>
<event>
 5   0  0.5707187E-07  0.3497509E+04  0.7818609E-02  0.8114380E-01
        2   -1    0    0  501    0  0.00000000000E+00  0.00000000000E+00  0.20064357475E+04  0.20064357475E+04  0.25500000920E-02 0.  1.
       -2   -1    0    0    0  501  0.00000000000E+00  0.00000000000E+00 -0.15241668362E+04  0.15241668362E+04  0.25500000920E-02 0. -1.
    10030    2    1    2    0    0  0.00000000000E+00  0.00000000000E+00  0.48226891127E+03  0.35306025838E+04  0.34975092997E+04 0.  0.
        1    1    3    3  502    0 -0.14647082785E+04  0.25349276158E+03  0.11709984647E+04  0.18923177126E+04  0.50400001928E-02 0.  1.
       -1    1    3    3    0  502  0.14647082785E+04 -0.25349276158E+03 -0.68872955339E+03  0.16382848711E+04  0.50400001928E-02 0. -1.
</event>
<event>
 5   0  0.1866421E-07  0.3475994E+04  0.7818609E-02  0.8119503E-01
       -1   -1    0    0    0  501  0.00000000000E+00  0.00000000000E+00  0.26052399783E+04  0.26052399783E+04  0.50400001928E-02 0.  1.
        1   -1    0    0  501    0  0.00000000000E+00  0.00000000000E+00 -0.11594456672E+04  0.11594456672E+04  0.50400001928E-02 0. -1.
    10030    2    1    2    0    0  0.00000000000E+00  0.00000000000E+00  0.14457943111E+04  0.37646856455E+04  0.34759943642E+04 0.  0.
        1    1    3    3  502    0  0.10150485907E+04 -0.11839144718E+04 -0.10806423028E+03  0.15632194331E+04  0.50400001928E-02 0. -1.
       -1    1    3    3    0  502 -0.10150485907E+04  0.11839144718E+04  0.15538585414E+04  0.22014662125E+04  0.50400001928E-02 0.  1.
</event>
<event>
 5   0  0.5554745E-07  0.3498579E+04  0.7818609E-02  0.8114127E-01
       -2   -1    0    0    0  501  0.00000000000E+00  0.00000000000E+00  0.11215984535E+04  0.11215984535E+04  0.25500000920E-02 0. -1.
        2   -1    0    0  501    0  0.00000000000E+00  0.00000000000E+00 -0.27282620704E+04  0.27282620704E+04  0.25500000920E-02 0.  1.
    10030    2    1    2    0    0  0.00000000000E+00  0.00000000000E+00 -0.16066636169E+04  0.38498605239E+04  0.34985794368E+04 0.  0.
        5    1    3    3  502    0 -0.10924125462E+03  0.82515571623E+03  0.88971360049E+03  0.12183710390E+04  0.46999998093E+01 0. -1.
       -5    1    3    3    0  502  0.10924125462E+03 -0.82515571623E+03 -0.24963772174E+04  0.26314894849E+04  0.46999998093E+01 0.  1.
</event>
<event>
 5   0  0.5573334E-07  0.3529826E+04  0.7818609E-02  0.8106758E-01
        2   -1    0    0  501    0  0.00000000000E+00  0.00000000000E+00  0.14764723511E+04  0.14764723511E+04  0.25500000920E-02 0.  1.
       -2   -1    0    0    0  501  0.00000000000E+00  0.00000000000E+00 -0.21097026477E+04  0.21097026477E+04  0.25500000920E-02 0. -1.
    10030    2    1    2    0    0  0.00000000000E+00  0.00000000000E+00 -0.63323029665E+03  0.35861749988E+04  0.35298258475E+04 0.  0.
        4    1    3    3  502    0  0.34658673942E+03 -0.47058696226E+03 -0.20085353633E+04  0.20918389937E+04  0.12699999809E+01 0. -1.
       -4    1    3    3    0  502 -0.34658673942E+03  0.47058696226E+03  0.13753050666E+04  0.14943360051E+04  0.12699999809E+01 0.  1.
</event>
<event>
 5   0  0.5554745E-07  0.3493207E+04  0.7818609E-02  0.8115402E-01
       -2   -1    0    0    0  501  0.00000000000E+00  0.00000000000E+00  0.10642171017E+04  0.10642171017E+04  0.25500000920E-02 0.  1.
        2   -1    0    0  501    0  0.00000000000E+00  0.00000000000E+00 -0.28665423908E+04  0.28665423908E+04  0.25500000920E-02 0. -1.
    10030    2    1    2    0    0  0.00000000000E+00  0.00000000000E+00 -0.18023252890E+04  0.39307594925E+04  0.34932067989E+04 0.  0.
        5    1    3    3  502    0  0.14743524977E+03 -0.17052596620E+04 -0.50981591075E+03  0.17859400943E+04  0.46999998093E+01 0.  1.
       -5    1    3    3    0  502 -0.14743524977E+03  0.17052596620E+04 -0.12925093783E+04  0.21448193981E+04  0.46999998093E+01 0. -1.
</event>
<event>
 5   0  0.5554745E-07  0.3498431E+04  0.7818609E-02  0.8114162E-01
       -2   -1    0    0    0  501  0.00000000000E+00  0.00000000000E+00  0.16024784395E+04  0.16024784395E+04  0.25500000920E-02 0.  1.
        2   -1    0    0  501    0  0.00000000000E+00  0.00000000000E+00 -0.19093890556E+04  0.19093890556E+04  0.25500000920E-02 0. -1.
    10030    2    1    2    0    0  0.00000000000E+00  0.00000000000E+00 -0.30691061604E+03  0.35118674951E+04  0.34984309593E+04 0.  0.
        5    1    3    3  502    0 -0.11312740099E+04  0.74108982303E+03 -0.12671023415E+04  0.18532580622E+04  0.46999998093E+01 0. -1.
       -5    1    3    3    0  502  0.11312740099E+04 -0.74108982303E+03  0.96019172543E+03  0.16586094329E+04  0.46999998093E+01 0.  1.
</event>
<event>
 5   0  0.1823000E-07  0.3506066E+04  0.7818609E-02  0.8112354E-01
       -4   -1    0    0    0  501  0.00000000000E+00  0.00000000000E+00  0.18932534010E+04  0.18932538269E+04  0.12699999809E+01 0. -1.
        4   -1    0    0  501    0  0.00000000000E+00  0.00000000000E+00 -0.16231968574E+04  0.16231973542E+04  0.12699999809E+01 0.  1.
    10030    2    1    2    0    0  0.00000000000E+00  0.00000000000E+00  0.27005654359E+03  0.35164511812E+04  0.35060659396E+04 0.  0.
        1    1    3    3  502    0 -0.10925554479E+04 -0.90956547182E+03  0.11638042918E+04  0.18372335682E+04  0.50400001928E-02 0.  1.
       -1    1    3    3    0  502  0.10925554479E+04  0.90956547182E+03 -0.89374774826E+03  0.16792176130E+04  0.50400001928E-02 0. -1.
</event>
<event>
 5   0  0.5707187E-07  0.3533259E+04  0.7818609E-02  0.8105953E-01
       -2   -1    0    0    0  501  0.00000000000E+00  0.00000000000E+00  0.13291833221E+04  0.13291833221E+04  0.25500000920E-02 0. -1.
        2   -1    0    0  501    0  0.00000000000E+00  0.00000000000E+00 -0.23480435060E+04  0.23480435060E+04  0.25500000920E-02 0.  1.
    10030    2    1    2    0    0  0.00000000000E+00  0.00000000000E+00 -0.10188601839E+04  0.36772268281E+04  0.35332592703E+04 0.  0.
        1    1    3    3  502    0  0.25784091457E+03 -0.44978037697E+03  0.12482287845E+04  0.13516136368E+04  0.50400001928E-02 0. -1.
       -1    1    3    3    0  502 -0.25784091457E+03  0.44978037697E+03 -0.22670889684E+04  0.23256131913E+04  0.50400001928E-02 0.  1.
</event>
<event>
 5   0  0.1897049E-07  0.3441978E+04  0.7818609E-02  0.8127680E-01
        1   -1    0    0  501    0  0.00000000000E+00  0.00000000000E+00  0.20921558158E+04  0.20921558158E+04  0.50400001928E-02 0. -1.
       -1   -1    0    0    0  501  0.00000000000E+00  0.00000000000E+00 -0.14156703449E+04  0.14156703449E+04  0.50400001928E-02 0.  1.
    10030    2    1    2    0    0  0.00000000000E+00  0.00000000000E+00  0.67648547096E+03  0.35078261607E+04  0.34419778880E+04 0.  0.
        2    1    3    3  502    0  0.10338606258E+04 -0.31301588704E+03  0.17036333560E+04  0.20172291270E+04  0.25500000920E-02 0. -1.
       -2    1    3    3    0  502 -0.10338606258E+04  0.31301588704E+03 -0.10271478850E+04  0.14905970337E+04  0.25500000920E-02 0.  1.
</event>
<event>
 5   0  0.5573334E-07  0.3505295E+04  0.7818609E-02  0.8112536E-01
        2   -1    0    0  501    0  0.00000000000E+00  0.00000000000E+00  0.24550242432E+04  0.24550242432E+04  0.25500000920E-02 0.  1.
       -2   -1    0    0    0  501  0.00000000000E+00  0.00000000000E+00 -0.12512190798E+04  0.12512190798E+04  0.25500000920E-02 0. -1.
    10030    2    1    2    0    0  0.00000000000E+00  0.00000000000E+00  0.12038051634E+04  0.37062433230E+04  0.35052949516E+04 0.  0.
        4    1    3    3  502    0  0.10506842648E+04  0.12912021961E+04  0.22171933561E+02  0.16648224359E+04  0.12699999809E+01 0. -1.
       -4    1    3    3    0  502 -0.10506842648E+04 -0.12912021961E+04  0.11816332298E+04  0.20414208871E+04  0.12699999809E+01 0.  1.
</event>
<event>
 5   0  0.1873457E-07  0.3441427E+04  0.7818609E-02  0.8127813E-01
       -1   -1    0    0    0  501  0.00000000000E+00  0.00000000000E+00  0.17211469664E+04  0.17211469664E+04  0.50400001928E-02 0. -1.
        1   -1    0    0  501    0  0.00000000000E+00  0.00000000000E+00 -0.17202805922E+04  0.17202805922E+04  0.50400001928E-02 0.  1.
    10030    2    1    2    0    0  0.00000000000E+00  0.00000000000E+00  0.86637420679E+00  0.34414275586E+04  0.34414274496E+04 0.  0.
        3    1    3    3  502    0  0.78226461106E+03 -0.35335623667E+03  0.14917605495E+04  0.17210892187E+04  0.10100000352E+00 0. -1.
       -3    1    3    3    0  502 -0.78226461106E+03  0.35335623667E+03 -0.14908941753E+04  0.17203383399E+04  0.10100000352E+00 0.  1.
</event>
<event>
 5   0  0.5677193E-07  0.3571279E+04  0.7818609E-02  0.8097102E-01
       -2   -1    0    0    0  501  0.00000000000E+00  0.00000000000E+00  0.17613121749E+04  0.17613121749E+04  0.25500000920E-02 0.  1.
        2   -1    0    0  501    0  0.00000000000E+00  0.00000000000E+00 -0.18103029311E+04  0.18103029311E+04  0.25500000920E-02 0. -1.
    10030    2    1    2    0    0  0.00000000000E+00  0.00000000000E+00 -0.48990756250E+02  0.35716151060E+04  0.35712790946E+04 0.  0.
        3    1    3    3  502    0  0.13947096138E+04 -0.10936677483E+04 -0.24173582456E+03  0.17887873740E+04  0.10100000352E+00 0.  1.
       -3    1    3    3    0  502 -0.13947096138E+04  0.10936677483E+04  0.19274506831E+03  0.17828277320E+04  0.10100000352E+00 0. -1.
</event>
<event>
 5   0  0.1933647E-07  0.3520625E+04  0.7818609E-02  0.8108919E-01
        1   -1    0    0  501    0  0.00000000000E+00  0.00000000000E+00  0.20334361711E+04  0.20334361711E+04  0.50400001928E-02 0. -1.
       -1   -1    0    0    0  501  0.00000000000E+00  0.00000000000E+00 -0.15238738593E+04  0.15238738593E+04  0.50400001928E-02 0.  1.
    10030    2    1    2    0    0  0.00000000000E+00  0.00000000000E+00  0.50956231180E+03  0.35573100304E+04  0.35206250728E+04 0.  0.
        4    1    3    3  502    0  0.60008558004E+03 -0.22049612502E+03 -0.14024239109E+04  0.15412708014E+04  0.12699999809E+01 0.  1.
       -4    1    3    3    0  502 -0.60008558004E+03  0.22049612502E+03  0.19119862227E+04  0.20160392291E+04  0.12699999809E+01 0. -1.
</event>
<event>
 5   0  0.5707187E-07  0.3498227E+04  0.7818609E-02  0.8114210E-01
       -2   -1    0    0    0  501  0.00000000000E+00  0.00000000000E+00  0.19941272920E+04  0.19941272920E+04  0.25500000920E-02 0. -1.
        2   -1    0    0  501    0  0.00000000000E+00  0.00000000000E+00 -0.15342036285E+04  0.15342036285E+04  0.25500000920E-02 0.  1.
    10030    2    1    2    0    0  0.00000000000E+00  0.00000000000E+00  0.45992366355E+03  0.35283309205E+04  0.34982265947E+04 0.  0.
        1    1    3    3  502    0  0.28822167843E+03 -0.12384927077E+04 -0.98139885291E+03  0.16062626284E+04  0.50400001928E-02 0.  1.
       -1    1    3    3    0  502 -0.28822167843E+03  0.12384927077E+04  0.14413225165E+04  0.19220682921E+04  0.50400001928E-02 0. -1.
</event>
<event>
 5   0  0.1908190E-07  0.3305249E+04  0.7818609E-02  0.8161561E-01
       -1   -1    0    0    0  501  0.00000000000E+00  0.00000000000E+00  0.15892925013E+04  0.15892925013E+04  0.50400001928E-02 0.  1.
        1   -1    0    0  501    0  0.00000000000E+00  0.00000000000E+00 -0.17184800068E+04  0.17184800068E+04  0.50400001928E-02 0. -1.
    10030    2    1    2    0    0  0.00000000000E+00  0.00000000000E+00 -0.12918750552E+03  0.33077725081E+04  0.33052487885E+04 0.  0.
        5    1    3    3  502    0  0.75347141824E+03 -0.14595337421E+04  0.11771937270E+03  0.16467658799E+04  0.46999998093E+01 0. -1.
       -5    1    3    3    0  502 -0.75347141824E+03  0.14595337421E+04 -0.24690687823E+03  0.16610066282E+04  0.46999998093E+01 0.  1.
</event>
<event>
 5   0  0.1933647E-07  0.3485821E+04  0.7818609E-02  0.8117158E-01
        1   -1    0    0  501    0  0.00000000000E+00  0.00000000000E+00  0.16035148116E+04  0.16035148116E+04  0.50400001928E-02 0.  1.
       -1   -1    0    0    0  501  0.00000000000E+00  0.00000000000E+00 -0.18944240733E+04  0.18944240734E+04  0.50400001928E-02 0. -1.
    10030    2    1    2    0    0  0.00000000000E+00  0.00000000000E+00 -0.29090926178E+03  0.34979388849E+04  0.34858210287E+04 0.  0.
        4    1    3    3  502    0 -0.28913993409E+03  0.17007558474E+04 -0.39443628694E+03  0.17696762278E+04  0.12699999809E+01 0. -1.
       -4    1    3    3    0  502  0.28913993409E+03 -0.17007558474E+04  0.10352702516E+03  0.17282626571E+04  0.12699999809E+01 0.  1.
</event>
<event>
 5   0  0.5677193E-07  0.3516610E+04  0.7818609E-02  0.8109865E-01
       -2   -1    0    0    0  501  0.00000000000E+00  0.00000000000E+00  0.11658319170E+04  0.11658319170E+04  0.25500000920E-02 0. -1.
        2   -1    0    0  501    0  0.00000000000E+00  0.00000000000E+00 -0.26518714724E+04  0.26518714724E+04  0.25500000920E-02 0.  1.
    10030    2    1    2    0    0  0.00000000000E+00  0.00000000000E+00 -0.14860395554E+04  0.38177033894E+04  0.35166099598E+04 0.  0.
        3    1    3    3  502    0  0.16140707360E+04 -0.32933738459E+03 -0.75606954404E+02  0.16490615135E+04  0.10100000352E+00 0.  1.
       -3    1    3    3    0  502 -0.16140707360E+04  0.32933738459E+03 -0.14104326010E+04  0.21686418759E+04  0.10100000352E+00 0. -1.
</event>
<event>
 5   0  0.1908190E-07  0.3477113E+04  0.7818609E-02  0.8119235E-01
       -1   -1    0    0    0  501  0.00000000000E+00  0.00000000000E+00  0.15303303370E+04  0.15303303370E+04  0.50400001928E-02 0. -1.
        1   -1    0    0  501    0  0.00000000000E+00  0.00000000000E+00 -0.19751153797E+04  0.19751153797E+04  0.50400001928E-02 0.  1.
    10030    2    1    2    0    0  0.00000000000E+00  0.00000000000E+00 -0.44478504277E+03  0.35054457167E+04  0.34771131616E+04 0.  0.
        5    1    3    3  502    0  0.60780247011E+03 -0.11066353697E+04  0.98254133562E+03  0.15998360073E+04  0.46999998093E+01 0. -1.
       -5    1    3    3    0  502 -0.60780247011E+03  0.11066353697E+04 -0.14273263784E+04  0.19056097094E+04  0.46999998093E+01 0.  1.
</event>
<event>
 5   0  0.1873457E-07  0.3502144E+04  0.7818609E-02  0.8113282E-01
        1   -1    0    0  501    0  0.00000000000E+00  0.00000000000E+00  0.14719214906E+04  0.14719214906E+04  0.50400001928E-02 0.  1.
       -1   -1    0    0    0  501  0.00000000000E+00  0.00000000000E+00 -0.20831633602E+04  0.20831633602E+04  0.50400001928E-02 0. -1.
    10030    2    1    2    0    0  0.00000000000E+00  0.00000000000E+00 -0.61124186955E+03  0.35550848508E+04  0.35021438682E+04 0.  0.
        3    1    3    3  502    0 -0.11416639472E+04 -0.11046058916E+04  0.44219852874E+03  0.16489664318E+04  0.10100000352E+00 0. -1.
       -3    1    3    3    0  502  0.11416639472E+04  0.11046058916E+04 -0.10534403983E+04  0.19061184190E+04  0.10100000352E+00 0.  1.
</event>
<event>
 5   0  0.1897049E-07  0.3481160E+04  0.7818609E-02  0.8118269E-01
        1   -1    0    0  501    0  0.00000000000E+00  0.00000000000E+00  0.15502076654E+04  0.15502076654E+04  0.50400001928E-02 0.  1.
       -1   -1    0    0    0  501  0.00000000000E+00  0.00000000000E+00 -0.19543311146E+04  0.19543311146E+04  0.50400001928E-02 0. -1.
    10030    2    1    2    0    0  0.00000000000E+00  0.00000000000E+00 -0.40412344921E+03  0.35045387801E+04  0.34811601943E+04 0.  0.
        2    1    3    3  502    0 -0.14009446574E+04 -0.51521196773E+02  0.83652486150E+03  0.16325055010E+04  0.25500000920E-02 0.  1.
       -2    1    3    3    0  502  0.14009446574E+04  0.51521196773E+02 -0.12406483107E+04  0.18720332790E+04  0.25500000920E-02 0. -1.
</event>
<event>
 5   0  0.5740827E-07  0.3521711E+04  0.7818609E-02  0.8108664E-01
       -2   -1    0    0    0  501  0.00000000000E+00  0.00000000000E+00  0.15533697682E+04  0.15533697682E+04  0.25500000920E-02 0. -1.
        2   -1    0    0  501    0  0.00000000000E+00  0.00000000000E+00 -0.19960553088E+04  0.19960553088E+04  0.25500000920E-02 0.  1.
    10030    2    1    2    0    0  0.00000000000E+00  0.00000000000E+00 -0.44268554062E+03  0.35494250771E+04  0.35217109322E+04 0.  0.
        2    1    3    3  502    0  0.37887484838E+03 -0.39471134275E+03 -0.19082130949E+04  0.19850995971E+04  0.25500000920E-02 0.  1.
       -2    1    3    3    0  502 -0.37887484838E+03  0.39471134275E+03  0.14655275543E+04  0.15643254800E+04  0.25500000920E-02 0. -1.
</event>
<event>
 5   0  0.1897049E-07  0.3489415E+04  0.7818609E-02  0.8116303E-01
       -1   -1    0    0    0  501  0.00000000000E+00  0.00000000000E+00  0.22045804950E+04  0.22045804950E+04  0.50400001928E-02 0.  1.
        1   -1    0    0  501    0  0.00000000000E+00  0.00000000000E+00 -0.13807637318E+04  0.13807637318E+04  0.50400001928E-02 0. -1.
    10030    2    1    2    0    0  0.00000000000E+00  0.00000000000E+00  0.82381676318E+03  0.35853442269E+04  0.34894153043E+04 0.  0.
        2    1    3    3  502    0 -0.12516068521E+03  0.16416568922E+03 -0.13681709436E+04  0.13836572197E+04  0.25500000920E-02 0. -1.
       -2    1    3    3    0  502  0.12516068521E+03 -0.16416568922E+03  0.21919877068E+04  0.22016870072E+04  0.25500000920E-02 0.  1.
</event>
<event>
 5   0  0.1897049E-07  0.3492349E+04  0.7818609E-02  0.8115605E-01
        1   -1    0    0  501    0  0.00000000000E+00  0.00000000000E+00  0.20558077014E+04  0.20558077014E+04  0.50400001928E-02 0.  1.
       -1   -1    0    0    0  501  0.00000000000E+00  0.00000000000E+00 -0.14831767265E+04  0.14831767265E+04  0.50400001928E-02 0. -1.
    10030    2    1    2    0    0  0.00000000000E+00  0.00000000000E+00  0.57263097485E+03  0.35389844279E+04  0.34923494310E+04 0.  0.
        2    1    3    3  502    0  0.16998842503E+04 -0.36969819818E+03  0.13315853321E+03  0.17447104107E+04  0.25500000920E-02 0. -1.
       -2    1    3    3    0  502 -0.16998842503E+04  0.36969819818E+03  0.43947244164E+03  0.17942740173E+04  0.25500000920E-02 0.  1.
</event>
<event>
 5   0  0.1873457E-07  0.3415957E+04  0.7818609E-02  0.8134001E-01
        1   -1    0    0  501    0  0.00000000000E+00  0.00000000000E+00  0.14427038992E+04  0.14427038992E+04  0.50400001928E-02 0.  1.
       -1   -1    0    0    0  501  0.00000000000E+00  0.00000000000E+00 -0.20220304754E+04  0.20220304754E+04  0.50400001928E-02 0. -1.
    10030    2    1    2    0    0  0.00000000000E+00  0.00000000000E+00 -0.57932657625E+03  0.34647343746E+04  0.34159574067E+04 0.  0.
        3    1    3    3  502    0 -0.68342291706E+03  0.88310758464E+03 -0.16004970960E+04  0.19515472975E+04  0.10100000352E+00 0. -1.
       -3    1    3    3    0  502  0.68342291706E+03 -0.88310758464E+03  0.10211705198E+04  0.15131870771E+04  0.10100000352E+00 0.  1.
</event>
<event>
 5   0  0.5707187E-07  0.3499530E+04  0.7818609E-02  0.8113901E-01
       -2   -1    0    0    0  501  0.00000000000E+00  0.00000000000E+00  0.10940889263E+04  0.10940889263E+04  0.25500000920E-02 0. -1.
        2   -1    0    0  501    0  0.00000000000E+00  0.00000000000E+00 -0.27983810660E+04  0.27983810660E+04  0.25500000920E-02 0.  1.
    10030    2    1    2    0    0  0.00000000000E+00  0.00000000000E+00 -0.17042921397E+04  0.38924699923E+04  0.34995301033E+04 0.  0.
        1    1    3    3  502    0 -0.21912651493E+03 -0.15002024541E+04 -0.18237586931E+04  0.23716491316E+04  0.50400001928E-02 0. -1.
       -1    1    3    3    0  502  0.21912651493E+03  0.15002024541E+04  0.11946655342E+03  0.15208208607E+04  0.50400001928E-02 0.  1.
</event>
<event>
 5   0  0.5573334E-07  0.3483380E+04  0.7818609E-02  0.8117740E-01
       -2   -1    0    0    0  501  0.00000000000E+00  0.00000000000E+00  0.15100476324E+04  0.15100476324E+04  0.25500000920E-02 0.  1.
        2   -1    0    0  501    0  0.00000000000E+00  0.00000000000E+00 -0.20088665734E+04  0.20088665734E+04  0.25500000920E-02 0. -1.
    10030    2    1    2    0    0  0.00000000000E+00  0.00000000000E+00 -0.49881894101E+03  0.35189142059E+04  0.34833800901E+04 0.  0.
        4    1    3    3  502    0 -0.48052256692E+03 -0.37133699099E+03  0.13996302580E+04  0.15256996985E+04  0.12699999809E+01 0.  1.
       -4    1    3    3    0  502  0.48052256692E+03  0.37133699099E+03 -0.18984491990E+04  0.19932145073E+04  0.12699999809E+01 0. -1.
</event>
<event>
 5   0  0.1866421E-07  0.3513973E+04  0.7818609E-02  0.8110486E-01
        1   -1    0    0  501    0  0.00000000000E+00  0.00000000000E+00  0.13061987958E+04  0.13061987958E+04  0.50400001928E-02 0. -1.
       -1   -1    0    0    0  501  0.00000000000E+00  0.00000000000E+00 -0.23633480175E+04  0.23633480175E+04  0.50400001928E-02 0.  1.
    10030    2    1    2    0    0  0.00000000000E+00  0.00000000000E+00 -0.10571492218E+04  0.36695468133E+04  0.35139734402E+04 0.  0.
        1    1    3    3  502    0 -0.12240055509E+04  0.58225465329E+03  0.63886083160E+03  0.14984502768E+04  0.50400001928E-02 0.  1.
       -1    1    3    3    0  502  0.12240055509E+04 -0.58225465329E+03 -0.16960100534E+04  0.21710965365E+04  0.50400001928E-02 0. -1.
</event>
<event>
 5   0  0.5707187E-07  0.3503330E+04  0.7818609E-02  0.8113001E-01
        2   -1    0    0  501    0  0.00000000000E+00  0.00000000000E+00  0.17003647297E+04  0.17003647297E+04  0.25500000920E-02 0. -1.
       -2   -1    0    0    0  501  0.00000000000E+00  0.00000000000E+00 -0.18045125738E+04  0.18045125738E+04  0.25500000920E-02 0.  1.
    10030    2    1    2    0    0  0.00000000000E+00  0.00000000000E+00 -0.10414784412E+03  0.35048773035E+04  0.35033295790E+04 0.  0.
        1    1    3    3  502    0  0.28590748479E+03 -0.17175987741E+04 -0.24305324430E+03  0.17581136249E+04  0.50400001928E-02 0.  1.
       -1    1    3    3    0  502 -0.28590748479E+03  0.17175987741E+04  0.13890540018E+03  0.17467636786E+04  0.50400001928E-02 0. -1.
</event>
<event>
 5   0  0.5573334E-07  0.3463619E+04  0.7818609E-02  0.8122466E-01
        2   -1    0    0  501    0  0.00000000000E+00  0.00000000000E+00  0.19277706523E+04  0.19277706523E+04  0.25500000920E-02 0.  1.
       -2   -1    0    0    0  501  0.00000000000E+00  0.00000000000E+00 -0.15557683110E+04  0.15557683110E+04  0.25500000920E-02 0. -1.
    10030    2    1    2    0    0  0.00000000000E+00  0.00000000000E+00  0.37200234135E+03  0.34835389633E+04  0.34636192006E+04 0.  0.
        4    1    3    3  502    0 -0.95788167598E+03  0.99008907270E+03  0.12414885741E+04  0.18544835318E+04  0.12699999809E+01 0.  1.
       -4    1    3    3    0  502  0.95788167598E+03 -0.99008907270E+03 -0.86948623277E+03  0.16290554315E+04  0.12699999809E+01 0. -1.
</event>
<event>
 5   0  0.5554745E-07  0.3424318E+04  0.7818609E-02  0.8131964E-01
       -2   -1    0    0    0  501  0.00000000000E+00  0.00000000000E+00  0.19961924027E+04  0.19961924027E+04  0.25500000920E-02 0. -1.
        2   -1    0    0  501    0  0.00000000000E+00  0.00000000000E+00 -0.14685400018E+04  0.14685400018E+04  0.25500000920E-02 0.  1.
    10030    2    1    2    0    0  0.00000000000E+00  0.00000000000E+00  0.52765240090E+03  0.34647324045E+04  0.34243179727E+04 0.  0.
        5    1    3    3  502    0 -0.23239752898E+03 -0.14474444888E+04 -0.63112535454E+03  0.15960718852E+04  0.46999998093E+01 0.  1.
       -5    1    3    3    0  502  0.23239752898E+03  0.14474444888E+04  0.11587777554E+04  0.18686605192E+04  0.46999998093E+01 0. -1.
</event>
<event>
 5   0  0.5707187E-07  0.3469036E+04  0.7818609E-02  0.8121167E-01
       -2   -1    0    0    0  501  0.00000000000E+00  0.00000000000E+00  0.11119782601E+04  0.11119782601E+04  0.25500000920E-02 0.  1.
        2   -1    0    0  501    0  0.00000000000E+00  0.00000000000E+00 -0.27055857698E+04  0.27055857698E+04  0.25500000920E-02 0. -1.
    10030    2    1    2    0    0  0.00000000000E+00  0.00000000000E+00 -0.15936075097E+04  0.38175640300E+04  0.34690359220E+04 0.  0.
        1    1    3    3  502    0 -0.19121581244E+03  0.34341181564E+03 -0.26559300104E+04  0.26848574230E+04  0.50400001928E-02 0. -1.
       -1    1    3    3    0  502  0.19121581244E+03 -0.34341181564E+03  0.10623225006E+04  0.11327066069E+04  0.50400001928E-02 0.  1.
</event>
<event>
 5   0  0.5554745E-07  0.3407625E+04  0.7818609E-02  0.8136037E-01
        2   -1    0    0  501    0  0.00000000000E+00  0.00000000000E+00  0.24040332444E+04  0.24040332444E+04  0.25500000920E-02 0.  1.
       -2   -1    0    0    0  501  0.00000000000E+00  0.00000000000E+00 -0.12075443013E+04  0.12075443013E+04  0.25500000920E-02 0. -1.
    10030    2    1    2    0    0  0.00000000000E+00  0.00000000000E+00  0.11964889430E+04  0.36115775457E+04  0.34076247707E+04 0.  0.
        5    1    3    3  502    0  0.50715088241E+03  0.14453528284E+04  0.13890301707E+04  0.20677702293E+04  0.46999998093E+01 0.  1.
       -5    1    3    3    0  502 -0.50715088241E+03 -0.14453528284E+04 -0.19254122761E+03  0.15438073165E+04  0.46999998093E+01 0. -1.
</event>
<event>
 5   0  0.5707187E-07  0.3492246E+04  0.7818609E-02  0.8115630E-01
       -2   -1    0    0    0  501  0.00000000000E+00  0.00000000000E+00  0.23801212854E+04  0.23801212854E+04  0.25500000920E-02 0.  1.
        2   -1    0    0  501    0  0.00000000000E+00  0.00000000000E+00 -0.12810039727E+04  0.12810039727E+04  0.25500000920E-02 0. -1.
    10030    2    1    2    0    0  0.00000000000E+00  0.00000000000E+00  0.10991173127E+04  0.36611252582E+04  0.34922455940E+04 0.  0.
        1    1    3    3  502    0 -0.99698244669E+03 -0.60751055493E+03 -0.81165387998E+03  0.14219089613E+04  0.50400001928E-02 0. -1.
       -1    1    3    3    0  502  0.99698244669E+03  0.60751055493E+03  0.19107711926E+04  0.22392162968E+04  0.50400001928E-02 0.  1.
</event>
<event>
 5   0  0.1933647E-07  0.3362870E+04  0.7818609E-02  0.8147080E-01
        1   -1    0    0  501    0  0.00000000000E+00  0.00000000000E+00  0.29515930176E+04  0.29515930176E+04  0.50400001928E-02 0. -1.
       -1   -1    0    0    0  501  0.00000000000E+00  0.00000000000E+00 -0.95786344540E+03  0.95786344542E+03  0.50400001928E-02 0.  1.
    10030    2    1    2    0    0  0.00000000000E+00  0.00000000000E+00  0.19937295722E+04  0.39094564630E+04  0.33628696420E+04 0.  0.
        4    1    3    3  502    0  0.13280089905E+04  0.46895227388E+03  0.20646888061E+04  0.24992930186E+04  0.12699999809E+01 0. -1.
       -4    1    3    3    0  502 -0.13280089905E+04 -0.46895227388E+03 -0.70959233938E+02  0.14101634444E+04  0.12699999809E+01 0.  1.
</event>
<event>
 5   0  0.1873457E-07  0.3486381E+04  0.7818609E-02  0.8117025E-01
        1   -1    0    0  501    0  0.00000000000E+00  0.00000000000E+00  0.16597924190E+04  0.16597924190E+04  0.50400001928E-02 0.  1.
       -1   -1    0    0    0  501  0.00000000000E+00  0.00000000000E+00 -0.18307793625E+04  0.18307793625E+04  0.50400001928E-02 0. -1.
    10030    2    1    2    0    0  0.00000000000E+00  0.00000000000E+00 -0.17098694347E+03  0.34905717816E+04  0.34863813371E+04 0.  0.
        3    1    3    3  502    0 -0.26410094095E+03 -0.55282106166E+03 -0.17194333508E+04  0.18253250371E+04  0.10100000352E+00 0. -1.
       -3    1    3    3    0  502  0.26410094095E+03  0.55282106166E+03  0.15484464073E+04  0.16652467444E+04  0.10100000352E+00 0.  1.
</event>
<event>
 5   0  0.5707187E-07  0.3477554E+04  0.7818609E-02  0.8119130E-01
       -2   -1    0    0    0  501  0.00000000000E+00  0.00000000000E+00  0.16496725471E+04  0.16496725471E+04  0.25500000920E-02 0. -1.
        2   -1    0    0  501    0  0.00000000000E+00  0.00000000000E+00 -0.18326938727E+04  0.18326938727E+04  0.25500000920E-02 0.  1.
    10030    2    1    2    0    0  0.00000000000E+00  0.00000000000E+00 -0.18302132559E+03  0.34823664198E+04  0.34775536051E+04 0.  0.
        1    1    3    3  502    0 -0.75996026112E+03 -0.34301923366E+03 -0.16194476952E+04  0.18214863795E+04  0.50400001928E-02 0.  1.
       -1    1    3    3    0  502  0.75996026112E+03  0.34301923366E+03  0.14364263696E+04  0.16608800404E+04  0.50400001928E-02 0. -1.
</event>
<event>
 5   0  0.1897049E-07  0.3499132E+04  0.7818609E-02  0.8113996E-01
       -1   -1    0    0    0  501  0.00000000000E+00  0.00000000000E+00  0.19801479534E+04  0.19801479534E+04  0.50400001928E-02 0. -1.
        1   -1    0    0  501    0  0.00000000000E+00  0.00000000000E+00 -0.15458348762E+04  0.15458348762E+04  0.50400001928E-02 0.  1.
    10030    2    1    2    0    0  0.00000000000E+00  0.00000000000E+00  0.43431307721E+03  0.35259828296E+04  0.34991323304E+04 0.  0.
        2    1    3    3  502    0 -0.88195790976E+03 -0.31624643810E+03  0.17060329536E+04  0.19463838273E+04  0.25500000920E-02 0. -1.
       -2    1    3    3    0  502  0.88195790976E+03  0.31624643810E+03 -0.12717198764E+04  0.15795990024E+04  0.25500000920E-02 0.  1.
</event>
<event>
 5   0  0.5740827E-07  0.3509371E+04  0.7818609E-02  0.8111573E-01
       -2   -1    0    0    0  501  0.00000000000E+00  0.00000000000E+00  0.33917878883E+04  0.33917878883E+04  0.25500000920E-02 0. -1.
        2   -1    0    0  501    0  0.00000000000E+00  0.00000000000E+00 -0.90775782129E+03  0.90775782129E+03  0.25500000920E-02 0.  1.
    10030    2    1    2    0    0  0.00000000000E+00  0.00000000000E+00  0.24840300670E+04  0.42995457096E+04  0.35093714444E+04 0.  0.
        2    1    3    3  502    0  0.62453793203E+03 -0.11211173850E+04  0.27081036348E+04  0.29967944735E+04  0.25500000920E-02 0. -1.
       -2    1    3    3    0  502 -0.62453793203E+03  0.11211173850E+04 -0.22407356777E+03  0.13027512361E+04  0.25500000920E-02 0.  1.
</event>
<event>
 5   0  0.1933647E-07  0.3505787E+04  0.7818609E-02  0.8112420E-01
       -1   -1    0    0    0  501  0.00000000000E+00  0.00000000000E+00  0.10770279227E+04  0.10770279227E+04  0.50400001928E-02 0.  1.
        1   -1    0    0  501    0  0.00000000000E+00  0.00000000000E+00 -0.28528838848E+04  0.28528838848E+04  0.50400001928E-02 0. -1.
    10030    2    1    2    0    0  0.00000000000E+00  0.00000000000E+00 -0.17758559621E+04  0.39299118076E+04  0.35057869897E+04 0.  0.
        4    1    3    3  502    0  0.12147240691E+04 -0.67799368407E+02 -0.23025311844E+04  0.26041894682E+04  0.12699999809E+01 0. -1.
       -4    1    3    3    0  502 -0.12147240691E+04  0.67799368407E+02  0.52667522228E+03  0.13257223394E+04  0.12699999809E+01 0.  1.
</event>
<event>
 5   0  0.5554745E-07  0.3476266E+04  0.7818609E-02  0.8119438E-01
       -2   -1    0    0    0  501  0.00000000000E+00  0.00000000000E+00  0.25274187060E+04  0.25274187060E+04  0.25500000920E-02 0. -1.
        2   -1    0    0  501    0  0.00000000000E+00  0.00000000000E+00 -0.11953326934E+04  0.11953326934E+04  0.25500000920E-02 0.  1.
    10030    2    1    2    0    0  0.00000000000E+00  0.00000000000E+00  0.13320860126E+04  0.37227513995E+04  0.34762659331E+04 0.  0.
        5    1    3    3  502    0  0.64562236363E+02  0.60739778772E+03 -0.10766011013E+04  0.12378175860E+04  0.46999998093E+01 0.  1.
       -5    1    3    3    0  502 -0.64562236363E+02 -0.60739778772E+03  0.24086871139E+04  0.24849338135E+04  0.46999998093E+01 0. -1.
</event>
<event>
 5   0  0.1866421E-07  0.3446277E+04  0.7818609E-02  0.8126641E-01
       -1   -1    0    0    0  501  0.00000000000E+00  0.00000000000E+00  0.11481813488E+04  0.11481813488E+04  0.50400001928E-02 0.  1.
        1   -1    0    0  501    0  0.00000000000E+00  0.00000000000E+00 -0.25860080623E+04  0.25860080623E+04  0.50400001928E-02 0. -1.
    10030    2    1    2    0    0  0.00000000000E+00  0.00000000000E+00 -0.14378267135E+04  0.37341894111E+04  0.34462769622E+04 0.  0.
        1    1    3    3  502    0 -0.11104620156E+03 -0.17038109377E+04 -0.97048035112E+03  0.19639590327E+04  0.50400001928E-02 0. -1.
       -1    1    3    3    0  502  0.11104620156E+03  0.17038109377E+04 -0.46734636236E+03  0.17702303784E+04  0.50400001928E-02 0.  1.
</event>
<event>
 5   0  0.5707187E-07  0.3497015E+04  0.7818609E-02  0.8114498E-01
       -2   -1    0    0    0  501  0.00000000000E+00  0.00000000000E+00  0.14654823533E+04  0.14654823533E+04  0.25500000920E-02 0.  1.
        2   -1    0    0  501    0  0.00000000000E+00  0.00000000000E+00 -0.20861922335E+04  0.20861922335E+04  0.25500000920E-02 0. -1.
    10030    2    1    2    0    0  0.00000000000E+00  0.00000000000E+00 -0.62070988021E+03  0.35516745868E+04  0.34970146719E+04 0.  0.
        1    1    3    3  502    0  0.10413362561E+04 -0.61151403762E+03 -0.15946144391E+04  0.20002814367E+04  0.50400001928E-02 0. -1.
       -1    1    3    3    0  502 -0.10413362561E+04  0.61151403762E+03  0.97390455891E+03  0.15513931502E+04  0.50400001928E-02 0.  1.
</event>
<event>
 5   0  0.1897049E-07  0.3434092E+04  0.7818609E-02  0.8129589E-01
        1   -1    0    0  501    0  0.00000000000E+00  0.00000000000E+00  0.97987411593E+03  0.97987411595E+03  0.50400001928E-02 0. -1.
       -1   -1    0    0    0  501  0.00000000000E+00  0.00000000000E+00 -0.30088019660E+04  0.30088019660E+04  0.50400001928E-02 0.  1.
    10030    2    1    2    0    0  0.00000000000E+00  0.00000000000E+00 -0.20289278500E+04  0.39886760819E+04  0.34340921167E+04 0.  0.
        2    1    3    3  502    0  0.54550882068E+03  0.14814287900E+04 -0.23010217295E+03  0.15953551778E+04  0.25500000920E-02 0. -1.
       -2    1    3    3    0  502 -0.54550882068E+03 -0.14814287900E+04 -0.17988256771E+04  0.23933209041E+04  0.25500000920E-02 0.  1.
</event>
<event>
 5   0  0.1897049E-07  0.3497535E+04  0.7818609E-02  0.8114374E-01
       -1   -1    0    0    0  501  0.00000000000E+00  0.00000000000E+00  0.18308107609E+04  0.18308107609E+04  0.50400001928E-02 0. -1.
        1   -1    0    0  501    0  0.00000000000E+00  0.00000000000E+00 -0.16704007568E+04  0.16704007568E+04  0.50400001928E-02 0.  1.
    10030    2    1    2    0    0  0.00000000000E+00  0.00000000000E+00  0.16041000409E+03  0.35012115178E+04  0.34975349495E+04 0.  0.
        2    1    3    3  502    0  0.39356845568E+03 -0.10853611045E+04  0.13950859568E+04  0.18108477803E+04  0.25500000920E-02 0. -1.
       -2    1    3    3    0  502 -0.39356845568E+03  0.10853611045E+04 -0.12346759527E+04  0.16903637374E+04  0.25500000920E-02 0.  1.
</event>
<event>
 5   0  0.1908190E-07  0.3500784E+04  0.7818609E-02  0.8113604E-01
        1   -1    0    0  501    0  0.00000000000E+00  0.00000000000E+00  0.15575564420E+04  0.15575564420E+04  0.50400001928E-02 0.  1.
       -1   -1    0    0    0  501  0.00000000000E+00  0.00000000000E+00 -0.19671012987E+04  0.19671012987E+04  0.50400001928E-02 0. -1.
    10030    2    1    2    0    0  0.00000000000E+00  0.00000000000E+00 -0.40954485667E+03  0.35246577408E+04  0.35007835123E+04 0.  0.
        5    1    3    3  502    0 -0.46826027352E+03  0.13971921459E+04  0.74635815822E+03  0.16518129938E+04  0.46999998093E+01 0.  1.
       -5    1    3    3    0  502  0.46826027352E+03 -0.13971921459E+04 -0.11559030149E+04  0.18728447469E+04  0.46999998093E+01 0. -1.
</event>
<event>
 5   0  0.1908190E-07  0.3487281E+04  0.7818609E-02  0.8116811E-01
        1   -1    0    0  501    0  0.00000000000E+00  0.00000000000E+00  0.18893998937E+04  0.18893998937E+04  0.50400001928E-02 0.  1.
       -1   -1    0    0    0  501  0.00000000000E+00  0.00000000000E+00 -0.16091256468E+04  0.16091256468E+04  0.50400001928E-02 0. -1.
    10030    2    1    2    0    0  0.00000000000E+00  0.00000000000E+00  0.28027424693E+03  0.34985255405E+04  0.34872807894E+04 0.  0.
        5    1    3    3  502    0 -0.13581294641E+03  0.22243002950E+03  0.18697437284E+04  0.18878251969E+04  0.46999998093E+01 0.  1.
       -5    1    3    3    0  502  0.13581294641E+03 -0.22243002950E+03 -0.15894694814E+04  0.16107003436E+04  0.46999998093E+01 0. -1.
</event>
<event>
 5   0  0.1933647E-07  0.3498431E+04  0.7818609E-02  0.8114162E-01
       -1   -1    0    0    0  501  0.00000000000E+00  0.00000000000E+00  0.14199958057E+04  0.14199958057E+04  0.50400001928E-02 0.  1.
        1   -1    0    0  501    0  0.00000000000E+00  0.00000000000E+00 -0.21547633551E+04  0.21547633551E+04  0.50400001928E-02 0. -1.
    10030    2    1    2    0    0  0.00000000000E+00  0.00000000000E+00 -0.73476754940E+03  0.35747591607E+04  0.34984310349E+04 0.  0.
        4    1    3    3  502    0 -0.86349223798E+03 -0.44275663074E+03 -0.18545064884E+04  0.20930475884E+04  0.12699999809E+01 0. -1.
       -4    1    3    3    0  502  0.86349223798E+03  0.44275663074E+03  0.11197389390E+04  0.14817115723E+04  0.12699999809E+01 0.  1.
</event>
<event>
 5   0  0.5573334E-07  0.3423224E+04  0.7818609E-02  0.8132230E-01
        2   -1    0    0  501    0  0.00000000000E+00  0.00000000000E+00  0.19604964967E+04  0.19604964967E+04  0.25500000920E-02 0.  1.
       -2   -1    0    0    0  501  0.00000000000E+00  0.00000000000E+00 -0.14943233499E+04  0.14943233499E+04  0.25500000920E-02 0. -1.
    10030    2    1    2    0    0  0.00000000000E+00  0.00000000000E+00  0.46617314675E+03  0.34548198466E+04  0.34232240315E+04 0.  0.
        4    1    3    3  502    0  0.40826218279E+03 -0.95637780353E+03 -0.11389752471E+04  0.15422719408E+04  0.12699999809E+01 0. -1.
       -4    1    3    3    0  502 -0.40826218279E+03  0.95637780353E+03  0.16051483938E+04  0.19125479058E+04  0.12699999809E+01 0.  1.
</event>
<event>
 5   0  0.5707187E-07  0.3496909E+04  0.7818609E-02  0.8114523E-01
        2   -1    0    0  501    0  0.00000000000E+00  0.00000000000E+00  0.11762691703E+04  0.11762691703E+04  0.25500000920E-02 0. -1.
       -2   -1    0    0    0  501  0.00000000000E+00  0.00000000000E+00 -0.25989740385E+04  0.25989740385E+04  0.25500000920E-02 0.  1.
    10030    2    1    2    0    0  0.00000000000E+00  0.00000000000E+00 -0.14227048683E+04  0.37752432088E+04  0.34969089413E+04 0.  0.
        1    1    3    3  502    0  0.23321904550E+03  0.16198442705E+04 -0.13758131278E+04  0.21380244027E+04  0.50400001928E-02 0.  1.
       -1    1    3    3    0  502 -0.23321904550E+03 -0.16198442705E+04 -0.46891740448E+02  0.16372188061E+04  0.50400001928E-02 0. -1.
</event>
<event>
 5   0  0.5554745E-07  0.3524859E+04  0.7818609E-02  0.8107924E-01
        2   -1    0    0  501    0  0.00000000000E+00  0.00000000000E+00  0.16348275098E+04  0.16348275098E+04  0.25500000920E-02 0. -1.
       -2   -1    0    0    0  501  0.00000000000E+00  0.00000000000E+00 -0.18999915516E+04  0.18999915516E+04  0.25500000920E-02 0.  1.
    10030    2    1    2    0    0  0.00000000000E+00  0.00000000000E+00 -0.26516404188E+03  0.35348190614E+04  0.35248594054E+04 0.  0.
        5    1    3    3  502    0 -0.14950862011E+04  0.73646586799E+03  0.44216182638E+03  0.17242951877E+04  0.46999998093E+01 0.  1.
       -5    1    3    3    0  502  0.14950862011E+04 -0.73646586799E+03 -0.70732586825E+03  0.18105238737E+04  0.46999998093E+01 0. -1.
</event>
<event>
 5   0  0.5740827E-07  0.3286144E+04  0.7818609E-02  0.8166430E-01
        2   -1    0    0  501    0  0.00000000000E+00  0.00000000000E+00  0.11668895911E+04  0.11668895911E+04  0.25500000920E-02 0.  1.
       -2   -1    0    0    0  501  0.00000000000E+00  0.00000000000E+00 -0.23135748050E+04  0.23135748050E+04  0.25500000920E-02 0. -1.
    10030    2    1    2    0    0  0.00000000000E+00  0.00000000000E+00 -0.11466852139E+04  0.34804643962E+04  0.32861444632E+04 0.  0.
        2    1    3    3  502    0 -0.63047318021E+03  0.13284389839E+04  0.20311089584E+03  0.14844192807E+04  0.25500000920E-02 0.  1.
       -2    1    3    3    0  502  0.63047318021E+03 -0.13284389839E+04 -0.13497961097E+04  0.19960451154E+04  0.25500000920E-02 0. -1.
</event>
<event>
 5   0  0.1897049E-07  0.3510864E+04  0.7818609E-02  0.8111220E-01
        1   -1    0    0  501    0  0.00000000000E+00  0.00000000000E+00  0.19541199654E+04  0.19541199654E+04  0.50400001928E-02 0. -1.
       -1   -1    0    0    0  501  0.00000000000E+00  0.00000000000E+00 -0.15769455847E+04  0.15769455847E+04  0.50400001928E-02 0.  1.
    10030    2    1    2    0    0  0.00000000000E+00  0.00000000000E+00  0.37717438073E+03  0.35310655501E+04  0.35108636267E+04 0.  0.
        2    1    3    3  502    0  0.14753578238E+04 -0.92159542125E+03 -0.48399774697E+02  0.17402187698E+04  0.25500000920E-02 0.  1.
       -2    1    3    3    0  502 -0.14753578238E+04  0.92159542125E+03  0.42557415543E+03  0.17908467803E+04  0.25500000920E-02 0. -1.
</event>
<event>
 5   0  0.1866421E-07  0.3274595E+04  0.7818609E-02  0.8169390E-01
        1   -1    0    0  501    0  0.00000000000E+00  0.00000000000E+00  0.14196384911E+04  0.14196384911E+04  0.50400001928E-02 0.  1.
       -1   -1    0    0    0  501  0.00000000000E+00  0.00000000000E+00 -0.18883275371E+04  0.18883275371E+04  0.50400001928E-02 0. -1.
    10030    2    1    2    0    0  0.00000000000E+00  0.00000000000E+00 -0.46868904600E+03  0.33079660282E+04  0.32745946042E+04 0.  0.
        1    1    3    3  502    0 -0.94393390568E+02 -0.76252736466E+03  0.12262059604E+04  0.14470449722E+04  0.50400001928E-02 0.  1.
       -1    1    3    3    0  502  0.94393390568E+02  0.76252736466E+03 -0.16948950064E+04  0.18609210561E+04  0.50400001928E-02 0. -1.
</event>
<event>
 5   0  0.5554745E-07  0.3503303E+04  0.7818609E-02  0.8113008E-01
       -2   -1    0    0    0  501  0.00000000000E+00  0.00000000000E+00  0.18679869925E+04  0.18679869925E+04  0.25500000920E-02 0.  1.
        2   -1    0    0  501    0  0.00000000000E+00  0.00000000000E+00 -0.16425612817E+04  0.16425612818E+04  0.25500000920E-02 0. -1.
    10030    2    1    2    0    0  0.00000000000E+00  0.00000000000E+00  0.22542571077E+03  0.35105482743E+04  0.35033030749E+04 0.  0.
        5    1    3    3  502    0  0.15689562697E+04 -0.43156662949E+03 -0.53700100161E+03  0.17135535293E+04  0.46999998093E+01 0. -1.
       -5    1    3    3    0  502 -0.15689562697E+04  0.43156662949E+03  0.76242671238E+03  0.17969947450E+04  0.46999998093E+01 0.  1.
</event>
<event>
 5   0  0.5707187E-07  0.3501838E+04  0.7818609E-02  0.8113355E-01
       -2   -1    0    0    0  501  0.00000000000E+00  0.00000000000E+00  0.13837533921E+04  0.13837533921E+04  0.25500000920E-02 0.  1.
        2   -1    0    0  501    0  0.00000000000E+00  0.00000000000E+00 -0.22155080159E+04  0.22155080159E+04  0.25500000920E-02 0. -1.
    10030    2    1    2    0    0  0.00000000000E+00  0.00000000000E+00 -0.83175462382E+03  0.35992614079E+04  0.35018376502E+04 0.  0.
        1    1    3    3  502    0  0.66699178692E+03  0.96991981366E+03 -0.17481226339E+04  0.21074997585E+04  0.50400001928E-02 0. -1.
       -1    1    3    3    0  502 -0.66699178692E+03 -0.96991981366E+03  0.91636801011E+03  0.14917616494E+04  0.50400001928E-02 0.  1.
</event>
<event>
 5   0  0.1823000E-07  0.3587848E+04  0.7818609E-02  0.8093281E-01
       -3   -1    0    0    0  501  0.00000000000E+00  0.00000000000E+00  0.17067334823E+04  0.17067334852E+04  0.10100000352E+00 0. -1.
        3   -1    0    0  501    0  0.00000000000E+00  0.00000000000E+00 -0.18855689386E+04  0.18855689413E+04  0.10100000352E+00 0.  1.
    10030    2    1    2    0    0  0.00000000000E+00  0.00000000000E+00 -0.17883545631E+03  0.35923024265E+04  0.35878481856E+04 0.  0.
        2    1    3    3  502    0 -0.12744362916E+04  0.80107437833E+03 -0.10664650707E+04  0.18447915243E+04  0.25500000920E-02 0.  1.
       -2    1    3    3    0  502  0.12744362916E+04 -0.80107437833E+03  0.88762961442E+03  0.17475109022E+04  0.25500000920E-02 0. -1.
</event>
<event>
 5   0  0.1873457E-07  0.3506306E+04  0.7818609E-02  0.8112297E-01
       -1   -1    0    0    0  501  0.00000000000E+00  0.00000000000E+00  0.12637747220E+04  0.12637747220E+04  0.50400001928E-02 0. -1.
        1   -1    0    0  501    0  0.00000000000E+00  0.00000000000E+00 -0.24320353977E+04  0.24320353977E+04  0.50400001928E-02 0.  1.
    10030    2    1    2    0    0  0.00000000000E+00  0.00000000000E+00 -0.11682606757E+04  0.36958101196E+04  0.35063056675E+04 0.  0.
        3    1    3    3  502    0 -0.10239978513E+04  0.83554520894E+03  0.63000957906E+03  0.14641104725E+04  0.10100000352E+00 0. -1.
       -3    1    3    3    0  502  0.10239978513E+04 -0.83554520894E+03 -0.17982702547E+04  0.22316996471E+04  0.10100000352E+00 0.  1.
</event>
<event>
 5   0  0.5554745E-07  0.3456297E+04  0.7818609E-02  0.8124226E-01
       -2   -1    0    0    0  501  0.00000000000E+00  0.00000000000E+00  0.14969984533E+04  0.14969984533E+04  0.25500000920E-02 0.  1.
        2   -1    0    0  501    0  0.00000000000E+00  0.00000000000E+00 -0.19949905447E+04  0.19949905447E+04  0.25500000920E-02 0. -1.
    10030    2    1    2    0    0  0.00000000000E+00  0.00000000000E+00 -0.49799209148E+03  0.34919889980E+04  0.34562973019E+04 0.  0.
        5    1    3    3  502    0 -0.49407747081E+03 -0.99470417765E+03  0.10886575310E+04  0.15552318985E+04  0.46999998093E+01 0.  1.
       -5    1    3    3    0  502  0.49407747081E+03  0.99470417765E+03 -0.15866496225E+04  0.19367570996E+04  0.46999998093E+01 0. -1.
</event>
<event>
 5   0  0.1873457E-07  0.3500807E+04  0.7818609E-02  0.8113599E-01
       -1   -1    0    0    0  501  0.00000000000E+00  0.00000000000E+00  0.14407266989E+04  0.14407266990E+04  0.50400001928E-02 0.  1.
        1   -1    0    0  501    0  0.00000000000E+00  0.00000000000E+00 -0.21266441957E+04  0.21266441957E+04  0.50400001928E-02 0. -1.
    10030    2    1    2    0    0  0.00000000000E+00  0.00000000000E+00 -0.68591749674E+03  0.35673708946E+04  0.35008073765E+04 0.  0.
        3    1    3    3  502    0 -0.85535688188E+03  0.71877850242E+03 -0.17160339951E+04  0.20476939746E+04  0.10100000352E+00 0. -1.
       -3    1    3    3    0  502  0.85535688188E+03 -0.71877850242E+03  0.10301164984E+04  0.15196769201E+04  0.10100000352E+00 0.  1.
</event>
<event>
 5   0  0.5677193E-07  0.3527595E+04  0.7818609E-02  0.8107281E-01
       -2   -1    0    0    0  501  0.00000000000E+00  0.00000000000E+00  0.19717743909E+04  0.19717743909E+04  0.25500000920E-02 0. -1.
        2   -1    0    0  501    0  0.00000000000E+00  0.00000000000E+00 -0.15777574869E+04  0.15777574869E+04  0.25500000920E-02 0.  1.
    10030    2    1    2    0    0  0.00000000000E+00  0.00000000000E+00  0.39401690404E+03  0.35495318778E+04  0.35275951058E+04 0.  0.
        3    1    3    3  502    0 -0.13049338791E+04  0.27906809197E+03  0.13575455919E+04  0.19035917296E+04  0.10100000352E+00 0. -1.
       -3    1    3    3    0  502  0.13049338791E+04 -0.27906809197E+03 -0.96352868789E+03  0.16459401481E+04  0.10100000352E+00 0.  1.
</event>
<event>
 5   0  0.1897049E-07  0.3453032E+04  0.7818609E-02  0.8125012E-01
        1   -1    0    0  501    0  0.00000000000E+00  0.00000000000E+00  0.16234750556E+04  0.16234750557E+04  0.50400001928E-02 0. -1.
       -1   -1    0    0    0  501  0.00000000000E+00  0.00000000000E+00 -0.18360969572E+04  0.18360969572E+04  0.50400001928E-02 0.  1.
    10030    2    1    2    0    0  0.00000000000E+00  0.00000000000E+00 -0.21262190152E+03  0.34595720128E+04  0.34530320646E+04 0.  0.
        2    1    3    3  502    0  0.63293977656E+03  0.59071760548E+03 -0.16028929220E+04  0.18217644660E+04  0.25500000920E-02 0.  1.
       -2    1    3    3    0  502 -0.63293977656E+03 -0.59071760548E+03  0.13902710205E+04  0.16378075469E+04  0.25500000920E-02 0. -1.
</event>
<event>
 5   0  0.5707187E-07  0.3496544E+04  0.7818609E-02  0.8114609E-01
        2   -1    0    0  501    0  0.00000000000E+00  0.00000000000E+00  0.18585278292E+04  0.18585278292E+04  0.25500000920E-02 0.  1.
       -2   -1    0    0    0  501  0.00000000000E+00  0.00000000000E+00 -0.16445574487E+04  0.16445574487E+04  0.25500000920E-02 0. -1.
    10030    2    1    2    0    0  0.00000000000E+00  0.00000000000E+00  0.21397038047E+03  0.35030852779E+04  0.34965444571E+04 0.  0.
        1    1    3    3  502    0  0.16583622928E+04 -0.49213342163E+03  0.36062865939E+03  0.17670353219E+04  0.50400001928E-02 0.  1.
       -1    1    3    3    0  502 -0.16583622928E+04  0.49213342163E+03 -0.14665827891E+03  0.17360499560E+04  0.50400001928E-02 0. -1.
</event>
<event>
 5   0  0.1897049E-07  0.3515738E+04  0.7818609E-02  0.8110070E-01
       -1   -1    0    0    0  501  0.00000000000E+00  0.00000000000E+00  0.87768288777E+03  0.87768288778E+03  0.50400001928E-02 0. -1.
        1   -1    0    0  501    0  0.00000000000E+00  0.00000000000E+00 -0.35207522937E+04  0.35207522937E+04  0.50400001928E-02 0.  1.
    10030    2    1    2    0    0  0.00000000000E+00  0.00000000000E+00 -0.26430694059E+04  0.43984351814E+04  0.35157383522E+04 0.  0.
        2    1    3    3  502    0 -0.10448406433E+04  0.11483337549E+04 -0.29007184788E+03  0.15793999049E+04  0.25500000920E-02 0. -1.
       -2    1    3    3    0  502  0.10448406433E+04 -0.11483337549E+04 -0.23529975580E+04  0.28190352766E+04  0.25500000920E-02 0.  1.
</event>
<event>
 5   0  0.5573334E-07  0.3513896E+04  0.7818609E-02  0.8110505E-01
        2   -1    0    0  501    0  0.00000000000E+00  0.00000000000E+00  0.23067479790E+04  0.23067479790E+04  0.25500000920E-02 0.  1.
       -2   -1    0    0    0  501  0.00000000000E+00  0.00000000000E+00 -0.13381899096E+04  0.13381899096E+04  0.25500000920E-02 0. -1.
    10030    2    1    2    0    0  0.00000000000E+00  0.00000000000E+00  0.96855806933E+03  0.36449378886E+04  0.35138963385E+04 0.  0.
        4    1    3    3  502    0 -0.63552044942E+03  0.14708953939E+04 -0.26332439910E+03  0.16238105966E+04  0.12699999809E+01 0. -1.
       -4    1    3    3    0  502  0.63552044942E+03 -0.14708953939E+04  0.12318824684E+04  0.20211272920E+04  0.12699999809E+01 0.  1.
</event>
<event>
 5   0  0.1933647E-07  0.3502270E+04  0.7818609E-02  0.8113252E-01
       -1   -1    0    0    0  501  0.00000000000E+00  0.00000000000E+00  0.12614200743E+04  0.12614200743E+04  0.50400001928E-02 0. -1.
        1   -1    0    0  501    0  0.00000000000E+00  0.00000000000E+00 -0.24309697685E+04  0.24309697685E+04  0.50400001928E-02 0.  1.
    10030    2    1    2    0    0  0.00000000000E+00  0.00000000000E+00 -0.11695496942E+04  0.36923898428E+04  0.35022701587E+04 0.  0.
        4    1    3    3  502    0 -0.19142672280E+03 -0.12627354420E+04  0.67831254966E+03  0.14461170473E+04  0.12699999809E+01 0. -1.
       -4    1    3    3    0  502  0.19142672280E+03  0.12627354420E+04 -0.18478622439E+04  0.22462727955E+04  0.12699999809E+01 0.  1.
</event>
<event>
 5   0  0.1897049E-07  0.3197321E+04  0.7818609E-02  0.8189525E-01
        1   -1    0    0  501    0  0.00000000000E+00  0.00000000000E+00  0.13580571944E+04  0.13580571944E+04  0.50400001928E-02 0. -1.
       -1   -1    0    0    0  501  0.00000000000E+00  0.00000000000E+00 -0.18818905089E+04  0.18818905089E+04  0.50400001928E-02 0.  1.
    10030    2    1    2    0    0  0.00000000000E+00  0.00000000000E+00 -0.52383331450E+03  0.32399477033E+04  0.31973207187E+04 0.  0.
        2    1    3    3  502    0  0.51640263858E+03  0.31941766256E+03 -0.17604890940E+04  0.18622623817E+04  0.25500000920E-02 0.  1.
       -2    1    3    3    0  502 -0.51640263858E+03 -0.31941766256E+03  0.12366557795E+04  0.13776853215E+04  0.25500000920E-02 0. -1.
</event>
<event>
 5   0  0.1908190E-07  0.3520928E+04  0.7818609E-02  0.8108848E-01
       -1   -1    0    0    0  501  0.00000000000E+00  0.00000000000E+00  0.22057796170E+04  0.22057796171E+04  0.50400001928E-02 0.  1.
        1   -1    0    0  501    0  0.00000000000E+00  0.00000000000E+00 -0.14050512163E+04  0.14050512163E+04  0.50400001928E-02 0. -1.
    10030    2    1    2    0    0  0.00000000000E+00  0.00000000000E+00  0.80072840074E+03  0.36108308334E+04  0.35209279083E+04 0.  0.
        5    1    3    3  502    0 -0.16790090702E+04  0.55289653187E+02 -0.13946307603E+03  0.16857047319E+04  0.46999998093E+01 0. -1.
       -5    1    3    3    0  502  0.16790090702E+04 -0.55289653187E+02  0.94019147678E+03  0.19251261015E+04  0.46999998093E+01 0.  1.
</event>
<event>
 5   0  0.1897049E-07  0.3509176E+04  0.7818609E-02  0.8111619E-01
        1   -1    0    0  501    0  0.00000000000E+00  0.00000000000E+00  0.22764842989E+04  0.22764842989E+04  0.50400001928E-02 0.  1.
       -1   -1    0    0    0  501  0.00000000000E+00  0.00000000000E+00 -0.13523395748E+04  0.13523395748E+04  0.50400001928E-02 0. -1.
    10030    2    1    2    0    0  0.00000000000E+00  0.00000000000E+00  0.92414472406E+03  0.36288238737E+04  0.35091764326E+04 0.  0.
        2    1    3    3  502    0 -0.15078779592E+04  0.79630243211E+03  0.88942580587E+03  0.19232451137E+04  0.25500000920E-02 0. -1.
       -2    1    3    3    0  502  0.15078779592E+04 -0.79630243211E+03  0.34718918193E+02  0.17055787600E+04  0.25500000920E-02 0.  1.
</event>
<event>
 5   0  0.1873457E-07  0.3480501E+04  0.7818609E-02  0.8118427E-01
       -1   -1    0    0    0  501  0.00000000000E+00  0.00000000000E+00  0.13506943299E+04  0.13506943299E+04  0.50400001928E-02 0.  1.
        1   -1    0    0  501    0  0.00000000000E+00  0.00000000000E+00 -0.22421587707E+04  0.22421587707E+04  0.50400001928E-02 0. -1.
    10030    2    1    2    0    0  0.00000000000E+00  0.00000000000E+00 -0.89146444079E+03  0.35928531006E+04  0.34805006183E+04 0.  0.
        3    1    3    3  502    0 -0.54190509558E+03  0.86960537332E+03  0.10063003655E+04  0.14361459096E+04  0.10100000352E+00 0.  1.
       -3    1    3    3    0  502  0.54190509558E+03 -0.86960537332E+03 -0.18977648062E+04  0.21567071911E+04  0.10100000352E+00 0. -1.
</event>
<event>
 5   0  0.1908190E-07  0.3519807E+04  0.7818609E-02  0.8109112E-01
       -1   -1    0    0    0  501  0.00000000000E+00  0.00000000000E+00  0.12527236869E+04  0.12527236869E+04  0.50400001928E-02 0. -1.
        1   -1    0    0  501    0  0.00000000000E+00  0.00000000000E+00 -0.24724206807E+04  0.24724206807E+04  0.50400001928E-02 0.  1.
    10030    2    1    2    0    0  0.00000000000E+00  0.00000000000E+00 -0.12196969938E+04  0.37251443676E+04  0.35198067849E+04 0.  0.
        5    1    3    3  502    0 -0.67604214219E+03 -0.35469382778E+03 -0.22880388646E+04  0.24120498804E+04  0.46999998093E+01 0.  1.
       -5    1    3    3    0  502  0.67604214219E+03  0.35469382778E+03  0.10683418708E+04  0.13130944872E+04  0.46999998093E+01 0. -1.
</event>
<event>
 5   0  0.1908190E-07  0.3497919E+04  0.7818609E-02  0.8114283E-01
       -1   -1    0    0    0  501  0.00000000000E+00  0.00000000000E+00  0.17721814958E+04  0.17721814958E+04  0.50400001928E-02 0. -1.
        1   -1    0    0  501    0  0.00000000000E+00  0.00000000000E+00 -0.17260418087E+04  0.17260418087E+04  0.50400001928E-02 0.  1.
    10030    2    1    2    0    0  0.00000000000E+00  0.00000000000E+00  0.46139687047E+02  0.34982233045E+04  0.34979190124E+04 0.  0.
        5    1    3    3  502    0 -0.36775875763E+03  0.94460026236E+03  0.14484380552E+04  0.17679114936E+04  0.46999998093E+01 0. -1.
       -5    1    3    3    0  502  0.36775875763E+03 -0.94460026236E+03 -0.14022983682E+04  0.17303118109E+04  0.46999998093E+01 0.  1.
</event>
<event>
 5   0  0.1908190E-07  0.3487136E+04  0.7818609E-02  0.8116845E-01
        1   -1    0    0  501    0  0.00000000000E+00  0.00000000000E+00  0.24176883801E+04  0.24176883801E+04  0.50400001928E-02 0.  1.
       -1   -1    0    0    0  501  0.00000000000E+00  0.00000000000E+00 -0.12574117704E+04  0.12574117704E+04  0.50400001928E-02 0. -1.
    10030    2    1    2    0    0  0.00000000000E+00  0.00000000000E+00  0.11602766097E+04  0.36751001505E+04  0.34871362613E+04 0.  0.
        5    1    3    3  502    0 -0.54650797691E+03 -0.92604597449E+03  0.20266263433E+04  0.22942250415E+04  0.46999998093E+01 0.  1.
       -5    1    3    3    0  502  0.54650797691E+03  0.92604597449E+03 -0.86634973360E+03  0.13808751090E+04  0.46999998093E+01 0. -1.
</event>
<event>
 5   0  0.5573334E-07  0.3557156E+04  0.7818609E-02  0.8100377E-01
       -2   -1    0    0    0  501  0.00000000000E+00  0.00000000000E+00  0.19948271863E+04  0.19948271863E+04  0.25500000920E-02 0.  1.
        2   -1    0    0  501    0  0.00000000000E+00  0.00000000000E+00 -0.15857714693E+04  0.15857714693E+04  0.25500000920E-02 0. -1.
    10030    2    1    2    0    0  0.00000000000E+00  0.00000000000E+00  0.40905571707E+03  0.35805986556E+04  0.35571561890E+04 0.  0.
        4    1    3    3  502    0 -0.33153823514E+02  0.11652178390E+04 -0.11476441813E+04  0.16358241250E+04  0.12699999809E+01 0. -1.
       -4    1    3    3    0  502  0.33153823514E+02 -0.11652178390E+04  0.15566998983E+04  0.19447745306E+04  0.12699999809E+01 0.  1.
</event>
<event>
 5   0  0.1933647E-07  0.3471665E+04  0.7818609E-02  0.8120538E-01
        1   -1    0    0  501    0  0.00000000000E+00  0.00000000000E+00  0.26322843084E+04  0.26322843084E+04  0.50400001928E-02 0.  1.
       -1   -1    0    0    0  501  0.00000000000E+00  0.00000000000E+00 -0.11446768650E+04  0.11446768650E+04  0.50400001928E-02 0. -1.
    10030    2    1    2    0    0  0.00000000000E+00  0.00000000000E+00  0.14876074434E+04  0.37769611735E+04  0.34716652777E+04 0.  0.
        4    1    3    3  502    0 -0.73867569045E+03  0.98614418667E+03 -0.58641787153E+03  0.13645547499E+04  0.12699999809E+01 0. -1.
       -4    1    3    3    0  502  0.73867569045E+03 -0.98614418667E+03  0.20740253149E+04  0.24124064236E+04  0.12699999809E+01 0.  1.
</event>
<event>
 5   0  0.5677193E-07  0.3491887E+04  0.7818609E-02  0.8115715E-01
        2   -1    0    0  501    0  0.00000000000E+00  0.00000000000E+00  0.94516441432E+03  0.94516441433E+03  0.25500000920E-02 0.  1.
       -2   -1    0    0    0  501  0.00000000000E+00  0.00000000000E+00 -0.32251721545E+04  0.32251721545E+04  0.25500000920E-02 0. -1.
    10030    2    1    2    0    0  0.00000000000E+00  0.00000000000E+00 -0.22800077401E+04  0.41703365688E+04  0.34918865677E+04 0.  0.
        3    1    3    3  502    0 -0.54286403344E+03  0.54005076644E+03  0.73391864664E+03  0.10606567679E+04  0.10100000352E+00 0.  1.
       -3    1    3    3    0  502  0.54286403344E+03 -0.54005076644E+03 -0.30139263868E+04  0.31096798009E+04  0.10100000352E+00 0. -1.
</event>
<event>
 5   0  0.5707187E-07  0.3516840E+04  0.7818609E-02  0.8109811E-01
        2   -1    0    0  501    0  0.00000000000E+00  0.00000000000E+00  0.16503388684E+04  0.16503388684E+04  0.25500000920E-02 0. -1.
       -2   -1    0    0    0  501  0.00000000000E+00  0.00000000000E+00 -0.18735796017E+04  0.18735796017E+04  0.25500000920E-02 0.  1.
    10030    2    1    2    0    0  0.00000000000E+00  0.00000000000E+00 -0.22324073329E+03  0.35239184701E+04  0.35168401953E+04 0.  0.
        1    1    3    3  502    0 -0.50109201993E+03 -0.57946681012E+03  0.14743369432E+04  0.16614886153E+04  0.50400001928E-02 0. -1.
       -1    1    3    3    0  502  0.50109201993E+03  0.57946681012E+03 -0.16975776765E+04  0.18624298549E+04  0.50400001928E-02 0.  1.
</event>
<event>
 5   0  0.1933647E-07  0.3508028E+04  0.7818609E-02  0.8111890E-01
       -1   -1    0    0    0  501  0.00000000000E+00  0.00000000000E+00  0.16264144059E+04  0.16264144059E+04  0.50400001928E-02 0. -1.
        1   -1    0    0  501    0  0.00000000000E+00  0.00000000000E+00 -0.18916248751E+04  0.18916248751E+04  0.50400001928E-02 0.  1.
    10030    2    1    2    0    0  0.00000000000E+00  0.00000000000E+00 -0.26521046921E+03  0.35180392811E+04  0.35080284762E+04 0.  0.
        4    1    3    3  502    0  0.10385333420E+04 -0.14045216004E+04  0.27008959417E+02  0.17469869849E+04  0.12699999809E+01 0. -1.
       -4    1    3    3    0  502 -0.10385333420E+04  0.14045216004E+04 -0.29221942862E+03  0.17710522962E+04  0.12699999809E+01 0.  1.
</event>
<event>
 5   0  0.5707187E-07  0.3455687E+04  0.7818609E-02  0.8124373E-01
       -2   -1    0    0    0  501  0.00000000000E+00  0.00000000000E+00  0.16895082009E+04  0.16895082009E+04  0.25500000920E-02 0.  1.
        2   -1    0    0  501    0  0.00000000000E+00  0.00000000000E+00 -0.17670481865E+04  0.17670481865E+04  0.25500000920E-02 0. -1.
    10030    2    1    2    0    0  0.00000000000E+00  0.00000000000E+00 -0.77539985585E+02  0.34565563874E+04  0.34556865613E+04 0.  0.
        1    1    3    3  502    0 -0.10720605584E+04 -0.13471853282E+04  0.10693840478E+03  0.17250095570E+04  0.50400001928E-02 0.  1.
       -1    1    3    3    0  502  0.10720605584E+04  0.13471853282E+04 -0.18447839037E+03  0.17315468304E+04  0.50400001928E-02 0. -1.
</event>
<event>
 5   0  0.5707187E-07  0.3475939E+04  0.7818609E-02  0.8119516E-01
       -2   -1    0    0    0  501  0.00000000000E+00  0.00000000000E+00  0.15339316673E+04  0.15339316673E+04  0.25500000920E-02 0.  1.
        2   -1    0    0  501    0  0.00000000000E+00  0.00000000000E+00 -0.19691475241E+04  0.19691475241E+04  0.25500000920E-02 0. -1.
    10030    2    1    2    0    0  0.00000000000E+00  0.00000000000E+00 -0.43521585685E+03  0.35030791914E+04  0.34759388629E+04 0.  0.
        1    1    3    3  502    0 -0.14742783457E+04 -0.82693219788E+02 -0.11413908379E+04  0.18663086170E+04  0.50400001928E-02 0. -1.
       -1    1    3    3    0  502  0.14742783457E+04  0.82693219788E+02  0.70617498107E+03  0.16367705743E+04  0.50400001928E-02 0.  1.
</event>
<event>
 5   0  0.1897049E-07  0.3538996E+04  0.7818609E-02  0.8104610E-01
        1   -1    0    0  501    0  0.00000000000E+00  0.00000000000E+00  0.20192485947E+04  0.20192485947E+04  0.50400001928E-02 0. -1.
       -1   -1    0    0    0  501  0.00000000000E+00  0.00000000000E+00 -0.15506376705E+04  0.15506376705E+04  0.50400001928E-02 0.  1.
    10030    2    1    2    0    0  0.00000000000E+00  0.00000000000E+00  0.46861092423E+03  0.35698862652E+04  0.35389958672E+04 0.  0.
        2    1    3    3  502    0 -0.13788304640E+04  0.96736867324E+03 -0.31278203034E+03  0.17131281905E+04  0.25500000920E-02 0.  1.
       -2    1    3    3    0  502  0.13788304640E+04 -0.96736867324E+03  0.78139295457E+03  0.18567580747E+04  0.25500000920E-02 0. -1.
</event>
<event>
 5   0  0.5707187E-07  0.3503736E+04  0.7818609E-02  0.8112905E-01
       -2   -1    0    0    0  501  0.00000000000E+00  0.00000000000E+00  0.10067651822E+04  0.10067651822E+04  0.25500000920E-02 0.  1.
        2   -1    0    0  501    0  0.00000000000E+00  0.00000000000E+00 -0.30484175693E+04  0.30484175693E+04  0.25500000920E-02 0. -1.
    10030    2    1    2    0    0  0.00000000000E+00  0.00000000000E+00 -0.20416523870E+04  0.40551827515E+04  0.35037355321E+04 0.  0.
        1    1    3    3  502    0  0.15893671243E+04  0.52633647688E+02 -0.17017919487E+03  0.15993183282E+04  0.50400001928E-02 0.  1.
       -1    1    3    3    0  502 -0.15893671243E+04 -0.52633647688E+02 -0.18714731922E+04  0.24558644233E+04  0.50400001928E-02 0. -1.
</event>
<event>
 5   0  0.1866421E-07  0.3508251E+04  0.7818609E-02  0.8111837E-01
        1   -1    0    0  501    0  0.00000000000E+00  0.00000000000E+00  0.15027637466E+04  0.15027637466E+04  0.50400001928E-02 0.  1.
       -1   -1    0    0    0  501  0.00000000000E+00  0.00000000000E+00 -0.20475317799E+04  0.20475317799E+04  0.50400001928E-02 0. -1.
    10030    2    1    2    0    0  0.00000000000E+00  0.00000000000E+00 -0.54476803333E+03  0.35502955265E+04  0.35082511477E+04 0.  0.
        1    1    3    3  502    0  0.38672316785E+02 -0.17093512240E+04  0.12420462848E+03  0.17142940077E+04  0.50400001928E-02 0.  1.
       -1    1    3    3    0  502 -0.38672316785E+02  0.17093512240E+04 -0.66897266181E+03  0.18360015189E+04  0.50400001928E-02 0. -1.
</event>
<event>
 5   0  0.1897049E-07  0.3497673E+04  0.7818609E-02  0.8114342E-01
        1   -1    0    0  501    0  0.00000000000E+00  0.00000000000E+00  0.18293409321E+04  0.18293409321E+04  0.50400001928E-02 0. -1.
       -1   -1    0    0    0  501  0.00000000000E+00  0.00000000000E+00 -0.16718744618E+04  0.16718744619E+04  0.50400001928E-02 0.  1.
    10030    2    1    2    0    0  0.00000000000E+00  0.00000000000E+00  0.15746647022E+03  0.35012153939E+04  0.34976725898E+04 0.  0.
        2    1    3    3  502    0  0.11955466669E+04 -0.90567721464E+03  0.97900248955E+03  0.17910971287E+04  0.25500000920E-02 0.  1.
       -2    1    3    3    0  502 -0.11955466669E+04  0.90567721464E+03 -0.82153601932E+03  0.17101182652E+04  0.25500000920E-02 0. -1.
</event>
<event>
 5   0  0.1866421E-07  0.3478129E+04  0.7818609E-02  0.8118993E-01
        1   -1    0    0  501    0  0.00000000000E+00  0.00000000000E+00  0.16454430784E+04  0.16454430784E+04  0.50400001928E-02 0.  1.
       -1   -1    0    0    0  501  0.00000000000E+00  0.00000000000E+00 -0.18380130881E+04  0.18380130881E+04  0.50400001928E-02 0. -1.
    10030    2    1    2    0    0  0.00000000000E+00  0.00000000000E+00 -0.19257000967E+03  0.34834561665E+04  0.34781293328E+04 0.  0.
        1    1    3    3  502    0  0.14321581889E+04  0.74548417779E+03 -0.74343417239E+03  0.17775033351E+04  0.50400001928E-02 0.  1.
       -1    1    3    3    0  502 -0.14321581889E+04 -0.74548417779E+03  0.55086416272E+03  0.17059528315E+04  0.50400001928E-02 0. -1.
</event>
<event>
 5   0  0.5707187E-07  0.3140565E+04  0.7818609E-02  0.8204693E-01
       -2   -1    0    0    0  501  0.00000000000E+00  0.00000000000E+00  0.12068177727E+04  0.12068177727E+04  0.25500000920E-02 0.  1.
        2   -1    0    0  501    0  0.00000000000E+00  0.00000000000E+00 -0.20432134962E+04  0.20432134962E+04  0.25500000920E-02 0. -1.
    10030    2    1    2    0    0  0.00000000000E+00  0.00000000000E+00 -0.83639572351E+03  0.32500312689E+04  0.31405645101E+04 0.  0.
        1    1    3    3  502    0 -0.35191179897E+03  0.15197043762E+04 -0.23180009945E+03  0.15770461602E+04  0.50400001928E-02 0.  1.
       -1    1    3    3    0  502  0.35191179897E+03 -0.15197043762E+04 -0.60459562406E+03  0.16729851087E+04  0.50400001928E-02 0. -1.
</event>
<event>
 5   0  0.1866421E-07  0.3520579E+04  0.7818609E-02  0.8108930E-01
        1   -1    0    0  501    0  0.00000000000E+00  0.00000000000E+00  0.18655861612E+04  0.18655861612E+04  0.50400001928E-02 0.  1.
       -1   -1    0    0    0  501  0.00000000000E+00  0.00000000000E+00 -0.16609357215E+04  0.16609357215E+04  0.50400001928E-02 0. -1.
    10030    2    1    2    0    0  0.00000000000E+00  0.00000000000E+00  0.20465043970E+03  0.35265218827E+04  0.35205787573E+04 0.  0.
        1    1    3    3  502    0 -0.54423987802E+03 -0.12055659334E+04 -0.10611140384E+04  0.16957444581E+04  0.50400001928E-02 0. -1.
       -1    1    3    3    0  502  0.54423987802E+03  0.12055659334E+04  0.12657644781E+04  0.18307774246E+04  0.50400001928E-02 0.  1.
</event>
<event>
 5   0  0.1933647E-07  0.3473364E+04  0.7818609E-02  0.8120131E-01
        1   -1    0    0  501    0  0.00000000000E+00  0.00000000000E+00  0.15495943740E+04  0.15495943740E+04  0.50400001928E-02 0. -1.
       -1   -1    0    0    0  501  0.00000000000E+00  0.00000000000E+00 -0.19463574823E+04  0.19463574823E+04  0.50400001928E-02 0.  1.
    10030    2    1    2    0    0  0.00000000000E+00  0.00000000000E+00 -0.39676310827E+03  0.34959518563E+04  0.34733641354E+04 0.  0.
        4    1    3    3  502    0 -0.69971167398E+02  0.71713018598E+03  0.13920498688E+04  0.15674744393E+04  0.12699999809E+01 0. -1.
       -4    1    3    3    0  502  0.69971167398E+02 -0.71713018598E+03 -0.17888129770E+04  0.19284774169E+04  0.12699999809E+01 0.  1.
</event>
<event>
 5   0  0.5740827E-07  0.3514238E+04  0.7818609E-02  0.8110424E-01
       -2   -1    0    0    0  501  0.00000000000E+00  0.00000000000E+00  0.10340310108E+04  0.10340310108E+04  0.25500000920E-02 0. -1.
        2   -1    0    0  501    0  0.00000000000E+00  0.00000000000E+00 -0.29858554261E+04  0.29858554261E+04  0.25500000920E-02 0.  1.
    10030    2    1    2    0    0  0.00000000000E+00  0.00000000000E+00 -0.19518244153E+04  0.40198864369E+04  0.35142379568E+04 0.  0.
        2    1    3    3  502    0  0.15583312878E+04 -0.12333074450E+02 -0.19044476845E+04  0.24607863561E+04  0.25500000920E-02 0.  1.
       -2    1    3    3    0  502 -0.15583312878E+04  0.12333074450E+02 -0.47376730769E+02  0.15591000808E+04  0.25500000920E-02 0. -1.
</event>
<event>
 5   0  0.5740827E-07  0.3532149E+04  0.7818609E-02  0.8106213E-01
       -2   -1    0    0    0  501  0.00000000000E+00  0.00000000000E+00  0.15261093215E+04  0.15261093215E+04  0.25500000920E-02 0.  1.
        2   -1    0    0  501    0  0.00000000000E+00  0.00000000000E+00 -0.20437715705E+04  0.20437715705E+04  0.25500000920E-02 0. -1.
    10030    2    1    2    0    0  0.00000000000E+00  0.00000000000E+00 -0.51766224903E+03  0.35698808920E+04  0.35321488331E+04 0.  0.
        2    1    3    3  502    0  0.95240251864E+03 -0.13373921686E+04 -0.91642006125E+03  0.18802962795E+04  0.25500000920E-02 0. -1.
       -2    1    3    3    0  502 -0.95240251864E+03  0.13373921686E+04  0.39875781222E+03  0.16895846125E+04  0.25500000920E-02 0.  1.
</event>
<event>
 5   0  0.5554745E-07  0.3505642E+04  0.7818609E-02  0.8112454E-01
       -2   -1    0    0    0  501  0.00000000000E+00  0.00000000000E+00  0.17110829715E+04  0.17110829715E+04  0.25500000920E-02 0. -1.
        2   -1    0    0  501    0  0.00000000000E+00  0.00000000000E+00 -0.17955774142E+04  0.17955774142E+04  0.25500000920E-02 0.  1.
    10030    2    1    2    0    0  0.00000000000E+00  0.00000000000E+00 -0.84494442692E+02  0.35066603857E+04  0.35056422735E+04 0.  0.
        5    1    3    3  502    0 -0.11011620100E+04 -0.13417297740E+04  0.20187957109E+03  0.17474478561E+04  0.46999998093E+01 0. -1.
       -5    1    3    3    0  502  0.11011620100E+04  0.13417297740E+04 -0.28637401378E+03  0.17592125296E+04  0.46999998093E+01 0.  1.
</event>
<event>
 5   0  0.5707187E-07  0.3513907E+04  0.7818609E-02  0.8110502E-01
       -2   -1    0    0    0  501  0.00000000000E+00  0.00000000000E+00  0.17299276349E+04  0.17299276349E+04  0.25500000920E-02 0.  1.
        2   -1    0    0  501    0  0.00000000000E+00  0.00000000000E+00 -0.17844020345E+04  0.17844020345E+04  0.25500000920E-02 0. -1.
    10030    2    1    2    0    0  0.00000000000E+00  0.00000000000E+00 -0.54474399542E+02  0.35143296694E+04  0.35139074497E+04 0.  0.
        1    1    3    3  502    0  0.82887996978E+03 -0.13012742711E+03  0.15166163943E+04  0.17332340981E+04  0.50400001928E-02 0.  1.
       -1    1    3    3    0  502 -0.82887996978E+03  0.13012742711E+03 -0.15710907938E+04  0.17810955713E+04  0.50400001928E-02 0. -1.
</event>
<event>
 5   0  0.1873457E-07  0.3481346E+04  0.7818609E-02  0.8118225E-01
       -1   -1    0    0    0  501  0.00000000000E+00  0.00000000000E+00  0.17210230888E+04  0.17210230888E+04  0.50400001928E-02 0. -1.
        1   -1    0    0  501    0  0.00000000000E+00  0.00000000000E+00 -0.17605468483E+04  0.17605468483E+04  0.50400001928E-02 0.  1.
    10030    2    1    2    0    0  0.00000000000E+00  0.00000000000E+00 -0.39523759488E+02  0.34815699370E+04  0.34813455874E+04 0.  0.
        3    1    3    3  502    0  0.79593058829E+03  0.10855206005E+04 -0.11235002041E+04  0.17533149159E+04  0.10100000352E+00 0.  1.
       -3    1    3    3    0  502 -0.79593058829E+03 -0.10855206005E+04  0.10839764446E+04  0.17282550212E+04  0.10100000352E+00 0. -1.
</event>
<event>
 5   0  0.5573334E-07  0.3498846E+04  0.7818609E-02  0.8114063E-01
       -2   -1    0    0    0  501  0.00000000000E+00  0.00000000000E+00  0.18212756951E+04  0.18212756951E+04  0.25500000920E-02 0.  1.
        2   -1    0    0  501    0  0.00000000000E+00  0.00000000000E+00 -0.16804055066E+04  0.16804055066E+04  0.25500000920E-02 0. -1.
    10030    2    1    2    0    0  0.00000000000E+00  0.00000000000E+00  0.14087018845E+03  0.35016812017E+04  0.34988464997E+04 0.  0.
        4    1    3    3  502    0 -0.15753413114E+04 -0.66583715432E+03  0.43875599079E+03  0.17656578932E+04  0.12699999809E+01 0. -1.
       -4    1    3    3    0  502  0.15753413114E+04  0.66583715432E+03 -0.29788580234E+03  0.17360233085E+04  0.12699999809E+01 0.  1.
</event>
<event>
 5   0  0.5554745E-07  0.3494119E+04  0.7818609E-02  0.8115185E-01
        2   -1    0    0  501    0  0.00000000000E+00  0.00000000000E+00  0.23291105153E+04  0.23291105153E+04  0.25500000920E-02 0.  1.
       -2   -1    0    0    0  501  0.00000000000E+00  0.00000000000E+00 -0.13104643387E+04  0.13104643387E+04  0.25500000920E-02 0. -1.
    10030    2    1    2    0    0  0.00000000000E+00  0.00000000000E+00  0.10186461766E+04  0.36395748540E+04  0.34941186421E+04 0.  0.
        5    1    3    3  502    0  0.16024361800E+04  0.57167560990E+03  0.92281100462E+03  0.19355146484E+04  0.46999998093E+01 0.  1.
       -5    1    3    3    0  502 -0.16024361800E+04 -0.57167560990E+03  0.95835171984E+02  0.17040602056E+04  0.46999998093E+01 0. -1.
</event>
<event>
 5   0  0.5707187E-07  0.3502312E+04  0.7818609E-02  0.8113242E-01
        2   -1    0    0  501    0  0.00000000000E+00  0.00000000000E+00  0.22309649770E+04  0.22309649770E+04  0.25500000920E-02 0.  1.
       -2   -1    0    0    0  501  0.00000000000E+00  0.00000000000E+00 -0.13745382234E+04  0.13745382234E+04  0.25500000920E-02 0. -1.
    10030    2    1    2    0    0  0.00000000000E+00  0.00000000000E+00  0.85642675359E+03  0.36055032005E+04  0.35023116001E+04 0.  0.
        1    1    3    3  502    0  0.11802855997E+04 -0.12172194957E+04 -0.22697947658E+02  0.16956451853E+04  0.50400001928E-02 0. -1.
       -1    1    3    3    0  502 -0.11802855997E+04  0.12172194957E+04  0.87912470125E+03  0.19098580151E+04  0.50400001928E-02 0.  1.
</event>
<event>
 5   0  0.1866421E-07  0.3455703E+04  0.7818609E-02  0.8124369E-01
       -1   -1    0    0    0  501  0.00000000000E+00  0.00000000000E+00  0.15410806937E+04  0.15410806937E+04  0.50400001928E-02 0. -1.
        1   -1    0    0  501    0  0.00000000000E+00  0.00000000000E+00 -0.19372581746E+04  0.19372581746E+04  0.50400001928E-02 0.  1.
    10030    2    1    2    0    0  0.00000000000E+00  0.00000000000E+00 -0.39617748088E+03  0.34783388683E+04  0.34557032115E+04 0.  0.
        1    1    3    3  502    0 -0.21356063314E+03  0.15363398487E+04 -0.96433920868E+03  0.18264441914E+04  0.50400001928E-02 0. -1.
       -1    1    3    3    0  502  0.21356063314E+03 -0.15363398487E+04  0.56816172780E+03  0.16518946769E+04  0.50400001928E-02 0.  1.
</event>
<event>
 5   0  0.1897049E-07  0.3477486E+04  0.7818609E-02  0.8119146E-01
        1   -1    0    0  501    0  0.00000000000E+00  0.00000000000E+00  0.16168446492E+04  0.16168446493E+04  0.50400001928E-02 0.  1.
       -1   -1    0    0    0  501  0.00000000000E+00  0.00000000000E+00 -0.18698314947E+04  0.18698314947E+04  0.50400001928E-02 0. -1.
    10030    2    1    2    0    0  0.00000000000E+00  0.00000000000E+00 -0.25298684547E+03  0.34866761440E+04  0.34774859006E+04 0.  0.
        2    1    3    3  502    0  0.94250426783E+03 -0.14484811693E+04 -0.31887299605E+03  0.17572967821E+04  0.25500000920E-02 0. -1.
       -2    1    3    3    0  502 -0.94250426783E+03  0.14484811693E+04  0.65886150577E+02  0.17293793619E+04  0.25500000920E-02 0.  1.
</event>
<event>
 5   0  0.1897049E-07  0.3483674E+04  0.7818609E-02  0.8117670E-01
       -1   -1    0    0    0  501  0.00000000000E+00  0.00000000000E+00  0.13384570751E+04  0.13384570751E+04  0.50400001928E-02 0. -1.
        1   -1    0    0  501    0  0.00000000000E+00  0.00000000000E+00 -0.22667860068E+04  0.22667860068E+04  0.50400001928E-02 0.  1.
    10030    2    1    2    0    0  0.00000000000E+00  0.00000000000E+00 -0.92832893168E+03  0.36052430819E+04  0.34836737898E+04 0.  0.
        2    1    3    3  502    0  0.57473011364E+03  0.42758506432E+03  0.11789610971E+04  0.13795263532E+04  0.25500000920E-02 0. -1.
       -2    1    3    3    0  502 -0.57473011364E+03 -0.42758506432E+03 -0.21072900288E+04  0.22257167287E+04  0.25500000920E-02 0.  1.
</event>
<event>
 5   0  0.5740827E-07  0.3511826E+04  0.7818609E-02  0.8110993E-01
       -2   -1    0    0    0  501  0.00000000000E+00  0.00000000000E+00  0.24241691477E+04  0.24241691477E+04  0.25500000920E-02 0. -1.
        2   -1    0    0  501    0  0.00000000000E+00  0.00000000000E+00 -0.12718711098E+04  0.12718711098E+04  0.25500000920E-02 0.  1.
    10030    2    1    2    0    0  0.00000000000E+00  0.00000000000E+00  0.11522980378E+04  0.36960402575E+04  0.35118261371E+04 0.  0.
        2    1    3    3  502    0  0.59771297848E+03  0.10582478898E+04 -0.75764095765E+03  0.14321903580E+04  0.25500000920E-02 0.  1.
       -2    1    3    3    0  502 -0.59771297848E+03 -0.10582478898E+04  0.19099389955E+04  0.22638498995E+04  0.25500000920E-02 0. -1.
</event>
<event>
 5   0  0.5573334E-07  0.3545025E+04  0.7818609E-02  0.8103202E-01
        2   -1    0    0  501    0  0.00000000000E+00  0.00000000000E+00  0.10171411457E+04  0.10171411457E+04  0.25500000920E-02 0.  1.
       -2   -1    0    0    0  501  0.00000000000E+00  0.00000000000E+00 -0.30888534756E+04  0.30888534756E+04  0.25500000920E-02 0. -1.
    10030    2    1    2    0    0  0.00000000000E+00  0.00000000000E+00 -0.20717123298E+04  0.41059946213E+04  0.35450246618E+04 0.  0.
        4    1    3    3  502    0 -0.15764742053E+04  0.45072269385E+03 -0.25597467956E+03  0.16595018880E+04  0.12699999809E+01 0.  1.
       -4    1    3    3    0  502  0.15764742053E+04 -0.45072269385E+03 -0.18157376503E+04  0.24464927333E+04  0.12699999809E+01 0. -1.
</event>
<event>
 5   0  0.5554745E-07  0.3502164E+04  0.7818609E-02  0.8113277E-01
       -2   -1    0    0    0  501  0.00000000000E+00  0.00000000000E+00  0.13020453966E+04  0.13020453966E+04  0.25500000920E-02 0. -1.
        2   -1    0    0  501    0  0.00000000000E+00  0.00000000000E+00 -0.23549776756E+04  0.23549776756E+04  0.25500000920E-02 0.  1.
    10030    2    1    2    0    0  0.00000000000E+00  0.00000000000E+00 -0.10529322790E+04  0.36570230722E+04  0.35021638120E+04 0.  0.
        5    1    3    3  502    0 -0.69153059980E+03  0.16913371597E+03  0.11441017987E+04  0.13475206121E+04  0.46999998093E+01 0. -1.
       -5    1    3    3    0  502  0.69153059980E+03 -0.16913371597E+03 -0.21970340777E+04  0.23095024600E+04  0.46999998093E+01 0.  1.
</event>
<event>
 5   0  0.1866421E-07  0.3508979E+04  0.7818609E-02  0.8111665E-01
       -1   -1    0    0    0  501  0.00000000000E+00  0.00000000000E+00  0.13866731514E+04  0.13866731514E+04  0.50400001928E-02 0.  1.
        1   -1    0    0  501    0  0.00000000000E+00  0.00000000000E+00 -0.22198695224E+04  0.22198695224E+04  0.50400001928E-02 0. -1.
    10030    2    1    2    0    0  0.00000000000E+00  0.00000000000E+00 -0.83319637095E+03  0.36065426738E+04  0.35089790347E+04 0.  0.
        1    1    3    3  502    0  0.50274532388E+03 -0.14924460196E+04 -0.12114605475E+04  0.19869032790E+04  0.50400001928E-02 0.  1.
       -1    1    3    3    0  502 -0.50274532388E+03  0.14924460196E+04  0.37826417656E+03  0.16196393948E+04  0.50400001928E-02 0. -1.
</event>
<event>
 5   0  0.1933647E-07  0.3500857E+04  0.7818609E-02  0.8113587E-01
        1   -1    0    0  501    0  0.00000000000E+00  0.00000000000E+00  0.11723516157E+04  0.11723516157E+04  0.50400001928E-02 0.  1.
       -1   -1    0    0    0  501  0.00000000000E+00  0.00000000000E+00 -0.26135510432E+04  0.26135510432E+04  0.50400001928E-02 0. -1.
    10030    2    1    2    0    0  0.00000000000E+00  0.00000000000E+00 -0.14411994276E+04  0.37859026589E+04  0.35008574882E+04 0.  0.
        4    1    3    3  502    0 -0.11427339386E+03 -0.13698412652E+04  0.45137171593E+03  0.14468108167E+04  0.12699999809E+01 0.  1.
       -4    1    3    3    0  502  0.11427339386E+03  0.13698412652E+04 -0.18925711435E+04  0.23390918422E+04  0.12699999809E+01 0. -1.
</event>
<event>
 5   0  0.5740827E-07  0.3364110E+04  0.7818609E-02  0.8146772E-01
       -2   -1    0    0    0  501  0.00000000000E+00  0.00000000000E+00  0.17244676151E+04  0.17244676151E+04  0.25500000920E-02 0.  1.
        2   -1    0    0  501    0  0.00000000000E+00  0.00000000000E+00 -0.16406852785E+04  0.16406852785E+04  0.25500000920E-02 0. -1.
    10030    2    1    2    0    0  0.00000000000E+00  0.00000000000E+00  0.83782336661E+02  0.33651528936E+04  0.33641097660E+04 0.  0.
        2    1    3    3  502    0 -0.45083232502E+03 -0.11790889557E+04  0.11539049204E+04  0.17102622945E+04  0.25500000920E-02 0.  1.
       -2    1    3    3    0  502  0.45083232502E+03  0.11790889557E+04 -0.10701225837E+04  0.16548905991E+04  0.25500000920E-02 0. -1.
</event>
<event>
 5   0  0.5707187E-07  0.3486684E+04  0.7818609E-02  0.8116953E-01
        2   -1    0    0  501    0  0.00000000000E+00  0.00000000000E+00  0.13932067039E+04  0.13932067039E+04  0.25500000920E-02 0.  1.
       -2   -1    0    0    0  501  0.00000000000E+00  0.00000000000E+00 -0.21814719472E+04  0.21814719472E+04  0.25500000920E-02 0. -1.
    10030    2    1    2    0    0  0.00000000000E+00  0.00000000000E+00 -0.78826524323E+03  0.35746786511E+04  0.34866840070E+04 0.  0.
        1    1    3    3  502    0 -0.66829809929E+03 -0.18592227316E+03 -0.20338881081E+04  0.21489277041E+04  0.50400001928E-02 0. -1.
       -1    1    3    3    0  502  0.66829809929E+03  0.18592227316E+03  0.12456228649E+04  0.14257509469E+04  0.50400001928E-02 0.  1.
</event>
<event>
 5   0  0.5707187E-07  0.3491335E+04  0.7818609E-02  0.8115847E-01
        2   -1    0    0  501    0  0.00000000000E+00  0.00000000000E+00  0.23187115226E+04  0.23187115226E+04  0.25500000920E-02 0.  1.
       -2   -1    0    0    0  501  0.00000000000E+00  0.00000000000E+00 -0.13142447259E+04  0.13142447259E+04  0.25500000920E-02 0. -1.
    10030    2    1    2    0    0  0.00000000000E+00  0.00000000000E+00  0.10044667967E+04  0.36329562485E+04  0.34913346385E+04 0.  0.
        1    1    3    3  502    0  0.83355314000E+03  0.36068670301E+03  0.20534932715E+04  0.22453820056E+04  0.50400001928E-02 0.  1.
       -1    1    3    3    0  502 -0.83355314000E+03 -0.36068670301E+03 -0.10490264747E+04  0.13875742429E+04  0.50400001928E-02 0. -1.
</event>
<event>
 5   0  0.1897049E-07  0.3494813E+04  0.7818609E-02  0.8115020E-01
       -1   -1    0    0    0  501  0.00000000000E+00  0.00000000000E+00  0.13219295788E+04  0.13219295788E+04  0.50400001928E-02 0.  1.
        1   -1    0    0  501    0  0.00000000000E+00  0.00000000000E+00 -0.23098276949E+04  0.23098276949E+04  0.50400001928E-02 0. -1.
    10030    2    1    2    0    0  0.00000000000E+00  0.00000000000E+00 -0.98789811603E+03  0.36317572737E+04  0.34948130433E+04 0.  0.
        2    1    3    3  502    0 -0.17315166048E+04  0.23304511936E+03 -0.46158763663E+03  0.18070757944E+04  0.25500000920E-02 0.  1.
       -2    1    3    3    0  502  0.17315166048E+04 -0.23304511936E+03 -0.52631047940E+03  0.18246814793E+04  0.25500000920E-02 0. -1.
</event>
<event>
 5   0  0.5554745E-07  0.3504322E+04  0.7818609E-02  0.8112766E-01
       -2   -1    0    0    0  501  0.00000000000E+00  0.00000000000E+00  0.21974530523E+04  0.21974530523E+04  0.25500000920E-02 0.  1.
        2   -1    0    0  501    0  0.00000000000E+00  0.00000000000E+00 -0.13971028183E+04  0.13971028183E+04  0.25500000920E-02 0. -1.
    10030    2    1    2    0    0  0.00000000000E+00  0.00000000000E+00  0.80035023398E+03  0.35945558706E+04  0.35043218188E+04 0.  0.
        5    1    3    3  502    0  0.23611672920E+03  0.95611630785E+03  0.18866753859E+04  0.21282564708E+04  0.46999998093E+01 0.  1.
       -5    1    3    3    0  502 -0.23611672920E+03 -0.95611630785E+03 -0.10863251519E+04  0.14662993997E+04  0.46999998093E+01 0. -1.
</event>
<event>
 5   0  0.1933647E-07  0.3523166E+04  0.7818609E-02  0.8108322E-01
       -1   -1    0    0    0  501  0.00000000000E+00  0.00000000000E+00  0.11607601565E+04  0.11607601565E+04  0.50400001928E-02 0. -1.
        1   -1    0    0  501    0  0.00000000000E+00  0.00000000000E+00 -0.26733986922E+04  0.26733986922E+04  0.50400001928E-02 0.  1.
    10030    2    1    2    0    0  0.00000000000E+00  0.00000000000E+00 -0.15126385357E+04  0.38341588487E+04  0.35231660105E+04 0.  0.
        4    1    3    3  502    0  0.12629810726E+04 -0.90819073767E+03 -0.16558667701E+04  0.22719656642E+04  0.12699999809E+01 0.  1.
       -4    1    3    3    0  502 -0.12629810726E+04  0.90819073767E+03  0.14322823443E+03  0.15621931845E+04  0.12699999809E+01 0. -1.
</event>
<event>
 5   0  0.1866421E-07  0.3534896E+04  0.7818609E-02  0.8105570E-01
       -1   -1    0    0    0  501  0.00000000000E+00  0.00000000000E+00  0.11756132537E+04  0.11756132537E+04  0.50400001928E-02 0. -1.
        1   -1    0    0  501    0  0.00000000000E+00  0.00000000000E+00 -0.26572274811E+04  0.26572274811E+04  0.50400001928E-02 0.  1.
    10030    2    1    2    0    0  0.00000000000E+00  0.00000000000E+00 -0.14816142274E+04  0.38328407348E+04  0.35348956675E+04 0.  0.
        1    1    3    3  502    0  0.17406591483E+04 -0.24233040966E+03 -0.53722220408E+03  0.18377230462E+04  0.50400001928E-02 0. -1.
       -1    1    3    3    0  502 -0.17406591483E+04  0.24233040966E+03 -0.94439202328E+03  0.19951176887E+04  0.50400001928E-02 0.  1.
</event>
<event>
 5   0  0.1866421E-07  0.3504467E+04  0.7818609E-02  0.8112732E-01
        1   -1    0    0  501    0  0.00000000000E+00  0.00000000000E+00  0.20199197246E+04  0.20199197246E+04  0.50400001928E-02 0. -1.
       -1   -1    0    0    0  501  0.00000000000E+00  0.00000000000E+00 -0.15200220241E+04  0.15200220241E+04  0.50400001928E-02 0.  1.
    10030    2    1    2    0    0  0.00000000000E+00  0.00000000000E+00  0.49989770058E+03  0.35399417487E+04  0.35044671311E+04 0.  0.
        1    1    3    3  502    0  0.12913915412E+04 -0.11816490903E+04  0.16954547624E+03  0.17586166023E+04  0.50400001928E-02 0. -1.
       -1    1    3    3    0  502 -0.12913915412E+04  0.11816490903E+04  0.33035222433E+03  0.17813251464E+04  0.50400001928E-02 0.  1.
</event>
<event>
 5   0  0.1897049E-07  0.3493846E+04  0.7818609E-02  0.8115250E-01
        1   -1    0    0  501    0  0.00000000000E+00  0.00000000000E+00  0.20525544156E+04  0.20525544156E+04  0.50400001928E-02 0.  1.
       -1   -1    0    0    0  501  0.00000000000E+00  0.00000000000E+00 -0.14868013678E+04  0.14868013678E+04  0.50400001928E-02 0. -1.
    10030    2    1    2    0    0  0.00000000000E+00  0.00000000000E+00  0.56575304775E+03  0.35393557834E+04  0.34938464263E+04 0.  0.
        2    1    3    3  502    0  0.42255843295E+03  0.12794873769E+04 -0.84340435126E+03  0.15896460224E+04  0.25500000920E-02 0. -1.
       -2    1    3    3    0  502 -0.42255843295E+03 -0.12794873769E+04  0.14091573990E+04  0.19497097610E+04  0.25500000920E-02 0.  1.
</event>
<event>
 5   0  0.1873457E-07  0.3473086E+04  0.7818609E-02  0.8120198E-01
       -1   -1    0    0    0  501  0.00000000000E+00  0.00000000000E+00  0.10902295932E+04  0.10902295932E+04  0.50400001928E-02 0. -1.
        1   -1    0    0  501    0  0.00000000000E+00  0.00000000000E+00 -0.27660062791E+04  0.27660062791E+04  0.50400001928E-02 0.  1.
    10030    2    1    2    0    0  0.00000000000E+00  0.00000000000E+00 -0.16757766859E+04  0.38562358724E+04  0.34730861784E+04 0.  0.
        3    1    3    3  502    0  0.15327528975E+03 -0.15667704540E+03 -0.27505862638E+04  0.27593053140E+04  0.10100000352E+00 0.  1.
       -3    1    3    3    0  502 -0.15327528975E+03  0.15667704540E+03  0.10748095779E+04  0.10969305584E+04  0.10100000352E+00 0. -1.
</event>
<event>
 5   0  0.5677193E-07  0.3566286E+04  0.7818609E-02  0.8098258E-01
       -2   -1    0    0    0  501  0.00000000000E+00  0.00000000000E+00  0.21638113619E+04  0.21638113619E+04  0.25500000920E-02 0. -1.
        2   -1    0    0  501    0  0.00000000000E+00  0.00000000000E+00 -0.14694433762E+04  0.14694433762E+04  0.25500000920E-02 0.  1.
    10030    2    1    2    0    0  0.00000000000E+00  0.00000000000E+00  0.69436798576E+03  0.36332547381E+04  0.35662856156E+04 0.  0.
        3    1    3    3  502    0  0.17758508149E+04 -0.17585681321E+02  0.18404295930E+03  0.17854487375E+04  0.10100000352E+00 0.  1.
       -3    1    3    3    0  502 -0.17758508149E+04  0.17585681321E+02  0.51032502646E+03  0.18478060006E+04  0.10100000352E+00 0. -1.
</event>
<event>
 5   0  0.1873457E-07  0.3502304E+04  0.7818609E-02  0.8113244E-01
       -1   -1    0    0    0  501  0.00000000000E+00  0.00000000000E+00  0.10758357617E+04  0.10758357617E+04  0.50400001928E-02 0.  1.
        1   -1    0    0  501    0  0.00000000000E+00  0.00000000000E+00 -0.28503732369E+04  0.28503732369E+04  0.50400001928E-02 0. -1.
    10030    2    1    2    0    0  0.00000000000E+00  0.00000000000E+00 -0.17745374752E+04  0.39262089985E+04  0.35023040772E+04 0.  0.
        3    1    3    3  502    0 -0.53635587029E+02  0.19701044031E+03  0.10624457726E+04  0.10818876650E+04  0.10100000352E+00 0.  1.
       -3    1    3    3    0  502  0.53635587029E+02 -0.19701044031E+03 -0.28369832478E+04  0.28443213335E+04  0.10100000352E+00 0. -1.
</event>
<event>
 5   0  0.5573334E-07  0.3401986E+04  0.7818609E-02  0.8137419E-01
        2   -1    0    0  501    0  0.00000000000E+00  0.00000000000E+00  0.17376063024E+04  0.17376063024E+04  0.25500000920E-02 0. -1.
       -2   -1    0    0    0  501  0.00000000000E+00  0.00000000000E+00 -0.16651515911E+04  0.16651515911E+04  0.25500000920E-02 0.  1.
    10030    2    1    2    0    0  0.00000000000E+00  0.00000000000E+00  0.72454711250E+02  0.34027578935E+04  0.34019864192E+04 0.  0.
        4    1    3    3  502    0  0.33430722415E+02 -0.64703192051E+03 -0.15369002244E+04  0.16678824395E+04  0.12699999809E+01 0.  1.
       -4    1    3    3    0  502 -0.33430722415E+02  0.64703192051E+03  0.16093549356E+04  0.17348754540E+04  0.12699999809E+01 0. -1.
</event>
<event>
 5   0  0.5677193E-07  0.3506005E+04  0.7818609E-02  0.8112368E-01
       -2   -1    0    0    0  501  0.00000000000E+00  0.00000000000E+00  0.17809467400E+04  0.17809467400E+04  0.25500000920E-02 0. -1.
        2   -1    0    0  501    0  0.00000000000E+00  0.00000000000E+00 -0.17254969440E+04  0.17254969440E+04  0.25500000920E-02 0.  1.
    10030    2    1    2    0    0  0.00000000000E+00  0.00000000000E+00  0.55449796024E+02  0.35064436840E+04  0.35060052238E+04 0.  0.
        3    1    3    3  502    0 -0.43204858351E+03  0.56729962487E+03  0.16293380791E+04  0.17785492484E+04  0.10100000352E+00 0. -1.
       -3    1    3    3    0  502  0.43204858351E+03 -0.56729962487E+03 -0.15738882830E+04  0.17278944356E+04  0.10100000352E+00 0.  1.
</event>
<event>
 5   0  0.5740827E-07  0.3436036E+04  0.7818609E-02  0.8129118E-01
       -2   -1    0    0    0  501  0.00000000000E+00  0.00000000000E+00  0.19403116850E+04  0.19403116850E+04  0.25500000920E-02 0. -1.
        2   -1    0    0  501    0  0.00000000000E+00  0.00000000000E+00 -0.15211917526E+04  0.15211917526E+04  0.25500000920E-02 0.  1.
    10030    2    1    2    0    0  0.00000000000E+00  0.00000000000E+00  0.41911993235E+03  0.34615034376E+04  0.34360361655E+04 0.  0.
        2    1    3    3  502    0  0.96602938667E+03  0.78398211300E+03 -0.98401915848E+03  0.15862327804E+04  0.25500000920E-02 0.  1.
       -2    1    3    3    0  502 -0.96602938667E+03 -0.78398211300E+03  0.14031390908E+04  0.18752706572E+04  0.25500000920E-02 0. -1.
</event>
<event>
 5   0  0.1908190E-07  0.3530442E+04  0.7818609E-02  0.8106613E-01
        1   -1    0    0  501    0  0.00000000000E+00  0.00000000000E+00  0.21987402601E+04  0.21987402602E+04  0.50400001928E-02 0.  1.
       -1   -1    0    0    0  501  0.00000000000E+00  0.00000000000E+00 -0.14171777177E+04  0.14171777178E+04  0.50400001928E-02 0. -1.
    10030    2    1    2    0    0  0.00000000000E+00  0.00000000000E+00  0.78156254240E+03  0.36159179779E+04  0.35304422974E+04 0.  0.
        5    1    3    3  502    0  0.69394142029E+01  0.17056572806E+04 -0.74833561011E+02  0.17073186773E+04  0.46999998093E+01 0.  1.
       -5    1    3    3    0  502 -0.69394142029E+01 -0.17056572806E+04  0.85639610341E+03  0.19085993006E+04  0.46999998093E+01 0. -1.
</event>
<event>
 5   0  0.1866421E-07  0.3493668E+04  0.7818609E-02  0.8115292E-01
       -1   -1    0    0    0  501  0.00000000000E+00  0.00000000000E+00  0.13391319302E+04  0.13391319302E+04  0.50400001928E-02 0. -1.
        1   -1    0    0  501    0  0.00000000000E+00  0.00000000000E+00 -0.22786624753E+04  0.22786624753E+04  0.50400001928E-02 0.  1.
    10030    2    1    2    0    0  0.00000000000E+00  0.00000000000E+00 -0.93953054512E+03  0.36177944055E+04  0.34936683752E+04 0.  0.
        1    1    3    3  502    0 -0.14536422004E+04 -0.49580047711E+03  0.39198882253E+03  0.15851022039E+04  0.50400001928E-02 0. -1.
       -1    1    3    3    0  502  0.14536422004E+04  0.49580047711E+03 -0.13315193677E+04  0.20326922016E+04  0.50400001928E-02 0.  1.
</event>
<event>
 5   0  0.5573334E-07  0.3514836E+04  0.7818609E-02  0.8110283E-01
        2   -1    0    0  501    0  0.00000000000E+00  0.00000000000E+00  0.30430148580E+04  0.30430148580E+04  0.25500000920E-02 0. -1.
       -2   -1    0    0    0  501  0.00000000000E+00  0.00000000000E+00 -0.10149531319E+04  0.10149531319E+04  0.25500000920E-02 0.  1.
    10030    2    1    2    0    0  0.00000000000E+00  0.00000000000E+00  0.20280617261E+04  0.40579679899E+04  0.35148356778E+04 0.  0.
        4    1    3    3  502    0 -0.49676619032E+03 -0.16500898279E+04  0.14122045863E+04  0.22279803622E+04  0.12699999809E+01 0.  1.
       -4    1    3    3    0  502  0.49676619032E+03  0.16500898279E+04  0.61585713988E+03  0.18299876277E+04  0.12699999809E+01 0. -1.
</event>
<event>
 5   0  0.5573334E-07  0.3457382E+04  0.7818609E-02  0.8123965E-01
       -2   -1    0    0    0  501  0.00000000000E+00  0.00000000000E+00  0.20183571976E+04  0.20183571976E+04  0.25500000920E-02 0.  1.
        2   -1    0    0  501    0  0.00000000000E+00  0.00000000000E+00 -0.14805961244E+04  0.14805961244E+04  0.25500000920E-02 0. -1.
    10030    2    1    2    0    0  0.00000000000E+00  0.00000000000E+00  0.53776107318E+03  0.34989533219E+04  0.34573815782E+04 0.  0.
        4    1    3    3  502    0 -0.98257096043E+02  0.10830981977E+04  0.16287690333E+04  0.19584806202E+04  0.12699999809E+01 0.  1.
       -4    1    3    3    0  502  0.98257096043E+02 -0.10830981977E+04 -0.10910079601E+04  0.15404727017E+04  0.12699999809E+01 0. -1.
</event>
<event>
 5   0  0.5554745E-07  0.3497080E+04  0.7818609E-02  0.8114482E-01
       -2   -1    0    0    0  501  0.00000000000E+00  0.00000000000E+00  0.14263393129E+04  0.14263393129E+04  0.25500000920E-02 0.  1.
        2   -1    0    0  501    0  0.00000000000E+00  0.00000000000E+00 -0.21435231040E+04  0.21435231040E+04  0.25500000920E-02 0. -1.
    10030    2    1    2    0    0  0.00000000000E+00  0.00000000000E+00 -0.71718379106E+03  0.35698624169E+04  0.34970795080E+04 0.  0.
        5    1    3    3  502    0 -0.13169622650E+04 -0.10508441446E+04 -0.83598536935E+03  0.18808393476E+04  0.46999998093E+01 0.  1.
       -5    1    3    3    0  502  0.13169622650E+04  0.10508441446E+04  0.11880157829E+03  0.16890230693E+04  0.46999998093E+01 0. -1.
</event>
<event>
 5   0  0.5677193E-07  0.3500694E+04  0.7818609E-02  0.8113625E-01
       -2   -1    0    0    0  501  0.00000000000E+00  0.00000000000E+00  0.12586005389E+04  0.12586005389E+04  0.25500000920E-02 0. -1.
        2   -1    0    0  501    0  0.00000000000E+00  0.00000000000E+00 -0.24342232714E+04  0.24342232714E+04  0.25500000920E-02 0.  1.
    10030    2    1    2    0    0  0.00000000000E+00  0.00000000000E+00 -0.11756227325E+04  0.36928238103E+04  0.35006940576E+04 0.  0.
        3    1    3    3  502    0  0.10877781797E+04  0.74783381709E+03 -0.18003298603E+04  0.22324211973E+04  0.10100000352E+00 0.  1.
       -3    1    3    3    0  502 -0.10877781797E+04 -0.74783381709E+03  0.62470712777E+03  0.14604026130E+04  0.10100000352E+00 0. -1.
</event>
<event>
 5   0  0.5573334E-07  0.3539602E+04  0.7818609E-02  0.8104468E-01
        2   -1    0    0  501    0  0.00000000000E+00  0.00000000000E+00  0.22881683410E+04  0.22881683410E+04  0.25500000920E-02 0.  1.
       -2   -1    0    0    0  501  0.00000000000E+00  0.00000000000E+00 -0.13688658466E+04  0.13688658466E+04  0.25500000920E-02 0. -1.
    10030    2    1    2    0    0  0.00000000000E+00  0.00000000000E+00  0.91930249438E+03  0.36570341877E+04  0.35396019513E+04 0.  0.
        4    1    3    3  502    0 -0.11520050915E+04 -0.27326934992E+02 -0.92816748972E+03  0.14796482670E+04  0.12699999809E+01 0. -1.
       -4    1    3    3    0  502  0.11520050915E+04  0.27326934992E+02  0.18474699841E+04  0.21773859206E+04  0.12699999809E+01 0.  1.
</event>
<event>
 5   0  0.1908190E-07  0.3461862E+04  0.7818609E-02  0.8122888E-01
       -1   -1    0    0    0  501  0.00000000000E+00  0.00000000000E+00  0.15617220154E+04  0.15617220154E+04  0.50400001928E-02 0. -1.
        1   -1    0    0  501    0  0.00000000000E+00  0.00000000000E+00 -0.19184732718E+04  0.19184732718E+04  0.50400001928E-02 0.  1.
    10030    2    1    2    0    0  0.00000000000E+00  0.00000000000E+00 -0.35675125633E+03  0.34801952872E+04  0.34618618948E+04 0.  0.
        5    1    3    3  502    0 -0.70328226450E+03 -0.49125102066E+03 -0.16897222447E+04  0.18950242382E+04  0.46999998093E+01 0.  1.
       -5    1    3    3    0  502  0.70328226450E+03  0.49125102066E+03  0.13329709884E+04  0.15851710491E+04  0.46999998093E+01 0. -1.
</event>
<event>
 5   0  0.1897049E-07  0.3486716E+04  0.7818609E-02  0.8116945E-01
        1   -1    0    0  501    0  0.00000000000E+00  0.00000000000E+00  0.11994635985E+04  0.11994635985E+04  0.50400001928E-02 0. -1.
       -1   -1    0    0    0  501  0.00000000000E+00  0.00000000000E+00 -0.25338808143E+04  0.25338808143E+04  0.50400001928E-02 0.  1.
    10030    2    1    2    0    0  0.00000000000E+00  0.00000000000E+00 -0.13344172159E+04  0.37333444128E+04  0.34867163920E+04 0.  0.
        2    1    3    3  502    0  0.10820043315E+04 -0.90220529610E+03 -0.17667795741E+04  0.22596941902E+04  0.25500000920E-02 0.  1.
       -2    1    3    3    0  502 -0.10820043315E+04  0.90220529610E+03  0.43236235826E+03  0.14736502226E+04  0.25500000920E-02 0. -1.
</event>
<event>
 5   0  0.5573334E-07  0.3531596E+04  0.7818609E-02  0.8106343E-01
       -2   -1    0    0    0  501  0.00000000000E+00  0.00000000000E+00  0.99338688701E+03  0.99338688701E+03  0.25500000920E-02 0. -1.
        2   -1    0    0  501    0  0.00000000000E+00  0.00000000000E+00 -0.31388000085E+04  0.31388000085E+04  0.25500000920E-02 0.  1.
    10030    2    1    2    0    0  0.00000000000E+00  0.00000000000E+00 -0.21454131215E+04  0.41321868955E+04  0.35315961091E+04 0.  0.
        4    1    3    3  502    0 -0.27423432130E+03 -0.12065834197E+04  0.40128993764E+03  0.13008009988E+04  0.12699999809E+01 0. -1.
       -4    1    3    3    0  502  0.27423432130E+03  0.12065834197E+04 -0.25467030592E+04  0.28313858967E+04  0.12699999809E+01 0.  1.
</event>
<event>
 5   0  0.5677193E-07  0.3352354E+04  0.7818609E-02  0.8149700E-01
       -2   -1    0    0    0  501  0.00000000000E+00  0.00000000000E+00  0.16650357315E+04  0.16650357315E+04  0.25500000920E-02 0. -1.
        2   -1    0    0  501    0  0.00000000000E+00  0.00000000000E+00 -0.16873931582E+04  0.16873931582E+04  0.25500000920E-02 0.  1.
    10030    2    1    2    0    0  0.00000000000E+00  0.00000000000E+00 -0.22357426691E+02  0.33524288897E+04  0.33523543378E+04 0.  0.
        3    1    3    3  502    0  0.14998464802E+04  0.36581456991E+03  0.64168351137E+03  0.16718604914E+04  0.10100000352E+00 0. -1.
       -3    1    3    3    0  502 -0.14998464802E+04 -0.36581456991E+03 -0.66404093806E+03  0.16805683983E+04  0.10100000352E+00 0.  1.
</event>
<event>
 5   0  0.5740827E-07  0.3445305E+04  0.7818609E-02  0.8126876E-01
       -2   -1    0    0    0  501  0.00000000000E+00  0.00000000000E+00  0.17706155669E+04  0.17706155669E+04  0.25500000920E-02 0. -1.
        2   -1    0    0  501    0  0.00000000000E+00  0.00000000000E+00 -0.16759884185E+04  0.16759884185E+04  0.25500000920E-02 0.  1.
    10030    2    1    2    0    0  0.00000000000E+00  0.00000000000E+00  0.94627148454E+02  0.34466039854E+04  0.34453047376E+04 0.  0.
        2    1    3    3  502    0 -0.38677188764E+03 -0.15698156040E+04 -0.54756827434E+03  0.17069694018E+04  0.25500000920E-02 0.  1.
       -2    1    3    3    0  502  0.38677188764E+03  0.15698156040E+04  0.64219542280E+03  0.17396345836E+04  0.25500000920E-02 0. -1.
</event>
<event>
 5   0  0.5573334E-07  0.3528560E+04  0.7818609E-02  0.8107055E-01
       -2   -1    0    0    0  501  0.00000000000E+00  0.00000000000E+00  0.17289185766E+04  0.17289185766E+04  0.25500000920E-02 0.  1.
        2   -1    0    0  501    0  0.00000000000E+00  0.00000000000E+00 -0.18003651475E+04  0.18003651475E+04  0.25500000920E-02 0. -1.
    10030    2    1    2    0    0  0.00000000000E+00  0.00000000000E+00 -0.71446570834E+02  0.35292837241E+04  0.35285604704E+04 0.  0.
        4    1    3    3  502    0 -0.11086876773E+04 -0.70872147017E+03  0.11397659411E+04  0.17408453411E+04  0.12699999809E+01 0.  1.
       -4    1    3    3    0  502  0.11086876773E+04  0.70872147017E+03 -0.12112125119E+04  0.17884383831E+04  0.12699999809E+01 0. -1.
</event>
<event>
 5   0  0.1866421E-07  0.3507673E+04  0.7818609E-02  0.8111974E-01
       -1   -1    0    0    0  501  0.00000000000E+00  0.00000000000E+00  0.97779383387E+03  0.97779383388E+03  0.50400001928E-02 0.  1.
        1   -1    0    0  501    0  0.00000000000E+00  0.00000000000E+00 -0.31457989045E+04  0.31457989045E+04  0.50400001928E-02 0. -1.
    10030    2    1    2    0    0  0.00000000000E+00  0.00000000000E+00 -0.21680050707E+04  0.41235927384E+04  0.35076731726E+04 0.  0.
        1    1    3    3  502    0 -0.16934696951E+04 -0.30640644491E+03 -0.14813078760E+04  0.22706821753E+04  0.50400001928E-02 0. -1.
       -1    1    3    3    0  502  0.16934696951E+04  0.30640644491E+03 -0.68669719462E+03  0.18529105631E+04  0.50400001928E-02 0.  1.
</event>
<event>
 5   0  0.5740827E-07  0.3537225E+04  0.7818609E-02  0.8105024E-01
        2   -1    0    0  501    0  0.00000000000E+00  0.00000000000E+00  0.20053942133E+04  0.20053942133E+04  0.25500000920E-02 0.  1.
       -2   -1    0    0    0  501  0.00000000000E+00  0.00000000000E+00 -0.15597884537E+04  0.15597884537E+04  0.25500000920E-02 0. -1.
    10030    2    1    2    0    0  0.00000000000E+00  0.00000000000E+00  0.44560575956E+03  0.35651826670E+04  0.35372253189E+04 0.  0.
        2    1    3    3  502    0 -0.19688303836E+03 -0.43040872509E+03  0.19403773776E+04  0.19972678761E+04  0.25500000920E-02 0.  1.
       -2    1    3    3    0  502  0.19688303836E+03  0.43040872509E+03 -0.14947716181E+04  0.15679147909E+04  0.25500000920E-02 0. -1.
</event>
<event>
 5   0  0.1908190E-07  0.3499827E+04  0.7818609E-02  0.8113831E-01
       -1   -1    0    0    0  501  0.00000000000E+00  0.00000000000E+00  0.22200899446E+04  0.22200899446E+04  0.50400001928E-02 0. -1.
        1   -1    0    0  501    0  0.00000000000E+00  0.00000000000E+00 -0.13793119942E+04  0.13793119942E+04  0.50400001928E-02 0.  1.
    10030    2    1    2    0    0  0.00000000000E+00  0.00000000000E+00  0.84077795040E+03  0.35994019388E+04  0.34998266751E+04 0.  0.
        5    1    3    3  502    0  0.13846825787E+04 -0.79022728972E+03  0.11622793933E+04  0.19729978437E+04  0.46999998093E+01 0. -1.
       -5    1    3    3    0  502 -0.13846825787E+04  0.79022728972E+03 -0.32150144286E+03  0.16264040952E+04  0.46999998093E+01 0.  1.
</event>
<event>
 5   0  0.1873457E-07  0.3505675E+04  0.7818609E-02  0.8112446E-01
       -1   -1    0    0    0  501  0.00000000000E+00  0.00000000000E+00  0.14458236172E+04  0.14458236172E+04  0.50400001928E-02 0.  1.
        1   -1    0    0  501    0  0.00000000000E+00  0.00000000000E+00 -0.21250445208E+04  0.21250445208E+04  0.50400001928E-02 0. -1.
    10030    2    1    2    0    0  0.00000000000E+00  0.00000000000E+00 -0.67922090353E+03  0.35708681380E+04  0.35056751451E+04 0.  0.
        3    1    3    3  502    0 -0.11849904267E+04 -0.73868080269E+03 -0.14188362622E+04  0.19907154464E+04  0.10100000352E+00 0. -1.
       -3    1    3    3    0  502  0.11849904267E+04  0.73868080269E+03  0.73961535863E+03  0.15801526916E+04  0.10100000352E+00 0.  1.
</event>
<event>
 5   0  0.5554745E-07  0.3485720E+04  0.7818609E-02  0.8117182E-01
        2   -1    0    0  501    0  0.00000000000E+00  0.00000000000E+00  0.17637544417E+04  0.17637544417E+04  0.25500000920E-02 0. -1.
       -2   -1    0    0    0  501  0.00000000000E+00  0.00000000000E+00 -0.17222135185E+04  0.17222135185E+04  0.25500000920E-02 0.  1.
    10030    2    1    2    0    0  0.00000000000E+00  0.00000000000E+00  0.41540923169E+02  0.34859679602E+04  0.34857204379E+04 0.  0.
        5    1    3    3  502    0  0.14855804187E+04 -0.81559270479E+03  0.42749211475E+03  0.17478307237E+04  0.46999998093E+01 0. -1.
       -5    1    3    3    0  502 -0.14855804187E+04  0.81559270479E+03 -0.38595119158E+03  0.17381372365E+04  0.46999998093E+01 0.  1.
</event>
<event>
 5   0  0.1908190E-07  0.3476073E+04  0.7818609E-02  0.8119484E-01
        1   -1    0    0  501    0  0.00000000000E+00  0.00000000000E+00  0.19166766628E+04  0.19166766628E+04  0.50400001928E-02 0. -1.
       -1   -1    0    0    0  501  0.00000000000E+00  0.00000000000E+00 -0.15760457429E+04  0.15760457429E+04  0.50400001928E-02 0.  1.
    10030    2    1    2    0    0  0.00000000000E+00  0.00000000000E+00  0.34063091994E+03  0.34927224057E+04  0.34760725510E+04 0.  0.
        5    1    3    3  502    0  0.48358662431E+03 -0.13129962560E+04 -0.86560913687E+03  0.16453317171E+04  0.46999998093E+01 0.  1.
       -5    1    3    3    0  502 -0.48358662431E+03  0.13129962560E+04  0.12062400568E+04  0.18473906886E+04  0.46999998093E+01 0. -1.
</event>
<event>
 5   0  0.5677193E-07  0.3534504E+04  0.7818609E-02  0.8105661E-01
        2   -1    0    0  501    0  0.00000000000E+00  0.00000000000E+00  0.25441988973E+04  0.25441988974E+04  0.25500000920E-02 0. -1.
       -2   -1    0    0    0  501  0.00000000000E+00  0.00000000000E+00 -0.12275690281E+04  0.12275690281E+04  0.25500000920E-02 0.  1.
    10030    2    1    2    0    0  0.00000000000E+00  0.00000000000E+00  0.13166298693E+04  0.37717679254E+04  0.35345040771E+04 0.  0.
        3    1    3    3  502    0  0.16889963363E+04 -0.70006699565E+02  0.10838654203E+03  0.16939177119E+04  0.10100000352E+00 0.  1.
       -3    1    3    3    0  502 -0.16889963363E+04  0.70006699565E+02  0.12082433272E+04  0.20778502136E+04  0.10100000352E+00 0. -1.
</event>
<event>
 5   0  0.1866421E-07  0.3542664E+04  0.7818609E-02  0.8103753E-01
       -1   -1    0    0    0  501  0.00000000000E+00  0.00000000000E+00  0.13322236692E+04  0.13322236692E+04  0.50400001928E-02 0. -1.
        1   -1    0    0  501    0  0.00000000000E+00  0.00000000000E+00 -0.23551733424E+04  0.23551733424E+04  0.50400001928E-02 0.  1.
    10030    2    1    2    0    0  0.00000000000E+00  0.00000000000E+00 -0.10229496732E+04  0.36873970116E+04  0.35426643487E+04 0.  0.
        1    1    3    3  502    0  0.57508654345E+02  0.10176869631E+03  0.13282046977E+04  0.13333386036E+04  0.50400001928E-02 0. -1.
       -1    1    3    3    0  502 -0.57508654345E+02 -0.10176869631E+03 -0.23511543709E+04  0.23540584080E+04  0.50400001928E-02 0.  1.
</event>
<event>
 5   0  0.1908190E-07  0.3480773E+04  0.7818609E-02  0.8118362E-01
       -1   -1    0    0    0  501  0.00000000000E+00  0.00000000000E+00  0.18556650530E+04  0.18556650530E+04  0.50400001928E-02 0.  1.
        1   -1    0    0  501    0  0.00000000000E+00  0.00000000000E+00 -0.16322692780E+04  0.16322692780E+04  0.50400001928E-02 0. -1.
    10030    2    1    2    0    0  0.00000000000E+00  0.00000000000E+00  0.22339577500E+03  0.34879343310E+04  0.34807729350E+04 0.  0.
        5    1    3    3  502    0 -0.40157727069E+03  0.17708234242E+03  0.17992948207E+04  0.18520546434E+04  0.46999998093E+01 0.  1.
       -5    1    3    3    0  502  0.40157727069E+03 -0.17708234242E+03 -0.15758990457E+04  0.16358796877E+04  0.46999998093E+01 0. -1.
</event>
<event>
 5   0  0.5677193E-07  0.3495824E+04  0.7818609E-02  0.8114780E-01
       -2   -1    0    0    0  501  0.00000000000E+00  0.00000000000E+00  0.11070986328E+04  0.11070986328E+04  0.25500000920E-02 0.  1.
        2   -1    0    0  501    0  0.00000000000E+00  0.00000000000E+00 -0.27596420160E+04  0.27596420160E+04  0.25500000920E-02 0. -1.
    10030    2    1    2    0    0  0.00000000000E+00  0.00000000000E+00 -0.16525433833E+04  0.38667406488E+04  0.34958237387E+04 0.  0.
        3    1    3    3  502    0 -0.72028947302E+03 -0.15877087006E+04 -0.68829649843E+03  0.18744033511E+04  0.10100000352E+00 0.  1.
       -3    1    3    3    0  502  0.72028947302E+03  0.15877087006E+04 -0.96424688483E+03  0.19923372977E+04  0.10100000352E+00 0. -1.
</event>
<event>
 5   0  0.5554745E-07  0.3384245E+04  0.7818609E-02  0.8141784E-01
        2   -1    0    0  501    0  0.00000000000E+00  0.00000000000E+00  0.22370572311E+04  0.22370572311E+04  0.25500000920E-02 0. -1.
       -2   -1    0    0    0  501  0.00000000000E+00  0.00000000000E+00 -0.12799311291E+04  0.12799311291E+04  0.25500000920E-02 0.  1.
    10030    2    1    2    0    0  0.00000000000E+00  0.00000000000E+00  0.95712610199E+03  0.35169883602E+04  0.33842453739E+04 0.  0.
        5    1    3    3  502    0  0.11440736716E+04  0.18291109809E+03  0.17601818076E+04  0.21072786056E+04  0.46999998093E+01 0. -1.
       -5    1    3    3    0  502 -0.11440736716E+04 -0.18291109809E+03 -0.80305570565E+03  0.14097097546E+04  0.46999998093E+01 0.  1.
</event>
<event>
 5   0  0.5554745E-07  0.3455451E+04  0.7818609E-02  0.8124429E-01
        2   -1    0    0  501    0  0.00000000000E+00  0.00000000000E+00  0.26222029636E+04  0.26222029636E+04  0.25500000920E-02 0.  1.
       -2   -1    0    0    0  501  0.00000000000E+00  0.00000000000E+00 -0.11383693172E+04  0.11383693172E+04  0.25500000920E-02 0. -1.
    10030    2    1    2    0    0  0.00000000000E+00  0.00000000000E+00  0.14838336463E+04  0.37605722808E+04  0.34554509965E+04 0.  0.
        5    1    3    3  502    0  0.31118082693E+03  0.61670747761E+03 -0.98153888455E+03  0.12002509287E+04  0.46999998093E+01 0. -1.
       -5    1    3    3    0  502 -0.31118082693E+03 -0.61670747761E+03  0.24653725309E+04  0.25603213521E+04  0.46999998093E+01 0.  1.
</event>
<event>
 5   0  0.1933647E-07  0.3160000E+04  0.7818609E-02  0.8199462E-01
        1   -1    0    0  501    0  0.00000000000E+00  0.00000000000E+00  0.20260788429E+04  0.20260788429E+04  0.50400001928E-02 0. -1.
       -1   -1    0    0    0  501  0.00000000000E+00  0.00000000000E+00 -0.12321334268E+04  0.12321334269E+04  0.50400001928E-02 0.  1.
    10030    2    1    2    0    0  0.00000000000E+00  0.00000000000E+00  0.79394541601E+03  0.32582122697E+04  0.31599996631E+04 0.  0.
        4    1    3    3  502    0 -0.11523162577E+04  0.53874274958E+03  0.13632884565E+04  0.18645732854E+04  0.12699999809E+01 0. -1.
       -4    1    3    3    0  502  0.11523162577E+04 -0.53874274958E+03 -0.56934304046E+03  0.13936389843E+04  0.12699999809E+01 0.  1.
</event>
<event>
 5   0  0.1823000E-07  0.3401080E+04  0.7818609E-02  0.8137641E-01
       -3   -1    0    0    0  501  0.00000000000E+00  0.00000000000E+00  0.14489310774E+04  0.14489310809E+04  0.10100000352E+00 0.  1.
        3   -1    0    0  501    0  0.00000000000E+00  0.00000000000E+00 -0.19958414175E+04  0.19958414200E+04  0.10100000352E+00 0. -1.
    10030    2    1    2    0    0  0.00000000000E+00  0.00000000000E+00 -0.54691034009E+03  0.34447725009E+04  0.34010802200E+04 0.  0.
        3    1    3    3  502    0 -0.11947707249E+04  0.91452406864E+03  0.52919319218E+03  0.15949535423E+04  0.10100000352E+00 0.  1.
       -3    1    3    3    0  502  0.11947707249E+04 -0.91452406864E+03 -0.10761035323E+04  0.18498189586E+04  0.10100000352E+00 0. -1.
</event>
<event>
 5   0  0.1933647E-07  0.3490472E+04  0.7818609E-02  0.8116052E-01
       -1   -1    0    0    0  501  0.00000000000E+00  0.00000000000E+00  0.17015895672E+04  0.17015895672E+04  0.50400001928E-02 0.  1.
        1   -1    0    0  501    0  0.00000000000E+00  0.00000000000E+00 -0.17900015629E+04  0.17900015629E+04  0.50400001928E-02 0. -1.
    10030    2    1    2    0    0  0.00000000000E+00  0.00000000000E+00 -0.88411995632E+02  0.34915911301E+04  0.34904715926E+04 0.  0.
        4    1    3    3  502    0 -0.12064793496E+04  0.29665942967E+03 -0.12702610344E+04  0.17768410021E+04  0.12699999809E+01 0. -1.
       -4    1    3    3    0  502  0.12064793496E+04 -0.29665942967E+03  0.11818490387E+04  0.17147501280E+04  0.12699999809E+01 0.  1.
</event>
<event>
 5   0  0.1873457E-07  0.3537225E+04  0.7818609E-02  0.8105024E-01
       -1   -1    0    0    0  501  0.00000000000E+00  0.00000000000E+00  0.12721554772E+04  0.12721554772E+04  0.50400001928E-02 0. -1.
        1   -1    0    0  501    0  0.00000000000E+00  0.00000000000E+00 -0.24588107116E+04  0.24588107116E+04  0.50400001928E-02 0.  1.
    10030    2    1    2    0    0  0.00000000000E+00  0.00000000000E+00 -0.11866552344E+04  0.37309661888E+04  0.35372246263E+04 0.  0.
        3    1    3    3  502    0 -0.65124405611E+03 -0.16406897213E+04 -0.47774497992E+03  0.18287213725E+04  0.10100000352E+00 0. -1.
       -3    1    3    3    0  502  0.65124405611E+03  0.16406897213E+04 -0.70891025451E+03  0.19022448163E+04  0.10100000352E+00 0.  1.
</event>
<event>
 5   0  0.1866421E-07  0.3492197E+04  0.7818609E-02  0.8115642E-01
       -1   -1    0    0    0  501  0.00000000000E+00  0.00000000000E+00  0.13091020275E+04  0.13091020275E+04  0.50400001928E-02 0.  1.
        1   -1    0    0  501    0  0.00000000000E+00  0.00000000000E+00 -0.23289704050E+04  0.23289704050E+04  0.50400001928E-02 0. -1.
    10030    2    1    2    0    0  0.00000000000E+00  0.00000000000E+00 -0.10198683775E+04  0.36380724324E+04  0.34921969470E+04 0.  0.
        1    1    3    3  502    0 -0.13995470595E+04 -0.53358334562E+03 -0.14448724513E+04  0.20811293951E+04  0.50400001928E-02 0. -1.
       -1    1    3    3    0  502  0.13995470595E+04  0.53358334562E+03  0.42500407387E+03  0.15569430373E+04  0.50400001928E-02 0.  1.
</event>
<event>
 5   0  0.5677193E-07  0.3493540E+04  0.7818609E-02  0.8115323E-01
        2   -1    0    0  501    0  0.00000000000E+00  0.00000000000E+00  0.20957785919E+04  0.20957785919E+04  0.25500000920E-02 0.  1.
       -2   -1    0    0    0  501  0.00000000000E+00  0.00000000000E+00 -0.14558817816E+04  0.14558817816E+04  0.25500000920E-02 0. -1.
    10030    2    1    2    0    0  0.00000000000E+00  0.00000000000E+00  0.63989681031E+03  0.35516603735E+04  0.34935402503E+04 0.  0.
        3    1    3    3  502    0  0.71179019220E+03 -0.25151777910E+02  0.19414526268E+04  0.20679739365E+04  0.10100000352E+00 0.  1.
       -3    1    3    3    0  502 -0.71179019220E+03  0.25151777910E+02 -0.13015558165E+04  0.14836864370E+04  0.10100000352E+00 0. -1.
</event>
<event>
 5   0  0.5554745E-07  0.3505521E+04  0.7818609E-02  0.8112483E-01
       -2   -1    0    0    0  501  0.00000000000E+00  0.00000000000E+00  0.11959188210E+04  0.11959188210E+04  0.25500000920E-02 0. -1.
        2   -1    0    0  501    0  0.00000000000E+00  0.00000000000E+00 -0.25688775974E+04  0.25688775974E+04  0.25500000920E-02 0.  1.
    10030    2    1    2    0    0  0.00000000000E+00  0.00000000000E+00 -0.13729587764E+04  0.37647964184E+04  0.35055208273E+04 0.  0.
        5    1    3    3  502    0  0.34885787094E+03 -0.11984581414E+03 -0.25267133690E+04  0.25535010030E+04  0.46999998093E+01 0.  1.
       -5    1    3    3    0  502 -0.34885787094E+03  0.11984581414E+03  0.11537545927E+04  0.12112954154E+04  0.46999998093E+01 0. -1.
</event>
<event>
 5   0  0.5554745E-07  0.3486062E+04  0.7818609E-02  0.8117101E-01
       -2   -1    0    0    0  501  0.00000000000E+00  0.00000000000E+00  0.15084323368E+04  0.15084323368E+04  0.25500000920E-02 0. -1.
        2   -1    0    0  501    0  0.00000000000E+00  0.00000000000E+00 -0.20141159049E+04  0.20141159049E+04  0.25500000920E-02 0.  1.
    10030    2    1    2    0    0  0.00000000000E+00  0.00000000000E+00 -0.50568356808E+03  0.35225482418E+04  0.34860622835E+04 0.  0.
        5    1    3    3  502    0  0.49211804263E+03  0.79195525172E+03  0.12352433334E+04  0.15476503065E+04  0.46999998093E+01 0. -1.
       -5    1    3    3    0  502 -0.49211804263E+03 -0.79195525172E+03 -0.17409269014E+04  0.19748979353E+04  0.46999998093E+01 0.  1.
</event>
<event>
 5   0  0.1866421E-07  0.3482242E+04  0.7818609E-02  0.8118011E-01
        1   -1    0    0  501    0  0.00000000000E+00  0.00000000000E+00  0.26394611482E+04  0.26394611482E+04  0.50400001928E-02 0. -1.
       -1   -1    0    0    0  501  0.00000000000E+00  0.00000000000E+00 -0.11485308976E+04  0.11485308976E+04  0.50400001928E-02 0.  1.
    10030    2    1    2    0    0  0.00000000000E+00  0.00000000000E+00  0.14909302506E+04  0.37879920458E+04  0.34822421982E+04 0.  0.
        1    1    3    3  502    0  0.90763397058E+03  0.74614335311E+03 -0.65225467117E+03  0.13438621522E+04  0.50400001928E-02 0.  1.
       -1    1    3    3    0  502 -0.90763397058E+03 -0.74614335311E+03  0.21431849218E+04  0.24441298936E+04  0.50400001928E-02 0. -1.
</event>
<event>
 5   0  0.5707187E-07  0.3506908E+04  0.7818609E-02  0.8112155E-01
       -2   -1    0    0    0  501  0.00000000000E+00  0.00000000000E+00  0.18663047735E+04  0.18663047735E+04  0.25500000920E-02 0. -1.
        2   -1    0    0  501    0  0.00000000000E+00  0.00000000000E+00 -0.16474271839E+04  0.16474271839E+04  0.25500000920E-02 0.  1.
    10030    2    1    2    0    0  0.00000000000E+00  0.00000000000E+00  0.21887758960E+03  0.35137319573E+04  0.35069081637E+04 0.  0.
        1    1    3    3  502    0 -0.15806916619E+04  0.28146630744E+03 -0.59676727685E+03  0.17128749501E+04  0.50400001928E-02 0.  1.
       -1    1    3    3    0  502  0.15806916619E+04 -0.28146630744E+03  0.81564486645E+03  0.18008570072E+04  0.50400001928E-02 0. -1.
</event>
<event>
 5   0  0.5707187E-07  0.3497305E+04  0.7818609E-02  0.8114429E-01
        2   -1    0    0  501    0  0.00000000000E+00  0.00000000000E+00  0.29820718074E+04  0.29820718074E+04  0.25500000920E-02 0.  1.
       -2   -1    0    0    0  501  0.00000000000E+00  0.00000000000E+00 -0.10253896483E+04  0.10253896483E+04  0.25500000920E-02 0. -1.
    10030    2    1    2    0    0  0.00000000000E+00  0.00000000000E+00  0.19566821591E+04  0.40074614557E+04  0.34973049977E+04 0.  0.
        1    1    3    3  502    0 -0.59009855016E+03  0.87263364954E+03 -0.62099308408E+03  0.12228402168E+04  0.50400001928E-02 0. -1.
       -1    1    3    3    0  502  0.59009855016E+03 -0.87263364954E+03  0.25776752431E+04  0.27846212389E+04  0.50400001928E-02 0.  1.
</event>
<event>
 5   0  0.1873457E-07  0.3595783E+04  0.7818609E-02  0.8091458E-01
       -1   -1    0    0    0  501  0.00000000000E+00  0.00000000000E+00  0.12264050071E+04  0.12264050071E+04  0.50400001928E-02 0.  1.
        1   -1    0    0  501    0  0.00000000000E+00  0.00000000000E+00 -0.26356822313E+04  0.26356822313E+04  0.50400001928E-02 0. -1.
    10030    2    1    2    0    0  0.00000000000E+00  0.00000000000E+00 -0.14092772242E+04  0.38620872384E+04  0.35957830222E+04 0.  0.
        3    1    3    3  502    0  0.92986003239E+03 -0.64957876842E+03 -0.22028742189E+04  0.24777504093E+04  0.10100000352E+00 0. -1.
       -3    1    3    3    0  502 -0.92986003239E+03  0.64957876842E+03  0.79359699475E+03  0.13843368291E+04  0.10100000352E+00 0.  1.
</event>
<event>
 5   0  0.5573334E-07  0.3479602E+04  0.7818609E-02  0.8118641E-01
        2   -1    0    0  501    0  0.00000000000E+00  0.00000000000E+00  0.13555771418E+04  0.13555771418E+04  0.25500000920E-02 0. -1.
       -2   -1    0    0    0  501  0.00000000000E+00  0.00000000000E+00 -0.22329295639E+04  0.22329295639E+04  0.25500000920E-02 0.  1.
    10030    2    1    2    0    0  0.00000000000E+00  0.00000000000E+00 -0.87735242209E+03  0.35885067058E+04  0.34796024349E+04 0.  0.
        4    1    3    3  502    0  0.16743227040E+04  0.49025434428E+02  0.46304338784E+02  0.16756806721E+04  0.12699999809E+01 0.  1.
       -4    1    3    3    0  502 -0.16743227040E+04 -0.49025434428E+02 -0.92365676088E+03  0.19128260336E+04  0.12699999809E+01 0. -1.
</event>
<event>
 5   0  0.1897049E-07  0.3480199E+04  0.7818609E-02  0.8118499E-01
       -1   -1    0    0    0  501  0.00000000000E+00  0.00000000000E+00  0.13615513611E+04  0.13615513611E+04  0.50400001928E-02 0.  1.
        1   -1    0    0  501    0  0.00000000000E+00  0.00000000000E+00 -0.22238942507E+04  0.22238942507E+04  0.50400001928E-02 0. -1.
    10030    2    1    2    0    0  0.00000000000E+00  0.00000000000E+00 -0.86234288967E+03  0.35854456118E+04  0.34801989851E+04 0.  0.
        2    1    3    3  502    0 -0.29619841974E+03  0.11257085513E+04  0.90138656642E+03  0.14722265411E+04  0.25500000920E-02 0.  1.
       -2    1    3    3    0  502  0.29619841974E+03 -0.11257085513E+04 -0.17637294561E+04  0.21132190707E+04  0.25500000920E-02 0. -1.
</event>
<event>
 5   0  0.5740827E-07  0.3458917E+04  0.7818609E-02  0.8123596E-01
       -2   -1    0    0    0  501  0.00000000000E+00  0.00000000000E+00  0.15458543775E+04  0.15458543775E+04  0.25500000920E-02 0. -1.
        2   -1    0    0  501    0  0.00000000000E+00  0.00000000000E+00 -0.19348695217E+04  0.19348695217E+04  0.25500000920E-02 0.  1.
    10030    2    1    2    0    0  0.00000000000E+00  0.00000000000E+00 -0.38901514417E+03  0.34807238992E+04  0.34589168940E+04 0.  0.
        2    1    3    3  502    0  0.10481460620E+04  0.44873882221E+03  0.11140946372E+04  0.15941090172E+04  0.25500000920E-02 0. -1.
       -2    1    3    3    0  502 -0.10481460620E+04 -0.44873882221E+03 -0.15031097814E+04  0.18866148820E+04  0.25500000920E-02 0.  1.
</event>
<event>
 5   0  0.1866421E-07  0.3498026E+04  0.7818609E-02  0.8114258E-01
        1   -1    0    0  501    0  0.00000000000E+00  0.00000000000E+00  0.21260852776E+04  0.21260852776E+04  0.50400001928E-02 0. -1.
       -1   -1    0    0    0  501  0.00000000000E+00  0.00000000000E+00 -0.14388167833E+04  0.14388167833E+04  0.50400001928E-02 0.  1.
    10030    2    1    2    0    0  0.00000000000E+00  0.00000000000E+00  0.68726849432E+03  0.35649020609E+04  0.34980264037E+04 0.  0.
        1    1    3    3  502    0 -0.13751614762E+04 -0.78512160512E+03  0.11005050487E+04  0.19283662470E+04  0.50400001928E-02 0.  1.
       -1    1    3    3    0  502  0.13751614762E+04  0.78512160512E+03 -0.41323655438E+03  0.16365358139E+04  0.50400001928E-02 0. -1.
</event>
<event>
 5   0  0.5740827E-07  0.3443596E+04  0.7818609E-02  0.8127289E-01
        2   -1    0    0  501    0  0.00000000000E+00  0.00000000000E+00  0.21490371479E+04  0.21490371479E+04  0.25500000920E-02 0. -1.
       -2   -1    0    0    0  501  0.00000000000E+00  0.00000000000E+00 -0.13794961488E+04  0.13794961488E+04  0.25500000920E-02 0.  1.
    10030    2    1    2    0    0  0.00000000000E+00  0.00000000000E+00  0.76954099919E+03  0.35285332967E+04  0.34435960676E+04 0.  0.
        2    1    3    3  502    0  0.58155082182E+03 -0.11571100569E+04 -0.77788979259E+03  0.15107010199E+04  0.25500000920E-02 0.  1.
       -2    1    3    3    0  502 -0.58155082182E+03  0.11571100569E+04  0.15474307918E+04  0.20178322768E+04  0.25500000920E-02 0. -1.
</event>
<event>
 5   0  0.5554745E-07  0.3540770E+04  0.7818609E-02  0.8104195E-01
        2   -1    0    0  501    0  0.00000000000E+00  0.00000000000E+00  0.10439887153E+04  0.10439887153E+04  0.25500000920E-02 0.  1.
       -2   -1    0    0    0  501  0.00000000000E+00  0.00000000000E+00 -0.30022005154E+04  0.30022005154E+04  0.25500000920E-02 0. -1.
    10030    2    1    2    0    0  0.00000000000E+00  0.00000000000E+00 -0.19582118002E+04  0.40461892307E+04  0.35407702321E+04 0.  0.
        5    1    3    3  502    0 -0.50825493225E+03  0.50320443058E+03 -0.28297506100E+04  0.29187408895E+04  0.46999998093E+01 0. -1.
       -5    1    3    3    0  502  0.50825493225E+03 -0.50320443058E+03  0.87153880982E+03  0.11274483412E+04  0.46999998093E+01 0.  1.
</event>
<event>
 5   0  0.5554745E-07  0.3533365E+04  0.7818609E-02  0.8105928E-01
       -2   -1    0    0    0  501  0.00000000000E+00  0.00000000000E+00  0.16470567250E+04  0.16470567250E+04  0.25500000920E-02 0.  1.
        2   -1    0    0  501    0  0.00000000000E+00  0.00000000000E+00 -0.18949962507E+04  0.18949962507E+04  0.25500000920E-02 0. -1.
    10030    2    1    2    0    0  0.00000000000E+00  0.00000000000E+00 -0.24793952569E+03  0.35420529758E+04  0.35333645828E+04 0.  0.
        5    1    3    3  502    0 -0.51025222167E+03 -0.24617585577E+02  0.15713957710E+04  0.16523529025E+04  0.46999998093E+01 0.  1.
       -5    1    3    3    0  502  0.51025222167E+03  0.24617585577E+02 -0.18193352967E+04  0.18897000733E+04  0.46999998093E+01 0. -1.
</event>
<event>
 5   0  0.5554745E-07  0.3343903E+04  0.7818609E-02  0.8151813E-01
       -2   -1    0    0    0  501  0.00000000000E+00  0.00000000000E+00  0.13600207788E+04  0.13600207788E+04  0.25500000920E-02 0. -1.
        2   -1    0    0  501    0  0.00000000000E+00  0.00000000000E+00 -0.20554255626E+04  0.20554255626E+04  0.25500000920E-02 0.  1.
    10030    2    1    2    0    0  0.00000000000E+00  0.00000000000E+00 -0.69540478376E+03  0.34154463414E+04  0.33439027943E+04 0.  0.
        5    1    3    3  502    0  0.41064614575E+03  0.13853127222E+04 -0.12069366914E+04  0.18826682826E+04  0.46999998093E+01 0. -1.
       -5    1    3    3    0  502 -0.41064614575E+03 -0.13853127222E+04  0.51153190762E+03  0.15327780589E+04  0.46999998093E+01 0.  1.
</event>
<event>
 5   0  0.1873457E-07  0.3525885E+04  0.7818609E-02  0.8107683E-01
        1   -1    0    0  501    0  0.00000000000E+00  0.00000000000E+00  0.17405764048E+04  0.17405764048E+04  0.50400001928E-02 0. -1.
       -1   -1    0    0    0  501  0.00000000000E+00  0.00000000000E+00 -0.17855955051E+04  0.17855955051E+04  0.50400001928E-02 0.  1.
    10030    2    1    2    0    0  0.00000000000E+00  0.00000000000E+00 -0.45019100318E+02  0.35261719100E+04  0.35258845159E+04 0.  0.
        3    1    3    3  502    0  0.15367729937E+04 -0.39230612214E+03 -0.79224108904E+03  0.17729132187E+04  0.10100000352E+00 0.  1.
       -3    1    3    3    0  502 -0.15367729937E+04  0.39230612214E+03  0.74722198873E+03  0.17532586912E+04  0.10100000352E+00 0. -1.
</event>
<event>
 5   0  0.1873457E-07  0.3627328E+04  0.7818609E-02  0.8084260E-01
       -1   -1    0    0    0  501  0.00000000000E+00  0.00000000000E+00  0.11003954081E+04  0.11003954081E+04  0.50400001928E-02 0. -1.
        1   -1    0    0  501    0  0.00000000000E+00  0.00000000000E+00 -0.29892685916E+04  0.29892685916E+04  0.50400001928E-02 0.  1.
    10030    2    1    2    0    0  0.00000000000E+00  0.00000000000E+00 -0.18888731835E+04  0.40896639997E+04  0.36273281803E+04 0.  0.
        3    1    3    3  502    0  0.11072637159E+04 -0.11923478205E+04 -0.41306588086E+02  0.16277077458E+04  0.10100000352E+00 0.  1.
       -3    1    3    3    0  502 -0.11072637159E+04  0.11923478205E+04 -0.18475665954E+04  0.24619562539E+04  0.10100000352E+00 0. -1.
</event>
<event>
 5   0  0.1908190E-07  0.3504751E+04  0.7818609E-02  0.8112665E-01
       -1   -1    0    0    0  501  0.00000000000E+00  0.00000000000E+00  0.15175891044E+04  0.15175891044E+04  0.50400001928E-02 0. -1.
        1   -1    0    0  501    0  0.00000000000E+00  0.00000000000E+00 -0.20234855852E+04  0.20234855852E+04  0.50400001928E-02 0.  1.
    10030    2    1    2    0    0  0.00000000000E+00  0.00000000000E+00 -0.50589648086E+03  0.35410746896E+04  0.35047508768E+04 0.  0.
        5    1    3    3  502    0 -0.84937000619E+03 -0.87276939784E+03 -0.15260238293E+04  0.19524155927E+04  0.46999998093E+01 0.  1.
       -5    1    3    3    0  502  0.84937000619E+03  0.87276939784E+03  0.10201273484E+04  0.15886590969E+04  0.46999998093E+01 0. -1.
</event>
<event>
 5   0  0.5707187E-07  0.3482184E+04  0.7818609E-02  0.8118025E-01
        2   -1    0    0  501    0  0.00000000000E+00  0.00000000000E+00  0.15356348682E+04  0.15356348682E+04  0.25500000920E-02 0.  1.
       -2   -1    0    0    0  501  0.00000000000E+00  0.00000000000E+00 -0.19740375210E+04  0.19740375210E+04  0.25500000920E-02 0. -1.
    10030    2    1    2    0    0  0.00000000000E+00  0.00000000000E+00 -0.43840265280E+03  0.35096723892E+04  0.34821837104E+04 0.  0.
        1    1    3    3  502    0 -0.10987665801E+04 -0.44005289916E+03 -0.15061784062E+04  0.19155959759E+04  0.50400001928E-02 0. -1.
       -1    1    3    3    0  502  0.10987665801E+04  0.44005289916E+03  0.10677757534E+04  0.15940764132E+04  0.50400001928E-02 0.  1.
</event>
<event>
 5   0  0.1908190E-07  0.3124410E+04  0.7818609E-02  0.8209071E-01
       -1   -1    0    0    0  501  0.00000000000E+00  0.00000000000E+00  0.16359651424E+04  0.16359651424E+04  0.50400001928E-02 0. -1.
        1   -1    0    0  501    0  0.00000000000E+00  0.00000000000E+00 -0.14917703679E+04  0.14917703679E+04  0.50400001928E-02 0.  1.
    10030    2    1    2    0    0  0.00000000000E+00  0.00000000000E+00  0.14419477450E+03  0.31277355104E+04  0.31244099107E+04 0.  0.
        5    1    3    3  502    0  0.53021018650E+03  0.13168751650E+04  0.72484909151E+03  0.15939608959E+04  0.46999998093E+01 0. -1.
       -5    1    3    3    0  502 -0.53021018650E+03 -0.13168751650E+04 -0.58065431701E+03  0.15337746145E+04  0.46999998093E+01 0.  1.
</event>
<event>
 5   0  0.5707187E-07  0.3504906E+04  0.7818609E-02  0.8112628E-01
        2   -1    0    0  501    0  0.00000000000E+00  0.00000000000E+00  0.22429869665E+04  0.22429869665E+04  0.25500000920E-02 0.  1.
       -2   -1    0    0    0  501  0.00000000000E+00  0.00000000000E+00 -0.13691971195E+04  0.13691971195E+04  0.25500000920E-02 0. -1.
    10030    2    1    2    0    0  0.00000000000E+00  0.00000000000E+00  0.87378984697E+03  0.36121840860E+04  0.35049058724E+04 0.  0.
        1    1    3    3  502    0 -0.24567943092E+03  0.11027616516E+04  0.18175441542E+04  0.21400720538E+04  0.50400001928E-02 0.  1.
       -1    1    3    3    0  502  0.24567943092E+03 -0.11027616516E+04 -0.94375430718E+03  0.14721120322E+04  0.50400001928E-02 0. -1.
</event>
<event>
 5   0  0.5677193E-07  0.3503299E+04  0.7818609E-02  0.8113008E-01
       -2   -1    0    0    0  501  0.00000000000E+00  0.00000000000E+00  0.15396931732E+04  0.15396931732E+04  0.25500000920E-02 0.  1.
        2   -1    0    0  501    0  0.00000000000E+00  0.00000000000E+00 -0.19927845182E+04  0.19927845182E+04  0.25500000920E-02 0. -1.
    10030    2    1    2    0    0  0.00000000000E+00  0.00000000000E+00 -0.45309134493E+03  0.35324776914E+04  0.35032994267E+04 0.  0.
        3    1    3    3  502    0 -0.46669602786E+03 -0.15254639956E+04 -0.95605683425E+03  0.18598092012E+04  0.10100000352E+00 0. -1.
       -3    1    3    3    0  502  0.46669602786E+03  0.15254639956E+04  0.50296548933E+03  0.16726684902E+04  0.10100000352E+00 0.  1.
</event>
<event>
 5   0  0.5740827E-07  0.3508302E+04  0.7818609E-02  0.8111825E-01
       -2   -1    0    0    0  501  0.00000000000E+00  0.00000000000E+00  0.26588119426E+04  0.26588119426E+04  0.25500000920E-02 0.  1.
        2   -1    0    0  501    0  0.00000000000E+00  0.00000000000E+00 -0.11573009402E+04  0.11573009402E+04  0.25500000920E-02 0. -1.
    10030    2    1    2    0    0  0.00000000000E+00  0.00000000000E+00  0.15015110024E+04  0.38161128828E+04  0.35083019032E+04 0.  0.
        2    1    3    3  502    0 -0.44811556002E+03 -0.57169808122E+03  0.24875290086E+04  0.25914179168E+04  0.25500000920E-02 0.  1.
       -2    1    3    3    0  502  0.44811556002E+03  0.57169808122E+03 -0.98601800617E+03  0.12246949660E+04  0.25500000920E-02 0. -1.
</event>
<event>
 5   0  0.1897049E-07  0.3491234E+04  0.7818609E-02  0.8115871E-01
        1   -1    0    0  501    0  0.00000000000E+00  0.00000000000E+00  0.25529746332E+04  0.25529746332E+04  0.50400001928E-02 0.  1.
       -1   -1    0    0    0  501  0.00000000000E+00  0.00000000000E+00 -0.11935795109E+04  0.11935795109E+04  0.50400001928E-02 0. -1.
    10030    2    1    2    0    0  0.00000000000E+00  0.00000000000E+00  0.13593951223E+04  0.37465541441E+04  0.34912337155E+04 0.  0.
        2    1    3    3  502    0 -0.10769523197E+04 -0.13120891263E+04  0.24276807827E+03  0.17147421130E+04  0.25500000920E-02 0.  1.
       -2    1    3    3    0  502  0.10769523197E+04  0.13120891263E+04  0.11166270440E+04  0.20318120311E+04  0.25500000920E-02 0. -1.
</event>
<event>
 5   0  0.5554745E-07  0.3541360E+04  0.7818609E-02  0.8104058E-01
        2   -1    0    0  501    0  0.00000000000E+00  0.00000000000E+00  0.21930944017E+04  0.21930944017E+04  0.25500000920E-02 0. -1.
       -2   -1    0    0    0  501  0.00000000000E+00  0.00000000000E+00 -0.14296273443E+04  0.14296273443E+04  0.25500000920E-02 0.  1.
    10030    2    1    2    0    0  0.00000000000E+00  0.00000000000E+00  0.76346705740E+03  0.36227217459E+04  0.35413600355E+04 0.  0.
        5    1    3    3  502    0 -0.35670061268E+01  0.17674118300E+04  0.49157040910E+03  0.18345083421E+04  0.46999998093E+01 0. -1.
       -5    1    3    3    0  502  0.35670061268E+01 -0.17674118300E+04  0.27189664830E+03  0.17882134038E+04  0.46999998093E+01 0.  1.
</event>
<event>
 5   0  0.5554745E-07  0.3485990E+04  0.7818609E-02  0.8117118E-01
       -2   -1    0    0    0  501  0.00000000000E+00  0.00000000000E+00  0.13112617708E+04  0.13112617708E+04  0.25500000920E-02 0. -1.
        2   -1    0    0  501    0  0.00000000000E+00  0.00000000000E+00 -0.23168765901E+04  0.23168765901E+04  0.25500000920E-02 0.  1.
    10030    2    1    2    0    0  0.00000000000E+00  0.00000000000E+00 -0.10056148194E+04  0.36281383609E+04  0.34859900747E+04 0.  0.
        5    1    3    3  502    0 -0.11586209289E+04  0.22341073706E+03  0.83234960686E+03  0.14440023450E+04  0.46999998093E+01 0. -1.
       -5    1    3    3    0  502  0.11586209289E+04 -0.22341073706E+03 -0.18379644262E+04  0.21841360160E+04  0.46999998093E+01 0.  1.
</event>
<event>
 5   0  0.5707187E-07  0.3506447E+04  0.7818609E-02  0.8112264E-01
        2   -1    0    0  501    0  0.00000000000E+00  0.00000000000E+00  0.21658960806E+04  0.21658960806E+04  0.25500000920E-02 0. -1.
       -2   -1    0    0    0  501  0.00000000000E+00  0.00000000000E+00 -0.14191780093E+04  0.14191780093E+04  0.25500000920E-02 0.  1.
    10030    2    1    2    0    0  0.00000000000E+00  0.00000000000E+00  0.74671807121E+03  0.35850740899E+04  0.35064466846E+04 0.  0.
        1    1    3    3  502    0 -0.37406471897E+03  0.13990699659E+04 -0.63696468405E+03  0.15821015113E+04  0.50400001928E-02 0.  1.
       -1    1    3    3    0  502  0.37406471897E+03 -0.13990699659E+04  0.13836827553E+04  0.20029725786E+04  0.50400001928E-02 0. -1.
</event>
<event>
 5   0  0.5573334E-07  0.3511679E+04  0.7818609E-02  0.8111028E-01
       -2   -1    0    0    0  501  0.00000000000E+00  0.00000000000E+00  0.12205776539E+04  0.12205776539E+04  0.25500000920E-02 0.  1.
        2   -1    0    0  501    0  0.00000000000E+00  0.00000000000E+00 -0.25258306313E+04  0.25258306313E+04  0.25500000920E-02 0. -1.
    10030    2    1    2    0    0  0.00000000000E+00  0.00000000000E+00 -0.13052529774E+04  0.37464082852E+04  0.35116790435E+04 0.  0.
        4    1    3    3  502    0  0.95438994716E+03  0.14605467951E+04 -0.44217521410E+03  0.17998826752E+04  0.12699999809E+01 0.  1.
       -4    1    3    3    0  502 -0.95438994716E+03 -0.14605467951E+04 -0.86307776327E+03  0.19465256099E+04  0.12699999809E+01 0. -1.
</event>
<event>
 5   0  0.1897049E-07  0.3498728E+04  0.7818609E-02  0.8114091E-01
        1   -1    0    0  501    0  0.00000000000E+00  0.00000000000E+00  0.19118686152E+04  0.19118686152E+04  0.50400001928E-02 0.  1.
       -1   -1    0    0    0  501  0.00000000000E+00  0.00000000000E+00 -0.16006721442E+04  0.16006721442E+04  0.50400001928E-02 0. -1.
    10030    2    1    2    0    0  0.00000000000E+00  0.00000000000E+00  0.31119647096E+03  0.35125407595E+04  0.34987282466E+04 0.  0.
        2    1    3    3  502    0  0.11269074149E+04  0.70312683815E+03  0.12984980444E+04  0.18575265392E+04  0.25500000920E-02 0.  1.
       -2    1    3    3    0  502 -0.11269074149E+04 -0.70312683815E+03 -0.98730157347E+03  0.16550142203E+04  0.25500000920E-02 0. -1.
</event>
<event>
 5   0  0.1897049E-07  0.3516295E+04  0.7818609E-02  0.8109939E-01
        1   -1    0    0  501    0  0.00000000000E+00  0.00000000000E+00  0.13996348114E+04  0.13996348114E+04  0.50400001928E-02 0.  1.
       -1   -1    0    0    0  501  0.00000000000E+00  0.00000000000E+00 -0.22084922866E+04  0.22084922866E+04  0.50400001928E-02 0. -1.
    10030    2    1    2    0    0  0.00000000000E+00  0.00000000000E+00 -0.80885747519E+03  0.36081270980E+04  0.35162950303E+04 0.  0.
        2    1    3    3  502    0 -0.71865335067E+03  0.30709392647E+03  0.12116026714E+04  0.14417872074E+04  0.25500000920E-02 0.  1.
       -2    1    3    3    0  502  0.71865335067E+03 -0.30709392647E+03 -0.20204601465E+04  0.21663398907E+04  0.25500000920E-02 0. -1.
</event>
<event>
 5   0  0.5554745E-07  0.3486900E+04  0.7818609E-02  0.8116901E-01
        2   -1    0    0  501    0  0.00000000000E+00  0.00000000000E+00  0.19225192627E+04  0.19225192627E+04  0.25500000920E-02 0.  1.
       -2   -1    0    0    0  501  0.00000000000E+00  0.00000000000E+00 -0.15810599453E+04  0.15810599453E+04  0.25500000920E-02 0. -1.
    10030    2    1    2    0    0  0.00000000000E+00  0.00000000000E+00  0.34145931735E+03  0.35035792080E+04  0.34869001708E+04 0.  0.
        5    1    3    3  502    0 -0.54319287306E+03  0.77516282185E+03 -0.13003981337E+04  0.16084132846E+04  0.46999998093E+01 0. -1.
       -5    1    3    3    0  502  0.54319287306E+03 -0.77516282185E+03  0.16418574511E+04  0.18951659234E+04  0.46999998093E+01 0.  1.
</event>
<event>
 5   0  0.5677193E-07  0.3445937E+04  0.7818609E-02  0.8126723E-01
       -2   -1    0    0    0  501  0.00000000000E+00  0.00000000000E+00  0.12793793329E+04  0.12793793329E+04  0.25500000920E-02 0. -1.
        2   -1    0    0  501    0  0.00000000000E+00  0.00000000000E+00 -0.23203601299E+04  0.23203601299E+04  0.25500000920E-02 0.  1.
    10030    2    1    2    0    0  0.00000000000E+00  0.00000000000E+00 -0.10409807969E+04  0.35997394628E+04  0.34459371992E+04 0.  0.
        3    1    3    3  502    0 -0.55220640290E+03  0.10568620540E+04 -0.18196759200E+04  0.21755711380E+04  0.10100000352E+00 0.  1.
       -3    1    3    3    0  502  0.55220640290E+03 -0.10568620540E+04  0.77869512304E+03  0.14241683248E+04  0.10100000352E+00 0. -1.
</event>
<event>
 5   0  0.1897049E-07  0.3498454E+04  0.7818609E-02  0.8114156E-01
        1   -1    0    0  501    0  0.00000000000E+00  0.00000000000E+00  0.19633540982E+04  0.19633540982E+04  0.50400001928E-02 0.  1.
       -1   -1    0    0    0  501  0.00000000000E+00  0.00000000000E+00 -0.15584532922E+04  0.15584532922E+04  0.50400001928E-02 0. -1.
    10030    2    1    2    0    0  0.00000000000E+00  0.00000000000E+00  0.40490080604E+03  0.35218073904E+04  0.34984543204E+04 0.  0.
        2    1    3    3  502    0 -0.13654566273E+04 -0.10716333443E+04 -0.15619326425E+02  0.17358323044E+04  0.25500000920E-02 0.  1.
       -2    1    3    3    0  502  0.13654566273E+04  0.10716333443E+04  0.42052013247E+03  0.17859750859E+04  0.25500000920E-02 0. -1.
</event>
<event>
 5   0  0.5573334E-07  0.3536261E+04  0.7818609E-02  0.8105250E-01
        2   -1    0    0  501    0  0.00000000000E+00  0.00000000000E+00  0.33855857676E+04  0.33855857676E+04  0.25500000920E-02 0.  1.
       -2   -1    0    0    0  501  0.00000000000E+00  0.00000000000E+00 -0.92341067660E+03  0.92341067661E+03  0.25500000920E-02 0. -1.
    10030    2    1    2    0    0  0.00000000000E+00  0.00000000000E+00  0.24621750910E+04  0.43089964442E+04  0.35362613276E+04 0.  0.
        4    1    3    3  502    0 -0.14477770940E+04  0.90112067464E+02  0.24629995753E+04  0.28584169079E+04  0.12699999809E+01 0.  1.
       -4    1    3    3    0  502  0.14477770940E+04 -0.90112067464E+02 -0.82448429887E+00  0.14505795363E+04  0.12699999809E+01 0. -1.
</event>
<event>
 5   0  0.1933647E-07  0.3506717E+04  0.7818609E-02  0.8112200E-01
       -1   -1    0    0    0  501  0.00000000000E+00  0.00000000000E+00  0.21862883995E+04  0.21862883995E+04  0.50400001928E-02 0.  1.
        1   -1    0    0  501    0  0.00000000000E+00  0.00000000000E+00 -0.14061572025E+04  0.14061572025E+04  0.50400001928E-02 0. -1.
    10030    2    1    2    0    0  0.00000000000E+00  0.00000000000E+00  0.78013119705E+03  0.35924456020E+04  0.35067165153E+04 0.  0.
        4    1    3    3  502    0 -0.64935970458E+03  0.11513182159E+04  0.15702099535E+04  0.20525015399E+04  0.12699999809E+01 0.  1.
       -4    1    3    3    0  502  0.64935970458E+03 -0.11513182159E+04 -0.79007875646E+03  0.15399440621E+04  0.12699999809E+01 0. -1.
</event>
<event>
 5   0  0.1873457E-07  0.3479561E+04  0.7818609E-02  0.8118651E-01
       -1   -1    0    0    0  501  0.00000000000E+00  0.00000000000E+00  0.16223522515E+04  0.16223522515E+04  0.50400001928E-02 0. -1.
        1   -1    0    0  501    0  0.00000000000E+00  0.00000000000E+00 -0.18657082899E+04  0.18657082900E+04  0.50400001928E-02 0.  1.
    10030    2    1    2    0    0  0.00000000000E+00  0.00000000000E+00 -0.24335603847E+03  0.34880605414E+04  0.34795609176E+04 0.  0.
        3    1    3    3  502    0 -0.28166264271E+03 -0.36680444181E+03 -0.18029620694E+04  0.18613305931E+04  0.10100000352E+00 0.  1.
       -3    1    3    3    0  502  0.28166264271E+03  0.36680444181E+03  0.15596060310E+04  0.16267299483E+04  0.10100000352E+00 0. -1.
</event>
<event>
 5   0  0.5707187E-07  0.3494059E+04  0.7818609E-02  0.8115199E-01
        2   -1    0    0  501    0  0.00000000000E+00  0.00000000000E+00  0.24941695373E+04  0.24941695373E+04  0.25500000920E-02 0.  1.
       -2   -1    0    0    0  501  0.00000000000E+00  0.00000000000E+00 -0.12236986719E+04  0.12236986719E+04  0.25500000920E-02 0. -1.
    10030    2    1    2    0    0  0.00000000000E+00  0.00000000000E+00  0.12704708654E+04  0.37178682092E+04  0.34940589293E+04 0.  0.
        1    1    3    3  502    0 -0.10891793256E+03  0.12984493420E+04 -0.60304126359E+03  0.14357898786E+04  0.50400001928E-02 0. -1.
       -1    1    3    3    0  502  0.10891793256E+03 -0.12984493420E+04  0.18735121290E+04  0.22820783307E+04  0.50400001928E-02 0.  1.
</event>
<event>
 5   0  0.1897049E-07  0.3512719E+04  0.7818609E-02  0.8110782E-01
       -1   -1    0    0    0  501  0.00000000000E+00  0.00000000000E+00  0.23456640246E+04  0.23456640247E+04  0.50400001928E-02 0.  1.
        1   -1    0    0  501    0  0.00000000000E+00  0.00000000000E+00 -0.13151070110E+04  0.13151070111E+04  0.50400001928E-02 0. -1.
    10030    2    1    2    0    0  0.00000000000E+00  0.00000000000E+00  0.10305570136E+04  0.36607710357E+04  0.35127192910E+04 0.  0.
        2    1    3    3  502    0 -0.12058252600E+04  0.64512557227E+03  0.16638164252E+04  0.21537146187E+04  0.25500000920E-02 0.  1.
       -2    1    3    3    0  502  0.12058252600E+04 -0.64512557227E+03 -0.63325941164E+03  0.15070564170E+04  0.25500000920E-02 0. -1.
</event>
<event>
 5   0  0.5707187E-07  0.3510693E+04  0.7818609E-02  0.8111260E-01
        2   -1    0    0  501    0  0.00000000000E+00  0.00000000000E+00  0.15891635939E+04  0.15891635940E+04  0.25500000920E-02 0.  1.
       -2   -1    0    0    0  501  0.00000000000E+00  0.00000000000E+00 -0.19389079585E+04  0.19389079585E+04  0.25500000920E-02 0. -1.
    10030    2    1    2    0    0  0.00000000000E+00  0.00000000000E+00 -0.34974436459E+03  0.35280715525E+04  0.35106933445E+04 0.  0.
        1    1    3    3  502    0 -0.85822564858E+03 -0.10372509380E+04 -0.13068587494E+04  0.18762517324E+04  0.50400001928E-02 0. -1.
       -1    1    3    3    0  502  0.85822564858E+03  0.10372509380E+04  0.95711438484E+03  0.16518198201E+04  0.50400001928E-02 0.  1.
</event>
<event>
 5   0  0.5677193E-07  0.3527086E+04  0.7818609E-02  0.8107401E-01
        2   -1    0    0  501    0  0.00000000000E+00  0.00000000000E+00  0.30927651948E+04  0.30927651948E+04  0.25500000920E-02 0. -1.
       -2   -1    0    0    0  501  0.00000000000E+00  0.00000000000E+00 -0.10055995656E+04  0.10055995656E+04  0.25500000920E-02 0.  1.
    10030    2    1    2    0    0  0.00000000000E+00  0.00000000000E+00  0.20871656291E+04  0.40983647604E+04  0.35270856732E+04 0.  0.
        3    1    3    3  502    0 -0.14621492064E+04  0.29042088318E+03  0.21384628475E+04  0.26067696391E+04  0.10100000352E+00 0. -1.
       -3    1    3    3    0  502  0.14621492064E+04 -0.29042088318E+03 -0.51297218377E+02  0.14915951213E+04  0.10100000352E+00 0.  1.
</event>
<event>
 5   0  0.1866421E-07  0.3503019E+04  0.7818609E-02  0.8113075E-01
        1   -1    0    0  501    0  0.00000000000E+00  0.00000000000E+00  0.24263932763E+04  0.24263932763E+04  0.50400001928E-02 0.  1.
       -1   -1    0    0    0  501  0.00000000000E+00  0.00000000000E+00 -0.12643394723E+04  0.12643394723E+04  0.50400001928E-02 0. -1.
    10030    2    1    2    0    0  0.00000000000E+00  0.00000000000E+00  0.11620538040E+04  0.36907327486E+04  0.35030185809E+04 0.  0.
        1    1    3    3  502    0 -0.18504688196E+03 -0.23741395350E+03  0.23989373662E+04  0.24177485852E+04  0.50400001928E-02 0.  1.
       -1    1    3    3    0  502  0.18504688196E+03  0.23741395350E+03 -0.12368835622E+04  0.12729841634E+04  0.50400001928E-02 0. -1.
</event>
<event>
 5   0  0.1866421E-07  0.3395464E+04  0.7818609E-02  0.8139020E-01
        1   -1    0    0  501    0  0.00000000000E+00  0.00000000000E+00  0.15339291130E+04  0.15339291130E+04  0.50400001928E-02 0. -1.
       -1   -1    0    0    0  501  0.00000000000E+00  0.00000000000E+00 -0.18790268124E+04  0.18790268124E+04  0.50400001928E-02 0.  1.
    10030    2    1    2    0    0  0.00000000000E+00  0.00000000000E+00 -0.34509769938E+03  0.34129559255E+04  0.33954639929E+04 0.  0.
        1    1    3    3  502    0 -0.14938871397E+04  0.11391866256E+03 -0.97517208337E+03  0.17876344258E+04  0.50400001928E-02 0.  1.
       -1    1    3    3    0  502  0.14938871397E+04 -0.11391866256E+03  0.63007438399E+03  0.16253214997E+04  0.50400001928E-02 0. -1.
</event>
<event>
 5   0  0.5707187E-07  0.3461414E+04  0.7818609E-02  0.8122996E-01
        2   -1    0    0  501    0  0.00000000000E+00  0.00000000000E+00  0.12916048708E+04  0.12916048708E+04  0.25500000920E-02 0. -1.
       -2   -1    0    0    0  501  0.00000000000E+00  0.00000000000E+00 -0.23190889919E+04  0.23190889919E+04  0.25500000920E-02 0.  1.
    10030    2    1    2    0    0  0.00000000000E+00  0.00000000000E+00 -0.10274841211E+04  0.36106938627E+04  0.34614139525E+04 0.  0.
        1    1    3    3  502    0  0.14433752627E+04 -0.94696876629E+03 -0.38486356040E+03  0.17686723703E+04  0.50400001928E-02 0.  1.
       -1    1    3    3    0  502 -0.14433752627E+04  0.94696876629E+03 -0.64262056068E+03  0.18420214924E+04  0.50400001928E-02 0. -1.
</event>
<event>
 5   0  0.1897049E-07  0.3501766E+04  0.7818609E-02  0.8113372E-01
        1   -1    0    0  501    0  0.00000000000E+00  0.00000000000E+00  0.19989849870E+04  0.19989849870E+04  0.50400001928E-02 0.  1.
       -1   -1    0    0    0  501  0.00000000000E+00  0.00000000000E+00 -0.15335735554E+04  0.15335735555E+04  0.50400001928E-02 0. -1.
    10030    2    1    2    0    0  0.00000000000E+00  0.00000000000E+00  0.46541143156E+03  0.35325585425E+04  0.35017655626E+04 0.  0.
        2    1    3    3  502    0 -0.20908692603E+03  0.20550151159E+03 -0.15086374505E+04  0.15368588650E+04  0.25500000920E-02 0. -1.
       -2    1    3    3    0  502  0.20908692603E+03 -0.20550151159E+03  0.19740488820E+04  0.19956996775E+04  0.25500000920E-02 0.  1.
</event>
<event>
 5   0  0.1866421E-07  0.3494243E+04  0.7818609E-02  0.8115156E-01
       -1   -1    0    0    0  501  0.00000000000E+00  0.00000000000E+00  0.15173211037E+04  0.15173211038E+04  0.50400001928E-02 0. -1.
        1   -1    0    0  501    0  0.00000000000E+00  0.00000000000E+00 -0.20117255658E+04  0.20117255658E+04  0.50400001928E-02 0.  1.
    10030    2    1    2    0    0  0.00000000000E+00  0.00000000000E+00 -0.49440446208E+03  0.35290466696E+04  0.34942430688E+04 0.  0.
        1    1    3    3  502    0  0.16849997301E+04 -0.34058852747E+03 -0.56209129120E+03  0.18086379558E+04  0.50400001928E-02 0.  1.
       -1    1    3    3    0  502 -0.16849997301E+04  0.34058852747E+03  0.67686829117E+02  0.17204087138E+04  0.50400001928E-02 0. -1.
</event>
<event>
 5   0  0.5677193E-07  0.3501611E+04  0.7818609E-02  0.8113408E-01
        2   -1    0    0  501    0  0.00000000000E+00  0.00000000000E+00  0.18227094086E+04  0.18227094086E+04  0.25500000920E-02 0. -1.
       -2   -1    0    0    0  501  0.00000000000E+00  0.00000000000E+00 -0.16817377530E+04  0.16817377530E+04  0.25500000920E-02 0.  1.
    10030    2    1    2    0    0  0.00000000000E+00  0.00000000000E+00  0.14097165564E+03  0.35044471616E+04  0.35016106152E+04 0.  0.
        3    1    3    3  502    0  0.68509494650E+02 -0.99054827090E+03  0.15136802469E+04  0.18102782460E+04  0.10100000352E+00 0. -1.
       -3    1    3    3    0  502 -0.68509494650E+02  0.99054827090E+03 -0.13727085913E+04  0.16941689156E+04  0.10100000352E+00 0.  1.
</event>
<event>
 5   0  0.1933647E-07  0.3495782E+04  0.7818609E-02  0.8114790E-01
        1   -1    0    0  501    0  0.00000000000E+00  0.00000000000E+00  0.16167876803E+04  0.16167876803E+04  0.50400001928E-02 0. -1.
       -1   -1    0    0    0  501  0.00000000000E+00  0.00000000000E+00 -0.18896257525E+04  0.18896257525E+04  0.50400001928E-02 0.  1.
    10030    2    1    2    0    0  0.00000000000E+00  0.00000000000E+00 -0.27283807226E+03  0.35064134328E+04  0.34957823943E+04 0.  0.
        4    1    3    3  502    0 -0.71744986456E+03 -0.15763901891E+04 -0.37246785077E+03  0.17715739469E+04  0.12699999809E+01 0.  1.
       -4    1    3    3    0  502  0.71744986456E+03  0.15763901891E+04  0.99629778511E+02  0.17348394860E+04  0.12699999809E+01 0. -1.
</event>
<event>
 5   0  0.1866421E-07  0.3506075E+04  0.7818609E-02  0.8112352E-01
       -1   -1    0    0    0  501  0.00000000000E+00  0.00000000000E+00  0.12914655773E+04  0.12914655773E+04  0.50400001928E-02 0.  1.
        1   -1    0    0  501    0  0.00000000000E+00  0.00000000000E+00 -0.23795765151E+04  0.23795765151E+04  0.50400001928E-02 0. -1.
    10030    2    1    2    0    0  0.00000000000E+00  0.00000000000E+00 -0.10881109378E+04  0.36710420924E+04  0.35060753887E+04 0.  0.
        1    1    3    3  502    0  0.82054352610E+03 -0.36792453853E+03  0.10315680539E+04  0.13685001988E+04  0.50400001928E-02 0.  1.
       -1    1    3    3    0  502 -0.82054352610E+03  0.36792453853E+03 -0.21196789916E+04  0.23025418936E+04  0.50400001928E-02 0. -1.
</event>
<event>
 5   0  0.1866421E-07  0.3490408E+04  0.7818609E-02  0.8116067E-01
        1   -1    0    0  501    0  0.00000000000E+00  0.00000000000E+00  0.21294585917E+04  0.21294585917E+04  0.50400001928E-02 0. -1.
       -1   -1    0    0    0  501  0.00000000000E+00  0.00000000000E+00 -0.14302869684E+04  0.14302869684E+04  0.50400001928E-02 0.  1.
    10030    2    1    2    0    0  0.00000000000E+00  0.00000000000E+00  0.69917162336E+03  0.35597455601E+04  0.34904079265E+04 0.  0.
        1    1    3    3  502    0  0.18714356343E+03  0.14715022327E+04  0.12873047677E+04  0.19640506865E+04  0.50400001928E-02 0. -1.
       -1    1    3    3    0  502 -0.18714356343E+03 -0.14715022327E+04 -0.58813314436E+03  0.15956948736E+04  0.50400001928E-02 0.  1.
</event>
<event>
 5   0  0.5740827E-07  0.3413638E+04  0.7818609E-02  0.8134567E-01
       -2   -1    0    0    0  501  0.00000000000E+00  0.00000000000E+00  0.10344200317E+04  0.10344200317E+04  0.25500000920E-02 0. -1.
        2   -1    0    0  501    0  0.00000000000E+00  0.00000000000E+00 -0.28162936587E+04  0.28162936587E+04  0.25500000920E-02 0.  1.
    10030    2    1    2    0    0  0.00000000000E+00  0.00000000000E+00 -0.17818736270E+04  0.38507136904E+04  0.34136376936E+04 0.  0.
        2    1    3    3  502    0  0.15178253617E+04  0.27340979684E+03 -0.66091846427E+02  0.15436692903E+04  0.25500000920E-02 0. -1.
       -2    1    3    3    0  502 -0.15178253617E+04 -0.27340979684E+03 -0.17157817806E+04  0.23070444001E+04  0.25500000920E-02 0.  1.
</event>
<event>
 5   0  0.5573334E-07  0.3485563E+04  0.7818609E-02  0.8117220E-01
       -2   -1    0    0    0  501  0.00000000000E+00  0.00000000000E+00  0.24424212673E+04  0.24424212673E+04  0.25500000920E-02 0.  1.
        2   -1    0    0  501    0  0.00000000000E+00  0.00000000000E+00 -0.12435558726E+04  0.12435558726E+04  0.25500000920E-02 0. -1.
    10030    2    1    2    0    0  0.00000000000E+00  0.00000000000E+00  0.11988653946E+04  0.36859771399E+04  0.34855629734E+04 0.  0.
        4    1    3    3  502    0 -0.14043900901E+04  0.82706927727E+03 -0.53250788818E+02  0.16307030306E+04  0.12699999809E+01 0.  1.
       -4    1    3    3    0  502  0.14043900901E+04 -0.82706927727E+03  0.12521161834E+04  0.20552741093E+04  0.12699999809E+01 0. -1.
</event>
<event>
 5   0  0.5677193E-07  0.3521729E+04  0.7818609E-02  0.8108660E-01
       -2   -1    0    0    0  501  0.00000000000E+00  0.00000000000E+00  0.15674832601E+04  0.15674832601E+04  0.25500000920E-02 0.  1.
        2   -1    0    0  501    0  0.00000000000E+00  0.00000000000E+00 -0.19781037459E+04  0.19781037459E+04  0.25500000920E-02 0. -1.
    10030    2    1    2    0    0  0.00000000000E+00  0.00000000000E+00 -0.41062048582E+03  0.35455870060E+04  0.35217294095E+04 0.  0.
        3    1    3    3  502    0  0.17461236145E+04  0.21271327167E+03 -0.12445500508E+03  0.17634295198E+04  0.10100000352E+00 0.  1.
       -3    1    3    3    0  502 -0.17461236145E+04 -0.21271327167E+03 -0.28616548074E+03  0.17821574862E+04  0.10100000352E+00 0. -1.
</event>
<event>
 5   0  0.1873457E-07  0.3440428E+04  0.7818609E-02  0.8128055E-01
       -1   -1    0    0    0  501  0.00000000000E+00  0.00000000000E+00  0.15080392315E+04  0.15080392315E+04  0.50400001928E-02 0.  1.
        1   -1    0    0  501    0  0.00000000000E+00  0.00000000000E+00 -0.19622410169E+04  0.19622410169E+04  0.50400001928E-02 0. -1.
    10030    2    1    2    0    0  0.00000000000E+00  0.00000000000E+00 -0.45420178549E+03  0.34702802484E+04  0.34404281333E+04 0.  0.
        3    1    3    3  502    0 -0.24908615709E+03  0.99748448698E+03  0.11640386500E+04  0.15530631682E+04  0.10100000352E+00 0.  1.
       -3    1    3    3    0  502  0.24908615709E+03 -0.99748448698E+03 -0.16182404355E+04  0.19172170802E+04  0.10100000352E+00 0. -1.
</event>
<event>
 5   0  0.5677193E-07  0.3493867E+04  0.7818609E-02  0.8115245E-01
       -2   -1    0    0    0  501  0.00000000000E+00  0.00000000000E+00  0.12368854358E+04  0.12368854358E+04  0.25500000920E-02 0. -1.
        2   -1    0    0  501    0  0.00000000000E+00  0.00000000000E+00 -0.24673077191E+04  0.24673077191E+04  0.25500000920E-02 0.  1.
    10030    2    1    2    0    0  0.00000000000E+00  0.00000000000E+00 -0.12304222833E+04  0.37041931549E+04  0.34938671889E+04 0.  0.
        3    1    3    3  502    0 -0.74591571203E+03  0.13755763199E+04 -0.14386084507E+04  0.21256045601E+04  0.10100000352E+00 0. -1.
       -3    1    3    3    0  502  0.74591571203E+03 -0.13755763199E+04  0.20818616739E+03  0.15785885948E+04  0.10100000352E+00 0.  1.
</event>
<event>
 5   0  0.5740827E-07  0.3515243E+04  0.7818609E-02  0.8110187E-01
        2   -1    0    0  501    0  0.00000000000E+00  0.00000000000E+00  0.15842958832E+04  0.15842958832E+04  0.25500000920E-02 0.  1.
       -2   -1    0    0    0  501  0.00000000000E+00  0.00000000000E+00 -0.19499088456E+04  0.19499088456E+04  0.25500000920E-02 0. -1.
    10030    2    1    2    0    0  0.00000000000E+00  0.00000000000E+00 -0.36561296239E+03  0.35342047289E+04  0.35152425560E+04 0.  0.
        2    1    3    3  502    0  0.15523788384E+04 -0.37825777181E+03  0.55345079165E+03  0.16909366572E+04  0.25500000920E-02 0.  1.
       -2    1    3    3    0  502 -0.15523788384E+04  0.37825777181E+03 -0.91906375404E+03  0.18432680716E+04  0.25500000920E-02 0. -1.
</event>
<event>
 5   0  0.1873457E-07  0.3517330E+04  0.7818609E-02  0.8109695E-01
        1   -1    0    0  501    0  0.00000000000E+00  0.00000000000E+00  0.20303504264E+04  0.20303504264E+04  0.50400001928E-02 0.  1.
       -1   -1    0    0    0  501  0.00000000000E+00  0.00000000000E+00 -0.15233340911E+04  0.15233340911E+04  0.50400001928E-02 0. -1.
    10030    2    1    2    0    0  0.00000000000E+00  0.00000000000E+00  0.50701633533E+03  0.35536845175E+04  0.35173296811E+04 0.  0.
        3    1    3    3  502    0  0.13496608795E+04  0.11264209945E+04  0.30395686778E+03  0.17840399475E+04  0.10100000352E+00 0.  1.
       -3    1    3    3    0  502 -0.13496608795E+04 -0.11264209945E+04  0.20305946755E+03  0.17696445700E+04  0.10100000352E+00 0. -1.
</event>
<event>
 5   0  0.5554745E-07  0.3502306E+04  0.7818609E-02  0.8113244E-01
        2   -1    0    0  501    0  0.00000000000E+00  0.00000000000E+00  0.13761760558E+04  0.13761760558E+04  0.25500000920E-02 0.  1.
       -2   -1    0    0    0  501  0.00000000000E+00  0.00000000000E+00 -0.22283024137E+04  0.22283024137E+04  0.25500000920E-02 0. -1.
    10030    2    1    2    0    0  0.00000000000E+00  0.00000000000E+00 -0.85212635799E+03  0.36044784695E+04  0.35023057701E+04 0.  0.
        5    1    3    3  502    0  0.13428352365E+04 -0.89870500847E+03 -0.11207642205E+04  0.19664718896E+04  0.46999998093E+01 0. -1.
       -5    1    3    3    0  502 -0.13428352365E+04  0.89870500847E+03  0.26863786255E+03  0.16380065799E+04  0.46999998093E+01 0.  1.
</event>
<event>
 5   0  0.1823000E-07  0.3509088E+04  0.7818609E-02  0.8111640E-01
       -3   -1    0    0    0  501  0.00000000000E+00  0.00000000000E+00  0.19874157900E+04  0.19874157926E+04  0.10100000352E+00 0.  1.
        3   -1    0    0  501    0  0.00000000000E+00  0.00000000000E+00 -0.15489582401E+04  0.15489582433E+04  0.10100000352E+00 0. -1.
    10030    2    1    2    0    0  0.00000000000E+00  0.00000000000E+00  0.43845754996E+03  0.35363740359E+04  0.35090876733E+04 0.  0.
        5    1    3    3  502    0  0.36003129282E+03  0.90119109348E+03  0.16923179851E+04  0.19508280733E+04  0.46999998093E+01 0.  1.
       -5    1    3    3    0  502 -0.36003129282E+03 -0.90119109348E+03 -0.12538604352E+04  0.15855459626E+04  0.46999998093E+01 0. -1.
</event>
<event>
 5   0  0.5554745E-07  0.3495749E+04  0.7818609E-02  0.8114798E-01
       -2   -1    0    0    0  501  0.00000000000E+00  0.00000000000E+00  0.13613115210E+04  0.13613115210E+04  0.25500000920E-02 0.  1.
        2   -1    0    0  501    0  0.00000000000E+00  0.00000000000E+00 -0.22442078420E+04  0.22442078420E+04  0.25500000920E-02 0. -1.
    10030    2    1    2    0    0  0.00000000000E+00  0.00000000000E+00 -0.88289632107E+03  0.36055193630E+04  0.34957494137E+04 0.  0.
        5    1    3    3  502    0 -0.77707376534E+03 -0.86676376895E+03 -0.17861991945E+04  0.21320536392E+04  0.46999998093E+01 0. -1.
       -5    1    3    3    0  502  0.77707376534E+03  0.86676376895E+03  0.90330287346E+03  0.14734657238E+04  0.46999998093E+01 0.  1.
</event>
<event>
 5   0  0.5707187E-07  0.3503000E+04  0.7818609E-02  0.8113079E-01
       -2   -1    0    0    0  501  0.00000000000E+00  0.00000000000E+00  0.16873917638E+04  0.16873917638E+04  0.25500000920E-02 0.  1.
        2   -1    0    0  501    0  0.00000000000E+00  0.00000000000E+00 -0.18180436212E+04  0.18180436212E+04  0.25500000920E-02 0. -1.
    10030    2    1    2    0    0  0.00000000000E+00  0.00000000000E+00 -0.13065185739E+03  0.35054353851E+04  0.35029997618E+04 0.  0.
        1    1    3    3  502    0  0.15131149242E+04  0.37063659543E+03  0.73577023481E+03  0.17228598603E+04  0.50400001928E-02 0.  1.
       -1    1    3    3    0  502 -0.15131149242E+04 -0.37063659543E+03 -0.86642209220E+03  0.17825755248E+04  0.50400001928E-02 0. -1.
</event>
<event>
 5   0  0.5573334E-07  0.3491203E+04  0.7818609E-02  0.8115878E-01
        2   -1    0    0  501    0  0.00000000000E+00  0.00000000000E+00  0.96939846023E+03  0.96939846023E+03  0.25500000920E-02 0. -1.
       -2   -1    0    0    0  501  0.00000000000E+00  0.00000000000E+00 -0.31433148611E+04  0.31433148611E+04  0.25500000920E-02 0.  1.
    10030    2    1    2    0    0  0.00000000000E+00  0.00000000000E+00 -0.21739164009E+04  0.41127133214E+04  0.34912029941E+04 0.  0.
        4    1    3    3  502    0  0.48121636778E+03  0.69079701021E+03 -0.28883509000E+04  0.30085448703E+04  0.12699999809E+01 0.  1.
       -4    1    3    3    0  502 -0.48121636778E+03 -0.69079701021E+03  0.71443449912E+03  0.11041684511E+04  0.12699999809E+01 0. -1.
</event>
<event>
 5   0  0.1873457E-07  0.3506596E+04  0.7818609E-02  0.8112229E-01
        1   -1    0    0  501    0  0.00000000000E+00  0.00000000000E+00  0.14929260096E+04  0.14929260096E+04  0.50400001928E-02 0. -1.
       -1   -1    0    0    0  501  0.00000000000E+00  0.00000000000E+00 -0.20590797283E+04  0.20590797283E+04  0.50400001928E-02 0.  1.
    10030    2    1    2    0    0  0.00000000000E+00  0.00000000000E+00 -0.56615371868E+03  0.35520057379E+04  0.35065958890E+04 0.  0.
        3    1    3    3  502    0  0.14341270128E+04  0.13203002772E+03 -0.12959767856E+04  0.19374488525E+04  0.10100000352E+00 0.  1.
       -3    1    3    3    0  502 -0.14341270128E+04 -0.13203002772E+03  0.72982306691E+03  0.16145568854E+04  0.10100000352E+00 0. -1.
</event>
<event>
 5   0  0.1933647E-07  0.3541065E+04  0.7818609E-02  0.8104126E-01
        1   -1    0    0  501    0  0.00000000000E+00  0.00000000000E+00  0.20236604132E+04  0.20236604132E+04  0.50400001928E-02 0. -1.
       -1   -1    0    0    0  501  0.00000000000E+00  0.00000000000E+00 -0.15490668406E+04  0.15490668406E+04  0.50400001928E-02 0.  1.
    10030    2    1    2    0    0  0.00000000000E+00  0.00000000000E+00  0.47459357265E+03  0.35727272538E+04  0.35410649487E+04 0.  0.
        4    1    3    3  502    0 -0.11924991338E+04 -0.12158019177E+04  0.72593615032E+03  0.18512734521E+04  0.12699999809E+01 0.  1.
       -4    1    3    3    0  502  0.11924991338E+04  0.12158019177E+04 -0.25134257767E+03  0.17214538017E+04  0.12699999809E+01 0. -1.
</event>
<event>
 5   0  0.5707187E-07  0.3507431E+04  0.7818609E-02  0.8112031E-01
        2   -1    0    0  501    0  0.00000000000E+00  0.00000000000E+00  0.19954479670E+04  0.19954479670E+04  0.25500000920E-02 0. -1.
       -2   -1    0    0    0  501  0.00000000000E+00  0.00000000000E+00 -0.15412666310E+04  0.15412666310E+04  0.25500000920E-02 0.  1.
    10030    2    1    2    0    0  0.00000000000E+00  0.00000000000E+00  0.45418133604E+03  0.35367145980E+04  0.35074306068E+04 0.  0.
        1    1    3    3  502    0 -0.13425513393E+04  0.10374447200E+04  0.67439520526E+03  0.18257996984E+04  0.50400001928E-02 0. -1.
       -1    1    3    3    0  502  0.13425513393E+04 -0.10374447200E+04 -0.22021386922E+03  0.17109148997E+04  0.50400001928E-02 0.  1.
</event>
<event>
 5   0  0.1866421E-07  0.3503596E+04  0.7818609E-02  0.8112938E-01
        1   -1    0    0  501    0  0.00000000000E+00  0.00000000000E+00  0.24007069543E+04  0.24007069543E+04  0.50400001928E-02 0.  1.
       -1   -1    0    0    0  501  0.00000000000E+00  0.00000000000E+00 -0.12782887792E+04  0.12782887792E+04  0.50400001928E-02 0. -1.
    10030    2    1    2    0    0  0.00000000000E+00  0.00000000000E+00  0.11224181751E+04  0.36789957335E+04  0.35035963019E+04 0.  0.
        1    1    3    3  502    0 -0.46574269682E+03 -0.19358692234E+03  0.23228139132E+04  0.23769427068E+04  0.50400001928E-02 0.  1.
       -1    1    3    3    0  502  0.46574269682E+03  0.19358692234E+03 -0.12003957381E+04  0.13020530266E+04  0.50400001928E-02 0. -1.
</event>
<event>
 5   0  0.5573334E-07  0.3465601E+04  0.7818609E-02  0.8121991E-01
        2   -1    0    0  501    0  0.00000000000E+00  0.00000000000E+00  0.25332027214E+04  0.25332027214E+04  0.25500000920E-02 0. -1.
       -2   -1    0    0    0  501  0.00000000000E+00  0.00000000000E+00 -0.11852967580E+04  0.11852967580E+04  0.25500000920E-02 0.  1.
    10030    2    1    2    0    0  0.00000000000E+00  0.00000000000E+00  0.13479059634E+04  0.37184994794E+04  0.34656006538E+04 0.  0.
        4    1    3    3  502    0  0.12694102715E+03 -0.92230908079E+03  0.22420476361E+04  0.24276629256E+04  0.12699999809E+01 0. -1.
       -4    1    3    3    0  502 -0.12694102715E+03  0.92230908079E+03 -0.89414167268E+03  0.12908365538E+04  0.12699999809E+01 0.  1.
</event>
<event>
 5   0  0.5554745E-07  0.3488023E+04  0.7818609E-02  0.8116634E-01
       -2   -1    0    0    0  501  0.00000000000E+00  0.00000000000E+00  0.14036300380E+04  0.14036300380E+04  0.25500000920E-02 0. -1.
        2   -1    0    0  501    0  0.00000000000E+00  0.00000000000E+00 -0.21669354280E+04  0.21669354280E+04  0.25500000920E-02 0.  1.
    10030    2    1    2    0    0  0.00000000000E+00  0.00000000000E+00 -0.76330539000E+03  0.35705654660E+04  0.34880227391E+04 0.  0.
        5    1    3    3  502    0 -0.12204066021E+04  0.67773117295E+03  0.68847679362E+03  0.15565134766E+04  0.46999998093E+01 0. -1.
       -5    1    3    3    0  502  0.12204066021E+04 -0.67773117295E+03 -0.14517821836E+04  0.20140519894E+04  0.46999998093E+01 0.  1.
</event>
<event>
 5   0  0.5554745E-07  0.3508708E+04  0.7818609E-02  0.8111729E-01
       -2   -1    0    0    0  501  0.00000000000E+00  0.00000000000E+00  0.13663880922E+04  0.13663880922E+04  0.25500000920E-02 0.  1.
        2   -1    0    0  501    0  0.00000000000E+00  0.00000000000E+00 -0.22524773161E+04  0.22524773161E+04  0.25500000920E-02 0. -1.
    10030    2    1    2    0    0  0.00000000000E+00  0.00000000000E+00 -0.88608922392E+03  0.36188654083E+04  0.35087081284E+04 0.  0.
        5    1    3    3  502    0 -0.12815355958E+04  0.11024856776E+04 -0.92673269957E+03  0.19278650728E+04  0.46999998093E+01 0. -1.
       -5    1    3    3    0  502  0.12815355958E+04 -0.11024856776E+04  0.40643475646E+02  0.16910003355E+04  0.46999998093E+01 0.  1.
</event>
<event>
 5   0  0.1933647E-07  0.3377210E+04  0.7818609E-02  0.8143523E-01
       -1   -1    0    0    0  501  0.00000000000E+00  0.00000000000E+00  0.19878160999E+04  0.19878160999E+04  0.50400001928E-02 0.  1.
        1   -1    0    0  501    0  0.00000000000E+00  0.00000000000E+00 -0.14344316416E+04  0.14344316416E+04  0.50400001928E-02 0. -1.
    10030    2    1    2    0    0  0.00000000000E+00  0.00000000000E+00  0.55338445835E+03  0.34222477415E+04  0.33772096834E+04 0.  0.
        4    1    3    3  502    0 -0.13595670357E+04  0.92564018591E+03  0.66408938271E+03  0.17737667827E+04  0.12699999809E+01 0.  1.
       -4    1    3    3    0  502  0.13595670357E+04 -0.92564018591E+03 -0.11070492435E+03  0.16484809588E+04  0.12699999809E+01 0. -1.
</event>
<event>
 5   0  0.1933647E-07  0.3391591E+04  0.7818609E-02  0.8139973E-01
       -1   -1    0    0    0  501  0.00000000000E+00  0.00000000000E+00  0.10735401110E+04  0.10735401110E+04  0.50400001928E-02 0. -1.
        1   -1    0    0  501    0  0.00000000000E+00  0.00000000000E+00 -0.26787281209E+04  0.26787281209E+04  0.50400001928E-02 0.  1.
    10030    2    1    2    0    0  0.00000000000E+00  0.00000000000E+00 -0.16051880099E+04  0.37522682320E+04  0.33915908270E+04 0.  0.
        4    1    3    3  502    0  0.11260217476E+03 -0.93791975718E+02 -0.26717088841E+04  0.26757253519E+04  0.12699999809E+01 0.  1.
       -4    1    3    3    0  502 -0.11260217476E+03  0.93791975718E+02  0.10665208743E+04  0.10765428800E+04  0.12699999809E+01 0. -1.
</event>
<event>
 5   0  0.1866421E-07  0.3482076E+04  0.7818609E-02  0.8118051E-01
        1   -1    0    0  501    0  0.00000000000E+00  0.00000000000E+00  0.19178401695E+04  0.19178401695E+04  0.50400001928E-02 0. -1.
       -1   -1    0    0    0  501  0.00000000000E+00  0.00000000000E+00 -0.15805352458E+04  0.15805352458E+04  0.50400001928E-02 0.  1.
    10030    2    1    2    0    0  0.00000000000E+00  0.00000000000E+00  0.33730492370E+03  0.34983754153E+04  0.34820763827E+04 0.  0.
        1    1    3    3  502    0  0.12874463957E+04  0.73533669558E+03  0.10855995727E+04  0.18375975375E+04  0.50400001928E-02 0. -1.
       -1    1    3    3    0  502 -0.12874463957E+04 -0.73533669558E+03 -0.74829464898E+03  0.16607778778E+04  0.50400001928E-02 0.  1.
</event>
<event>
 5   0  0.5554745E-07  0.3192735E+04  0.7818609E-02  0.8190738E-01
        2   -1    0    0  501    0  0.00000000000E+00  0.00000000000E+00  0.22121037787E+04  0.22121037787E+04  0.25500000920E-02 0. -1.
       -2   -1    0    0    0  501  0.00000000000E+00  0.00000000000E+00 -0.11520209108E+04  0.11520209108E+04  0.25500000920E-02 0.  1.
    10030    2    1    2    0    0  0.00000000000E+00  0.00000000000E+00  0.10600828679E+04  0.33641246895E+04  0.31927353851E+04 0.  0.
        5    1    3    3  502    0 -0.10538470671E+04  0.76062515511E+03 -0.44666088764E+03  0.13742897460E+04  0.46999998093E+01 0.  1.
       -5    1    3    3    0  502  0.10538470671E+04 -0.76062515511E+03  0.15067437556E+04  0.19898349435E+04  0.46999998093E+01 0. -1.
</event>
<event>
 5   0  0.5573334E-07  0.3501142E+04  0.7818609E-02  0.8113519E-01
       -2   -1    0    0    0  501  0.00000000000E+00  0.00000000000E+00  0.12434964872E+04  0.12434964872E+04  0.25500000920E-02 0.  1.
        2   -1    0    0  501    0  0.00000000000E+00  0.00000000000E+00 -0.24644212359E+04  0.24644212359E+04  0.25500000920E-02 0. -1.
    10030    2    1    2    0    0  0.00000000000E+00  0.00000000000E+00 -0.12209247487E+04  0.37079177231E+04  0.35011421849E+04 0.  0.
        4    1    3    3  502    0 -0.14431502426E+04 -0.25365775672E+03  0.40395552910E+03  0.15199363680E+04  0.12699999809E+01 0.  1.
       -4    1    3    3    0  502  0.14431502426E+04  0.25365775672E+03 -0.16248802778E+04  0.21879813551E+04  0.12699999809E+01 0. -1.
</event>
<event>
 5   0  0.5707187E-07  0.3497577E+04  0.7818609E-02  0.8114364E-01
        2   -1    0    0  501    0  0.00000000000E+00  0.00000000000E+00  0.15705361862E+04  0.15705361862E+04  0.25500000920E-02 0. -1.
       -2   -1    0    0    0  501  0.00000000000E+00  0.00000000000E+00 -0.19472722361E+04  0.19472722361E+04  0.25500000920E-02 0.  1.
    10030    2    1    2    0    0  0.00000000000E+00  0.00000000000E+00 -0.37673604988E+03  0.35178084223E+04  0.34975771678E+04 0.  0.
        1    1    3    3  502    0  0.32938086742E+02  0.17467341527E+04 -0.10983698054E+03  0.17504940103E+04  0.50400001928E-02 0. -1.
       -1    1    3    3    0  502 -0.32938086742E+02 -0.17467341527E+04 -0.26689906934E+03  0.17673144120E+04  0.50400001928E-02 0.  1.
</event>
<event>
 5   0  0.5707187E-07  0.3497150E+04  0.7818609E-02  0.8114466E-01
        2   -1    0    0  501    0  0.00000000000E+00  0.00000000000E+00  0.23370176374E+04  0.23370176374E+04  0.25500000920E-02 0.  1.
       -2   -1    0    0    0  501  0.00000000000E+00  0.00000000000E+00 -0.13082974682E+04  0.13082974682E+04  0.25500000920E-02 0. -1.
    10030    2    1    2    0    0  0.00000000000E+00  0.00000000000E+00  0.10287201692E+04  0.36453151055E+04  0.34971498441E+04 0.  0.
        1    1    3    3  502    0  0.14145392509E+04 -0.36154425016E+03 -0.48863287733E+03  0.15396095693E+04  0.50400001928E-02 0. -1.
       -1    1    3    3    0  502 -0.14145392509E+04  0.36154425016E+03  0.15173530465E+04  0.21057055362E+04  0.50400001928E-02 0.  1.
</event>
<event>
 5   0  0.1897049E-07  0.3528522E+04  0.7818609E-02  0.8107064E-01
       -1   -1    0    0    0  501  0.00000000000E+00  0.00000000000E+00  0.15174471081E+04  0.15174471081E+04  0.50400001928E-02 0. -1.
        1   -1    0    0  501    0  0.00000000000E+00  0.00000000000E+00 -0.20512194598E+04  0.20512194598E+04  0.50400001928E-02 0.  1.
    10030    2    1    2    0    0  0.00000000000E+00  0.00000000000E+00 -0.53377235171E+03  0.35686665680E+04  0.35285220915E+04 0.  0.
        2    1    3    3  502    0  0.11915028119E+03 -0.73752171449E+03  0.13495722979E+04  0.15425564678E+04  0.25500000920E-02 0. -1.
       -2    1    3    3    0  502 -0.11915028119E+03  0.73752171449E+03 -0.18833446497E+04  0.20261101002E+04  0.25500000920E-02 0.  1.
</event>
<event>
 5   0  0.1908190E-07  0.3516364E+04  0.7818609E-02  0.8109923E-01
       -1   -1    0    0    0  501  0.00000000000E+00  0.00000000000E+00  0.25362202941E+04  0.25362202941E+04  0.50400001928E-02 0. -1.
        1   -1    0    0  501    0  0.00000000000E+00  0.00000000000E+00 -0.12188228032E+04  0.12188228032E+04  0.50400001928E-02 0.  1.
    10030    2    1    2    0    0  0.00000000000E+00  0.00000000000E+00  0.13173974909E+04  0.37550430973E+04  0.35163635355E+04 0.  0.
        5    1    3    3  502    0  0.83620482236E+03 -0.68104720533E+03 -0.82411934809E+03  0.13572982689E+04  0.46999998093E+01 0.  1.
       -5    1    3    3    0  502 -0.83620482236E+03  0.68104720533E+03  0.21415168390E+04  0.23977448284E+04  0.46999998093E+01 0. -1.
</event>
<event>
 5   0  0.5554745E-07  0.3511508E+04  0.7818609E-02  0.8111068E-01
        2   -1    0    0  501    0  0.00000000000E+00  0.00000000000E+00  0.25305102000E+04  0.25305102000E+04  0.25500000920E-02 0.  1.
       -2   -1    0    0    0  501  0.00000000000E+00  0.00000000000E+00 -0.12182021306E+04  0.12182021306E+04  0.25500000920E-02 0. -1.
    10030    2    1    2    0    0  0.00000000000E+00  0.00000000000E+00  0.13123080694E+04  0.37487123306E+04  0.35115084606E+04 0.  0.
        5    1    3    3  502    0  0.61971725790E+03  0.15656758357E+04  0.11869966609E+04  0.20601877257E+04  0.46999998093E+01 0. -1.
       -5    1    3    3    0  502 -0.61971725790E+03 -0.15656758357E+04  0.12531140850E+03  0.16885246049E+04  0.46999998093E+01 0.  1.
</event>
<event>
 5   0  0.1933647E-07  0.3504370E+04  0.7818609E-02  0.8112755E-01
        1   -1    0    0  501    0  0.00000000000E+00  0.00000000000E+00  0.13300140863E+04  0.13300140863E+04  0.50400001928E-02 0.  1.
       -1   -1    0    0    0  501  0.00000000000E+00  0.00000000000E+00 -0.23083607100E+04  0.23083607100E+04  0.50400001928E-02 0. -1.
    10030    2    1    2    0    0  0.00000000000E+00  0.00000000000E+00 -0.97834662369E+03  0.36383747962E+04  0.35043699921E+04 0.  0.
        4    1    3    3  502    0  0.13366257891E+03 -0.39853698795E+03  0.12768877499E+04  0.13442995777E+04  0.12699999809E+01 0.  1.
       -4    1    3    3    0  502 -0.13366257891E+03  0.39853698795E+03 -0.22552343736E+04  0.22940752186E+04  0.12699999809E+01 0. -1.
</event>
<event>
 5   0  0.5740827E-07  0.3318925E+04  0.7818609E-02  0.8158097E-01
        2   -1    0    0  501    0  0.00000000000E+00  0.00000000000E+00  0.24494842658E+04  0.24494842658E+04  0.25500000920E-02 0.  1.
       -2   -1    0    0    0  501  0.00000000000E+00  0.00000000000E+00 -0.11242428750E+04  0.11242428750E+04  0.25500000920E-02 0. -1.
    10030    2    1    2    0    0  0.00000000000E+00  0.00000000000E+00  0.13252413908E+04  0.35737271407E+04  0.33189246651E+04 0.  0.
        2    1    3    3  502    0  0.46615007956E+03 -0.50994657238E+03  0.22872539060E+04  0.23893245560E+04  0.25500000920E-02 0.  1.
       -2    1    3    3    0  502 -0.46615007956E+03  0.50994657238E+03 -0.96201251520E+03  0.11844025847E+04  0.25500000920E-02 0. -1.
</event>
<event>
 5   0  0.1866421E-07  0.3471850E+04  0.7818609E-02  0.8120494E-01
       -1   -1    0    0    0  501  0.00000000000E+00  0.00000000000E+00  0.13484516497E+04  0.13484516497E+04  0.50400001928E-02 0. -1.
        1   -1    0    0  501    0  0.00000000000E+00  0.00000000000E+00 -0.22347373602E+04  0.22347373602E+04  0.50400001928E-02 0.  1.
    10030    2    1    2    0    0  0.00000000000E+00  0.00000000000E+00 -0.88628571050E+03  0.35831890099E+04  0.34718498124E+04 0.  0.
        1    1    3    3  502    0  0.11015840069E+04  0.31150962059E+01 -0.18277851420E+04  0.21340795565E+04  0.50400001928E-02 0.  1.
       -1    1    3    3    0  502 -0.11015840069E+04 -0.31150962059E+01  0.94149943155E+03  0.14491094534E+04  0.50400001928E-02 0. -1.
</event>
<event>
 5   0  0.5677193E-07  0.3499529E+04  0.7818609E-02  0.8113902E-01
       -2   -1    0    0    0  501  0.00000000000E+00  0.00000000000E+00  0.11592388537E+04  0.11592388537E+04  0.25500000920E-02 0.  1.
        2   -1    0    0  501    0  0.00000000000E+00  0.00000000000E+00 -0.26411089370E+04  0.26411089370E+04  0.25500000920E-02 0. -1.
    10030    2    1    2    0    0  0.00000000000E+00  0.00000000000E+00 -0.14818700833E+04  0.38003477907E+04  0.34995291664E+04 0.  0.
        3    1    3    3  502    0  0.14618076174E+04  0.72205028678E+03 -0.14307015527E+04  0.21691346362E+04  0.10100000352E+00 0. -1.
       -3    1    3    3    0  502 -0.14618076174E+04 -0.72205028678E+03 -0.51168530676E+02  0.16312131546E+04  0.10100000352E+00 0.  1.
</event>
<event>
 5   0  0.5554745E-07  0.3502307E+04  0.7818609E-02  0.8113243E-01
        2   -1    0    0  501    0  0.00000000000E+00  0.00000000000E+00  0.16237414966E+04  0.16237414966E+04  0.25500000920E-02 0.  1.
       -2   -1    0    0    0  501  0.00000000000E+00  0.00000000000E+00 -0.18885632333E+04  0.18885632333E+04  0.25500000920E-02 0. -1.
    10030    2    1    2    0    0  0.00000000000E+00  0.00000000000E+00 -0.26482173671E+03  0.35123047298E+04  0.35023069487E+04 0.  0.
        5    1    3    3  502    0 -0.44567875627E+03  0.88498657602E+03  0.13155548067E+04  0.16469782430E+04  0.46999998093E+01 0.  1.
       -5    1    3    3    0  502  0.44567875627E+03 -0.88498657602E+03 -0.15803765434E+04  0.18653264868E+04  0.46999998093E+01 0. -1.
</event>
<event>
 5   0  0.1866421E-07  0.3374570E+04  0.7818609E-02  0.8144176E-01
       -1   -1    0    0    0  501  0.00000000000E+00  0.00000000000E+00  0.21111108692E+04  0.21111108693E+04  0.50400001928E-02 0. -1.
        1   -1    0    0  501    0  0.00000000000E+00  0.00000000000E+00 -0.13485460575E+04  0.13485460575E+04  0.50400001928E-02 0.  1.
    10030    2    1    2    0    0  0.00000000000E+00  0.00000000000E+00  0.76256481172E+03  0.34596569268E+04  0.33745697443E+04 0.  0.
        1    1    3    3  502    0 -0.10761232746E+04  0.10064918129E+04  0.12241202277E+04  0.19156036656E+04  0.50400001928E-02 0.  1.
       -1    1    3    3    0  502  0.10761232746E+04 -0.10064918129E+04 -0.46155541603E+03  0.15440532612E+04  0.50400001928E-02 0. -1.
</event>
<event>
 5   0  0.1933647E-07  0.3508132E+04  0.7818609E-02  0.8111866E-01
        1   -1    0    0  501    0  0.00000000000E+00  0.00000000000E+00  0.19023802604E+04  0.19023802604E+04  0.50400001928E-02 0. -1.
       -1   -1    0    0    0  501  0.00000000000E+00  0.00000000000E+00 -0.16173142975E+04  0.16173142975E+04  0.50400001928E-02 0.  1.
    10030    2    1    2    0    0  0.00000000000E+00  0.00000000000E+00  0.28506596293E+03  0.35196945579E+04  0.35081315793E+04 0.  0.
        4    1    3    3  502    0  0.28582701774E+03  0.16913577016E+04 -0.22522288664E+03  0.17300621147E+04  0.12699999809E+01 0.  1.
       -4    1    3    3    0  502 -0.28582701774E+03 -0.16913577016E+04  0.51028884957E+03  0.17896324432E+04  0.12699999809E+01 0. -1.
</event>
<event>
 5   0  0.1823000E-07  0.3486806E+04  0.7818609E-02  0.8116924E-01
        3   -1    0    0  501    0  0.00000000000E+00  0.00000000000E+00  0.14358027105E+04  0.14358027140E+04  0.10100000352E+00 0. -1.
       -3   -1    0    0    0  501  0.00000000000E+00  0.00000000000E+00 -0.21169022161E+04  0.21169022185E+04  0.10100000352E+00 0.  1.
    10030    2    1    2    0    0  0.00000000000E+00  0.00000000000E+00 -0.68109950561E+03  0.35527049325E+04  0.34868059598E+04 0.  0.
        3    1    3    3  502    0  0.13747187990E+04 -0.97171531956E+03 -0.80229395241E+03  0.18648748041E+04  0.10100000352E+00 0.  1.
       -3    1    3    3    0  502 -0.13747187990E+04  0.97171531956E+03  0.12119444680E+03  0.16878301285E+04  0.10100000352E+00 0. -1.
</event>
<event>
 5   0  0.1908190E-07  0.3430718E+04  0.7818609E-02  0.8130408E-01
       -1   -1    0    0    0  501  0.00000000000E+00  0.00000000000E+00  0.17850373846E+04  0.17850373846E+04  0.50400001928E-02 0.  1.
        1   -1    0    0  501    0  0.00000000000E+00  0.00000000000E+00 -0.16484008853E+04  0.16484008853E+04  0.50400001928E-02 0. -1.
    10030    2    1    2    0    0  0.00000000000E+00  0.00000000000E+00  0.13663649929E+03  0.34334382699E+04  0.34307184117E+04 0.  0.
        5    1    3    3  502    0 -0.51616561329E+03  0.10400519027E+04  0.13319752936E+04  0.17670074061E+04  0.46999998093E+01 0.  1.
       -5    1    3    3    0  502  0.51616561329E+03 -0.10400519027E+04 -0.11953387943E+04  0.16664308638E+04  0.46999998093E+01 0. -1.
</event>
<event>
 5   0  0.5554745E-07  0.3498341E+04  0.7818609E-02  0.8114183E-01
        2   -1    0    0  501    0  0.00000000000E+00  0.00000000000E+00  0.17040206349E+04  0.17040206349E+04  0.25500000920E-02 0.  1.
       -2   -1    0    0    0  501  0.00000000000E+00  0.00000000000E+00 -0.17955171672E+04  0.17955171672E+04  0.25500000920E-02 0. -1.
    10030    2    1    2    0    0  0.00000000000E+00  0.00000000000E+00 -0.91496532292E+02  0.34995378020E+04  0.34983414945E+04 0.  0.
        5    1    3    3  502    0  0.25141326590E+03 -0.12926922964E+04  0.11058683301E+04  0.17196595177E+04  0.46999998093E+01 0. -1.
       -5    1    3    3    0  502 -0.25141326590E+03  0.12926922964E+04 -0.11973648624E+04  0.17798782843E+04  0.46999998093E+01 0.  1.
</event>
<event>
 5   0  0.5554745E-07  0.3508073E+04  0.7818609E-02  0.8111880E-01
       -2   -1    0    0    0  501  0.00000000000E+00  0.00000000000E+00  0.22989327791E+04  0.22989327791E+04  0.25500000920E-02 0. -1.
        2   -1    0    0  501    0  0.00000000000E+00  0.00000000000E+00 -0.13382920078E+04  0.13382920078E+04  0.25500000920E-02 0.  1.
    10030    2    1    2    0    0  0.00000000000E+00  0.00000000000E+00  0.96064077132E+03  0.36372247869E+04  0.35080726131E+04 0.  0.
        5    1    3    3  502    0 -0.15739489867E+04  0.64793930445E+03  0.91956882518E+03  0.19346239090E+04  0.46999998093E+01 0. -1.
       -5    1    3    3    0  502  0.15739489867E+04 -0.64793930445E+03  0.41071946143E+02  0.17026008780E+04  0.46999998093E+01 0.  1.
</event>
<event>
 5   0  0.5677193E-07  0.3493351E+04  0.7818609E-02  0.8115367E-01
       -2   -1    0    0    0  501  0.00000000000E+00  0.00000000000E+00  0.14323974270E+04  0.14323974270E+04  0.25500000920E-02 0.  1.
        2   -1    0    0  501    0  0.00000000000E+00  0.00000000000E+00 -0.21299082865E+04  0.21299082865E+04  0.25500000920E-02 0. -1.
    10030    2    1    2    0    0  0.00000000000E+00  0.00000000000E+00 -0.69751085945E+03  0.35623057135E+04  0.34933509124E+04 0.  0.
        3    1    3    3  502    0  0.10585437652E+04 -0.10900270310E+04  0.52976088643E+03  0.16091365505E+04  0.10100000352E+00 0.  1.
       -3    1    3    3    0  502 -0.10585437652E+04  0.10900270310E+04 -0.12272717459E+04  0.19531691630E+04  0.10100000352E+00 0. -1.
</event>
<event>
 5   0  0.5554745E-07  0.3504509E+04  0.7818609E-02  0.8112722E-01
        2   -1    0    0  501    0  0.00000000000E+00  0.00000000000E+00  0.15934553982E+04  0.15934553982E+04  0.25500000920E-02 0.  1.
       -2   -1    0    0    0  501  0.00000000000E+00  0.00000000000E+00 -0.19268786286E+04  0.19268786286E+04  0.25500000920E-02 0. -1.
    10030    2    1    2    0    0  0.00000000000E+00  0.00000000000E+00 -0.33342323040E+03  0.35203340268E+04  0.35045086117E+04 0.  0.
        5    1    3    3  502    0  0.71694993283E+03 -0.88383920350E+03 -0.15050885511E+04  0.18869294053E+04  0.46999998093E+01 0. -1.
       -5    1    3    3    0  502 -0.71694993283E+03  0.88383920350E+03  0.11716653207E+04  0.16334046215E+04  0.46999998093E+01 0.  1.
</event>
<event>
 5   0  0.1897049E-07  0.3508257E+04  0.7818609E-02  0.8111836E-01
       -1   -1    0    0    0  501  0.00000000000E+00  0.00000000000E+00  0.12502992491E+04  0.12502992491E+04  0.50400001928E-02 0. -1.
        1   -1    0    0  501    0  0.00000000000E+00  0.00000000000E+00 -0.24609840097E+04  0.24609840097E+04  0.50400001928E-02 0.  1.
    10030    2    1    2    0    0  0.00000000000E+00  0.00000000000E+00 -0.12106847606E+04  0.37112832588E+04  0.35082568090E+04 0.  0.
        2    1    3    3  502    0  0.73823783245E+03 -0.15899328899E+04 -0.53773152754E+03  0.18335858004E+04  0.25500000920E-02 0.  1.
       -2    1    3    3    0  502 -0.73823783245E+03  0.15899328899E+04 -0.67295323305E+03  0.18776974584E+04  0.25500000920E-02 0. -1.
</event>
<event>
 5   0  0.5677193E-07  0.3489134E+04  0.7818609E-02  0.8116370E-01
        2   -1    0    0  501    0  0.00000000000E+00  0.00000000000E+00  0.21321811391E+04  0.21321811391E+04  0.25500000920E-02 0. -1.
       -2   -1    0    0    0  501  0.00000000000E+00  0.00000000000E+00 -0.14274183027E+04  0.14274183027E+04  0.25500000920E-02 0.  1.
    10030    2    1    2    0    0  0.00000000000E+00  0.00000000000E+00  0.70476283643E+03  0.35595994417E+04  0.34891342092E+04 0.  0.
        3    1    3    3  502    0  0.10191524015E+04 -0.45958191390E+03 -0.10139295292E+04  0.15092846827E+04  0.10100000352E+00 0.  1.
       -3    1    3    3    0  502 -0.10191524015E+04  0.45958191390E+03  0.17186923656E+04  0.20503147590E+04  0.10100000352E+00 0. -1.
</event>
<event>
 5   0  0.5573334E-07  0.3517327E+04  0.7818609E-02  0.8109696E-01
       -2   -1    0    0    0  501  0.00000000000E+00  0.00000000000E+00  0.12431877085E+04  0.12431877085E+04  0.25500000920E-02 0. -1.
        2   -1    0    0  501    0  0.00000000000E+00  0.00000000000E+00 -0.24878760504E+04  0.24878760504E+04  0.25500000920E-02 0.  1.
    10030    2    1    2    0    0  0.00000000000E+00  0.00000000000E+00 -0.12446883420E+04  0.37310637589E+04  0.35173267838E+04 0.  0.
        4    1    3    3  502    0  0.55512980954E+03  0.17160403455E+03  0.11384260495E+04  0.12781363515E+04  0.12699999809E+01 0. -1.
       -4    1    3    3    0  502 -0.55512980954E+03 -0.17160403455E+03 -0.23831143915E+04  0.24529274074E+04  0.12699999809E+01 0.  1.
</event>
<event>
 5   0  0.5677193E-07  0.3477137E+04  0.7818609E-02  0.8119230E-01
       -2   -1    0    0    0  501  0.00000000000E+00  0.00000000000E+00  0.15346508523E+04  0.15346508523E+04  0.25500000920E-02 0.  1.
        2   -1    0    0  501    0  0.00000000000E+00  0.00000000000E+00 -0.19695817219E+04  0.19695817219E+04  0.25500000920E-02 0. -1.
    10030    2    1    2    0    0  0.00000000000E+00  0.00000000000E+00 -0.43493086963E+03  0.35042325743E+04  0.34771369074E+04 0.  0.
        3    1    3    3  502    0 -0.24300516443E+03 -0.16095453871E+04  0.39797522741E+03  0.16757303348E+04  0.10100000352E+00 0.  1.
       -3    1    3    3    0  502  0.24300516443E+03  0.16095453871E+04 -0.83290609704E+03  0.18285022395E+04  0.10100000352E+00 0. -1.
</event>
<event>
 5   0  0.1897049E-07  0.3462240E+04  0.7818609E-02  0.8122797E-01
       -1   -1    0    0    0  501  0.00000000000E+00  0.00000000000E+00  0.15023531138E+04  0.15023531139E+04  0.50400001928E-02 0.  1.
        1   -1    0    0  501    0  0.00000000000E+00  0.00000000000E+00 -0.19947223236E+04  0.19947223236E+04  0.50400001928E-02 0. -1.
    10030    2    1    2    0    0  0.00000000000E+00  0.00000000000E+00 -0.49236920971E+03  0.34970754374E+04  0.34622404851E+04 0.  0.
        2    1    3    3  502    0  0.95411405761E+03 -0.87690718050E+03  0.91317820967E+03  0.15853057373E+04  0.25500000920E-02 0.  1.
       -2    1    3    3    0  502 -0.95411405761E+03  0.87690718050E+03 -0.14055474194E+04  0.19117697001E+04  0.25500000920E-02 0. -1.
</event>
<event>
 5   0  0.5740827E-07  0.3469704E+04  0.7818609E-02  0.8121008E-01
       -2   -1    0    0    0  501  0.00000000000E+00  0.00000000000E+00  0.13408736945E+04  0.13408736945E+04  0.25500000920E-02 0.  1.
        2   -1    0    0  501    0  0.00000000000E+00  0.00000000000E+00 -0.22445894348E+04  0.22445894348E+04  0.25500000920E-02 0. -1.
    10030    2    1    2    0    0  0.00000000000E+00  0.00000000000E+00 -0.90371574027E+03  0.35854631293E+04  0.34697036923E+04 0.  0.
        2    1    3    3  502    0  0.36506930670E+03  0.26315054414E+03  0.12795068110E+04  0.13563412134E+04  0.25500000920E-02 0.  1.
       -2    1    3    3    0  502 -0.36506930670E+03 -0.26315054414E+03 -0.21832225513E+04  0.22291219159E+04  0.25500000920E-02 0. -1.
</event>
<event>
 5   0  0.1933647E-07  0.3532675E+04  0.7818609E-02  0.8106090E-01
       -1   -1    0    0    0  501  0.00000000000E+00  0.00000000000E+00  0.20906014355E+04  0.20906014355E+04  0.50400001928E-02 0.  1.
        1   -1    0    0  501    0  0.00000000000E+00  0.00000000000E+00 -0.14923689632E+04  0.14923689632E+04  0.50400001928E-02 0. -1.
    10030    2    1    2    0    0  0.00000000000E+00  0.00000000000E+00  0.59823247233E+03  0.35829703987E+04  0.35326753016E+04 0.  0.
        4    1    3    3  502    0  0.16654686144E+04 -0.49032940890E+03 -0.30687799838E+02  0.17364193010E+04  0.12699999809E+01 0.  1.
       -4    1    3    3    0  502 -0.16654686144E+04  0.49032940890E+03  0.62892027216E+03  0.18465510977E+04  0.12699999809E+01 0. -1.
</event>
<event>
 5   0  0.1933647E-07  0.3488842E+04  0.7818609E-02  0.8116439E-01
        1   -1    0    0  501    0  0.00000000000E+00  0.00000000000E+00  0.12179607541E+04  0.12179607541E+04  0.50400001928E-02 0.  1.
       -1   -1    0    0    0  501  0.00000000000E+00  0.00000000000E+00 -0.24984420578E+04  0.24984420578E+04  0.50400001928E-02 0. -1.
    10030    2    1    2    0    0  0.00000000000E+00  0.00000000000E+00 -0.12804813037E+04  0.37164028119E+04  0.34888418553E+04 0.  0.
        4    1    3    3  502    0  0.72337592287E+03 -0.12717592303E+04 -0.16521254037E+04  0.22068448582E+04  0.12699999809E+01 0. -1.
       -4    1    3    3    0  502 -0.72337592287E+03  0.12717592303E+04  0.37164410005E+03  0.15095579537E+04  0.12699999809E+01 0.  1.
</event>
<event>
 5   0  0.5573334E-07  0.3521693E+04  0.7818609E-02  0.8108668E-01
       -2   -1    0    0    0  501  0.00000000000E+00  0.00000000000E+00  0.24723436464E+04  0.24723436464E+04  0.25500000920E-02 0. -1.
        2   -1    0    0  501    0  0.00000000000E+00  0.00000000000E+00 -0.12541057163E+04  0.12541057163E+04  0.25500000920E-02 0.  1.
    10030    2    1    2    0    0  0.00000000000E+00  0.00000000000E+00  0.12182379302E+04  0.37264493627E+04  0.35216929449E+04 0.  0.
        4    1    3    3  502    0  0.14777986187E+04 -0.78828813919E+03  0.11841210049E+04  0.20512023584E+04  0.12699999809E+01 0. -1.
       -4    1    3    3    0  502 -0.14777986187E+04  0.78828813919E+03  0.34116925247E+02  0.16752470043E+04  0.12699999809E+01 0.  1.
</event>
<event>
 5   0  0.1873457E-07  0.3298193E+04  0.7818609E-02  0.8163355E-01
        1   -1    0    0  501    0  0.00000000000E+00  0.00000000000E+00  0.96794526055E+03  0.96794526056E+03  0.50400001928E-02 0.  1.
       -1   -1    0    0    0  501  0.00000000000E+00  0.00000000000E+00 -0.28095801675E+04  0.28095801675E+04  0.50400001928E-02 0. -1.
    10030    2    1    2    0    0  0.00000000000E+00  0.00000000000E+00 -0.18416349070E+04  0.37775254281E+04  0.32981933281E+04 0.  0.
        3    1    3    3  502    0 -0.10814351650E+04 -0.12349077272E+04 -0.73964970119E+03  0.18004390580E+04  0.10100000352E+00 0.  1.
       -3    1    3    3    0  502  0.10814351650E+04  0.12349077272E+04 -0.11019852058E+04  0.19770863701E+04  0.10100000352E+00 0. -1.
</event>
<event>
 5   0  0.1897049E-07  0.3492708E+04  0.7818609E-02  0.8115520E-01
        1   -1    0    0  501    0  0.00000000000E+00  0.00000000000E+00  0.14939454494E+04  0.14939454494E+04  0.50400001928E-02 0.  1.
       -1   -1    0    0    0  501  0.00000000000E+00  0.00000000000E+00 -0.20414077214E+04  0.20414077214E+04  0.50400001928E-02 0. -1.
    10030    2    1    2    0    0  0.00000000000E+00  0.00000000000E+00 -0.54746227200E+03  0.35353531708E+04  0.34927077036E+04 0.  0.
        2    1    3    3  502    0  0.77596115527E+03  0.73842632513E+03  0.11223710760E+04  0.15514850900E+04  0.25500000920E-02 0.  1.
       -2    1    3    3    0  502 -0.77596115527E+03 -0.73842632513E+03 -0.16698333480E+04  0.19838680808E+04  0.25500000920E-02 0. -1.
</event>
<event>
 5   0  0.5707187E-07  0.3498181E+04  0.7818609E-02  0.8114221E-01
        2   -1    0    0  501    0  0.00000000000E+00  0.00000000000E+00  0.14031849032E+04  0.14031849032E+04  0.25500000920E-02 0. -1.
       -2   -1    0    0    0  501  0.00000000000E+00  0.00000000000E+00 -0.21802674546E+04  0.21802674546E+04  0.25500000920E-02 0.  1.
    10030    2    1    2    0    0  0.00000000000E+00  0.00000000000E+00 -0.77708255140E+03  0.35834523579E+04  0.34981814575E+04 0.  0.
        1    1    3    3  502    0  0.54925917769E+03  0.90046982602E+03  0.10407426212E+04  0.14817816153E+04  0.50400001928E-02 0. -1.
       -1    1    3    3    0  502 -0.54925917769E+03 -0.90046982602E+03 -0.18178251726E+04  0.21016707425E+04  0.50400001928E-02 0.  1.
</event>
<event>
 5   0  0.5677193E-07  0.3517765E+04  0.7818609E-02  0.8109593E-01
        2   -1    0    0  501    0  0.00000000000E+00  0.00000000000E+00  0.20658366975E+04  0.20658366975E+04  0.25500000920E-02 0.  1.
       -2   -1    0    0    0  501  0.00000000000E+00  0.00000000000E+00 -0.14975374393E+04  0.14975374393E+04  0.25500000920E-02 0. -1.
    10030    2    1    2    0    0  0.00000000000E+00  0.00000000000E+00  0.56829925824E+03  0.35633741368E+04  0.35177650849E+04 0.  0.
        3    1    3    3  502    0 -0.77501136748E+03  0.14062041854E+04 -0.44322365044E+03  0.16656830567E+04  0.10100000352E+00 0. -1.
       -3    1    3    3    0  502  0.77501136748E+03 -0.14062041854E+04  0.10115229087E+04  0.18976910802E+04  0.10100000352E+00 0.  1.
</event>
<event>
 5   0  0.5573334E-07  0.3492472E+04  0.7818609E-02  0.8115576E-01
        2   -1    0    0  501    0  0.00000000000E+00  0.00000000000E+00  0.24280151119E+04  0.24280151119E+04  0.25500000920E-02 0.  1.
       -2   -1    0    0    0  501  0.00000000000E+00  0.00000000000E+00 -0.12558983794E+04  0.12558983794E+04  0.25500000920E-02 0. -1.
    10030    2    1    2    0    0  0.00000000000E+00  0.00000000000E+00  0.11721167326E+04  0.36839134913E+04  0.34924720438E+04 0.  0.
        4    1    3    3  502    0 -0.12502465389E+04 -0.11094233809E+04  0.11191337387E+04  0.20115662018E+04  0.12699999809E+01 0.  1.
       -4    1    3    3    0  502  0.12502465389E+04  0.11094233809E+04  0.52982993901E+02  0.16723472895E+04  0.12699999809E+01 0. -1.
</event>
<event>
 5   0  0.1866421E-07  0.3533284E+04  0.7818609E-02  0.8105947E-01
       -1   -1    0    0    0  501  0.00000000000E+00  0.00000000000E+00  0.28525847587E+04  0.28525847587E+04  0.50400001928E-02 0. -1.
        1   -1    0    0  501    0  0.00000000000E+00  0.00000000000E+00 -0.10941038749E+04  0.10941038749E+04  0.50400001928E-02 0.  1.
    10030    2    1    2    0    0  0.00000000000E+00  0.00000000000E+00  0.17584808838E+04  0.39466886336E+04  0.35332840463E+04 0.  0.
        1    1    3    3  502    0 -0.42759626996E+03 -0.10441148317E+04  0.23977112039E+04  0.26499119550E+04  0.50400001928E-02 0. -1.
       -1    1    3    3    0  502  0.42759626996E+03  0.10441148317E+04 -0.63923032007E+03  0.12967766786E+04  0.50400001928E-02 0.  1.
</event>
<event>
 5   0  0.5573334E-07  0.3510964E+04  0.7818609E-02  0.8111197E-01
        2   -1    0    0  501    0  0.00000000000E+00  0.00000000000E+00  0.25191669089E+04  0.25191669089E+04  0.25500000920E-02 0.  1.
       -2   -1    0    0    0  501  0.00000000000E+00  0.00000000000E+00 -0.12233077527E+04  0.12233077527E+04  0.25500000920E-02 0. -1.
    10030    2    1    2    0    0  0.00000000000E+00  0.00000000000E+00  0.12958591562E+04  0.37424746616E+04  0.35109636341E+04 0.  0.
        4    1    3    3  502    0  0.14815855837E+04  0.85568495623E+03  0.10668074522E+04  0.20162768508E+04  0.12699999809E+01 0.  1.
       -4    1    3    3    0  502 -0.14815855837E+04 -0.85568495623E+03  0.22905170405E+03  0.17261978108E+04  0.12699999809E+01 0. -1.
</event>
<event>
 5   0  0.1873457E-07  0.3489024E+04  0.7818609E-02  0.8116396E-01
        1   -1    0    0  501    0  0.00000000000E+00  0.00000000000E+00  0.23508527825E+04  0.23508527826E+04  0.50400001928E-02 0.  1.
       -1   -1    0    0    0  501  0.00000000000E+00  0.00000000000E+00 -0.12945609148E+04  0.12945609148E+04  0.50400001928E-02 0. -1.
    10030    2    1    2    0    0  0.00000000000E+00  0.00000000000E+00  0.10562918677E+04  0.36454136974E+04  0.34890240061E+04 0.  0.
        3    1    3    3  502    0 -0.28601957319E+03  0.76107666280E+03 -0.10844999553E+04  0.13554279937E+04  0.10100000352E+00 0. -1.
       -3    1    3    3    0  502  0.28601957319E+03 -0.76107666280E+03  0.21407918231E+04  0.22899857036E+04  0.10100000352E+00 0.  1.
</event>
<event>
 5   0  0.5677193E-07  0.3512367E+04  0.7818609E-02  0.8110865E-01
       -2   -1    0    0    0  501  0.00000000000E+00  0.00000000000E+00  0.29695534505E+04  0.29695534505E+04  0.25500000920E-02 0. -1.
        2   -1    0    0  501    0  0.00000000000E+00  0.00000000000E+00 -0.10386008373E+04  0.10386008373E+04  0.25500000920E-02 0.  1.
    10030    2    1    2    0    0  0.00000000000E+00  0.00000000000E+00  0.19309526132E+04  0.40081542879E+04  0.35123671222E+04 0.  0.
        3    1    3    3  502    0 -0.78519538307E+03 -0.73282276055E+03  0.25510735948E+04  0.27679482445E+04  0.10100000352E+00 0. -1.
       -3    1    3    3    0  502  0.78519538307E+03  0.73282276055E+03 -0.62012098159E+03  0.12402060434E+04  0.10100000352E+00 0.  1.
</event>
<event>
 5   0  0.5677193E-07  0.3502546E+04  0.7818609E-02  0.8113187E-01
       -2   -1    0    0    0  501  0.00000000000E+00  0.00000000000E+00  0.13367732732E+04  0.13367732732E+04  0.25500000920E-02 0. -1.
        2   -1    0    0  501    0  0.00000000000E+00  0.00000000000E+00 -0.22942980702E+04  0.22942980702E+04  0.25500000920E-02 0.  1.
    10030    2    1    2    0    0  0.00000000000E+00  0.00000000000E+00 -0.95752479693E+03  0.36310713434E+04  0.35025455549E+04 0.  0.
        3    1    3    3  502    0  0.99733585885E+03 -0.14176973158E+04 -0.21977151966E+03  0.17472389721E+04  0.10100000352E+00 0. -1.
       -3    1    3    3    0  502 -0.99733585885E+03  0.14176973158E+04 -0.73775327727E+03  0.18838323713E+04  0.10100000352E+00 0.  1.
</event>
<event>
 5   0  0.1866421E-07  0.3505751E+04  0.7818609E-02  0.8112428E-01
        1   -1    0    0  501    0  0.00000000000E+00  0.00000000000E+00  0.16324902824E+04  0.16324902824E+04  0.50400001928E-02 0. -1.
       -1   -1    0    0    0  501  0.00000000000E+00  0.00000000000E+00 -0.18821378767E+04  0.18821378767E+04  0.50400001928E-02 0.  1.
    10030    2    1    2    0    0  0.00000000000E+00  0.00000000000E+00 -0.24964759438E+03  0.35146281591E+04  0.35057505866E+04 0.  0.
        1    1    3    3  502    0  0.16367963220E+04 -0.60426925108E+03  0.43912442310E+02  0.17453285737E+04  0.50400001928E-02 0.  1.
       -1    1    3    3    0  502 -0.16367963220E+04  0.60426925108E+03 -0.29356003669E+03  0.17692995854E+04  0.50400001928E-02 0. -1.
</event>
<event>
 5   0  0.1866421E-07  0.3480628E+04  0.7818609E-02  0.8118396E-01
       -1   -1    0    0    0  501  0.00000000000E+00  0.00000000000E+00  0.15468131715E+04  0.15468131715E+04  0.50400001928E-02 0.  1.
        1   -1    0    0  501    0  0.00000000000E+00  0.00000000000E+00 -0.19580208104E+04  0.19580208104E+04  0.50400001928E-02 0. -1.
    10030    2    1    2    0    0  0.00000000000E+00  0.00000000000E+00 -0.41120763889E+03  0.35048339819E+04  0.34806277478E+04 0.  0.
        1    1    3    3  502    0 -0.12248903261E+04  0.32485112059E+03 -0.14067144046E+04  0.18933383157E+04  0.50400001928E-02 0. -1.
       -1    1    3    3    0  502  0.12248903261E+04 -0.32485112059E+03  0.99550676570E+03  0.16114956662E+04  0.50400001928E-02 0.  1.
</event>
<event>
 5   0  0.5707187E-07  0.3510989E+04  0.7818609E-02  0.8111191E-01
       -2   -1    0    0    0  501  0.00000000000E+00  0.00000000000E+00  0.17376399808E+04  0.17376399808E+04  0.25500000920E-02 0.  1.
        2   -1    0    0  501    0  0.00000000000E+00  0.00000000000E+00 -0.17735328829E+04  0.17735328829E+04  0.25500000920E-02 0. -1.
    10030    2    1    2    0    0  0.00000000000E+00  0.00000000000E+00 -0.35892902041E+02  0.35111728637E+04  0.35109894016E+04 0.  0.
        1    1    3    3  502    0 -0.30203496755E+03 -0.16701812085E+04 -0.46633496948E+03  0.17601700755E+04  0.50400001928E-02 0. -1.
       -1    1    3    3    0  502  0.30203496755E+03  0.16701812085E+04  0.43044206744E+03  0.17510027882E+04  0.50400001928E-02 0.  1.
</event>
<event>
 5   0  0.1933647E-07  0.3483578E+04  0.7818609E-02  0.8117693E-01
       -1   -1    0    0    0  501  0.00000000000E+00  0.00000000000E+00  0.23651314723E+04  0.23651314723E+04  0.50400001928E-02 0. -1.
        1   -1    0    0  501    0  0.00000000000E+00  0.00000000000E+00 -0.12827315549E+04  0.12827315550E+04  0.50400001928E-02 0.  1.
    10030    2    1    2    0    0  0.00000000000E+00  0.00000000000E+00  0.10823999174E+04  0.36478630273E+04  0.34835779143E+04 0.  0.
        4    1    3    3  502    0  0.13926102429E+04  0.98153914346E+03  0.92027296221E+03  0.19364106787E+04  0.12699999809E+01 0.  1.
       -4    1    3    3    0  502 -0.13926102429E+04 -0.98153914346E+03  0.16212695517E+03  0.17114523485E+04  0.12699999809E+01 0. -1.
</event>
<event>
 5   0  0.5554745E-07  0.3493398E+04  0.7818609E-02  0.8115356E-01
        2   -1    0    0  501    0  0.00000000000E+00  0.00000000000E+00  0.20385138040E+04  0.20385138040E+04  0.25500000920E-02 0. -1.
       -2   -1    0    0    0  501  0.00000000000E+00  0.00000000000E+00 -0.14966575920E+04  0.14966575920E+04  0.25500000920E-02 0.  1.
    10030    2    1    2    0    0  0.00000000000E+00  0.00000000000E+00  0.54185621203E+03  0.35351713960E+04  0.34933978652E+04 0.  0.
        5    1    3    3  502    0 -0.89678843786E+03 -0.76930932380E+03  0.15727279026E+04  0.19671200989E+04  0.46999998093E+01 0. -1.
       -5    1    3    3    0  502  0.89678843786E+03  0.76930932380E+03 -0.10308716905E+04  0.15680512971E+04  0.46999998093E+01 0.  1.
</event>
<event>
 5   0  0.1897049E-07  0.3483885E+04  0.7818609E-02  0.8117620E-01
       -1   -1    0    0    0  501  0.00000000000E+00  0.00000000000E+00  0.20331811859E+04  0.20331811859E+04  0.50400001928E-02 0. -1.
        1   -1    0    0  501    0  0.00000000000E+00  0.00000000000E+00 -0.14924220075E+04  0.14924220075E+04  0.50400001928E-02 0.  1.
    10030    2    1    2    0    0  0.00000000000E+00  0.00000000000E+00  0.54075917843E+03  0.35256031934E+04  0.34838853868E+04 0.  0.
        2    1    3    3  502    0 -0.95158845309E+03 -0.13825945625E+04 -0.20133085177E+03  0.16904503602E+04  0.25500000920E-02 0. -1.
       -2    1    3    3    0  502  0.95158845309E+03  0.13825945625E+04  0.74209003020E+03  0.18351528332E+04  0.25500000920E-02 0.  1.
</event>
<event>
 5   0  0.1908190E-07  0.3473584E+04  0.7818609E-02  0.8120079E-01
       -1   -1    0    0    0  501  0.00000000000E+00  0.00000000000E+00  0.12564592184E+04  0.12564592185E+04  0.50400001928E-02 0. -1.
        1   -1    0    0  501    0  0.00000000000E+00  0.00000000000E+00 -0.24007515136E+04  0.24007515136E+04  0.50400001928E-02 0.  1.
    10030    2    1    2    0    0  0.00000000000E+00  0.00000000000E+00 -0.11442922952E+04  0.36572107321E+04  0.34735839535E+04 0.  0.
        5    1    3    3  502    0  0.11503292453E+04  0.12014275024E+04 -0.45989269486E+02  0.16639779202E+04  0.46999998093E+01 0. -1.
       -5    1    3    3    0  502 -0.11503292453E+04 -0.12014275024E+04 -0.10983030257E+04  0.19932328119E+04  0.46999998093E+01 0.  1.
</event>
<event>
 5   0  0.1866421E-07  0.3470194E+04  0.7818609E-02  0.8120890E-01
       -1   -1    0    0    0  501  0.00000000000E+00  0.00000000000E+00  0.19962974493E+04  0.19962974493E+04  0.50400001928E-02 0. -1.
        1   -1    0    0  501    0  0.00000000000E+00  0.00000000000E+00 -0.15080729733E+04  0.15080729733E+04  0.50400001928E-02 0.  1.
    10030    2    1    2    0    0  0.00000000000E+00  0.00000000000E+00  0.48822447594E+03  0.35043704226E+04  0.34701943634E+04 0.  0.
        1    1    3    3  502    0  0.11584987186E+04 -0.29400934818E+03 -0.10260513104E+04  0.15752276246E+04  0.50400001928E-02 0.  1.
       -1    1    3    3    0  502 -0.11584987186E+04  0.29400934818E+03  0.15142757864E+04  0.19291427980E+04  0.50400001928E-02 0. -1.
</event>
<event>
 5   0  0.5554745E-07  0.3511004E+04  0.7818609E-02  0.8111187E-01
       -2   -1    0    0    0  501  0.00000000000E+00  0.00000000000E+00  0.10466026811E+04  0.10466026811E+04  0.25500000920E-02 0.  1.
        2   -1    0    0  501    0  0.00000000000E+00  0.00000000000E+00 -0.29445621439E+04  0.29445621439E+04  0.25500000920E-02 0. -1.
    10030    2    1    2    0    0  0.00000000000E+00  0.00000000000E+00 -0.18979594628E+04  0.39911648250E+04  0.35110036369E+04 0.  0.
        5    1    3    3  502    0 -0.16962504498E+04 -0.38239246589E+03 -0.67456376924E+03  0.18650865811E+04  0.46999998093E+01 0.  1.
       -5    1    3    3    0  502  0.16962504498E+04  0.38239246589E+03 -0.12233956936E+04  0.21260782439E+04  0.46999998093E+01 0. -1.
</event>
<event>
 5   0  0.1897049E-07  0.3493753E+04  0.7818609E-02  0.8115272E-01
       -1   -1    0    0    0  501  0.00000000000E+00  0.00000000000E+00  0.17449718691E+04  0.17449718691E+04  0.50400001928E-02 0. -1.
        1   -1    0    0  501    0  0.00000000000E+00  0.00000000000E+00 -0.17487836495E+04  0.17487836495E+04  0.50400001928E-02 0.  1.
    10030    2    1    2    0    0  0.00000000000E+00  0.00000000000E+00 -0.38117803921E+01  0.34937555186E+04  0.34937534393E+04 0.  0.
        2    1    3    3  502    0 -0.61046023128E+03  0.61576432551E+03  0.15145879649E+04  0.17452232241E+04  0.25500000920E-02 0. -1.
       -2    1    3    3    0  502  0.61046023128E+03 -0.61576432551E+03 -0.15183997453E+04  0.17485322945E+04  0.25500000920E-02 0.  1.
</event>
<event>
 5   0  0.1873457E-07  0.3500932E+04  0.7818609E-02  0.8113569E-01
        1   -1    0    0  501    0  0.00000000000E+00  0.00000000000E+00  0.18607182800E+04  0.18607182800E+04  0.50400001928E-02 0. -1.
       -1   -1    0    0    0  501  0.00000000000E+00  0.00000000000E+00 -0.16467464033E+04  0.16467464033E+04  0.50400001928E-02 0.  1.
    10030    2    1    2    0    0  0.00000000000E+00  0.00000000000E+00  0.21397187670E+03  0.35074646833E+04  0.35009319531E+04 0.  0.
        3    1    3    3  502    0  0.16866325735E+03 -0.96437856363E+03 -0.13468102828E+04  0.16650439203E+04  0.10100000352E+00 0.  1.
       -3    1    3    3    0  502 -0.16866325735E+03  0.96437856363E+03  0.15607821595E+04  0.18424207630E+04  0.10100000352E+00 0. -1.
</event>
<event>
 5   0  0.5677193E-07  0.3521662E+04  0.7818609E-02  0.8108675E-01
       -2   -1    0    0    0  501  0.00000000000E+00  0.00000000000E+00  0.18224642881E+04  0.18224642881E+04  0.25500000920E-02 0. -1.
        2   -1    0    0  501    0  0.00000000000E+00  0.00000000000E+00 -0.17012824296E+04  0.17012824296E+04  0.25500000920E-02 0.  1.
    10030    2    1    2    0    0  0.00000000000E+00  0.00000000000E+00  0.12118185848E+03  0.35237467178E+04  0.35216623757E+04 0.  0.
        3    1    3    3  502    0 -0.57298454838E+03 -0.12626212224E+04 -0.10254098366E+04  0.17245257282E+04  0.10100000352E+00 0.  1.
       -3    1    3    3    0  502  0.57298454838E+03  0.12626212224E+04  0.11465916951E+04  0.17992209896E+04  0.10100000352E+00 0. -1.
</event>
<event>
 5   0  0.5554745E-07  0.3514585E+04  0.7818609E-02  0.8110342E-01
       -2   -1    0    0    0  501  0.00000000000E+00  0.00000000000E+00  0.12484506578E+04  0.12484506578E+04  0.25500000920E-02 0.  1.
        2   -1    0    0  501    0  0.00000000000E+00  0.00000000000E+00 -0.24735276569E+04  0.24735276569E+04  0.25500000920E-02 0. -1.
    10030    2    1    2    0    0  0.00000000000E+00  0.00000000000E+00 -0.12250769991E+04  0.37219783147E+04  0.35145851706E+04 0.  0.
        5    1    3    3  502    0  0.11296554341E+04 -0.11920218831E+04  0.49674806478E+02  0.16430238117E+04  0.46999998093E+01 0.  1.
       -5    1    3    3    0  502 -0.11296554341E+04  0.11920218831E+04 -0.12747518056E+04  0.20789545030E+04  0.46999998093E+01 0. -1.
</event>
<event>
 5   0  0.5707187E-07  0.3599953E+04  0.7818609E-02  0.8090502E-01
       -2   -1    0    0    0  501  0.00000000000E+00  0.00000000000E+00  0.12534564402E+04  0.12534564402E+04  0.25500000920E-02 0.  1.
        2   -1    0    0  501    0  0.00000000000E+00  0.00000000000E+00 -0.25847849731E+04  0.25847849731E+04  0.25500000920E-02 0. -1.
    10030    2    1    2    0    0  0.00000000000E+00  0.00000000000E+00 -0.13313285329E+04  0.38382414133E+04  0.35999529836E+04 0.  0.
        1    1    3    3  502    0  0.33733897911E+03 -0.57134922970E+03  0.11183137085E+04  0.13003319114E+04  0.50400001928E-02 0.  1.
       -1    1    3    3    0  502 -0.33733897911E+03  0.57134922970E+03 -0.24496422414E+04  0.25379095019E+04  0.50400001928E-02 0. -1.
</event>
<event>
 5   0  0.1933647E-07  0.3431634E+04  0.7818609E-02  0.8130186E-01
       -1   -1    0    0    0  501  0.00000000000E+00  0.00000000000E+00  0.17361458556E+04  0.17361458556E+04  0.50400001928E-02 0. -1.
        1   -1    0    0  501    0  0.00000000000E+00  0.00000000000E+00 -0.16957262360E+04  0.16957262360E+04  0.50400001928E-02 0.  1.
    10030    2    1    2    0    0  0.00000000000E+00  0.00000000000E+00  0.40419619664E+02  0.34318720916E+04  0.34316340579E+04 0.  0.
        4    1    3    3  502    0 -0.16932902448E+04  0.27450352994E+03  0.58191686090E+02  0.17163833856E+04  0.12699999809E+01 0. -1.
       -4    1    3    3    0  502  0.16932902448E+04 -0.27450352994E+03 -0.17772066426E+02  0.17154887060E+04  0.12699999809E+01 0.  1.
</event>
<event>
 5   0  0.1908190E-07  0.3506096E+04  0.7818609E-02  0.8112347E-01
        1   -1    0    0  501    0  0.00000000000E+00  0.00000000000E+00  0.16635380546E+04  0.16635380546E+04  0.50400001928E-02 0. -1.
       -1   -1    0    0    0  501  0.00000000000E+00  0.00000000000E+00 -0.18473745164E+04  0.18473745164E+04  0.50400001928E-02 0.  1.
    10030    2    1    2    0    0  0.00000000000E+00  0.00000000000E+00 -0.18383646183E+03  0.35109125710E+04  0.35060962959E+04 0.  0.
        5    1    3    3  502    0  0.82701643972E+03  0.94904745375E+03 -0.13136386380E+04  0.18194273336E+04  0.46999998093E+01 0. -1.
       -5    1    3    3    0  502 -0.82701643972E+03 -0.94904745375E+03  0.11298021762E+04  0.16914852374E+04  0.46999998093E+01 0.  1.
</event>
<event>
 5   0  0.1873457E-07  0.3667629E+04  0.7818609E-02  0.8075174E-01
       -1   -1    0    0    0  501  0.00000000000E+00  0.00000000000E+00  0.13800736527E+04  0.13800736527E+04  0.50400001928E-02 0.  1.
        1   -1    0    0  501    0  0.00000000000E+00  0.00000000000E+00 -0.24367366760E+04  0.24367366760E+04  0.50400001928E-02 0. -1.
    10030    2    1    2    0    0  0.00000000000E+00  0.00000000000E+00 -0.10566630234E+04  0.38168103287E+04  0.36676292534E+04 0.  0.
        3    1    3    3  502    0 -0.10292992611E+04 -0.19914573832E+03 -0.20941100983E+04  0.23418823856E+04  0.10100000352E+00 0. -1.
       -3    1    3    3    0  502  0.10292992611E+04  0.19914573832E+03  0.10374470749E+04  0.14749279431E+04  0.10100000352E+00 0.  1.
</event>
<event>
 5   0  0.5740827E-07  0.3492786E+04  0.7818609E-02  0.8115502E-01
       -2   -1    0    0    0  501  0.00000000000E+00  0.00000000000E+00  0.13083813502E+04  0.13083813502E+04  0.25500000920E-02 0.  1.
        2   -1    0    0  501    0  0.00000000000E+00  0.00000000000E+00 -0.23310389183E+04  0.23310389184E+04  0.25500000920E-02 0. -1.
    10030    2    1    2    0    0  0.00000000000E+00  0.00000000000E+00 -0.10226575681E+04  0.36394202686E+04  0.34927856203E+04 0.  0.
        2    1    3    3  502    0  0.23598718458E+03 -0.73264857679E+03 -0.21447580146E+04  0.22786949839E+04  0.25500000920E-02 0. -1.
       -2    1    3    3    0  502 -0.23598718458E+03  0.73264857679E+03  0.11221004465E+04  0.13607252847E+04  0.25500000920E-02 0.  1.
</event>
<event>
 5   0  0.1873457E-07  0.3538209E+04  0.7818609E-02  0.8104794E-01
        1   -1    0    0  501    0  0.00000000000E+00  0.00000000000E+00  0.20741155507E+04  0.20741155507E+04  0.50400001928E-02 0. -1.
       -1   -1    0    0    0  501  0.00000000000E+00  0.00000000000E+00 -0.15089469263E+04  0.15089469263E+04  0.50400001928E-02 0.  1.
    10030    2    1    2    0    0  0.00000000000E+00  0.00000000000E+00  0.56516862448E+03  0.35830624770E+04  0.35382087474E+04 0.  0.
        3    1    3    3  502    0  0.13003325180E+04 -0.58132537071E+03  0.13451360312E+04  0.19591311331E+04  0.10100000352E+00 0. -1.
       -3    1    3    3    0  502 -0.13003325180E+04  0.58132537071E+03 -0.77996740673E+03  0.16239313439E+04  0.10100000352E+00 0.  1.
</event>
<event>
 5   0  0.1897049E-07  0.3427366E+04  0.7818609E-02  0.8131222E-01
        1   -1    0    0  501    0  0.00000000000E+00  0.00000000000E+00  0.21053809837E+04  0.21053809837E+04  0.50400001928E-02 0. -1.
       -1   -1    0    0    0  501  0.00000000000E+00  0.00000000000E+00 -0.13948586772E+04  0.13948586772E+04  0.50400001928E-02 0.  1.
    10030    2    1    2    0    0  0.00000000000E+00  0.00000000000E+00  0.71052230656E+03  0.35002396609E+04  0.34273657138E+04 0.  0.
        2    1    3    3  502    0  0.16310172135E+04  0.18984884661E+03 -0.14552118145E+03  0.16484647857E+04  0.25500000920E-02 0. -1.
       -2    1    3    3    0  502 -0.16310172135E+04 -0.18984884661E+03  0.85604348800E+03  0.18517748753E+04  0.25500000920E-02 0.  1.
</event>
<event>
 5   0  0.1933647E-07  0.3796900E+04  0.7818609E-02  0.8046821E-01
       -1   -1    0    0    0  501  0.00000000000E+00  0.00000000000E+00  0.22133121087E+04  0.22133121087E+04  0.50400001928E-02 0.  1.
        1   -1    0    0  501    0  0.00000000000E+00  0.00000000000E+00 -0.16283792279E+04  0.16283792280E+04  0.50400001928E-02 0. -1.
    10030    2    1    2    0    0  0.00000000000E+00  0.00000000000E+00  0.58493288071E+03  0.38416913366E+04  0.37968995050E+04 0.  0.
        4    1    3    3  502    0 -0.11483510283E+04 -0.79261970216E+01 -0.12371004904E+04  0.16879550187E+04  0.12699999809E+01 0. -1.
       -4    1    3    3    0  502  0.11483510283E+04  0.79261970216E+01  0.18220333711E+04  0.21537363179E+04  0.12699999809E+01 0.  1.
</event>
<event>
 5   0  0.5707187E-07  0.3478837E+04  0.7818609E-02  0.8118824E-01
        2   -1    0    0  501    0  0.00000000000E+00  0.00000000000E+00  0.20151860729E+04  0.20151860729E+04  0.25500000920E-02 0. -1.
       -2   -1    0    0    0  501  0.00000000000E+00  0.00000000000E+00 -0.15013882924E+04  0.15013882924E+04  0.25500000920E-02 0.  1.
    10030    2    1    2    0    0  0.00000000000E+00  0.00000000000E+00  0.51379778046E+03  0.35165743653E+04  0.34788370337E+04 0.  0.
        1    1    3    3  502    0  0.14359201420E+03 -0.14825234565E+04 -0.65122402718E+03  0.16256036415E+04  0.50400001928E-02 0.  1.
       -1    1    3    3    0  502 -0.14359201420E+03  0.14825234565E+04  0.11650218076E+04  0.18909707237E+04  0.50400001928E-02 0. -1.
</event>
<event>
 5   0  0.5677193E-07  0.3472410E+04  0.7818609E-02  0.8120360E-01
        2   -1    0    0  501    0  0.00000000000E+00  0.00000000000E+00  0.23257705030E+04  0.23257705030E+04  0.25500000920E-02 0. -1.
       -2   -1    0    0    0  501  0.00000000000E+00  0.00000000000E+00 -0.12960898873E+04  0.12960898873E+04  0.25500000920E-02 0.  1.
    10030    2    1    2    0    0  0.00000000000E+00  0.00000000000E+00  0.10296806156E+04  0.36218603903E+04  0.34724099004E+04 0.  0.
        3    1    3    3  502    0  0.26020366896E+03  0.88012935011E+02 -0.12732819833E+04  0.13025740844E+04  0.10100000352E+00 0.  1.
       -3    1    3    3    0  502 -0.26020366896E+03 -0.88012935011E+02  0.23029625990E+04  0.23192863059E+04  0.10100000352E+00 0. -1.
</event>
<event>
 5   0  0.1897049E-07  0.3507134E+04  0.7818609E-02  0.8112101E-01
        1   -1    0    0  501    0  0.00000000000E+00  0.00000000000E+00  0.10275950388E+04  0.10275950388E+04  0.50400001928E-02 0. -1.
       -1   -1    0    0    0  501  0.00000000000E+00  0.00000000000E+00 -0.29924213994E+04  0.29924213994E+04  0.50400001928E-02 0.  1.
    10030    2    1    2    0    0  0.00000000000E+00  0.00000000000E+00 -0.19648263606E+04  0.40200164382E+04  0.35071340916E+04 0.  0.
        2    1    3    3  502    0 -0.10531365774E+04  0.70417356719E+03 -0.23721740562E+04  0.26892688256E+04  0.25500000920E-02 0.  1.
       -2    1    3    3    0  502  0.10531365774E+04 -0.70417356719E+03  0.40734769559E+03  0.13307476126E+04  0.25500000920E-02 0. -1.
</event>
<event>
 5   0  0.1908190E-07  0.3579838E+04  0.7818609E-02  0.8095126E-01
        1   -1    0    0  501    0  0.00000000000E+00  0.00000000000E+00  0.13445545313E+04  0.13445545313E+04  0.50400001928E-02 0. -1.
       -1   -1    0    0    0  501  0.00000000000E+00  0.00000000000E+00 -0.23828046672E+04  0.23828046672E+04  0.50400001928E-02 0.  1.
    10030    2    1    2    0    0  0.00000000000E+00  0.00000000000E+00 -0.10382501359E+04  0.37273591986E+04  0.35798384392E+04 0.  0.
        5    1    3    3  502    0  0.56282461615E+03  0.81975051355E+03  0.10305022380E+04  0.14320333116E+04  0.46999998093E+01 0. -1.
       -5    1    3    3    0  502 -0.56282461615E+03 -0.81975051355E+03 -0.20687523739E+04  0.22953258870E+04  0.46999998093E+01 0.  1.
</event>
<event>
 5   0  0.5554745E-07  0.3496181E+04  0.7818609E-02  0.8114696E-01
        2   -1    0    0  501    0  0.00000000000E+00  0.00000000000E+00  0.15863017119E+04  0.15863017120E+04  0.25500000920E-02 0.  1.
       -2   -1    0    0    0  501  0.00000000000E+00  0.00000000000E+00 -0.19263803075E+04  0.19263803075E+04  0.25500000920E-02 0. -1.
    10030    2    1    2    0    0  0.00000000000E+00  0.00000000000E+00 -0.34007859556E+03  0.35126820195E+04  0.34961809906E+04 0.  0.
        5    1    3    3  502    0  0.32217274935E+03 -0.15585654128E+04 -0.89655439436E+03  0.18266782143E+04  0.46999998093E+01 0. -1.
       -5    1    3    3    0  502 -0.32217274935E+03  0.15585654128E+04  0.55647579880E+03  0.16860038052E+04  0.46999998093E+01 0.  1.
</event>
<event>
 5   0  0.5707187E-07  0.3467890E+04  0.7818609E-02  0.8121442E-01
        2   -1    0    0  501    0  0.00000000000E+00  0.00000000000E+00  0.20170796239E+04  0.20170796239E+04  0.25500000920E-02 0. -1.
       -2   -1    0    0    0  501  0.00000000000E+00  0.00000000000E+00 -0.14905537766E+04  0.14905537766E+04  0.25500000920E-02 0.  1.
    10030    2    1    2    0    0  0.00000000000E+00  0.00000000000E+00  0.52652584727E+03  0.35076334005E+04  0.34678902238E+04 0.  0.
        1    1    3    3  502    0  0.17164150276E+04 -0.18803557871E+03  0.42359685588E+03  0.17778841982E+04  0.50400001928E-02 0. -1.
       -1    1    3    3    0  502 -0.17164150276E+04  0.18803557871E+03  0.10292899139E+03  0.17297492024E+04  0.50400001928E-02 0.  1.
</event>
<event>
 5   0  0.1823000E-07  0.3489985E+04  0.7818609E-02  0.8116168E-01
       -3   -1    0    0    0  501  0.00000000000E+00  0.00000000000E+00  0.13513043641E+04  0.13513043679E+04  0.10100000352E+00 0.  1.
        3   -1    0    0  501    0  0.00000000000E+00  0.00000000000E+00 -0.22533771290E+04  0.22533771312E+04  0.10100000352E+00 0. -1.
    10030    2    1    2    0    0  0.00000000000E+00  0.00000000000E+00 -0.90207276488E+03  0.36046814991E+04  0.34899847330E+04 0.  0.
        3    1    3    3  502    0 -0.45246913310E+03  0.15726871912E+04  0.17461446956E+03  0.16457714121E+04  0.10100000352E+00 0.  1.
       -3    1    3    3    0  502  0.45246913310E+03 -0.15726871912E+04 -0.10766872344E+04  0.19589100870E+04  0.10100000352E+00 0. -1.
</event>
<event>
 5   0  0.1933647E-07  0.3519405E+04  0.7818609E-02  0.8109207E-01
       -1   -1    0    0    0  501  0.00000000000E+00  0.00000000000E+00  0.23374373921E+04  0.23374373921E+04  0.50400001928E-02 0. -1.
        1   -1    0    0  501    0  0.00000000000E+00  0.00000000000E+00 -0.13247640008E+04  0.13247640008E+04  0.50400001928E-02 0.  1.
    10030    2    1    2    0    0  0.00000000000E+00  0.00000000000E+00  0.10126733914E+04  0.36622013929E+04  0.35194050129E+04 0.  0.
        4    1    3    3  502    0 -0.14517048892E+02  0.30119519552E+02 -0.13244329582E+04  0.13248555408E+04  0.12699999809E+01 0.  1.
       -4    1    3    3    0  502  0.14517048892E+02 -0.30119519552E+02  0.23371063496E+04  0.23373458521E+04  0.12699999809E+01 0. -1.
</event>
<event>
 5   0  0.5573334E-07  0.3526846E+04  0.7818609E-02  0.8107457E-01
        2   -1    0    0  501    0  0.00000000000E+00  0.00000000000E+00  0.21839155186E+04  0.21839155187E+04  0.25500000920E-02 0. -1.
       -2   -1    0    0    0  501  0.00000000000E+00  0.00000000000E+00 -0.14238920176E+04  0.14238920176E+04  0.25500000920E-02 0.  1.
    10030    2    1    2    0    0  0.00000000000E+00  0.00000000000E+00  0.76002350103E+03  0.36078075363E+04  0.35268455448E+04 0.  0.
        4    1    3    3  502    0 -0.17292889827E+04  0.28478392459E+03  0.18029682025E+03  0.17618316678E+04  0.12699999809E+01 0.  1.
       -4    1    3    3    0  502  0.17292889827E+04 -0.28478392459E+03  0.57972668078E+03  0.18459758684E+04  0.12699999809E+01 0. -1.
</event>
<event>
 5   0  0.5707187E-07  0.3534141E+04  0.7818609E-02  0.8105746E-01
       -2   -1    0    0    0  501  0.00000000000E+00  0.00000000000E+00  0.12713384206E+04  0.12713384206E+04  0.25500000920E-02 0. -1.
        2   -1    0    0  501    0  0.00000000000E+00  0.00000000000E+00 -0.24561031803E+04  0.24561031803E+04  0.25500000920E-02 0.  1.
    10030    2    1    2    0    0  0.00000000000E+00  0.00000000000E+00 -0.11847647597E+04  0.37274416009E+04  0.35341411053E+04 0.  0.
        1    1    3    3  502    0 -0.38833967618E+03 -0.10783309333E+03  0.12222152909E+04  0.12869521737E+04  0.50400001928E-02 0. -1.
       -1    1    3    3    0  502  0.38833967618E+03  0.10783309333E+03 -0.24069800506E+04  0.24404894271E+04  0.50400001928E-02 0.  1.
</event>
<event>
 5   0  0.5554745E-07  0.3546438E+04  0.7818609E-02  0.8102872E-01
        2   -1    0    0  501    0  0.00000000000E+00  0.00000000000E+00  0.21748800268E+04  0.21748800268E+04  0.25500000920E-02 0.  1.
       -2   -1    0    0    0  501  0.00000000000E+00  0.00000000000E+00 -0.14457378277E+04  0.14457378277E+04  0.25500000920E-02 0. -1.
    10030    2    1    2    0    0  0.00000000000E+00  0.00000000000E+00  0.72914219903E+03  0.36206178545E+04  0.35464383967E+04 0.  0.
        5    1    3    3  502    0  0.54336812973E+03 -0.74985866748E+03  0.19084006692E+04  0.21212147816E+04  0.46999998093E+01 0.  1.
       -5    1    3    3    0  502 -0.54336812973E+03  0.74985866748E+03 -0.11792584701E+04  0.14994030729E+04  0.46999998093E+01 0. -1.
</event>
<event>
 5   0  0.5554745E-07  0.3519776E+04  0.7818609E-02  0.8109119E-01
       -2   -1    0    0    0  501  0.00000000000E+00  0.00000000000E+00  0.15544521897E+04  0.15544521897E+04  0.25500000920E-02 0.  1.
        2   -1    0    0  501    0  0.00000000000E+00  0.00000000000E+00 -0.19924736515E+04  0.19924736515E+04  0.25500000920E-02 0. -1.
    10030    2    1    2    0    0  0.00000000000E+00  0.00000000000E+00 -0.43802146180E+03  0.35469258413E+04  0.35197755784E+04 0.  0.
        5    1    3    3  502    0  0.11427899697E+04 -0.28588372208E+03 -0.15365686674E+04  0.19361724554E+04  0.46999998093E+01 0.  1.
       -5    1    3    3    0  502 -0.11427899697E+04  0.28588372208E+03  0.10985472056E+04  0.16107533859E+04  0.46999998093E+01 0. -1.
</event>
<event>
 5   0  0.5554745E-07  0.3491656E+04  0.7818609E-02  0.8115770E-01
       -2   -1    0    0    0  501  0.00000000000E+00  0.00000000000E+00  0.15216517922E+04  0.15216517922E+04  0.25500000920E-02 0.  1.
        2   -1    0    0  501    0  0.00000000000E+00  0.00000000000E+00 -0.20030302635E+04  0.20030302635E+04  0.25500000920E-02 0. -1.
    10030    2    1    2    0    0  0.00000000000E+00  0.00000000000E+00 -0.48137847127E+03  0.35246820557E+04  0.34916555330E+04 0.  0.
        5    1    3    3  502    0  0.65073073100E+03 -0.16197002818E+04 -0.27281815576E+03  0.17667289897E+04  0.46999998093E+01 0. -1.
       -5    1    3    3    0  502 -0.65073073100E+03  0.16197002818E+04 -0.20856031551E+03  0.17579530660E+04  0.46999998093E+01 0.  1.
</event>
<event>
 5   0  0.1908190E-07  0.3503239E+04  0.7818609E-02  0.8113023E-01
       -1   -1    0    0    0  501  0.00000000000E+00  0.00000000000E+00  0.12147019269E+04  0.12147019270E+04  0.50400001928E-02 0. -1.
        1   -1    0    0  501    0  0.00000000000E+00  0.00000000000E+00 -0.25258634556E+04  0.25258634556E+04  0.50400001928E-02 0.  1.
    10030    2    1    2    0    0  0.00000000000E+00  0.00000000000E+00 -0.13111615287E+04  0.37405653826E+04  0.35032391907E+04 0.  0.
        5    1    3    3  502    0 -0.73432912433E+03 -0.15705558433E+03 -0.23452656853E+04  0.24625594295E+04  0.46999998093E+01 0.  1.
       -5    1    3    3    0  502  0.73432912433E+03  0.15705558433E+03  0.10341041566E+04  0.12780059531E+04  0.46999998093E+01 0. -1.
</event>
<event>
 5   0  0.5707187E-07  0.3557611E+04  0.7818609E-02  0.8100271E-01
       -2   -1    0    0    0  501  0.00000000000E+00  0.00000000000E+00  0.18160310057E+04  0.18160310057E+04  0.25500000920E-02 0. -1.
        2   -1    0    0  501    0  0.00000000000E+00  0.00000000000E+00 -0.17423427053E+04  0.17423427053E+04  0.25500000920E-02 0.  1.
    10030    2    1    2    0    0  0.00000000000E+00  0.00000000000E+00  0.73688300406E+02  0.35583737110E+04  0.35576106450E+04 0.  0.
        1    1    3    3  502    0 -0.11810645142E+04  0.99639936474E+03  0.91818199569E+03  0.17974379705E+04  0.50400001928E-02 0. -1.
       -1    1    3    3    0  502  0.11810645142E+04 -0.99639936474E+03 -0.84449369529E+03  0.17609357405E+04  0.50400001928E-02 0.  1.
</event>
<event>
 5   0  0.1897049E-07  0.3464499E+04  0.7818609E-02  0.8122255E-01
        1   -1    0    0  501    0  0.00000000000E+00  0.00000000000E+00  0.20466509115E+04  0.20466509115E+04  0.50400001928E-02 0.  1.
       -1   -1    0    0    0  501  0.00000000000E+00  0.00000000000E+00 -0.14661454766E+04  0.14661454766E+04  0.50400001928E-02 0. -1.
    10030    2    1    2    0    0  0.00000000000E+00  0.00000000000E+00  0.58050543489E+03  0.35127963882E+04  0.34644987956E+04 0.  0.
        2    1    3    3  502    0 -0.21257244799E+03 -0.97740607467E+03  0.17242453434E+04  0.19933719383E+04  0.25500000920E-02 0.  1.
       -2    1    3    3    0  502  0.21257244799E+03  0.97740607467E+03 -0.11437399085E+04  0.15194244498E+04  0.25500000920E-02 0. -1.
</event>
<event>
 5   0  0.1897049E-07  0.3424636E+04  0.7818609E-02  0.8131886E-01
       -1   -1    0    0    0  501  0.00000000000E+00  0.00000000000E+00  0.12504960634E+04  0.12504960634E+04  0.50400001928E-02 0. -1.
        1   -1    0    0  501    0  0.00000000000E+00  0.00000000000E+00 -0.23446952602E+04  0.23446952602E+04  0.50400001928E-02 0.  1.
    10030    2    1    2    0    0  0.00000000000E+00  0.00000000000E+00 -0.10941991968E+04  0.35951913236E+04  0.34246355676E+04 0.  0.
        2    1    3    3  502    0 -0.11502762461E+04 -0.10534299566E+04 -0.12888147247E+04  0.20233372211E+04  0.25500000920E-02 0.  1.
       -2    1    3    3    0  502  0.11502762461E+04  0.10534299566E+04  0.19461552788E+03  0.15718541025E+04  0.25500000920E-02 0. -1.
</event>
<event>
 5   0  0.1873457E-07  0.3375953E+04  0.7818609E-02  0.8143833E-01
       -1   -1    0    0    0  501  0.00000000000E+00  0.00000000000E+00  0.30373927239E+04  0.30373927239E+04  0.50400001928E-02 0.  1.
        1   -1    0    0  501    0  0.00000000000E+00  0.00000000000E+00 -0.93806287927E+03  0.93806287929E+03  0.50400001928E-02 0. -1.
    10030    2    1    2    0    0  0.00000000000E+00  0.00000000000E+00  0.20993298446E+04  0.39754556032E+04  0.33759534144E+04 0.  0.
        3    1    3    3  502    0  0.22445921281E+03 -0.13259707704E+04  0.22509611017E+04  0.26220996003E+04  0.10100000352E+00 0.  1.
       -3    1    3    3    0  502 -0.22445921281E+03  0.13259707704E+04 -0.15163125711E+03  0.13533560029E+04  0.10100000352E+00 0. -1.
</event>
<event>
 5   0  0.5707187E-07  0.3511594E+04  0.7818609E-02  0.8111048E-01
       -2   -1    0    0    0  501  0.00000000000E+00  0.00000000000E+00  0.17309687263E+04  0.17309687263E+04  0.25500000920E-02 0.  1.
        2   -1    0    0  501    0  0.00000000000E+00  0.00000000000E+00 -0.17809813640E+04  0.17809813640E+04  0.25500000920E-02 0. -1.
    10030    2    1    2    0    0  0.00000000000E+00  0.00000000000E+00 -0.50012637712E+02  0.35119500903E+04  0.35115939647E+04 0.  0.
        1    1    3    3  502    0 -0.13736507331E+04  0.72485844781E+03  0.79390938987E+03  0.17443131099E+04  0.50400001928E-02 0.  1.
       -1    1    3    3    0  502  0.13736507331E+04 -0.72485844781E+03 -0.84392202758E+03  0.17676369804E+04  0.50400001928E-02 0. -1.
</event>
<event>
 5   0  0.1933647E-07  0.3494434E+04  0.7818609E-02  0.8115110E-01
        1   -1    0    0  501    0  0.00000000000E+00  0.00000000000E+00  0.23314067019E+04  0.23314067019E+04  0.50400001928E-02 0. -1.
       -1   -1    0    0    0  501  0.00000000000E+00  0.00000000000E+00 -0.13094098544E+04  0.13094098544E+04  0.50400001928E-02 0.  1.
    10030    2    1    2    0    0  0.00000000000E+00  0.00000000000E+00  0.10219968475E+04  0.36408165563E+04  0.34944338083E+04 0.  0.
        4    1    3    3  502    0  0.11355385479E+04  0.12677287703E+04  0.99245727481E+02  0.17048270752E+04  0.12699999809E+01 0.  1.
       -4    1    3    3    0  502 -0.11355385479E+04 -0.12677287703E+04  0.92275112002E+03  0.19359894812E+04  0.12699999809E+01 0. -1.
</event>
<event>
 5   0  0.1933647E-07  0.3429084E+04  0.7818609E-02  0.8130805E-01
        1   -1    0    0  501    0  0.00000000000E+00  0.00000000000E+00  0.16705566160E+04  0.16705566160E+04  0.50400001928E-02 0.  1.
       -1   -1    0    0    0  501  0.00000000000E+00  0.00000000000E+00 -0.17596855330E+04  0.17596855330E+04  0.50400001928E-02 0. -1.
    10030    2    1    2    0    0  0.00000000000E+00  0.00000000000E+00 -0.89128917008E+02  0.34302421490E+04  0.34290840230E+04 0.  0.
        4    1    3    3  502    0 -0.15889109062E+04 -0.15269614878E+03 -0.67063421594E+03  0.17313884157E+04  0.12699999809E+01 0. -1.
       -4    1    3    3    0  502  0.15889109062E+04  0.15269614878E+03  0.58150529893E+03  0.16988537333E+04  0.12699999809E+01 0.  1.
</event>
<event>
 5   0  0.1908190E-07  0.3501114E+04  0.7818609E-02  0.8113526E-01
        1   -1    0    0  501    0  0.00000000000E+00  0.00000000000E+00  0.20682396095E+04  0.20682396095E+04  0.50400001928E-02 0.  1.
       -1   -1    0    0    0  501  0.00000000000E+00  0.00000000000E+00 -0.14816709996E+04  0.14816709996E+04  0.50400001928E-02 0. -1.
    10030    2    1    2    0    0  0.00000000000E+00  0.00000000000E+00  0.58656860994E+03  0.35499106091E+04  0.35011144795E+04 0.  0.
        5    1    3    3  502    0  0.47351925164E+03 -0.91624605460E+03 -0.11408909561E+04  0.15379797066E+04  0.46999998093E+01 0. -1.
       -5    1    3    3    0  502 -0.47351925164E+03  0.91624605460E+03  0.17274595660E+04  0.20119309025E+04  0.46999998093E+01 0.  1.
</event>
<event>
 5   0  0.5740827E-07  0.3185110E+04  0.7818609E-02  0.8192761E-01
        2   -1    0    0  501    0  0.00000000000E+00  0.00000000000E+00  0.18556807947E+04  0.18556807947E+04  0.25500000920E-02 0. -1.
       -2   -1    0    0    0  501  0.00000000000E+00  0.00000000000E+00 -0.13667387656E+04  0.13667387656E+04  0.25500000920E-02 0.  1.
    10030    2    1    2    0    0  0.00000000000E+00  0.00000000000E+00  0.48894202904E+03  0.32224195603E+04  0.31851096551E+04 0.  0.
        2    1    3    3  502    0 -0.14399059477E+04  0.18698029497E+03 -0.41736316718E+03  0.15107887947E+04  0.25500000920E-02 0.  1.
       -2    1    3    3    0  502  0.14399059477E+04 -0.18698029497E+03  0.90630519622E+03  0.17116307656E+04  0.25500000920E-02 0. -1.
</event>
<event>
 5   0  0.5573334E-07  0.3496209E+04  0.7818609E-02  0.8114689E-01
        2   -1    0    0  501    0  0.00000000000E+00  0.00000000000E+00  0.25902566366E+04  0.25902566366E+04  0.25500000920E-02 0.  1.
       -2   -1    0    0    0  501  0.00000000000E+00  0.00000000000E+00 -0.11797555316E+04  0.11797555316E+04  0.25500000920E-02 0. -1.
    10030    2    1    2    0    0  0.00000000000E+00  0.00000000000E+00  0.14105011050E+04  0.37700121683E+04  0.34962091444E+04 0.  0.
        4    1    3    3  502    0 -0.66973000870E+03 -0.90569057750E+03  0.21467491330E+04  0.24243240624E+04  0.12699999809E+01 0.  1.
       -4    1    3    3    0  502  0.66973000870E+03  0.90569057750E+03 -0.73624802794E+03  0.13456881059E+04  0.12699999809E+01 0. -1.
</event>
<event>
 5   0  0.5554745E-07  0.3496626E+04  0.7818609E-02  0.8114590E-01
       -2   -1    0    0    0  501  0.00000000000E+00  0.00000000000E+00  0.12413165019E+04  0.12413165019E+04  0.25500000920E-02 0.  1.
        2   -1    0    0  501    0  0.00000000000E+00  0.00000000000E+00 -0.24623839655E+04  0.24623839655E+04  0.25500000920E-02 0. -1.
    10030    2    1    2    0    0  0.00000000000E+00  0.00000000000E+00 -0.12210674636E+04  0.37037004674E+04  0.34966257165E+04 0.  0.
        5    1    3    3  502    0  0.96726168191E+03  0.14528991044E+04 -0.71679845191E+03  0.18868844902E+04  0.46999998093E+01 0. -1.
       -5    1    3    3    0  502 -0.96726168191E+03 -0.14528991044E+04 -0.50426901174E+03  0.18168159772E+04  0.46999998093E+01 0.  1.
</event>
<event>
 5   0  0.5677193E-07  0.3490453E+04  0.7818609E-02  0.8116056E-01
       -2   -1    0    0    0  501  0.00000000000E+00  0.00000000000E+00  0.19756954643E+04  0.19756954643E+04  0.25500000920E-02 0.  1.
        2   -1    0    0  501    0  0.00000000000E+00  0.00000000000E+00 -0.15416422338E+04  0.15416422338E+04  0.25500000920E-02 0. -1.
    10030    2    1    2    0    0  0.00000000000E+00  0.00000000000E+00  0.43405323052E+03  0.35173376981E+04  0.34904530187E+04 0.  0.
        3    1    3    3  502    0  0.10581902110E+04 -0.86629943305E+03 -0.87556362490E+03  0.16238389396E+04  0.10100000352E+00 0. -1.
       -3    1    3    3    0  502 -0.10581902110E+04  0.86629943305E+03  0.13096168554E+04  0.18934987585E+04  0.10100000352E+00 0.  1.
</event>
<event>
 5   0  0.5554745E-07  0.3522467E+04  0.7818609E-02  0.8108486E-01
       -2   -1    0    0    0  501  0.00000000000E+00  0.00000000000E+00  0.17030040458E+04  0.17030040458E+04  0.25500000920E-02 0. -1.
        2   -1    0    0  501    0  0.00000000000E+00  0.00000000000E+00 -0.18214543999E+04  0.18214543999E+04  0.25500000920E-02 0.  1.
    10030    2    1    2    0    0  0.00000000000E+00  0.00000000000E+00 -0.11845035412E+03  0.35244584456E+04  0.35224674376E+04 0.  0.
        5    1    3    3  502    0 -0.13870131365E+04 -0.10676754530E+04 -0.25474752420E+03  0.17688003575E+04  0.46999998093E+01 0.  1.
       -5    1    3    3    0  502  0.13870131365E+04  0.10676754530E+04  0.13629717008E+03  0.17556580881E+04  0.46999998093E+01 0. -1.
</event>
<event>
 5   0  0.5740827E-07  0.3346018E+04  0.7818609E-02  0.8151284E-01
       -2   -1    0    0    0  501  0.00000000000E+00  0.00000000000E+00  0.15785901174E+04  0.15785901174E+04  0.25500000920E-02 0. -1.
        2   -1    0    0  501    0  0.00000000000E+00  0.00000000000E+00 -0.17730751675E+04  0.17730751675E+04  0.25500000920E-02 0.  1.
    10030    2    1    2    0    0  0.00000000000E+00  0.00000000000E+00 -0.19448505012E+03  0.33516652848E+04  0.33460178940E+04 0.  0.
        2    1    3    3  502    0 -0.58120465903E+03  0.15623757551E+04 -0.23940486030E+03  0.16840818101E+04  0.25500000920E-02 0.  1.
       -2    1    3    3    0  502  0.58120465903E+03 -0.15623757551E+04  0.44919810187E+02  0.16675834747E+04  0.25500000920E-02 0. -1.
</event>
<event>
 5   0  0.1866421E-07  0.3525544E+04  0.7818609E-02  0.8107763E-01
        1   -1    0    0  501    0  0.00000000000E+00  0.00000000000E+00  0.20751618833E+04  0.20751618833E+04  0.50400001928E-02 0. -1.
       -1   -1    0    0    0  501  0.00000000000E+00  0.00000000000E+00 -0.14974088984E+04  0.14974088984E+04  0.50400001928E-02 0.  1.
    10030    2    1    2    0    0  0.00000000000E+00  0.00000000000E+00  0.57775298492E+03  0.35725707817E+04  0.35255444230E+04 0.  0.
        1    1    3    3  502    0  0.61194674903E+03  0.24161643388E+03 -0.13683300746E+04  0.15182834115E+04  0.50400001928E-02 0.  1.
       -1    1    3    3    0  502 -0.61194674903E+03 -0.24161643388E+03  0.19460830595E+04  0.20542873702E+04  0.50400001928E-02 0. -1.
</event>
<event>
 5   0  0.1933647E-07  0.3503083E+04  0.7818609E-02  0.8113060E-01
        1   -1    0    0  501    0  0.00000000000E+00  0.00000000000E+00  0.14842351653E+04  0.14842351653E+04  0.50400001928E-02 0.  1.
       -1   -1    0    0    0  501  0.00000000000E+00  0.00000000000E+00 -0.20669887936E+04  0.20669887936E+04  0.50400001928E-02 0. -1.
    10030    2    1    2    0    0  0.00000000000E+00  0.00000000000E+00 -0.58275362829E+03  0.35512239589E+04  0.35030829015E+04 0.  0.
        4    1    3    3  502    0 -0.69060723571E+03  0.81853748457E+03 -0.16964084894E+04  0.20061767977E+04  0.12699999809E+01 0. -1.
       -4    1    3    3    0  502  0.69060723571E+03 -0.81853748457E+03  0.11136548612E+04  0.15450471612E+04  0.12699999809E+01 0.  1.
</event>
<event>
 5   0  0.5573334E-07  0.3511765E+04  0.7818609E-02  0.8111007E-01
        2   -1    0    0  501    0  0.00000000000E+00  0.00000000000E+00  0.21775324995E+04  0.21775324995E+04  0.25500000920E-02 0. -1.
       -2   -1    0    0    0  501  0.00000000000E+00  0.00000000000E+00 -0.14158792383E+04  0.14158792384E+04  0.25500000920E-02 0.  1.
    10030    2    1    2    0    0  0.00000000000E+00  0.00000000000E+00  0.76165326120E+03  0.35934117379E+04  0.35117648309E+04 0.  0.
        4    1    3    3  502    0  0.14611927894E+03 -0.44976993901E+03 -0.13494873088E+04  0.14299515555E+04  0.12699999809E+01 0.  1.
       -4    1    3    3    0  502 -0.14611927894E+03  0.44976993901E+03  0.21111405700E+04  0.21634601824E+04  0.12699999809E+01 0. -1.
</event>
<event>
 5   0  0.5573334E-07  0.3531546E+04  0.7818609E-02  0.8106354E-01
        2   -1    0    0  501    0  0.00000000000E+00  0.00000000000E+00  0.28564749041E+04  0.28564749041E+04  0.25500000920E-02 0.  1.
       -2   -1    0    0    0  501  0.00000000000E+00  0.00000000000E+00 -0.10915391061E+04  0.10915391061E+04  0.25500000920E-02 0. -1.
    10030    2    1    2    0    0  0.00000000000E+00  0.00000000000E+00  0.17649357981E+04  0.39480140102E+04  0.35315458731E+04 0.  0.
        4    1    3    3  502    0  0.87067829726E+03  0.30735473310E+03  0.25650905985E+04  0.27262133117E+04  0.12699999809E+01 0.  1.
       -4    1    3    3    0  502 -0.87067829726E+03 -0.30735473310E+03 -0.80015480048E+03  0.12218006985E+04  0.12699999809E+01 0. -1.
</event>
<event>
 5   0  0.1897049E-07  0.3505123E+04  0.7818609E-02  0.8112577E-01
       -1   -1    0    0    0  501  0.00000000000E+00  0.00000000000E+00  0.15390634789E+04  0.15390634789E+04  0.50400001928E-02 0.  1.
        1   -1    0    0  501    0  0.00000000000E+00  0.00000000000E+00 -0.19956760206E+04  0.19956760206E+04  0.50400001928E-02 0. -1.
    10030    2    1    2    0    0  0.00000000000E+00  0.00000000000E+00 -0.45661254177E+03  0.35347394995E+04  0.35051231528E+04 0.  0.
        2    1    3    3  502    0  0.27973115921E+03 -0.16912074851E+04  0.13952184551E+03  0.17198542451E+04  0.25500000920E-02 0.  1.
       -2    1    3    3    0  502 -0.27973115921E+03  0.16912074851E+04 -0.59613438728E+03  0.18148852544E+04  0.25500000920E-02 0. -1.
</event>
<event>
 5   0  0.1897049E-07  0.3187690E+04  0.7818609E-02  0.8192076E-01
        1   -1    0    0  501    0  0.00000000000E+00  0.00000000000E+00  0.20976635938E+04  0.20976635939E+04  0.50400001928E-02 0. -1.
       -1   -1    0    0    0  501  0.00000000000E+00  0.00000000000E+00 -0.12110340813E+04  0.12110340813E+04  0.50400001928E-02 0.  1.
    10030    2    1    2    0    0  0.00000000000E+00  0.00000000000E+00  0.88662951258E+03  0.33086976751E+04  0.31876901375E+04 0.  0.
        2    1    3    3  502    0  0.76401757503E+03 -0.12063903776E+04  0.11781745732E+04  0.18512687333E+04  0.25500000920E-02 0. -1.
       -2    1    3    3    0  502 -0.76401757503E+03  0.12063903776E+04 -0.29154506062E+03  0.14574289418E+04  0.25500000920E-02 0.  1.
</event>
<event>
 5   0  0.5740827E-07  0.3495443E+04  0.7818609E-02  0.8114871E-01
        2   -1    0    0  501    0  0.00000000000E+00  0.00000000000E+00  0.18993538690E+04  0.18993538690E+04  0.25500000920E-02 0.  1.
       -2   -1    0    0    0  501  0.00000000000E+00  0.00000000000E+00 -0.16081947850E+04  0.16081947850E+04  0.25500000920E-02 0. -1.
    10030    2    1    2    0    0  0.00000000000E+00  0.00000000000E+00  0.29115908401E+03  0.35075486540E+04  0.34954433121E+04 0.  0.
        2    1    3    3  502    0 -0.15195013168E+04 -0.78594340313E+03  0.50450487212E+03  0.17835684598E+04  0.25500000920E-02 0. -1.
       -2    1    3    3    0  502  0.15195013168E+04  0.78594340313E+03 -0.21334578810E+03  0.17239801942E+04  0.25500000920E-02 0.  1.
</event>
<event>
 5   0  0.5677193E-07  0.3515721E+04  0.7818609E-02  0.8110074E-01
        2   -1    0    0  501    0  0.00000000000E+00  0.00000000000E+00  0.11040867894E+04  0.11040867894E+04  0.25500000920E-02 0.  1.
       -2   -1    0    0    0  501  0.00000000000E+00  0.00000000000E+00 -0.27987594462E+04  0.27987594462E+04  0.25500000920E-02 0. -1.
    10030    2    1    2    0    0  0.00000000000E+00  0.00000000000E+00 -0.16946726568E+04  0.39028462356E+04  0.35157208827E+04 0.  0.
        3    1    3    3  502    0 -0.43518082138E+02 -0.17389656277E+04 -0.11285654490E+04  0.20735368964E+04  0.10100000352E+00 0. -1.
       -3    1    3    3    0  502  0.43518082138E+02  0.17389656277E+04 -0.56610720774E+03  0.18293093392E+04  0.10100000352E+00 0.  1.
</event>
<event>
 5   0  0.5740827E-07  0.3481580E+04  0.7818609E-02  0.8118169E-01
       -2   -1    0    0    0  501  0.00000000000E+00  0.00000000000E+00  0.22932418917E+04  0.22932418917E+04  0.25500000920E-02 0.  1.
        2   -1    0    0  501    0  0.00000000000E+00  0.00000000000E+00 -0.13214262182E+04  0.13214262182E+04  0.25500000920E-02 0. -1.
    10030    2    1    2    0    0  0.00000000000E+00  0.00000000000E+00  0.97181567353E+03  0.36146681099E+04  0.34815800783E+04 0.  0.
        2    1    3    3  502    0  0.11921219276E+03  0.90305652909E+03 -0.10542502091E+04  0.13932573865E+04  0.25500000920E-02 0. -1.
       -2    1    3    3    0  502 -0.11921219276E+03 -0.90305652909E+03  0.20260658826E+04  0.22214107234E+04  0.25500000920E-02 0.  1.
</event>
<event>
 5   0  0.5707187E-07  0.3507777E+04  0.7818609E-02  0.8111949E-01
       -2   -1    0    0    0  501  0.00000000000E+00  0.00000000000E+00  0.17509308834E+04  0.17509308834E+04  0.25500000920E-02 0. -1.
        2   -1    0    0  501    0  0.00000000000E+00  0.00000000000E+00 -0.17568507495E+04  0.17568507495E+04  0.25500000920E-02 0.  1.
    10030    2    1    2    0    0  0.00000000000E+00  0.00000000000E+00 -0.59198660667E+01  0.35077816329E+04  0.35077766376E+04 0.  0.
        1    1    3    3  502    0  0.45729799853E+03  0.16391621175E+04 -0.42740173248E+03  0.17546071206E+04  0.50400001928E-02 0. -1.
       -1    1    3    3    0  502 -0.45729799853E+03 -0.16391621175E+04  0.42148186642E+03  0.17531745123E+04  0.50400001928E-02 0.  1.
</event>
<event>
 5   0  0.1908190E-07  0.3530973E+04  0.7818609E-02  0.8106489E-01
       -1   -1    0    0    0  501  0.00000000000E+00  0.00000000000E+00  0.16246865657E+04  0.16246865657E+04  0.50400001928E-02 0. -1.
        1   -1    0    0  501    0  0.00000000000E+00  0.00000000000E+00 -0.19184880447E+04  0.19184880447E+04  0.50400001928E-02 0.  1.
    10030    2    1    2    0    0  0.00000000000E+00  0.00000000000E+00 -0.29380147891E+03  0.35431746104E+04  0.35309725305E+04 0.  0.
        5    1    3    3  502    0 -0.13175524031E+04 -0.11746739817E+04 -0.18042824335E+03  0.17743674195E+04  0.46999998093E+01 0.  1.
       -5    1    3    3    0  502  0.13175524031E+04  0.11746739817E+04 -0.11337323557E+03  0.17688071910E+04  0.46999998093E+01 0. -1.
</event>
<event>
 5   0  0.5554745E-07  0.3501499E+04  0.7818609E-02  0.8113435E-01
       -2   -1    0    0    0  501  0.00000000000E+00  0.00000000000E+00  0.13650295958E+04  0.13650295958E+04  0.25500000920E-02 0.  1.
        2   -1    0    0  501    0  0.00000000000E+00  0.00000000000E+00 -0.22454629318E+04  0.22454629318E+04  0.25500000920E-02 0. -1.
    10030    2    1    2    0    0  0.00000000000E+00  0.00000000000E+00 -0.88043333600E+03  0.36104925275E+04  0.35014987409E+04 0.  0.
        5    1    3    3  502    0  0.12052341411E+04  0.51398105969E+03 -0.16375399983E+04  0.20972184437E+04  0.46999998093E+01 0. -1.
       -5    1    3    3    0  502 -0.12052341411E+04 -0.51398105969E+03  0.75710666231E+03  0.15132740838E+04  0.46999998093E+01 0.  1.
</event>
<event>
 5   0  0.5573334E-07  0.3496915E+04  0.7818609E-02  0.8114521E-01
        2   -1    0    0  501    0  0.00000000000E+00  0.00000000000E+00  0.19334001042E+04  0.19334001042E+04  0.25500000920E-02 0. -1.
       -2   -1    0    0    0  501  0.00000000000E+00  0.00000000000E+00 -0.15812059411E+04  0.15812059411E+04  0.25500000920E-02 0.  1.
    10030    2    1    2    0    0  0.00000000000E+00  0.00000000000E+00  0.35219416309E+03  0.35146060452E+04  0.34969150582E+04 0.  0.
        4    1    3    3  502    0  0.84570416822E+03 -0.19094920763E+03  0.17021411163E+04  0.19102259377E+04  0.12699999809E+01 0. -1.
       -4    1    3    3    0  502 -0.84570416822E+03  0.19094920763E+03 -0.13499469532E+04  0.16043801076E+04  0.12699999809E+01 0.  1.
</event>
<event>
 5   0  0.5740827E-07  0.3506160E+04  0.7818609E-02  0.8112332E-01
       -2   -1    0    0    0  501  0.00000000000E+00  0.00000000000E+00  0.13647920123E+04  0.13647920123E+04  0.25500000920E-02 0. -1.
        2   -1    0    0  501    0  0.00000000000E+00  0.00000000000E+00 -0.22518375136E+04  0.22518375136E+04  0.25500000920E-02 0.  1.
    10030    2    1    2    0    0  0.00000000000E+00  0.00000000000E+00 -0.88704550137E+03  0.36166295259E+04  0.35061602083E+04 0.  0.
        2    1    3    3  502    0 -0.12771750135E+03 -0.39989431106E+03 -0.21992263888E+04  0.22389336590E+04  0.25500000920E-02 0.  1.
       -2    1    3    3    0  502  0.12771750135E+03  0.39989431106E+03  0.13121808875E+04  0.13776958669E+04  0.25500000920E-02 0. -1.
</event>
<event>
 5   0  0.1908190E-07  0.3499586E+04  0.7818609E-02  0.8113888E-01
       -1   -1    0    0    0  501  0.00000000000E+00  0.00000000000E+00  0.15472679960E+04  0.15472679960E+04  0.50400001928E-02 0.  1.
        1   -1    0    0  501    0  0.00000000000E+00  0.00000000000E+00 -0.19788266779E+04  0.19788266779E+04  0.50400001928E-02 0. -1.
    10030    2    1    2    0    0  0.00000000000E+00  0.00000000000E+00 -0.43155868198E+03  0.35260946739E+04  0.34995857974E+04 0.  0.
        5    1    3    3  502    0  0.83598629167E+03  0.12027518489E+04 -0.11802490339E+04  0.18810887703E+04  0.46999998093E+01 0.  1.
       -5    1    3    3    0  502 -0.83598629167E+03 -0.12027518489E+04  0.74869035188E+03  0.16450059036E+04  0.46999998093E+01 0. -1.
</event>
<event>
 5   0  0.1908190E-07  0.3499756E+04  0.7818609E-02  0.8113848E-01
       -1   -1    0    0    0  501  0.00000000000E+00  0.00000000000E+00  0.23677529505E+04  0.23677529505E+04  0.50400001928E-02 0.  1.
        1   -1    0    0  501    0  0.00000000000E+00  0.00000000000E+00 -0.12932397755E+04  0.12932397755E+04  0.50400001928E-02 0. -1.
    10030    2    1    2    0    0  0.00000000000E+00  0.00000000000E+00  0.10745131750E+04  0.36609927261E+04  0.34997555882E+04 0.  0.
        5    1    3    3  502    0  0.40590655424E+02 -0.13020469669E+03  0.23621780920E+04  0.23661167116E+04  0.46999998093E+01 0.  1.
       -5    1    3    3    0  502 -0.40590655424E+02  0.13020469669E+03 -0.12876649170E+04  0.12948760145E+04  0.46999998093E+01 0. -1.
</event>
<event>
 5   0  0.5707187E-07  0.3480804E+04  0.7818609E-02  0.8118354E-01
        2   -1    0    0  501    0  0.00000000000E+00  0.00000000000E+00  0.17606047989E+04  0.17606047989E+04  0.25500000920E-02 0. -1.
       -2   -1    0    0    0  501  0.00000000000E+00  0.00000000000E+00 -0.17204312977E+04  0.17204312977E+04  0.25500000920E-02 0.  1.
    10030    2    1    2    0    0  0.00000000000E+00  0.00000000000E+00  0.40173501232E+02  0.34810360966E+04  0.34808042742E+04 0.  0.
        1    1    3    3  502    0  0.39544199941E+03  0.16115894067E+04 -0.50473845204E+03  0.17344612119E+04  0.50400001928E-02 0.  1.
       -1    1    3    3    0  502 -0.39544199941E+03 -0.16115894067E+04  0.54491195327E+03  0.17465748846E+04  0.50400001928E-02 0. -1.
</event>
<event>
 5   0  0.5554745E-07  0.3500636E+04  0.7818609E-02  0.8113639E-01
       -2   -1    0    0    0  501  0.00000000000E+00  0.00000000000E+00  0.11039544723E+04  0.11039544723E+04  0.25500000920E-02 0.  1.
        2   -1    0    0  501    0  0.00000000000E+00  0.00000000000E+00 -0.27751268181E+04  0.27751268181E+04  0.25500000920E-02 0. -1.
    10030    2    1    2    0    0  0.00000000000E+00  0.00000000000E+00 -0.16711723458E+04  0.38790812904E+04  0.35006363204E+04 0.  0.
        5    1    3    3  502    0 -0.10127861710E+04 -0.11903173533E+04  0.37642135246E+02  0.15633394545E+04  0.46999998093E+01 0.  1.
       -5    1    3    3    0  502  0.10127861710E+04  0.11903173533E+04 -0.17088144811E+04  0.23157418359E+04  0.46999998093E+01 0. -1.
</event>
<event>
 5   0  0.5554745E-07  0.3515637E+04  0.7818609E-02  0.8110094E-01
        2   -1    0    0  501    0  0.00000000000E+00  0.00000000000E+00  0.16768908480E+04  0.16768908480E+04  0.25500000920E-02 0.  1.
       -2   -1    0    0    0  501  0.00000000000E+00  0.00000000000E+00 -0.18426515185E+04  0.18426515185E+04  0.25500000920E-02 0. -1.
    10030    2    1    2    0    0  0.00000000000E+00  0.00000000000E+00 -0.16576067050E+03  0.35195423665E+04  0.35156367659E+04 0.  0.
        5    1    3    3  502    0  0.92016987713E+03  0.88343697686E+03 -0.12936576258E+04  0.18167954309E+04  0.46999998093E+01 0. -1.
       -5    1    3    3    0  502 -0.92016987713E+03 -0.88343697686E+03  0.11278969553E+04  0.17027469356E+04  0.46999998093E+01 0.  1.
</event>
<event>
 5   0  0.1933647E-07  0.3494126E+04  0.7818609E-02  0.8115183E-01
        1   -1    0    0  501    0  0.00000000000E+00  0.00000000000E+00  0.19601003624E+04  0.19601003624E+04  0.50400001928E-02 0. -1.
       -1   -1    0    0    0  501  0.00000000000E+00  0.00000000000E+00 -0.15571802114E+04  0.15571802114E+04  0.50400001928E-02 0.  1.
    10030    2    1    2    0    0  0.00000000000E+00  0.00000000000E+00  0.40292015102E+03  0.35172805739E+04  0.34941262122E+04 0.  0.
        4    1    3    3  502    0  0.13338579311E+04  0.52805202885E+03  0.12051693022E+04  0.18736196480E+04  0.12699999809E+01 0. -1.
       -4    1    3    3    0  502 -0.13338579311E+04 -0.52805202885E+03 -0.80224915117E+03  0.16436609258E+04  0.12699999809E+01 0.  1.
</event>
<event>
 5   0  0.1933647E-07  0.3517394E+04  0.7818609E-02  0.8109680E-01
        1   -1    0    0  501    0  0.00000000000E+00  0.00000000000E+00  0.13644016320E+04  0.13644016320E+04  0.50400001928E-02 0. -1.
       -1   -1    0    0    0  501  0.00000000000E+00  0.00000000000E+00 -0.22669386473E+04  0.22669386473E+04  0.50400001928E-02 0.  1.
    10030    2    1    2    0    0  0.00000000000E+00  0.00000000000E+00 -0.90253701529E+03  0.36313402793E+04  0.35173938022E+04 0.  0.
        4    1    3    3  502    0  0.54031335068E+03 -0.16293988002E+04 -0.56609607546E+02  0.17175812142E+04  0.12699999809E+01 0. -1.
       -4    1    3    3    0  502 -0.54031335068E+03  0.16293988002E+04 -0.84592740775E+03  0.19137590650E+04  0.12699999809E+01 0.  1.
</event>
<event>
 5   0  0.1897049E-07  0.3469919E+04  0.7818609E-02  0.8120956E-01
        1   -1    0    0  501    0  0.00000000000E+00  0.00000000000E+00  0.24518564666E+04  0.24518564666E+04  0.50400001928E-02 0. -1.
       -1   -1    0    0    0  501  0.00000000000E+00  0.00000000000E+00 -0.12276756361E+04  0.12276756361E+04  0.50400001928E-02 0.  1.
    10030    2    1    2    0    0  0.00000000000E+00  0.00000000000E+00  0.12241808304E+04  0.36795321027E+04  0.34699189889E+04 0.  0.
        2    1    3    3  502    0 -0.15259741004E+04 -0.77761544868E+03  0.31821808604E+03  0.17419946875E+04  0.25500000920E-02 0. -1.
       -2    1    3    3    0  502  0.15259741004E+04  0.77761544868E+03  0.90596274438E+03  0.19375374152E+04  0.25500000920E-02 0.  1.
</event>
<event>
 5   0  0.5707187E-07  0.3507255E+04  0.7818609E-02  0.8112073E-01
        2   -1    0    0  501    0  0.00000000000E+00  0.00000000000E+00  0.20844733990E+04  0.20844733990E+04  0.25500000920E-02 0.  1.
       -2   -1    0    0    0  501  0.00000000000E+00  0.00000000000E+00 -0.14752929731E+04  0.14752929731E+04  0.25500000920E-02 0. -1.
    10030    2    1    2    0    0  0.00000000000E+00  0.00000000000E+00  0.60918042588E+03  0.35597663721E+04  0.35072547430E+04 0.  0.
        1    1    3    3  502    0 -0.46047314850E+03 -0.10015850072E+04 -0.10796477745E+04  0.15429994699E+04  0.50400001928E-02 0. -1.
       -1    1    3    3    0  502  0.46047314850E+03  0.10015850072E+04  0.16888282004E+04  0.20167669022E+04  0.50400001928E-02 0.  1.
</event>
<event>
 5   0  0.5554745E-07  0.3503549E+04  0.7818609E-02  0.8112949E-01
       -2   -1    0    0    0  501  0.00000000000E+00  0.00000000000E+00  0.11374173697E+04  0.11374173697E+04  0.25500000920E-02 0.  1.
        2   -1    0    0  501    0  0.00000000000E+00  0.00000000000E+00 -0.26979671081E+04  0.26979671081E+04  0.25500000920E-02 0. -1.
    10030    2    1    2    0    0  0.00000000000E+00  0.00000000000E+00 -0.15605497384E+04  0.38353844777E+04  0.35035494297E+04 0.  0.
        5    1    3    3  502    0 -0.15349400830E+04 -0.59946796803E+03 -0.12959687436E+03  0.16529429339E+04  0.46999998093E+01 0.  1.
       -5    1    3    3    0  502  0.15349400830E+04  0.59946796803E+03 -0.14309528640E+04  0.21824415438E+04  0.46999998093E+01 0. -1.
</event>
<event>
 5   0  0.5677193E-07  0.3491850E+04  0.7818609E-02  0.8115724E-01
        2   -1    0    0  501    0  0.00000000000E+00  0.00000000000E+00  0.24240762104E+04  0.24240762104E+04  0.25500000920E-02 0. -1.
       -2   -1    0    0    0  501  0.00000000000E+00  0.00000000000E+00 -0.12574907747E+04  0.12574907747E+04  0.25500000920E-02 0.  1.
    10030    2    1    2    0    0  0.00000000000E+00  0.00000000000E+00  0.11665854357E+04  0.36815669851E+04  0.34918496369E+04 0.  0.
        3    1    3    3  502    0  0.65489937112E+03 -0.13164723154E+04  0.15758554661E+04  0.21552988201E+04  0.10100000352E+00 0. -1.
       -3    1    3    3    0  502 -0.65489937112E+03  0.13164723154E+04 -0.40927003044E+03  0.15262681650E+04  0.10100000352E+00 0.  1.
</event>
<event>
 5   0  0.1866421E-07  0.3494841E+04  0.7818609E-02  0.8115014E-01
       -1   -1    0    0    0  501  0.00000000000E+00  0.00000000000E+00  0.10361280031E+04  0.10361280032E+04  0.50400001928E-02 0.  1.
        1   -1    0    0  501    0  0.00000000000E+00  0.00000000000E+00 -0.29470083878E+04  0.29470083878E+04  0.50400001928E-02 0. -1.
    10030    2    1    2    0    0  0.00000000000E+00  0.00000000000E+00 -0.19108803847E+04  0.39831363910E+04  0.34948407209E+04 0.  0.
        1    1    3    3  502    0 -0.14502895424E+04 -0.81144012718E+03 -0.33988315993E+03  0.16962592371E+04  0.50400001928E-02 0.  1.
       -1    1    3    3    0  502  0.14502895424E+04  0.81144012718E+03 -0.15709972248E+04  0.22868771539E+04  0.50400001928E-02 0. -1.
</event>
<event>
 5   0  0.5707187E-07  0.3512384E+04  0.7818609E-02  0.8110861E-01
       -2   -1    0    0    0  501  0.00000000000E+00  0.00000000000E+00  0.15094503049E+04  0.15094503049E+04  0.25500000920E-02 0.  1.
        2   -1    0    0  501    0  0.00000000000E+00  0.00000000000E+00 -0.20432668035E+04  0.20432668035E+04  0.25500000920E-02 0. -1.
    10030    2    1    2    0    0  0.00000000000E+00  0.00000000000E+00 -0.53381649866E+03  0.35527171084E+04  0.35123836348E+04 0.  0.
        1    1    3    3  502    0  0.17012322108E+04 -0.43339567221E+03 -0.21960742179E+03  0.17692513286E+04  0.50400001928E-02 0.  1.
       -1    1    3    3    0  502 -0.17012322108E+04  0.43339567221E+03 -0.31420907687E+03  0.17834657799E+04  0.50400001928E-02 0. -1.
</event>
<event>
 5   0  0.1933647E-07  0.3495092E+04  0.7818609E-02  0.8114954E-01
        1   -1    0    0  501    0  0.00000000000E+00  0.00000000000E+00  0.11678353917E+04  0.11678353918E+04  0.50400001928E-02 0.  1.
       -1   -1    0    0    0  501  0.00000000000E+00  0.00000000000E+00 -0.26150240527E+04  0.26150240527E+04  0.50400001928E-02 0. -1.
    10030    2    1    2    0    0  0.00000000000E+00  0.00000000000E+00 -0.14471886610E+04  0.37828594445E+04  0.34950923530E+04 0.  0.
        4    1    3    3  502    0 -0.11277123558E+04 -0.27953085486E+03  0.68927458741E+03  0.13509158841E+04  0.12699999809E+01 0.  1.
       -4    1    3    3    0  502  0.11277123558E+04  0.27953085486E+03 -0.21364632484E+04  0.24319435603E+04  0.12699999809E+01 0. -1.
</event>
<event>
 5   0  0.5677193E-07  0.3477334E+04  0.7818609E-02  0.8119182E-01
       -2   -1    0    0    0  501  0.00000000000E+00  0.00000000000E+00  0.11704266140E+04  0.11704266140E+04  0.25500000920E-02 0.  1.
        2   -1    0    0  501    0  0.00000000000E+00  0.00000000000E+00 -0.25827879385E+04  0.25827879385E+04  0.25500000920E-02 0. -1.
    10030    2    1    2    0    0  0.00000000000E+00  0.00000000000E+00 -0.14123613245E+04  0.37532145524E+04  0.34773344627E+04 0.  0.
        3    1    3    3  502    0  0.69264424856E+03  0.14549282444E+04 -0.13883051976E+01  0.16113889006E+04  0.10100000352E+00 0.  1.
       -3    1    3    3    0  502 -0.69264424856E+03 -0.14549282444E+04 -0.14109730193E+04  0.21418256518E+04  0.10100000352E+00 0. -1.
</event>
<event>
 5   0  0.5573334E-07  0.3523109E+04  0.7818609E-02  0.8108335E-01
        2   -1    0    0  501    0  0.00000000000E+00  0.00000000000E+00  0.22149729543E+04  0.22149729543E+04  0.25500000920E-02 0. -1.
       -2   -1    0    0    0  501  0.00000000000E+00  0.00000000000E+00 -0.14009532331E+04  0.14009532331E+04  0.25500000920E-02 0.  1.
    10030    2    1    2    0    0  0.00000000000E+00  0.00000000000E+00  0.81401972120E+03  0.36159261875E+04  0.35231085829E+04 0.  0.
        4    1    3    3  502    0 -0.67020291625E+03 -0.12569688835E+03  0.20740235869E+04  0.21832423385E+04  0.12699999809E+01 0. -1.
       -4    1    3    3    0  502  0.67020291625E+03  0.12569688835E+03 -0.12600038657E+04  0.14326838490E+04  0.12699999809E+01 0.  1.
</event>
<event>
 5   0  0.1866421E-07  0.3517355E+04  0.7818609E-02  0.8109689E-01
       -1   -1    0    0    0  501  0.00000000000E+00  0.00000000000E+00  0.13082738451E+04  0.13082738451E+04  0.50400001928E-02 0.  1.
        1   -1    0    0  501    0  0.00000000000E+00  0.00000000000E+00 -0.23641437259E+04  0.23641437259E+04  0.50400001928E-02 0. -1.
    10030    2    1    2    0    0  0.00000000000E+00  0.00000000000E+00 -0.10558698809E+04  0.36724175710E+04  0.35173554854E+04 0.  0.
        1    1    3    3  502    0  0.17370391786E+04  0.18933949311E+03 -0.31965937510E+03  0.17763267345E+04  0.50400001928E-02 0.  1.
       -1    1    3    3    0  502 -0.17370391786E+04 -0.18933949311E+03 -0.73621050579E+03  0.18960908365E+04  0.50400001928E-02 0. -1.
</event>
<event>
 5   0  0.5707187E-07  0.3496078E+04  0.7818609E-02  0.8114720E-01
       -2   -1    0    0    0  501  0.00000000000E+00  0.00000000000E+00  0.16218726567E+04  0.16218726567E+04  0.25500000920E-02 0.  1.
        2   -1    0    0  501    0  0.00000000000E+00  0.00000000000E+00 -0.18840202113E+04  0.18840202113E+04  0.25500000920E-02 0. -1.
    10030    2    1    2    0    0  0.00000000000E+00  0.00000000000E+00 -0.26214755456E+03  0.35058928681E+04  0.34960782975E+04 0.  0.
        1    1    3    3  502    0 -0.95465570093E+03  0.96987664408E+03  0.96909891976E+03  0.16706827731E+04  0.50400001928E-02 0.  1.
       -1    1    3    3    0  502  0.95465570093E+03 -0.96987664408E+03 -0.12312464743E+04  0.18352100949E+04  0.50400001928E-02 0. -1.
</event>
<event>
 5   0  0.1908190E-07  0.3503500E+04  0.7818609E-02  0.8112961E-01
       -1   -1    0    0    0  501  0.00000000000E+00  0.00000000000E+00  0.13387161063E+04  0.13387161063E+04  0.50400001928E-02 0.  1.
        1   -1    0    0  501    0  0.00000000000E+00  0.00000000000E+00 -0.22922166154E+04  0.22922166154E+04  0.50400001928E-02 0. -1.
    10030    2    1    2    0    0  0.00000000000E+00  0.00000000000E+00 -0.95350050913E+03  0.36309327217E+04  0.35034995660E+04 0.  0.
        5    1    3    3  502    0 -0.92142329414E+03  0.12515251835E+04 -0.13143994431E+04  0.20354370926E+04  0.46999998093E+01 0. -1.
       -5    1    3    3    0  502  0.92142329414E+03 -0.12515251835E+04  0.36089893400E+03  0.15954956291E+04  0.46999998093E+01 0.  1.
</event>
<event>
 5   0  0.1908190E-07  0.3498646E+04  0.7818609E-02  0.8114111E-01
       -1   -1    0    0    0  501  0.00000000000E+00  0.00000000000E+00  0.20637723813E+04  0.20637723813E+04  0.50400001928E-02 0.  1.
        1   -1    0    0  501    0  0.00000000000E+00  0.00000000000E+00 -0.14827849195E+04  0.14827849195E+04  0.50400001928E-02 0. -1.
    10030    2    1    2    0    0  0.00000000000E+00  0.00000000000E+00  0.58098746186E+03  0.35465573008E+04  0.34986457747E+04 0.  0.
        5    1    3    3  502    0 -0.11385375382E+04  0.10441868931E+04 -0.54142418230E+03  0.16369960992E+04  0.46999998093E+01 0. -1.
       -5    1    3    3    0  502  0.11385375382E+04 -0.10441868931E+04  0.11224116442E+04  0.19095612016E+04  0.46999998093E+01 0.  1.
</event>
<event>
 5   0  0.1866421E-07  0.3494697E+04  0.7818609E-02  0.8115048E-01
       -1   -1    0    0    0  501  0.00000000000E+00  0.00000000000E+00  0.25646554288E+04  0.25646554288E+04  0.50400001928E-02 0.  1.
        1   -1    0    0  501    0  0.00000000000E+00  0.00000000000E+00 -0.11905020001E+04  0.11905020001E+04  0.50400001928E-02 0. -1.
    10030    2    1    2    0    0  0.00000000000E+00  0.00000000000E+00  0.13741534287E+04  0.37551574290E+04  0.34946973647E+04 0.  0.
        1    1    3    3  502    0  0.11001499170E+04  0.22881529604E+03  0.21249172665E+04  0.24037386857E+04  0.50400001928E-02 0.  1.
       -1    1    3    3    0  502 -0.11001499170E+04 -0.22881529604E+03 -0.75076383778E+03  0.13514187433E+04  0.50400001928E-02 0. -1.
</event>
<event>
 5   0  0.1873457E-07  0.3488665E+04  0.7818609E-02  0.8116481E-01
        1   -1    0    0  501    0  0.00000000000E+00  0.00000000000E+00  0.21398645928E+04  0.21398645928E+04  0.50400001928E-02 0. -1.
       -1   -1    0    0    0  501  0.00000000000E+00  0.00000000000E+00 -0.14219108087E+04  0.14219108087E+04  0.50400001928E-02 0.  1.
    10030    2    1    2    0    0  0.00000000000E+00  0.00000000000E+00  0.71795378414E+03  0.35617754015E+04  0.34886654145E+04 0.  0.
        3    1    3    3  502    0 -0.12660442129E+04  0.61088983195E+02 -0.86450927417E+03  0.15342672871E+04  0.10100000352E+00 0.  1.
       -3    1    3    3    0  502  0.12660442129E+04 -0.61088983195E+02  0.15824630583E+04  0.20275081144E+04  0.10100000352E+00 0. -1.
</event>
<event>
 5   0  0.1873457E-07  0.3559341E+04  0.7818609E-02  0.8099869E-01
       -1   -1    0    0    0  501  0.00000000000E+00  0.00000000000E+00  0.15534432764E+04  0.15534432764E+04  0.50400001928E-02 0. -1.
        1   -1    0    0  501    0  0.00000000000E+00  0.00000000000E+00 -0.20388432685E+04  0.20388432685E+04  0.50400001928E-02 0.  1.
    10030    2    1    2    0    0  0.00000000000E+00  0.00000000000E+00 -0.48539999207E+03  0.35922865449E+04  0.35593411565E+04 0.  0.
        3    1    3    3  502    0  0.20669178378E+03  0.61891547410E+03  0.14283578363E+04  0.15703451774E+04  0.10100000352E+00 0. -1.
       -3    1    3    3    0  502 -0.20669178378E+03 -0.61891547410E+03 -0.19137578284E+04  0.20219413675E+04  0.10100000352E+00 0.  1.
</event>
<event>
 5   0  0.1933647E-07  0.3484899E+04  0.7818609E-02  0.8117378E-01
        1   -1    0    0  501    0  0.00000000000E+00  0.00000000000E+00  0.18622337829E+04  0.18622337829E+04  0.50400001928E-02 0. -1.
       -1   -1    0    0    0  501  0.00000000000E+00  0.00000000000E+00 -0.16303703825E+04  0.16303703825E+04  0.50400001928E-02 0.  1.
    10030    2    1    2    0    0  0.00000000000E+00  0.00000000000E+00  0.23186340040E+03  0.34926041654E+04  0.34848993127E+04 0.  0.
        4    1    3    3  502    0  0.40013949990E+03  0.11645944660E+03 -0.15796879831E+04  0.16337350333E+04  0.12699999809E+01 0.  1.
       -4    1    3    3    0  502 -0.40013949990E+03 -0.11645944660E+03  0.18115513835E+04  0.18588691321E+04  0.12699999809E+01 0. -1.
</event>
<event>
 5   0  0.1873457E-07  0.3198025E+04  0.7818609E-02  0.8189339E-01
        1   -1    0    0  501    0  0.00000000000E+00  0.00000000000E+00  0.19880763925E+04  0.19880763925E+04  0.50400001928E-02 0.  1.
       -1   -1    0    0    0  501  0.00000000000E+00  0.00000000000E+00 -0.12860875381E+04  0.12860875381E+04  0.50400001928E-02 0. -1.
    10030    2    1    2    0    0  0.00000000000E+00  0.00000000000E+00  0.70198885441E+03  0.32741639306E+04  0.31980245610E+04 0.  0.
        3    1    3    3  502    0  0.20841532487E+03 -0.91545495060E+03  0.16761620703E+04  0.19212011894E+04  0.10100000352E+00 0.  1.
       -3    1    3    3    0  502 -0.20841532487E+03  0.91545495060E+03 -0.97417321587E+03  0.13529627411E+04  0.10100000352E+00 0. -1.
</event>
<event>
 5   0  0.1866421E-07  0.3495954E+04  0.7818609E-02  0.8114749E-01
       -1   -1    0    0    0  501  0.00000000000E+00  0.00000000000E+00  0.15669608490E+04  0.15669608490E+04  0.50400001928E-02 0. -1.
        1   -1    0    0  501    0  0.00000000000E+00  0.00000000000E+00 -0.19499046974E+04  0.19499046974E+04  0.50400001928E-02 0.  1.
    10030    2    1    2    0    0  0.00000000000E+00  0.00000000000E+00 -0.38294384844E+03  0.35168655464E+04  0.34959544163E+04 0.  0.
        1    1    3    3  502    0  0.14548259128E+04 -0.99409644115E+02 -0.11610959734E+04  0.18640130293E+04  0.50400001928E-02 0.  1.
       -1    1    3    3    0  502 -0.14548259128E+04  0.99409644115E+02  0.77815212498E+03  0.16528525172E+04  0.50400001928E-02 0. -1.
</event>
<event>
 5   0  0.1908190E-07  0.3491824E+04  0.7818609E-02  0.8115730E-01
       -1   -1    0    0    0  501  0.00000000000E+00  0.00000000000E+00  0.16341219091E+04  0.16341219091E+04  0.50400001928E-02 0. -1.
        1   -1    0    0  501    0  0.00000000000E+00  0.00000000000E+00 -0.18653496836E+04  0.18653496836E+04  0.50400001928E-02 0.  1.
    10030    2    1    2    0    0  0.00000000000E+00  0.00000000000E+00 -0.23122777448E+03  0.34994715927E+04  0.34918240426E+04 0.  0.
        5    1    3    3  502    0  0.12032367934E+04 -0.11120665230E+04  0.48879564191E+03  0.17097994041E+04  0.46999998093E+01 0. -1.
       -5    1    3    3    0  502 -0.12032367934E+04  0.11120665230E+04 -0.72002341640E+03  0.17896721886E+04  0.46999998093E+01 0.  1.
</event>
<event>
 5   0  0.5677193E-07  0.3534038E+04  0.7818609E-02  0.8105770E-01
        2   -1    0    0  501    0  0.00000000000E+00  0.00000000000E+00  0.21422803437E+04  0.21422803437E+04  0.25500000920E-02 0. -1.
       -2   -1    0    0    0  501  0.00000000000E+00  0.00000000000E+00 -0.14574920304E+04  0.14574920304E+04  0.25500000920E-02 0.  1.
    10030    2    1    2    0    0  0.00000000000E+00  0.00000000000E+00  0.68478831326E+03  0.35997723741E+04  0.35340382159E+04 0.  0.
        3    1    3    3  502    0  0.15439571823E+04  0.35659861693E+03 -0.45406410543E+03  0.16483751321E+04  0.10100000352E+00 0.  1.
       -3    1    3    3    0  502 -0.15439571823E+04 -0.35659861693E+03  0.11388524187E+04  0.19513972420E+04  0.10100000352E+00 0. -1.
</event>
<event>
 5   0  0.5740827E-07  0.3513078E+04  0.7818609E-02  0.8110698E-01
        2   -1    0    0  501    0  0.00000000000E+00  0.00000000000E+00  0.17526474730E+04  0.17526474730E+04  0.25500000920E-02 0.  1.
       -2   -1    0    0    0  501  0.00000000000E+00  0.00000000000E+00 -0.17604394492E+04  0.17604394492E+04  0.25500000920E-02 0. -1.
    10030    2    1    2    0    0  0.00000000000E+00  0.00000000000E+00 -0.77919762330E+01  0.35130869223E+04  0.35130782810E+04 0.  0.
        2    1    3    3  502    0 -0.15811302105E+04 -0.52667790843E+03 -0.55893554143E+03  0.17577745309E+04  0.25500000920E-02 0. -1.
       -2    1    3    3    0  502  0.15811302105E+04  0.52667790843E+03  0.55114356520E+03  0.17553123914E+04  0.25500000920E-02 0.  1.
</event>
<event>
 5   0  0.1908190E-07  0.3624256E+04  0.7818609E-02  0.8084958E-01
       -1   -1    0    0    0  501  0.00000000000E+00  0.00000000000E+00  0.12453793789E+04  0.12453793789E+04  0.50400001928E-02 0. -1.
        1   -1    0    0  501    0  0.00000000000E+00  0.00000000000E+00 -0.26367929054E+04  0.26367929054E+04  0.50400001928E-02 0.  1.
    10030    2    1    2    0    0  0.00000000000E+00  0.00000000000E+00 -0.13914135265E+04  0.38821722843E+04  0.36242557916E+04 0.  0.
        5    1    3    3  502    0 -0.34300623752E+03 -0.13086490035E+04 -0.19871458536E+04  0.24039522097E+04  0.46999998093E+01 0.  1.
       -5    1    3    3    0  502  0.34300623752E+03  0.13086490035E+04  0.59573232710E+03  0.14782200746E+04  0.46999998093E+01 0. -1.
</event>
<event>
 5   0  0.5677193E-07  0.3501756E+04  0.7818609E-02  0.8113374E-01
        2   -1    0    0  501    0  0.00000000000E+00  0.00000000000E+00  0.20578828545E+04  0.20578828545E+04  0.25500000920E-02 0. -1.
       -2   -1    0    0    0  501  0.00000000000E+00  0.00000000000E+00 -0.14896738610E+04  0.14896738610E+04  0.25500000920E-02 0.  1.
    10030    2    1    2    0    0  0.00000000000E+00  0.00000000000E+00  0.56820899356E+03  0.35475567155E+04  0.35017563007E+04 0.  0.
        3    1    3    3  502    0  0.18774399040E+03  0.65605322975E+03 -0.13494118112E+04  0.15121395083E+04  0.10100000352E+00 0.  1.
       -3    1    3    3    0  502 -0.18774399040E+03 -0.65605322975E+03  0.19176208048E+04  0.20354172072E+04  0.10100000352E+00 0. -1.
</event>
<event>
 5   0  0.5707187E-07  0.3488142E+04  0.7818609E-02  0.8116606E-01
        2   -1    0    0  501    0  0.00000000000E+00  0.00000000000E+00  0.26944945122E+04  0.26944945122E+04  0.25500000920E-02 0.  1.
       -2   -1    0    0    0  501  0.00000000000E+00  0.00000000000E+00 -0.11288887213E+04  0.11288887213E+04  0.25500000920E-02 0. -1.
    10030    2    1    2    0    0  0.00000000000E+00  0.00000000000E+00  0.15656057908E+04  0.38233832335E+04  0.34881424653E+04 0.  0.
        1    1    3    3  502    0  0.25128596654E+03 -0.89028460311E+03  0.24034258612E+04  0.25753072014E+04  0.50400001928E-02 0.  1.
       -1    1    3    3    0  502 -0.25128596654E+03  0.89028460311E+03 -0.83782007037E+03  0.12480760321E+04  0.50400001928E-02 0. -1.
</event>
<event>
 5   0  0.5573334E-07  0.3407532E+04  0.7818609E-02  0.8136060E-01
       -2   -1    0    0    0  501  0.00000000000E+00  0.00000000000E+00  0.10697362628E+04  0.10697362628E+04  0.25500000920E-02 0.  1.
        2   -1    0    0  501    0  0.00000000000E+00  0.00000000000E+00 -0.27135836349E+04  0.27135836349E+04  0.25500000920E-02 0. -1.
    10030    2    1    2    0    0  0.00000000000E+00  0.00000000000E+00 -0.16438473721E+04  0.37833198976E+04  0.34075321371E+04 0.  0.
        4    1    3    3  502    0  0.16920167278E+04 -0.15063410742E+03 -0.96756097364E+03  0.19549391530E+04  0.12699999809E+01 0. -1.
       -4    1    3    3    0  502 -0.16920167278E+04  0.15063410742E+03 -0.67628639848E+03  0.18283807446E+04  0.12699999809E+01 0.  1.
</event>
<event>
 5   0  0.5740827E-07  0.3524478E+04  0.7818609E-02  0.8108013E-01
       -2   -1    0    0    0  501  0.00000000000E+00  0.00000000000E+00  0.27496783913E+04  0.27496783913E+04  0.25500000920E-02 0.  1.
        2   -1    0    0  501    0  0.00000000000E+00  0.00000000000E+00 -0.11293997010E+04  0.11293997010E+04  0.25500000920E-02 0. -1.
    10030    2    1    2    0    0  0.00000000000E+00  0.00000000000E+00  0.16202786903E+04  0.38790780924E+04  0.35244778070E+04 0.  0.
        2    1    3    3  502    0 -0.15082911049E+02  0.61042745018E+03 -0.10092460233E+04  0.11795875134E+04  0.25500000920E-02 0. -1.
       -2    1    3    3    0  502  0.15082911049E+02 -0.61042745018E+03  0.26295247136E+04  0.26994905789E+04  0.25500000920E-02 0.  1.
</event>
<event>
 5   0  0.1908190E-07  0.3497629E+04  0.7818609E-02  0.8114352E-01
        1   -1    0    0  501    0  0.00000000000E+00  0.00000000000E+00  0.13427983196E+04  0.13427983196E+04  0.50400001928E-02 0. -1.
       -1   -1    0    0    0  501  0.00000000000E+00  0.00000000000E+00 -0.22775956772E+04  0.22775956772E+04  0.50400001928E-02 0.  1.
    10030    2    1    2    0    0  0.00000000000E+00  0.00000000000E+00 -0.93479735761E+03  0.36203939968E+04  0.34976287099E+04 0.  0.
        5    1    3    3  502    0  0.10523242521E+04 -0.73287381357E+03 -0.16981835246E+04  0.21279895985E+04  0.46999998093E+01 0.  1.
       -5    1    3    3    0  502 -0.10523242521E+04  0.73287381357E+03  0.76338616700E+03  0.14924043983E+04  0.46999998093E+01 0. -1.
</event>
<event>
 5   0  0.5740827E-07  0.3546064E+04  0.7818609E-02  0.8102959E-01
       -2   -1    0    0    0  501  0.00000000000E+00  0.00000000000E+00  0.15783200823E+04  0.15783200823E+04  0.25500000920E-02 0. -1.
        2   -1    0    0  501    0  0.00000000000E+00  0.00000000000E+00 -0.19917652661E+04  0.19917652661E+04  0.25500000920E-02 0.  1.
    10030    2    1    2    0    0  0.00000000000E+00  0.00000000000E+00 -0.41344518386E+03  0.35700853484E+04  0.35460643642E+04 0.  0.
        2    1    3    3  502    0 -0.12921507454E+04 -0.11853663633E+04 -0.47098140289E+03  0.18156460133E+04  0.25500000920E-02 0.  1.
       -2    1    3    3    0  502  0.12921507454E+04  0.11853663633E+04  0.57536219028E+02  0.17544393351E+04  0.25500000920E-02 0. -1.
</event>
<event>
 5   0  0.1908190E-07  0.3535880E+04  0.7818609E-02  0.8105339E-01
        1   -1    0    0  501    0  0.00000000000E+00  0.00000000000E+00  0.17932680534E+04  0.17932680534E+04  0.50400001928E-02 0.  1.
       -1   -1    0    0    0  501  0.00000000000E+00  0.00000000000E+00 -0.17429694865E+04  0.17429694865E+04  0.50400001928E-02 0. -1.
    10030    2    1    2    0    0  0.00000000000E+00  0.00000000000E+00  0.50298566872E+02  0.35362375399E+04  0.35358798046E+04 0.  0.
        5    1    3    3  502    0  0.16284466779E+04 -0.54960095026E+02 -0.66101794724E+03  0.17583588972E+04  0.46999998093E+01 0.  1.
       -5    1    3    3    0  502 -0.16284466779E+04  0.54960095026E+02  0.71131651412E+03  0.17778786427E+04  0.46999998093E+01 0. -1.
</event>
<event>
 5   0  0.1933647E-07  0.3496093E+04  0.7818609E-02  0.8114717E-01
        1   -1    0    0  501    0  0.00000000000E+00  0.00000000000E+00  0.29337875997E+04  0.29337875997E+04  0.50400001928E-02 0.  1.
       -1   -1    0    0    0  501  0.00000000000E+00  0.00000000000E+00 -0.10415430777E+04  0.10415430777E+04  0.50400001928E-02 0. -1.
    10030    2    1    2    0    0  0.00000000000E+00  0.00000000000E+00  0.18922445220E+04  0.39753306774E+04  0.34960927710E+04 0.  0.
        4    1    3    3  502    0  0.98857555306E+03 -0.14323254618E+04  0.75988184142E+03  0.18990155024E+04  0.12699999809E+01 0.  1.
       -4    1    3    3    0  502 -0.98857555306E+03  0.14323254618E+04  0.11323626806E+04  0.20763151750E+04  0.12699999809E+01 0. -1.
</event>
<event>
 5   0  0.1897049E-07  0.3328547E+04  0.7818609E-02  0.8155669E-01
       -1   -1    0    0    0  501  0.00000000000E+00  0.00000000000E+00  0.10611863618E+04  0.10611863618E+04  0.50400001928E-02 0.  1.
        1   -1    0    0  501    0  0.00000000000E+00  0.00000000000E+00 -0.26101042408E+04  0.26101042408E+04  0.50400001928E-02 0. -1.
    10030    2    1    2    0    0  0.00000000000E+00  0.00000000000E+00 -0.15489178790E+04  0.36712906026E+04  0.33285474449E+04 0.  0.
        2    1    3    3  502    0 -0.71992144215E+02  0.14287172242E+04 -0.17125621793E+04  0.22314311537E+04  0.25500000920E-02 0. -1.
       -2    1    3    3    0  502  0.71992144215E+02 -0.14287172242E+04  0.16364430031E+03  0.14398594489E+04  0.25500000920E-02 0.  1.
</event>
<event>
 5   0  0.1933647E-07  0.3487235E+04  0.7818609E-02  0.8116822E-01
        1   -1    0    0  501    0  0.00000000000E+00  0.00000000000E+00  0.11587471172E+04  0.11587471172E+04  0.50400001928E-02 0. -1.
       -1   -1    0    0    0  501  0.00000000000E+00  0.00000000000E+00 -0.26236975681E+04  0.26236975681E+04  0.50400001928E-02 0.  1.
    10030    2    1    2    0    0  0.00000000000E+00  0.00000000000E+00 -0.14649504509E+04  0.37824446853E+04  0.34872350041E+04 0.  0.
        4    1    3    3  502    0  0.15595864860E+04 -0.59396121003E+03 -0.18464374321E+03  0.16790458156E+04  0.12699999809E+01 0. -1.
       -4    1    3    3    0  502 -0.15595864860E+04  0.59396121003E+03 -0.12803067077E+04  0.21033988697E+04  0.12699999809E+01 0.  1.
</event>
<event>
 5   0  0.5707187E-07  0.3490107E+04  0.7818609E-02  0.8116138E-01
       -2   -1    0    0    0  501  0.00000000000E+00  0.00000000000E+00  0.15286508974E+04  0.15286508974E+04  0.25500000920E-02 0.  1.
        2   -1    0    0  501    0  0.00000000000E+00  0.00000000000E+00 -0.19920911285E+04  0.19920911285E+04  0.25500000920E-02 0. -1.
    10030    2    1    2    0    0  0.00000000000E+00  0.00000000000E+00 -0.46344023112E+03  0.35207420258E+04  0.34901070993E+04 0.  0.
        1    1    3    3  502    0  0.11227990738E+03  0.11407027944E+04  0.10956573446E+04  0.15856464485E+04  0.50400001928E-02 0.  1.
       -1    1    3    3    0  502 -0.11227990738E+03 -0.11407027944E+04 -0.15590975757E+04  0.19350955773E+04  0.50400001928E-02 0. -1.
</event>
<event>
 5   0  0.5573334E-07  0.3445884E+04  0.7818609E-02  0.8126736E-01
       -2   -1    0    0    0  501  0.00000000000E+00  0.00000000000E+00  0.11786091099E+04  0.11786091099E+04  0.25500000920E-02 0. -1.
        2   -1    0    0  501    0  0.00000000000E+00  0.00000000000E+00 -0.25186714815E+04  0.25186714815E+04  0.25500000920E-02 0.  1.
    10030    2    1    2    0    0  0.00000000000E+00  0.00000000000E+00 -0.13400623715E+04  0.36972805914E+04  0.34458840103E+04 0.  0.
        4    1    3    3  502    0 -0.31559922345E+03 -0.11212853323E+04 -0.20321540941E+04  0.23423354886E+04  0.12699999809E+01 0.  1.
       -4    1    3    3    0  502  0.31559922345E+03  0.11212853323E+04  0.69209172256E+03  0.13549451028E+04  0.12699999809E+01 0. -1.
</event>
<event>
 5   0  0.1873457E-07  0.3417192E+04  0.7818609E-02  0.8133700E-01
       -1   -1    0    0    0  501  0.00000000000E+00  0.00000000000E+00  0.17840149005E+04  0.17840149005E+04  0.50400001928E-02 0.  1.
        1   -1    0    0  501    0  0.00000000000E+00  0.00000000000E+00 -0.16363653473E+04  0.16363653473E+04  0.50400001928E-02 0. -1.
    10030    2    1    2    0    0  0.00000000000E+00  0.00000000000E+00  0.14764955322E+03  0.34203802478E+04  0.34171919245E+04 0.  0.
        3    1    3    3  502    0  0.29293829803E+03 -0.10914194582E+04  0.13565394356E+04  0.17655618173E+04  0.10100000352E+00 0.  1.
       -3    1    3    3    0  502 -0.29293829803E+03  0.10914194582E+04 -0.12088898824E+04  0.16548184305E+04  0.10100000352E+00 0. -1.
</event>
<event>
 5   0  0.5677193E-07  0.3507965E+04  0.7818609E-02  0.8111905E-01
       -2   -1    0    0    0  501  0.00000000000E+00  0.00000000000E+00  0.15408223410E+04  0.15408223410E+04  0.25500000920E-02 0.  1.
        2   -1    0    0  501    0  0.00000000000E+00  0.00000000000E+00 -0.19966318166E+04  0.19966318166E+04  0.25500000920E-02 0. -1.
    10030    2    1    2    0    0  0.00000000000E+00  0.00000000000E+00 -0.45580947563E+03  0.35374541576E+04  0.35079651707E+04 0.  0.
        3    1    3    3  502    0 -0.34357036140E+03  0.17089076289E+04 -0.42460606823E+03  0.17940725183E+04  0.10100000352E+00 0. -1.
       -3    1    3    3    0  502  0.34357036140E+03 -0.17089076289E+04 -0.31203407400E+02  0.17433816393E+04  0.10100000352E+00 0.  1.
</event>
<event>
 5   0  0.1873457E-07  0.3455937E+04  0.7818609E-02  0.8124312E-01
        1   -1    0    0  501    0  0.00000000000E+00  0.00000000000E+00  0.19708842324E+04  0.19708842324E+04  0.50400001928E-02 0.  1.
       -1   -1    0    0    0  501  0.00000000000E+00  0.00000000000E+00 -0.15149928407E+04  0.15149928407E+04  0.50400001928E-02 0. -1.
    10030    2    1    2    0    0  0.00000000000E+00  0.00000000000E+00  0.45589139165E+03  0.34858770731E+04  0.34559372112E+04 0.  0.
        3    1    3    3  502    0  0.10524909489E+04  0.97402203687E+03 -0.74447027553E+03  0.16157636359E+04  0.10100000352E+00 0. -1.
       -3    1    3    3    0  502 -0.10524909489E+04 -0.97402203687E+03  0.12003616672E+04  0.18701134372E+04  0.10100000352E+00 0.  1.
</event>
<event>
 5   0  0.1897049E-07  0.3535968E+04  0.7818609E-02  0.8105318E-01
        1   -1    0    0  501    0  0.00000000000E+00  0.00000000000E+00  0.18942523640E+04  0.18942523641E+04  0.50400001928E-02 0.  1.
       -1   -1    0    0    0  501  0.00000000000E+00  0.00000000000E+00 -0.16501329402E+04  0.16501329402E+04  0.50400001928E-02 0. -1.
    10030    2    1    2    0    0  0.00000000000E+00  0.00000000000E+00  0.24411942385E+03  0.35443853043E+04  0.35359684518E+04 0.  0.
        2    1    3    3  502    0  0.12447661350E+04 -0.12007103808E+04 -0.24571973687E+03  0.17468618544E+04  0.25500000920E-02 0. -1.
       -2    1    3    3    0  502 -0.12447661350E+04  0.12007103808E+04  0.48983916072E+03  0.17975234498E+04  0.25500000920E-02 0.  1.
</event>
<event>
 5   0  0.5740827E-07  0.3497575E+04  0.7818609E-02  0.8114365E-01
        2   -1    0    0  501    0  0.00000000000E+00  0.00000000000E+00  0.16945469491E+04  0.16945469491E+04  0.25500000920E-02 0. -1.
       -2   -1    0    0    0  501  0.00000000000E+00  0.00000000000E+00 -0.18047645275E+04  0.18047645275E+04  0.25500000920E-02 0.  1.
    10030    2    1    2    0    0  0.00000000000E+00  0.00000000000E+00 -0.11021757837E+03  0.34993114766E+04  0.34975752881E+04 0.  0.
        2    1    3    3  502    0 -0.10771005492E+04 -0.13777146028E+04 -0.51220448733E+02  0.17495332675E+04  0.25500000920E-02 0.  1.
       -2    1    3    3    0  502  0.10771005492E+04  0.13777146028E+04 -0.58997129635E+02  0.17497782091E+04  0.25500000920E-02 0. -1.
</event>
<event>
 5   0  0.1823000E-07  0.3483306E+04  0.7818609E-02  0.8117758E-01
        3   -1    0    0  501    0  0.00000000000E+00  0.00000000000E+00  0.20416835974E+04  0.20416835999E+04  0.10100000352E+00 0.  1.
       -3   -1    0    0    0  501  0.00000000000E+00  0.00000000000E+00 -0.14857130570E+04  0.14857130605E+04  0.10100000352E+00 0. -1.
    10030    2    1    2    0    0  0.00000000000E+00  0.00000000000E+00  0.55597054034E+03  0.35273966603E+04  0.34833064691E+04 0.  0.
        1    1    3    3  502    0  0.30255230080E+03  0.65541096808E+03 -0.13270864185E+04  0.15107149943E+04  0.50400001928E-02 0. -1.
       -1    1    3    3    0  502 -0.30255230080E+03 -0.65541096808E+03  0.18830569588E+04  0.20166816660E+04  0.50400001928E-02 0.  1.
</event>
<event>
 5   0  0.1866421E-07  0.3416971E+04  0.7818609E-02  0.8133754E-01
       -1   -1    0    0    0  501  0.00000000000E+00  0.00000000000E+00  0.27020509184E+04  0.27020509184E+04  0.50400001928E-02 0.  1.
        1   -1    0    0  501    0  0.00000000000E+00  0.00000000000E+00 -0.10802621566E+04  0.10802621566E+04  0.50400001928E-02 0. -1.
    10030    2    1    2    0    0  0.00000000000E+00  0.00000000000E+00  0.16217887618E+04  0.37823130750E+04  0.34169713797E+04 0.  0.
        1    1    3    3  502    0 -0.91434025836E+03  0.14431740323E+04  0.79715978903E+03  0.18852673881E+04  0.50400001928E-02 0. -1.
       -1    1    3    3    0  502  0.91434025836E+03 -0.14431740323E+04  0.82462897277E+03  0.18970456869E+04  0.50400001928E-02 0.  1.
</event>
<event>
 5   0  0.5573334E-07  0.3482029E+04  0.7818609E-02  0.8118062E-01
        2   -1    0    0  501    0  0.00000000000E+00  0.00000000000E+00  0.23009334747E+04  0.23009334747E+04  0.25500000920E-02 0.  1.
       -2   -1    0    0    0  501  0.00000000000E+00  0.00000000000E+00 -0.13173482394E+04  0.13173482394E+04  0.25500000920E-02 0. -1.
    10030    2    1    2    0    0  0.00000000000E+00  0.00000000000E+00  0.98358523528E+03  0.36182817141E+04  0.34820285248E+04 0.  0.
        4    1    3    3  502    0  0.19940729860E+03 -0.23257561431E+03  0.22727040020E+04  0.22932596409E+04  0.12699999809E+01 0.  1.
       -4    1    3    3    0  502 -0.19940729860E+03  0.23257561431E+03 -0.12891187667E+04  0.13250220732E+04  0.12699999809E+01 0. -1.
</event>
<event>
 5   0  0.1866421E-07  0.3490094E+04  0.7818609E-02  0.8116141E-01
       -1   -1    0    0    0  501  0.00000000000E+00  0.00000000000E+00  0.85371886370E+03  0.85371886371E+03  0.50400001928E-02 0. -1.
        1   -1    0    0  501    0  0.00000000000E+00  0.00000000000E+00 -0.35669699211E+04  0.35669699211E+04  0.50400001928E-02 0.  1.
    10030    2    1    2    0    0  0.00000000000E+00  0.00000000000E+00 -0.27132510574E+04  0.44206887848E+04  0.34900942726E+04 0.  0.
        1    1    3    3  502    0 -0.16533319498E+04 -0.26732163102E+03 -0.73581470672E+03  0.18293142631E+04  0.50400001928E-02 0. -1.
       -1    1    3    3    0  502  0.16533319498E+04  0.26732163102E+03 -0.19774363507E+04  0.25913745217E+04  0.50400001928E-02 0.  1.
</event>
<event>
 5   0  0.5573334E-07  0.3459916E+04  0.7818609E-02  0.8123355E-01
        2   -1    0    0  501    0  0.00000000000E+00  0.00000000000E+00  0.23405006536E+04  0.23405006536E+04  0.25500000920E-02 0.  1.
       -2   -1    0    0    0  501  0.00000000000E+00  0.00000000000E+00 -0.12786817322E+04  0.12786817322E+04  0.25500000920E-02 0. -1.
    10030    2    1    2    0    0  0.00000000000E+00  0.00000000000E+00  0.10618189213E+04  0.36191823858E+04  0.34599164325E+04 0.  0.
        4    1    3    3  502    0  0.36140377918E+03  0.16900503413E+04  0.61105876793E+03  0.18331059103E+04  0.12699999809E+01 0. -1.
       -4    1    3    3    0  502 -0.36140377918E+03 -0.16900503413E+04  0.45076015342E+03  0.17860764755E+04  0.12699999809E+01 0.  1.
</event>
<event>
 5   0  0.5554745E-07  0.3524357E+04  0.7818609E-02  0.8108042E-01
       -2   -1    0    0    0  501  0.00000000000E+00  0.00000000000E+00  0.19162812166E+04  0.19162812166E+04  0.25500000920E-02 0. -1.
        2   -1    0    0  501    0  0.00000000000E+00  0.00000000000E+00 -0.16204684967E+04  0.16204684967E+04  0.25500000920E-02 0.  1.
    10030    2    1    2    0    0  0.00000000000E+00  0.00000000000E+00  0.29581271994E+03  0.35367497133E+04  0.35243571569E+04 0.  0.
        5    1    3    3  502    0  0.55521892354E+03 -0.43812841354E+03  0.17675911454E+04  0.19038448222E+04  0.46999998093E+01 0. -1.
       -5    1    3    3    0  502 -0.55521892354E+03  0.43812841354E+03 -0.14717784254E+04  0.16329048911E+04  0.46999998093E+01 0.  1.
</event>
<event>
 5   0  0.1933647E-07  0.3496207E+04  0.7818609E-02  0.8114689E-01
        1   -1    0    0  501    0  0.00000000000E+00  0.00000000000E+00  0.10985878197E+04  0.10985878197E+04  0.50400001928E-02 0. -1.
       -1   -1    0    0    0  501  0.00000000000E+00  0.00000000000E+00 -0.27816304191E+04  0.27816304191E+04  0.50400001928E-02 0.  1.
    10030    2    1    2    0    0  0.00000000000E+00  0.00000000000E+00 -0.16830425994E+04  0.38802182389E+04  0.34962066858E+04 0.  0.
        4    1    3    3  502    0 -0.71217761165E+03 -0.91389399941E+03  0.61124784808E+03  0.13099712735E+04  0.12699999809E+01 0. -1.
       -4    1    3    3    0  502  0.71217761165E+03  0.91389399941E+03 -0.22942904475E+04  0.25702469654E+04  0.12699999809E+01 0.  1.
</event>
<event>
 5   0  0.5554745E-07  0.3434993E+04  0.7818609E-02  0.8129371E-01
       -2   -1    0    0    0  501  0.00000000000E+00  0.00000000000E+00  0.14897313913E+04  0.14897313913E+04  0.25500000920E-02 0.  1.
        2   -1    0    0  501    0  0.00000000000E+00  0.00000000000E+00 -0.19800847988E+04  0.19800847988E+04  0.25500000920E-02 0. -1.
    10030    2    1    2    0    0  0.00000000000E+00  0.00000000000E+00 -0.49035340745E+03  0.34698161901E+04  0.34349931483E+04 0.  0.
        5    1    3    3  502    0  0.11026168572E+04  0.54704288872E+03 -0.14551313583E+04  0.19058985323E+04  0.46999998093E+01 0. -1.
       -5    1    3    3    0  502 -0.11026168572E+04 -0.54704288872E+03  0.96477795081E+03  0.15639176577E+04  0.46999998093E+01 0.  1.
</event>
<event>
 5   0  0.1897049E-07  0.3499099E+04  0.7818609E-02  0.8114004E-01
        1   -1    0    0  501    0  0.00000000000E+00  0.00000000000E+00  0.19135954368E+04  0.19135954368E+04  0.50400001928E-02 0.  1.
       -1   -1    0    0    0  501  0.00000000000E+00  0.00000000000E+00 -0.15995666207E+04  0.15995666207E+04  0.50400001928E-02 0. -1.
    10030    2    1    2    0    0  0.00000000000E+00  0.00000000000E+00  0.31402881610E+03  0.35131620574E+04  0.34990989618E+04 0.  0.
        2    1    3    3  502    0  0.19541930085E+03 -0.10764777913E+04  0.15277597739E+04  0.18791069861E+04  0.25500000920E-02 0.  1.
       -2    1    3    3    0  502 -0.19541930085E+03  0.10764777913E+04 -0.12137309578E+04  0.16340550714E+04  0.25500000920E-02 0. -1.
</event>
<event>
 5   0  0.5740827E-07  0.3561850E+04  0.7818609E-02  0.8099287E-01
       -2   -1    0    0    0  501  0.00000000000E+00  0.00000000000E+00  0.23111123068E+04  0.23111123068E+04  0.25500000920E-02 0. -1.
        2   -1    0    0  501    0  0.00000000000E+00  0.00000000000E+00 -0.13723669106E+04  0.13723669106E+04  0.25500000920E-02 0.  1.
    10030    2    1    2    0    0  0.00000000000E+00  0.00000000000E+00  0.93874539617E+03  0.36834792174E+04  0.35618501128E+04 0.  0.
        2    1    3    3  502    0  0.21703693397E+03 -0.16807324951E+04  0.10355412452E+04  0.19860293103E+04  0.25500000920E-02 0.  1.
       -2    1    3    3    0  502 -0.21703693397E+03  0.16807324951E+04 -0.96795849026E+02  0.16974499071E+04  0.25500000920E-02 0. -1.
</event>
<event>
 5   0  0.1908190E-07  0.3520691E+04  0.7818609E-02  0.8108904E-01
        1   -1    0    0  501    0  0.00000000000E+00  0.00000000000E+00  0.19779501685E+04  0.19779501685E+04  0.50400001928E-02 0. -1.
       -1   -1    0    0    0  501  0.00000000000E+00  0.00000000000E+00 -0.15666805406E+04  0.15666805406E+04  0.50400001928E-02 0.  1.
    10030    2    1    2    0    0  0.00000000000E+00  0.00000000000E+00  0.41126962782E+03  0.35446307091E+04  0.35206908636E+04 0.  0.
        5    1    3    3  502    0  0.10098249911E+04 -0.14154408421E+04  0.48241258076E+03  0.18044287956E+04  0.46999998093E+01 0.  1.
       -5    1    3    3    0  502 -0.10098249911E+04  0.14154408421E+04 -0.71142952938E+02  0.17402019136E+04  0.46999998093E+01 0. -1.
</event>
</LesHouchesEvents>
